                         Program Version 5.0.4 -  RELEASE  -
|  1> ! Opt PBEh-3c pal8
|  2> %geom Constraints
|  3> { B 0 20 2.3857142857 C }
|  4> { B 24 30 1.442857142 C }
|  5>     end
|  6>  trust -0.1
|  7> end
|  8> %output
|  9> xyzfile=True
| 10> end
| 11> %scf
| 12> maxiter 250
| 13> end
| 14> %output
| 15> Print[P_Hirshfeld] = 1
| 16> end
| 17> % maxcore
| 18> 4000
| 19> *xyz 1 1
| 20> Ir   0.59851283  -0.71595280   0.44521686
| 21> C    0.04864922  -2.80206733   0.34444207
| 22> C    0.11464086  -2.34839713   1.71122893
| 23> C    2.20921656  -2.12362819   0.77781372
| 24> C    1.31931809  -2.64093042  -0.23721764
| 25> C    1.47612542  -1.98021311   1.96994308
| 26> N   -1.04646699   0.16661748  -0.52324360
| 27> C   -2.31514699   0.48689848   0.14906226
| 28> C   -3.12194308   1.56461763  -0.55715207
| 29> H   -3.94940224   1.86244366   0.08540846
| 30> H   -3.56495660   1.22092424  -1.49328275
| 31> H   -2.52777662   2.45735787  -0.75461480
| 32> C   -3.12608233  -0.78882787   0.34182542
| 33> H   -2.02036810   0.86357271   1.12980475
| 34> H   -4.03713692  -0.56217799   0.89354330
| 35> H   -3.41589360  -1.22286118  -0.61600052
| 36> H   -2.58041833  -1.53877746   0.91268862
| 37> C   -0.85382120   0.37779259  -1.76766693
| 38> C    0.49470154   0.15652162  -2.23989882
| 39> H   -1.63771631   0.73902320  -2.42698751
| 40> C    1.59103752   0.45503683  -1.43670695
| 41> C    2.79892813   0.04937664  -2.07576871
| 42> S    0.92981197  -0.56633179  -3.72000793
| 43> C    2.59412669  -0.50931397  -3.29782724
| 44> H    1.52851039   1.35150840  -0.66852939
| 45> H    3.78239307   0.21767882  -1.66158195
| 46> H    3.33400288  -0.87198152  -3.99528249
| 47> H   -0.83444206  -3.16911143  -0.15860974
| 48> H   -0.68195604  -2.38023081   2.43980338
| 49> H    1.85199144  -1.58000033   2.90064859
| 50> O    1.31991000   2.46355714   0.24967472
| 51> O    0.53414093   0.91974698   1.65433568
| 52> C    0.91163913   2.11783817   1.35601664
| 53> C    0.85304586   3.09359892   2.49800775
| 54> H    0.81365563   4.11496420   2.12940868
| 55> H    1.75738126   2.99053422   3.10095469
| 56> H    0.00567257   2.89975734   3.15234971
| 57> H    3.25669900  -1.89697921   0.64626708
| 58> H    1.58878644  -2.87239460  -1.25732535
| 59> *
| 60>
| 61>                          ****END OF INPUT****
 Total Charge           Charge          ....    1
 Multiplicity           Mult            ....    1
 Number of Electrons    NEL             ....  164
Dispersion correction           -0.031037352
FINAL SINGLE POINT ENERGY     -1288.399281610353
Dispersion correction            ... done
Dispersion correction           -0.031058542
FINAL SINGLE POINT ENERGY     -1288.398931251410
Dispersion correction            ... done
Dispersion correction           -0.030980231
FINAL SINGLE POINT ENERGY     -1288.399434465015
Dispersion correction            ... done
FINAL SINGLE POINT ENERGY     -1288.399309798464
FINAL SINGLE POINT ENERGY     -1288.399494542854
FINAL SINGLE POINT ENERGY     -1288.399490682072
FINAL SINGLE POINT ENERGY     -1288.399520195552
FINAL SINGLE POINT ENERGY     -1288.399526676833
Dispersion correction            ... done
Dispersion correction           -0.030908724
FINAL SINGLE POINT ENERGY     -1288.399533959582
Dispersion correction            ... done
Dispersion correction           -0.030898495
FINAL SINGLE POINT ENERGY     -1288.399536764368
Dispersion correction            ... done
                    ***********************HURRAY********************

CARTESIAN COORDINATES (ANGSTROEM)
---------------------------------
  Ir     0.601616   -0.714880    0.446581
  C      0.053083   -2.803538    0.353518
  C      0.102417   -2.347008    1.718984
  C      2.208122   -2.120837    0.808042
  C      1.330608   -2.643648   -0.214570
  C      1.458865   -1.972889    1.990491
  N     -1.046820    0.159354   -0.523428
  C     -2.316689    0.467763    0.152521
  C     -3.118500    1.563995   -0.530950
  H     -3.945596    1.851236    0.116883
  H     -3.561720    1.242322   -1.474699
  H     -2.520125    2.458016   -0.708631
  C     -3.132051   -0.809790    0.313207
  H     -2.024306    0.820808    1.142664
  H     -4.044117   -0.593819    0.867600
  H     -3.420108   -1.220527   -0.655349
  H     -2.589528   -1.574397    0.867240
  C     -0.861070    0.378995   -1.768379
  C      0.484153    0.168204   -2.248467
  H     -1.650747    0.740484   -2.420474
  C      1.575315    0.409709   -1.418584
  C      2.784794    0.024245   -2.067120
  S      0.925077   -0.481781   -3.758421
  C      2.585296   -0.466613   -3.319300
  H      1.527658    1.322894   -0.649605
  H      3.766452    0.159256   -1.636757
  H      3.327699   -0.800108   -4.028534
  H     -0.823077   -3.174287   -0.158846
  H     -0.702599   -2.377464    2.438146
  H      1.823053   -1.567946    2.923814
  O      1.356231    2.449634    0.235214
  O      0.531959    0.932495    1.645460
  C      0.930671    2.119814    1.342073
  C      0.873738    3.110936    2.470253
  H      0.846535    4.127991    2.088881
  H      1.773274    3.006675    3.080127
  H      0.020201    2.932599    3.120851
  H      3.257869   -1.897459    0.690349
  H      1.611736   -2.881244   -1.230045

 Multiplicity           Mult            ....    1
 Number of Electrons    NEL             ....  164
 Basis Dimension        Dim             ....  358

ORBITAL ENERGIES
----------------

  NO   OCC          E(Eh)            E(eV)
   0   2.0000     -89.764868     -2442.6262
   1   2.0000     -19.622591      -533.9579
   2   2.0000     -19.589056      -533.0453
   3   2.0000     -14.840825      -403.8394
   4   2.0000     -10.679997      -290.6175
   5   2.0000     -10.661815      -290.1227
   6   2.0000     -10.635711      -289.4124
   7   2.0000     -10.633888      -289.3628
   8   2.0000     -10.632668      -289.3296
   9   2.0000     -10.630144      -289.2609
  10   2.0000     -10.629283      -289.2375
  11   2.0000     -10.628723      -289.2223
  12   2.0000     -10.615650      -288.8665
  13   2.0000     -10.611258      -288.7470
  14   2.0000     -10.586824      -288.0821
  15   2.0000     -10.584452      -288.0176
  16   2.0000     -10.556795      -287.2650
  17   2.0000     -10.551884      -287.1314
  18   2.0000     -10.532665      -286.6084
  19   2.0000      -8.404232      -228.6908
  20   2.0000      -6.294234      -171.2748
  21   2.0000      -6.290593      -171.1757
  22   2.0000      -6.289071      -171.1343
  23   2.0000      -4.028243      -109.6141
  24   2.0000      -2.347043       -63.8663
  25   2.0000      -2.313187       -62.9450
  26   2.0000      -2.311797       -62.9072
  27   2.0000      -1.304895       -35.5080
  28   2.0000      -1.213553       -33.0225
  29   2.0000      -1.207683       -32.8627
  30   2.0000      -1.171530       -31.8790
  31   2.0000      -1.128697       -30.7134
  32   2.0000      -1.027373       -27.9562
  33   2.0000      -0.985945       -26.8289
  34   2.0000      -0.976705       -26.5775
  35   2.0000      -0.967844       -26.3364
  36   2.0000      -0.961183       -26.1551
  37   2.0000      -0.926428       -25.2094
  38   2.0000      -0.903116       -24.5750
  39   2.0000      -0.874702       -23.8019
  40   2.0000      -0.799048       -21.7432
  41   2.0000      -0.787507       -21.4292
  42   2.0000      -0.786353       -21.3978
  43   2.0000      -0.782296       -21.2874
  44   2.0000      -0.771446       -20.9921
  45   2.0000      -0.755319       -20.5533
  46   2.0000      -0.743918       -20.2430
  47   2.0000      -0.723418       -19.6852
  48   2.0000      -0.693321       -18.8662
  49   2.0000      -0.674078       -18.3426
  50   2.0000      -0.665426       -18.1072
  51   2.0000      -0.650652       -17.7051
  52   2.0000      -0.647233       -17.6121
  53   2.0000      -0.639301       -17.3963
  54   2.0000      -0.635950       -17.3051
  55   2.0000      -0.628981       -17.1154
  56   2.0000      -0.623261       -16.9598
  57   2.0000      -0.612564       -16.6687
  58   2.0000      -0.607229       -16.5235
  59   2.0000      -0.606509       -16.5040
  60   2.0000      -0.598878       -16.2963
  61   2.0000      -0.590063       -16.0564
  62   2.0000      -0.579628       -15.7725
  63   2.0000      -0.572231       -15.5712
  64   2.0000      -0.564133       -15.3509
  65   2.0000      -0.555300       -15.1105
  66   2.0000      -0.552269       -15.0280
  67   2.0000      -0.548469       -14.9246
  68   2.0000      -0.539488       -14.6802
  69   2.0000      -0.536156       -14.5896
  70   2.0000      -0.528043       -14.3688
  71   2.0000      -0.520254       -14.1568
  72   2.0000      -0.515769       -14.0348
  73   2.0000      -0.504102       -13.7173
  74   2.0000      -0.488284       -13.2869
  75   2.0000      -0.481331       -13.0977
  76   2.0000      -0.469282       -12.7698
  77   2.0000      -0.447515       -12.1775
  78   2.0000      -0.441790       -12.0217
  79   2.0000      -0.423967       -11.5367
  80   2.0000      -0.417068       -11.3490
  81   2.0000      -0.402636       -10.9563
  82   0.0000      -0.202942        -5.5223
  83   0.0000      -0.159383        -4.3370
  84   0.0000      -0.141629        -3.8539
  85   0.0000      -0.098319        -2.6754
  86   0.0000      -0.076669        -2.0863

MULLIKEN ATOMIC CHARGES
-----------------------
   0 Ir:    0.611442
   1 C :   -0.210659
   2 C :   -0.286550
   3 C :   -0.237768
   4 C :   -0.246396
   5 C :   -0.164766
   6 N :   -0.425600
   7 C :   -0.121467
   8 C :   -0.691690
   9 H :    0.272175
  10 H :    0.225089
  11 H :    0.260711
  12 C :   -0.637650
  13 H :    0.282652
  14 H :    0.264117
  15 H :    0.230777
  16 H :    0.232606
  17 C :    0.070982
  18 C :   -0.179406
  19 H :    0.291615
  20 C :   -0.470364
  21 C :   -0.123701
  22 S :    0.310191
  23 C :   -0.432323
  24 H :    0.498236
  25 H :    0.267450
  26 H :    0.298204
  27 H :    0.290754
  28 H :    0.291461
  29 H :    0.305664
  30 O :   -0.478564
  31 O :   -0.539276
  32 C :    0.614831
  33 C :   -0.744996
  34 H :    0.269034
  35 H :    0.265532
  36 H :    0.252451
  37 H :    0.291631
  38 H :    0.293569
Sum of atomic charges:    1.0000000

LOEWDIN ATOMIC CHARGES
----------------------
   0 Ir:   -0.229606
   1 C :   -0.039980
   2 C :   -0.067824
   3 C :   -0.056306
   4 C :   -0.057266
   5 C :   -0.022742
   6 N :   -0.002841
   7 C :   -0.069237
   8 C :   -0.364258
   9 H :    0.157389
  10 H :    0.133407
  11 H :    0.146876
  12 C :   -0.343445
  13 H :    0.157027
  14 H :    0.152971
  15 H :    0.137171
  16 H :    0.133965
  17 C :    0.034137
  18 C :   -0.178895
  19 H :    0.162988
  20 C :   -0.196265
  21 C :   -0.132609
  22 S :    0.475982
  23 C :   -0.263359
  24 H :    0.294526
  25 H :    0.162975
  26 H :    0.168459
  27 H :    0.184759
  28 H :    0.185262
  29 H :    0.193103
  30 O :   -0.275483
  31 O :   -0.207509
  32 C :    0.152406
  33 C :   -0.376166
  34 H :    0.159373
  35 H :    0.166601
  36 H :    0.152943
  37 H :    0.186101
  38 H :    0.185367

  Mayer bond orders larger than 0.100000
B(  0-Ir,  1-C ) :   0.4181 B(  0-Ir,  2-C ) :   0.5165 B(  0-Ir,  3-C ) :   0.4614
B(  0-Ir,  4-C ) :   0.4490 B(  0-Ir,  5-C ) :   0.4010 B(  0-Ir,  6-N ) :   0.4621
B(  0-Ir, 20-C ) :   0.2803 B(  0-Ir, 31-O ) :   0.5791 B(  1-C ,  2-C ) :   1.1214
B(  1-C ,  4-C ) :   1.2445 B(  1-C , 27-H ) :   0.9036 B(  2-C ,  5-C ) :   1.1403
B(  2-C , 28-H ) :   0.9080 B(  3-C ,  4-C ) :   1.1071 B(  3-C ,  5-C ) :   1.2295
B(  3-C , 37-H ) :   0.9056 B(  4-C , 38-H ) :   0.9000 B(  5-C , 29-H ) :   0.8981
B(  6-N ,  7-C ) :   0.8919 B(  6-N , 17-C ) :   1.6879 B(  7-C ,  8-C ) :   0.9917
B(  7-C , 12-C ) :   0.9685 B(  7-C , 13-H ) :   0.8717 B(  8-C ,  9-H ) :   0.9036
B(  8-C , 10-H ) :   0.9127 B(  8-C , 11-H ) :   0.9083 B( 12-C , 14-H ) :   0.9065
B( 12-C , 15-H ) :   0.9155 B( 12-C , 16-H ) :   0.9116 B( 17-C , 18-C ) :   1.0596
B( 17-C , 19-H ) :   0.8743 B( 18-C , 20-C ) :   1.2811 B( 18-C , 22-S ) :   1.2379
B( 20-C , 21-C ) :   1.2594 B( 20-C , 24-H ) :   0.4688 B( 21-C , 23-C ) :   1.5511
B( 21-C , 25-H ) :   0.9038 B( 22-S , 23-C ) :   1.2017 B( 23-C , 26-H ) :   0.8918
B( 24-H , 30-O ) :   0.2460 B( 30-O , 32-C ) :   1.6927 B( 31-O , 32-C ) :   1.2778
B( 32-C , 33-C ) :   0.9458 B( 33-C , 34-H ) :   0.9053 B( 33-C , 35-H ) :   0.8992
B( 33-C , 36-H ) :   0.9097

Dispersion correction           -0.030899565
FINAL SINGLE POINT ENERGY     -1288.399538019789

DIPOLE MOMENT
-------------
                                X             Y             Z
Electronic contribution:     36.44119     -67.57890      72.33572
Nuclear contribution   :    -37.06811      66.38377     -72.68102
                        -----------------------------------------
Total Dipole Moment    :     -0.62692      -1.19513      -0.34529
                        -----------------------------------------
Magnitude (a.u.)       :      1.39305
Magnitude (Debye)      :      3.54085

Rotational constants in cm-1:     0.010691     0.009110     0.008253
Rotational constants in MHz :   320.516033   273.125432   247.426099

                             ****ORCA TERMINATED NORMALLY****
TOTAL RUN TIME: 0 days 0 hours 13 minutes 35 seconds 443 msec
