                         Program Version 5.0.3 -  RELEASE  -
|  1> ! EnGrad PBEh-3c
|  2> %output
|  3> xyzfile=True
|  4> end
|  5> %scf
|  6> maxiter 250
|  7> end
|  8> %output
|  9> Print[P_Hirshfeld] = 1
| 10> end
| 11> % maxcore
| 12> 4000
| 13> *xyz 0 1
| 14> C   -1.85783383   0.15201175  -0.17292283
| 15> C   -1.62802803  -0.63915682  -1.28455317
| 16> C   -0.89905444  -1.80761936  -1.16257456
| 17> C   -0.35570471  -2.15713379   0.05980577
| 18> C   -1.36344048  -0.24404560   1.05449859
| 19> C   -0.55925502  -1.35933292   1.17129682
| 20> H   -2.46870381   1.03528823  -0.30801934
| 21> H   -2.06433221  -0.38331055  -2.23951069
| 22> H   -0.78254270  -2.46175646  -2.01359890
| 23> H   -0.09950674  -1.65372110   2.10602890
| 24> H    0.21034181  -3.07337279   0.14575593
| 25> Pd   1.40880041   1.21408666   0.01518787
| 26> O    2.39450723   0.71964140  -1.69690409
| 27> O    2.61624818  -0.43509109   0.10902865
| 28> O    0.31834288   2.92446220  -0.06209244
| 29> C    0.16077967   2.99186046   1.17587950
| 30> O    0.71238094   2.11222911   1.89708079
| 31> H   -1.72874118   0.53307957   2.29934422
| 32> C    2.87887002  -0.27773514  -1.10838800
| 33> H    3.57063923  -0.96190401  -1.61407914
| 34> H   -0.46376520   3.77151024   1.62874013
| 35> *
| 36>
| 37>                          ****END OF INPUT****

CARTESIAN COORDINATES (ANGSTROEM)
---------------------------------
  C     -1.857834    0.152012   -0.172923
  C     -1.628028   -0.639157   -1.284553
  C     -0.899054   -1.807619   -1.162575
  C     -0.355705   -2.157134    0.059806
  C     -1.363440   -0.244046    1.054499
  C     -0.559255   -1.359333    1.171297
  H     -2.468704    1.035288   -0.308019
  H     -2.064332   -0.383311   -2.239511
  H     -0.782543   -2.461756   -2.013599
  H     -0.099507   -1.653721    2.106029
  H      0.210342   -3.073373    0.145756
  Pd     1.408800    1.214087    0.015188
  O      2.394507    0.719641   -1.696904
  O      2.616248   -0.435091    0.109029
  O      0.318343    2.924462   -0.062092
  C      0.160780    2.991860    1.175879
  O      0.712381    2.112229    1.897081
  H     -1.728741    0.533080    2.299344
  C      2.878870   -0.277735   -1.108388
  H      3.570639   -0.961904   -1.614079
  H     -0.463765    3.771510    1.628740

 Total Charge           Charge          ....    0
 Multiplicity           Mult            ....    1
 Number of Electrons    NEL             ....  106
 Basis Dimension        Dim             ....  227

ORBITAL ENERGIES
----------------

  NO   OCC          E(Eh)            E(eV)
   0   2.0000     -19.540681      -531.7290
   1   2.0000     -19.539354      -531.6928
   2   2.0000     -19.531962      -531.4917
   3   2.0000     -19.518672      -531.1301
   4   2.0000     -10.598791      -288.4078
   5   2.0000     -10.587166      -288.0914
   6   2.0000     -10.488529      -285.4074
   7   2.0000     -10.456126      -284.5256
   8   2.0000     -10.454604      -284.4842
   9   2.0000     -10.453726      -284.4603
  10   2.0000     -10.453129      -284.4441
  11   2.0000     -10.451379      -284.3965
  12   2.0000      -3.695829      -100.5686
  13   2.0000      -2.348658       -63.9102
  14   2.0000      -2.337540       -63.6077
  15   2.0000      -2.302651       -62.6583
  16   2.0000      -1.245730       -33.8980
  17   2.0000      -1.227423       -33.3999
  18   2.0000      -1.127484       -30.6804
  19   2.0000      -1.108886       -30.1743
  20   2.0000      -0.967163       -26.3178
  21   2.0000      -0.847609       -23.0646
  22   2.0000      -0.839554       -22.8454
  23   2.0000      -0.708107       -19.2686
  24   2.0000      -0.692741       -18.8504
  25   2.0000      -0.686839       -18.6898
  26   2.0000      -0.676982       -18.4216
  27   2.0000      -0.602803       -16.4031
  28   2.0000      -0.591461       -16.0945
  29   2.0000      -0.583293       -15.8722
  30   2.0000      -0.576514       -15.6878
  31   2.0000      -0.550688       -14.9850
  32   2.0000      -0.544623       -14.8200
  33   2.0000      -0.525659       -14.3039
  34   2.0000      -0.520647       -14.1675
  35   2.0000      -0.518374       -14.1057
  36   2.0000      -0.490088       -13.3360
  37   2.0000      -0.460820       -12.5396
  38   2.0000      -0.451669       -12.2905
  39   2.0000      -0.438282       -11.9263
  40   2.0000      -0.426570       -11.6076
  41   2.0000      -0.415128       -11.2962
  42   2.0000      -0.407574       -11.0907
  43   2.0000      -0.396334       -10.7848
  44   2.0000      -0.389871       -10.6089
  45   2.0000      -0.379054       -10.3146
  46   2.0000      -0.372343       -10.1320
  47   2.0000      -0.366637        -9.9767
  48   2.0000      -0.354328        -9.6417
  49   2.0000      -0.337657        -9.1881
  50   2.0000      -0.329398        -8.9634
  51   2.0000      -0.301455        -8.2030
  52   2.0000      -0.298513        -8.1230
  53   0.0000      -0.092665        -2.5215
  54   0.0000       0.007744         0.2107
  55   0.0000       0.013659         0.3717
  56   0.0000       0.019316         0.5256
  57   0.0000       0.029289         0.7970

MULLIKEN ATOMIC CHARGES
-----------------------
   0 C :   -0.225861
   1 C :   -0.217844
   2 C :   -0.228320
   3 C :   -0.219719
   4 C :   -0.185916
   5 C :   -0.220579
   6 H :    0.234161
   7 H :    0.228974
   8 H :    0.224070
   9 H :    0.241918
  10 H :    0.225855
  11 Pd:    0.541613
  12 O :   -0.452957
  13 O :   -0.451481
  14 O :   -0.456443
  15 C :    0.416387
  16 O :   -0.456159
  17 H :    0.149906
  18 C :    0.437453
  19 H :    0.210298
  20 H :    0.204646
Sum of atomic charges:    0.0000000

LOEWDIN ATOMIC CHARGES
----------------------
   0 C :   -0.132057
   1 C :   -0.122423
   2 C :   -0.134477
   3 C :   -0.122867
   4 C :   -0.083755
   5 C :   -0.125724
   6 H :    0.147674
   7 H :    0.141794
   8 H :    0.138050
   9 H :    0.151541
  10 H :    0.140553
  11 Pd:   -0.128500
  12 O :   -0.129562
  13 O :   -0.132618
  14 O :   -0.133846
  15 C :    0.160009
  16 O :   -0.175948
  17 H :    0.119402
  18 C :    0.175094
  19 H :    0.126122
  20 H :    0.121539

  Mayer bond orders larger than 0.100000
B(  0-C ,  1-C ) :   1.4225 B(  0-C ,  4-C ) :   1.4060 B(  0-C ,  6-H ) :   0.9148
B(  1-C ,  2-C ) :   1.4274 B(  1-C ,  7-H ) :   0.9158 B(  2-C ,  3-C ) :   1.4274
B(  2-C ,  8-H ) :   0.9189 B(  3-C ,  5-C ) :   1.4205 B(  3-C , 10-H ) :   0.9172
B(  4-C ,  5-C ) :   1.4219 B(  4-C , 17-H ) :   0.9172 B(  5-C ,  9-H ) :   0.9119
B( 11-Pd, 12-O ) :   0.5874 B( 11-Pd, 13-O ) :   0.5778 B( 11-Pd, 14-O ) :   0.5873
B( 11-Pd, 16-O ) :   0.5094 B( 12-O , 13-O ) :   0.1127 B( 12-O , 18-C ) :   1.4533
B( 13-O , 18-C ) :   1.4541 B( 14-O , 15-C ) :   1.4386 B( 14-O , 16-O ) :   0.1096
B( 15-C , 16-O ) :   1.5097 B( 15-C , 20-H ) :   0.8878 B( 18-C , 19-H ) :   0.8904

Dispersion correction           -0.013709128
FINAL SINGLE POINT ENERGY      -737.084888527287
Dispersion correction            ... done

DIPOLE MOMENT
-------------
                                X             Y             Z
Electronic contribution:     54.23894      46.51709       0.21469
Nuclear contribution   :    -54.38039     -46.91166      -0.49320
                        -----------------------------------------
Total Dipole Moment    :     -0.14146      -0.39457      -0.27851
                        -----------------------------------------
Magnitude (a.u.)       :      0.50325
Magnitude (Debye)      :      1.27917

Rotational constants in cm-1:     0.028043     0.020189     0.015054
Rotational constants in MHz :   840.717985   605.239942   451.306990

                             ****ORCA TERMINATED NORMALLY****
TOTAL RUN TIME: 0 days 0 hours 4 minutes 0 seconds 384 msec
