                         Program Version 5.0.3 -  RELEASE  -
|  1> ! EnGrad PBEh-3c
|  2> %output
|  3> xyzfile=True
|  4> end
|  5> %scf
|  6> maxiter 250
|  7> end
|  8> %output
|  9> Print[P_Hirshfeld] = 1
| 10> end
| 11> % maxcore
| 12> 4000
| 13> *xyz 0 1
| 14> C   -1.79955531   0.19214031  -0.21954478
| 15> C   -1.85814082  -0.75639585  -1.23585079
| 16> C   -1.29319605  -2.00486725  -1.07989346
| 17> C   -0.57810243  -2.27818991   0.06544801
| 18> C   -1.16125362  -0.12517854   0.98565906
| 19> C   -0.49249193  -1.34674755   1.09436270
| 20> H   -2.23834988   1.17937668  -0.40278167
| 21> H   -2.36275114  -0.50252162  -2.12799297
| 22> H   -1.42405594  -2.76688699  -1.84038038
| 23> H    0.10965414  -1.58404493   1.97523560
| 24> H   -0.10123444  -3.21024696   0.19799779
| 25> Pd   1.50814053   1.26706732   0.09443436
| 26> O    2.71240620   0.99242495  -1.55006184
| 27> O    2.61101172  -0.42895684   0.06610991
| 28> O    0.39100399   2.90605448  -0.02420733
| 29> C    0.11728766   2.94462001   1.21246353
| 30> O    0.60047265   2.06453031   1.96031739
| 31> H   -1.24873679   0.45396251   1.78404169
| 32> C    3.11222749  -0.08135884  -1.03321531
| 33> H    3.91340545  -0.66671576  -1.50619809
| 34> H   -0.52504111   3.75298610   1.58666150
| 35> *
| 36>
| 37>                          ****END OF INPUT****

CARTESIAN COORDINATES (ANGSTROEM)
---------------------------------
  C     -1.799555    0.192140   -0.219545
  C     -1.858141   -0.756396   -1.235851
  C     -1.293196   -2.004867   -1.079893
  C     -0.578102   -2.278190    0.065448
  C     -1.161254   -0.125179    0.985659
  C     -0.492492   -1.346748    1.094363
  H     -2.238350    1.179377   -0.402782
  H     -2.362751   -0.502522   -2.127993
  H     -1.424056   -2.766887   -1.840380
  H      0.109654   -1.584045    1.975236
  H     -0.101234   -3.210247    0.197998
  Pd     1.508141    1.267067    0.094434
  O      2.712406    0.992425   -1.550062
  O      2.611012   -0.428957    0.066110
  O      0.391004    2.906054   -0.024207
  C      0.117288    2.944620    1.212464
  O      0.600473    2.064530    1.960317
  H     -1.248737    0.453963    1.784042
  C      3.112227   -0.081359   -1.033215
  H      3.913405   -0.666716   -1.506198
  H     -0.525041    3.752986    1.586661

 Total Charge           Charge          ....    0
 Multiplicity           Mult            ....    1
 Number of Electrons    NEL             ....  106
 Basis Dimension        Dim             ....  227

ORBITAL ENERGIES
----------------

  NO   OCC          E(Eh)            E(eV)
   0   2.0000     -19.540259      -531.7175
   1   2.0000     -19.539750      -531.7036
   2   2.0000     -19.536135      -531.6053
   3   2.0000     -19.523952      -531.2737
   4   2.0000     -10.599681      -288.4320
   5   2.0000     -10.592156      -288.2272
   6   2.0000     -10.452715      -284.4328
   7   2.0000     -10.449910      -284.3565
   8   2.0000     -10.447971      -284.3038
   9   2.0000     -10.445144      -284.2268
  10   2.0000     -10.444118      -284.1989
  11   2.0000     -10.442511      -284.1552
  12   2.0000      -3.697154      -100.6047
  13   2.0000      -2.351628       -63.9910
  14   2.0000      -2.337488       -63.6063
  15   2.0000      -2.304555       -62.7101
  16   2.0000      -1.245430       -33.8899
  17   2.0000      -1.230206       -33.4756
  18   2.0000      -1.126824       -30.6625
  19   2.0000      -1.115487       -30.3539
  20   2.0000      -0.958173       -26.0732
  21   2.0000      -0.843519       -22.9533
  22   2.0000      -0.838581       -22.8189
  23   2.0000      -0.709355       -19.3025
  24   2.0000      -0.696554       -18.9542
  25   2.0000      -0.689135       -18.7523
  26   2.0000      -0.680650       -18.5214
  27   2.0000      -0.604538       -16.4503
  28   2.0000      -0.600499       -16.3404
  29   2.0000      -0.586170       -15.9505
  30   2.0000      -0.579223       -15.7615
  31   2.0000      -0.555169       -15.1069
  32   2.0000      -0.545389       -14.8408
  33   2.0000      -0.534048       -14.5322
  34   2.0000      -0.527996       -14.3675
  35   2.0000      -0.511841       -13.9279
  36   2.0000      -0.489256       -13.3133
  37   2.0000      -0.482020       -13.1164
  38   2.0000      -0.455904       -12.4058
  39   2.0000      -0.433647       -11.8001
  40   2.0000      -0.427475       -11.6322
  41   2.0000      -0.417974       -11.3736
  42   2.0000      -0.400951       -10.9104
  43   2.0000      -0.399879       -10.8813
  44   2.0000      -0.395626       -10.7655
  45   2.0000      -0.392590       -10.6829
  46   2.0000      -0.382360       -10.4046
  47   2.0000      -0.375889       -10.2285
  48   2.0000      -0.353060        -9.6073
  49   2.0000      -0.340429        -9.2635
  50   2.0000      -0.333454        -9.0737
  51   2.0000      -0.293694        -7.9918
  52   2.0000      -0.290482        -7.9044
  53   0.0000      -0.093568        -2.5461
  54   0.0000       0.010964         0.2983
  55   0.0000       0.013846         0.3768
  56   0.0000       0.017477         0.4756
  57   0.0000       0.024903         0.6776

MULLIKEN ATOMIC CHARGES
-----------------------
   0 C :   -0.226935
   1 C :   -0.215425
   2 C :   -0.223371
   3 C :   -0.214430
   4 C :   -0.269848
   5 C :   -0.224449
   6 H :    0.222880
   7 H :    0.224256
   8 H :    0.219169
   9 H :    0.233901
  10 H :    0.223140
  11 Pd:    0.552726
  12 O :   -0.449639
  13 O :   -0.458713
  14 O :   -0.468061
  15 C :    0.411719
  16 O :   -0.451889
  17 H :    0.257545
  18 C :    0.437301
  19 H :    0.212714
  20 H :    0.207409
Sum of atomic charges:    0.0000000

LOEWDIN ATOMIC CHARGES
----------------------
   0 C :   -0.120435
   1 C :   -0.130121
   2 C :   -0.131740
   3 C :   -0.127955
   4 C :   -0.127382
   5 C :   -0.112873
   6 H :    0.142971
   7 H :    0.136822
   8 H :    0.137379
   9 H :    0.147681
  10 H :    0.136913
  11 Pd:   -0.108991
  12 O :   -0.133081
  13 O :   -0.133844
  14 O :   -0.137480
  15 C :    0.160470
  16 O :   -0.172938
  17 H :    0.147148
  18 C :    0.177003
  19 H :    0.127632
  20 H :    0.122822

  Mayer bond orders larger than 0.100000
B(  0-C ,  1-C ) :   1.4354 B(  0-C ,  4-C ) :   1.4076 B(  0-C ,  6-H ) :   0.9182
B(  1-C ,  2-C ) :   1.4238 B(  1-C ,  7-H ) :   0.9177 B(  2-C ,  3-C ) :   1.4277
B(  2-C ,  8-H ) :   0.9209 B(  3-C ,  5-C ) :   1.4291 B(  3-C , 10-H ) :   0.9184
B(  4-C ,  5-C ) :   1.4341 B(  4-C , 17-H ) :   0.8971 B(  5-C ,  9-H ) :   0.9143
B( 11-Pd, 12-O ) :   0.5841 B( 11-Pd, 13-O ) :   0.5776 B( 11-Pd, 14-O ) :   0.6160
B( 11-Pd, 16-O ) :   0.4577 B( 12-O , 13-O ) :   0.1136 B( 12-O , 18-C ) :   1.4630
B( 13-O , 18-C ) :   1.4444 B( 14-O , 15-C ) :   1.3965 B( 14-O , 16-O ) :   0.1096
B( 15-C , 16-O ) :   1.5525 B( 15-C , 20-H ) :   0.8867 B( 18-C , 19-H ) :   0.8889

Dispersion correction           -0.013169952
FINAL SINGLE POINT ENERGY      -737.131459019998
Dispersion correction            ... done

DIPOLE MOMENT
-------------
                                X             Y             Z
Electronic contribution:     58.65857      48.70398       3.32297
Nuclear contribution   :    -58.67813     -48.95800      -3.48818
                        -----------------------------------------
Total Dipole Moment    :     -0.01956      -0.25402      -0.16521
                        -----------------------------------------
Magnitude (a.u.)       :      0.30365
Magnitude (Debye)      :      0.77182

Rotational constants in cm-1:     0.029025     0.018295     0.013975
Rotational constants in MHz :   870.133027   548.458139   418.968011

                             ****ORCA TERMINATED NORMALLY****
TOTAL RUN TIME: 0 days 0 hours 4 minutes 15 seconds 557 msec
