                         Program Version 5.0.3 -  RELEASE  -
|  1> ! EnGrad PBEh-3c
|  2> %output
|  3> xyzfile=True
|  4> end
|  5> %scf
|  6> maxiter 250
|  7> end
|  8> %output
|  9> Print[P_Hirshfeld] = 1
| 10> end
| 11> % maxcore
| 12> 4000
| 13> *xyz 0 1
| 14> C   -1.78800467   0.19402888  -0.23936103
| 15> C   -1.88710650  -0.77078598  -1.22731493
| 16> C   -1.34873544  -2.03031387  -1.06585071
| 17> C   -0.60932237  -2.29259173   0.06742288
| 18> C   -1.13268785  -0.15398056   0.92057186
| 19> C   -0.47794742  -1.35382917   1.07526385
| 20> H   -2.20323547   1.18891739  -0.41039734
| 21> H   -2.41135391  -0.51408037  -2.12525201
| 22> H   -1.50697655  -2.79282049  -1.80237037
| 23> H    0.12896853  -1.57160001   1.95405370
| 24> H   -0.13491446  -3.24178197   0.20816805
| 25> Pd   1.51244297   1.26748976   0.09764000
| 26> O    2.75330841   1.03032377  -1.52449954
| 27> O    2.61768478  -0.42553520   0.05749513
| 28> O    0.40541919   2.90790803  -0.01959193
| 29> C    0.11819750   2.93586675   1.21993180
| 30> O    0.58367332   2.06339575   1.96849126
| 31> H   -1.18831780   0.49599723   1.77759811
| 32> C    3.14273591  -0.05473848  -1.02556904
| 33> H    3.95309560  -0.62564141  -1.48638024
| 34> H   -0.53572500   3.74886162   1.58283553
| 35> *
| 36>
| 37>                          ****END OF INPUT****

CARTESIAN COORDINATES (ANGSTROEM)
---------------------------------
  C     -1.788005    0.194029   -0.239361
  C     -1.887107   -0.770786   -1.227315
  C     -1.348735   -2.030314   -1.065851
  C     -0.609322   -2.292592    0.067423
  C     -1.132688   -0.153981    0.920572
  C     -0.477947   -1.353829    1.075264
  H     -2.203235    1.188917   -0.410397
  H     -2.411354   -0.514080   -2.125252
  H     -1.506977   -2.792820   -1.802370
  H      0.128969   -1.571600    1.954054
  H     -0.134914   -3.241782    0.208168
  Pd     1.512443    1.267490    0.097640
  O      2.753308    1.030324   -1.524500
  O      2.617685   -0.425535    0.057495
  O      0.405419    2.907908   -0.019592
  C      0.118197    2.935867    1.219932
  O      0.583673    2.063396    1.968491
  H     -1.188318    0.495997    1.777598
  C      3.142736   -0.054738   -1.025569
  H      3.953096   -0.625641   -1.486380
  H     -0.535725    3.748862    1.582836

 Total Charge           Charge          ....    0
 Multiplicity           Mult            ....    1
 Number of Electrons    NEL             ....  106
 Basis Dimension        Dim             ....  227

ORBITAL ENERGIES
----------------

  NO   OCC          E(Eh)            E(eV)
   0   2.0000     -19.540983      -531.7372
   1   2.0000     -19.539742      -531.7034
   2   2.0000     -19.534860      -531.5706
   3   2.0000     -19.524346      -531.2845
   4   2.0000     -10.599764      -288.4343
   5   2.0000     -10.591423      -288.2073
   6   2.0000     -10.449561      -284.3470
   7   2.0000     -10.447139      -284.2811
   8   2.0000     -10.446728      -284.2699
   9   2.0000     -10.446026      -284.2508
  10   2.0000     -10.445156      -284.2271
  11   2.0000     -10.444777      -284.2168
  12   2.0000      -3.697492      -100.6139
  13   2.0000      -2.352198       -64.0066
  14   2.0000      -2.337579       -63.6088
  15   2.0000      -2.305110       -62.7252
  16   2.0000      -1.245592       -33.8943
  17   2.0000      -1.231151       -33.5013
  18   2.0000      -1.126876       -30.6639
  19   2.0000      -1.117608       -30.4117
  20   2.0000      -0.963321       -26.2133
  21   2.0000      -0.842567       -22.9274
  22   2.0000      -0.841893       -22.9091
  23   2.0000      -0.710365       -19.3300
  24   2.0000      -0.694902       -18.9093
  25   2.0000      -0.684218       -18.6185
  26   2.0000      -0.682420       -18.5696
  27   2.0000      -0.604877       -16.4595
  28   2.0000      -0.598967       -16.2987
  29   2.0000      -0.586298       -15.9540
  30   2.0000      -0.579547       -15.7703
  31   2.0000      -0.555818       -15.1246
  32   2.0000      -0.545763       -14.8510
  33   2.0000      -0.531839       -14.4721
  34   2.0000      -0.523559       -14.2468
  35   2.0000      -0.515426       -14.0255
  36   2.0000      -0.485083       -13.1998
  37   2.0000      -0.483804       -13.1650
  38   2.0000      -0.456120       -12.4117
  39   2.0000      -0.436519       -11.8783
  40   2.0000      -0.428142       -11.6503
  41   2.0000      -0.418868       -11.3980
  42   2.0000      -0.403362       -10.9760
  43   2.0000      -0.398672       -10.8484
  44   2.0000      -0.394198       -10.7267
  45   2.0000      -0.389468       -10.5980
  46   2.0000      -0.383247       -10.4287
  47   2.0000      -0.375068       -10.2061
  48   2.0000      -0.352610        -9.5950
  49   2.0000      -0.340739        -9.2720
  50   2.0000      -0.334195        -9.0939
  51   2.0000      -0.296067        -8.0564
  52   2.0000      -0.291649        -7.9362
  53   0.0000      -0.094395        -2.5686
  54   0.0000       0.011134         0.3030
  55   0.0000       0.016751         0.4558
  56   0.0000       0.017960         0.4887
  57   0.0000       0.026128         0.7110

MULLIKEN ATOMIC CHARGES
-----------------------
   0 C :   -0.196956
   1 C :   -0.235086
   2 C :   -0.207735
   3 C :   -0.234201
   4 C :   -0.305022
   5 C :   -0.195447
   6 H :    0.227074
   7 H :    0.221317
   8 H :    0.220802
   9 H :    0.237636
  10 H :    0.220563
  11 Pd:    0.554587
  12 O :   -0.448882
  13 O :   -0.461302
  14 O :   -0.473402
  15 C :    0.408202
  16 O :   -0.442584
  17 H :    0.254485
  18 C :    0.437656
  19 H :    0.213824
  20 H :    0.204470
Sum of atomic charges:   -0.0000000

LOEWDIN ATOMIC CHARGES
----------------------
   0 C :   -0.127234
   1 C :   -0.124752
   2 C :   -0.136008
   3 C :   -0.122629
   4 C :   -0.125726
   5 C :   -0.119932
   6 H :    0.145698
   7 H :    0.135626
   8 H :    0.138163
   9 H :    0.150181
  10 H :    0.135824
  11 Pd:   -0.107461
  12 O :   -0.131716
  13 O :   -0.136122
  14 O :   -0.142504
  15 C :    0.155430
  16 O :   -0.165758
  17 H :    0.151744
  18 C :    0.177988
  19 H :    0.127921
  20 H :    0.121266

  Mayer bond orders larger than 0.100000
B(  0-C ,  1-C ) :   1.4297 B(  0-C ,  4-C ) :   1.4017 B(  0-C ,  6-H ) :   0.9166
B(  1-C ,  2-C ) :   1.4254 B(  1-C ,  7-H ) :   0.9186 B(  2-C ,  3-C ) :   1.4272
B(  2-C ,  8-H ) :   0.9210 B(  3-C ,  5-C ) :   1.4254 B(  3-C , 10-H ) :   0.9191
B(  4-C ,  5-C ) :   1.4268 B(  4-C , 17-H ) :   0.8941 B(  5-C ,  9-H ) :   0.9127
B( 11-Pd, 12-O ) :   0.5835 B( 11-Pd, 13-O ) :   0.5781 B( 11-Pd, 14-O ) :   0.6249
B( 11-Pd, 16-O ) :   0.4414 B( 12-O , 13-O ) :   0.1138 B( 12-O , 18-C ) :   1.4661
B( 13-O , 18-C ) :   1.4415 B( 14-O , 15-C ) :   1.3802 B( 14-O , 16-O ) :   0.1090
B( 15-C , 16-O ) :   1.5766 B( 15-C , 20-H ) :   0.8863 B( 18-C , 19-H ) :   0.8892

Dispersion correction           -0.013144670
FINAL SINGLE POINT ENERGY      -737.136352638899
Dispersion correction            ... done

DIPOLE MOMENT
-------------
                                X             Y             Z
Electronic contribution:     58.81129      48.69295       3.48611
Nuclear contribution   :    -58.81108     -48.97593      -3.65467
                        -----------------------------------------
Total Dipole Moment    :      0.00021      -0.28299      -0.16856
                        -----------------------------------------
Magnitude (a.u.)       :      0.32938
Magnitude (Debye)      :      0.83722

Rotational constants in cm-1:     0.029279     0.018051     0.013846
Rotational constants in MHz :   877.762555   541.164446   415.100586

                             ****ORCA TERMINATED NORMALLY****
TOTAL RUN TIME: 0 days 0 hours 3 minutes 49 seconds 428 msec
