                         Program Version 5.0.3 -  RELEASE  -
|  1> ! EnGrad PBEh-3c
|  2> %output
|  3> xyzfile=True
|  4> end
|  5> %scf
|  6> maxiter 250
|  7> end
|  8> %output
|  9> Print[P_Hirshfeld] = 1
| 10> end
| 11> % maxcore
| 12> 4000
| 13> *xyz 0 1
| 14> C   -1.77716710   0.19366934  -0.27398311
| 15> C   -1.92643630  -0.78142128  -1.22728768
| 16> C   -1.41175792  -2.05435455  -1.04391164
| 17> C   -0.63832648  -2.31841193   0.07396308
| 18> C   -1.10230690  -0.14599285   0.89890840
| 19> C   -0.45854471  -1.37193819   1.04938772
| 20> H   -2.16044519   1.19574561  -0.42080673
| 21> H   -2.46703202  -0.53058320  -2.12082330
| 22> H   -1.60500950  -2.82915037  -1.76420817
| 23> H    0.15032657  -1.55758296   1.92480419
| 24> H   -0.17676878  -3.27758373   0.21748149
| 25> Pd   1.51337116   1.26625665   0.10485737
| 26> O    2.80122975   1.07455240  -1.49615987
| 27> O    2.62476961  -0.42177504   0.04374028
| 28> O    0.42116755   2.90932533  -0.01141643
| 29> C    0.11735521   2.93247317   1.22733515
| 30> O    0.56599582   2.06157690   1.97993461
| 31> H   -1.11559915   0.52518335   1.74350712
| 32> C    3.18040709  -0.02108476  -1.01279781
| 33> H    4.00130863  -0.58112811  -1.46564151
| 34> H   -0.54713965   3.74216659   1.57667279
| 35> *
| 36>
| 37>                          ****END OF INPUT****

CARTESIAN COORDINATES (ANGSTROEM)
---------------------------------
  C     -1.777167    0.193669   -0.273983
  C     -1.926436   -0.781421   -1.227288
  C     -1.411758   -2.054355   -1.043912
  C     -0.638326   -2.318412    0.073963
  C     -1.102307   -0.145993    0.898908
  C     -0.458545   -1.371938    1.049388
  H     -2.160445    1.195746   -0.420807
  H     -2.467032   -0.530583   -2.120823
  H     -1.605009   -2.829150   -1.764208
  H      0.150327   -1.557583    1.924804
  H     -0.176769   -3.277584    0.217481
  Pd     1.513371    1.266257    0.104857
  O      2.801230    1.074552   -1.496160
  O      2.624770   -0.421775    0.043740
  O      0.421168    2.909325   -0.011416
  C      0.117355    2.932473    1.227335
  O      0.565996    2.061577    1.979935
  H     -1.115599    0.525183    1.743507
  C      3.180407   -0.021085   -1.012798
  H      4.001309   -0.581128   -1.465642
  H     -0.547140    3.742167    1.576673

 Total Charge           Charge          ....    0
 Multiplicity           Mult            ....    1
 Number of Electrons    NEL             ....  106
 Basis Dimension        Dim             ....  227

ORBITAL ENERGIES
----------------

  NO   OCC          E(Eh)            E(eV)
   0   2.0000     -19.540176      -531.7152
   1   2.0000     -19.539251      -531.6901
   2   2.0000     -19.535156      -531.5786
   3   2.0000     -19.524265      -531.2823
   4   2.0000     -10.599115      -288.4166
   5   2.0000     -10.591200      -288.2012
   6   2.0000     -10.450128      -284.3624
   7   2.0000     -10.448974      -284.3310
   8   2.0000     -10.448161      -284.3089
   9   2.0000     -10.447487      -284.2906
  10   2.0000     -10.447048      -284.2786
  11   2.0000     -10.446128      -284.2536
  12   2.0000      -3.697499      -100.6141
  13   2.0000      -2.352579       -64.0169
  14   2.0000      -2.337114       -63.5961
  15   2.0000      -2.305385       -62.7327
  16   2.0000      -1.244938       -33.8765
  17   2.0000      -1.231806       -33.5191
  18   2.0000      -1.126328       -30.6490
  19   2.0000      -1.118778       -30.4435
  20   2.0000      -0.961872       -26.1739
  21   2.0000      -0.845160       -22.9980
  22   2.0000      -0.838544       -22.8179
  23   2.0000      -0.710130       -19.3236
  24   2.0000      -0.695001       -18.9119
  25   2.0000      -0.685839       -18.6626
  26   2.0000      -0.681189       -18.5361
  27   2.0000      -0.604597       -16.4519
  28   2.0000      -0.598979       -16.2991
  29   2.0000      -0.586648       -15.9635
  30   2.0000      -0.579082       -15.7576
  31   2.0000      -0.556185       -15.1346
  32   2.0000      -0.545686       -14.8489
  33   2.0000      -0.533268       -14.5110
  34   2.0000      -0.524199       -14.2642
  35   2.0000      -0.514340       -13.9959
  36   2.0000      -0.489273       -13.3138
  37   2.0000      -0.480557       -13.0766
  38   2.0000      -0.455932       -12.4065
  39   2.0000      -0.435846       -11.8600
  40   2.0000      -0.427561       -11.6345
  41   2.0000      -0.419463       -11.4142
  42   2.0000      -0.401143       -10.9156
  43   2.0000      -0.400465       -10.8972
  44   2.0000      -0.394158       -10.7256
  45   2.0000      -0.391270       -10.6470
  46   2.0000      -0.384153       -10.4533
  47   2.0000      -0.374791       -10.1986
  48   2.0000      -0.351795        -9.5728
  49   2.0000      -0.341127        -9.2825
  50   2.0000      -0.334677        -9.1070
  51   2.0000      -0.299349        -8.1457
  52   2.0000      -0.288252        -7.8437
  53   0.0000      -0.095603        -2.6015
  54   0.0000       0.011900         0.3238
  55   0.0000       0.012779         0.3477
  56   0.0000       0.019213         0.5228
  57   0.0000       0.026159         0.7118

MULLIKEN ATOMIC CHARGES
-----------------------
   0 C :   -0.196640
   1 C :   -0.230825
   2 C :   -0.212338
   3 C :   -0.230112
   4 C :   -0.319642
   5 C :   -0.194367
   6 H :    0.228562
   7 H :    0.221230
   8 H :    0.220783
   9 H :    0.239111
  10 H :    0.220680
  11 Pd:    0.557714
  12 O :   -0.448522
  13 O :   -0.462184
  14 O :   -0.475701
  15 C :    0.405164
  16 O :   -0.439794
  17 H :    0.263690
  18 C :    0.436062
  19 H :    0.213713
  20 H :    0.203417
Sum of atomic charges:   -0.0000000

LOEWDIN ATOMIC CHARGES
----------------------
   0 C :   -0.126207
   1 C :   -0.127133
   2 C :   -0.132456
   3 C :   -0.124819
   4 C :   -0.125925
   5 C :   -0.119034
   6 H :    0.145325
   7 H :    0.136606
   8 H :    0.138056
   9 H :    0.149913
  10 H :    0.136880
  11 Pd:   -0.105301
  12 O :   -0.133125
  13 O :   -0.136880
  14 O :   -0.143397
  15 C :    0.153086
  16 O :   -0.165050
  17 H :    0.154353
  18 C :    0.176925
  19 H :    0.127606
  20 H :    0.120576

  Mayer bond orders larger than 0.100000
B(  0-C ,  1-C ) :   1.4338 B(  0-C ,  4-C ) :   1.3980 B(  0-C ,  6-H ) :   0.9155
B(  1-C ,  2-C ) :   1.4223 B(  1-C ,  7-H ) :   0.9192 B(  2-C ,  3-C ) :   1.4243
B(  2-C ,  8-H ) :   0.9211 B(  3-C ,  5-C ) :   1.4290 B(  3-C , 10-H ) :   0.9195
B(  4-C ,  5-C ) :   1.4226 B(  4-C , 17-H ) :   0.8863 B(  5-C ,  9-H ) :   0.9118
B( 11-Pd, 12-O ) :   0.5799 B( 11-Pd, 13-O ) :   0.5773 B( 11-Pd, 14-O ) :   0.6309
B( 11-Pd, 16-O ) :   0.4257 B( 12-O , 13-O ) :   0.1138 B( 12-O , 18-C ) :   1.4701
B( 13-O , 18-C ) :   1.4410 B( 14-O , 15-C ) :   1.3709 B( 14-O , 16-O ) :   0.1086
B( 15-C , 16-O ) :   1.5915 B( 15-C , 20-H ) :   0.8863 B( 18-C , 19-H ) :   0.8890

Dispersion correction           -0.013127403
FINAL SINGLE POINT ENERGY      -737.135362826136
Dispersion correction            ... done

DIPOLE MOMENT
-------------
                                X             Y             Z
Electronic contribution:     58.77020      48.56860       3.78466
Nuclear contribution   :    -58.78131     -48.86397      -3.94623
                        -----------------------------------------
Total Dipole Moment    :     -0.01111      -0.29537      -0.16156
                        -----------------------------------------
Magnitude (a.u.)       :      0.33686
Magnitude (Debye)      :      0.85622

Rotational constants in cm-1:     0.029438     0.017780     0.013695
Rotational constants in MHz :   882.535916   533.020840   410.552522

                             ****ORCA TERMINATED NORMALLY****
TOTAL RUN TIME: 0 days 0 hours 3 minutes 43 seconds 338 msec
