                         Program Version 5.0.3 -  RELEASE  -
|  1> ! EnGrad PBEh-3c
|  2> %output
|  3> xyzfile=True
|  4> end
|  5> %scf
|  6> maxiter 250
|  7> end
|  8> %output
|  9> Print[P_Hirshfeld] = 1
| 10> end
| 11> % maxcore
| 12> 4000
| 13> *xyz 0 1
| 14> C   -1.74773899   0.19237652  -0.30071540
| 15> C   -1.99002752  -0.80549700  -1.23495642
| 16> C   -1.51018647  -2.09088927  -1.00754035
| 17> C   -0.68617572  -2.36679866   0.07670969
| 18> C   -1.05032363  -0.14010004   0.85236522
| 19> C   -0.44023909  -1.37376275   1.01412743
| 20> H   -2.09414516   1.20783790  -0.44399386
| 21> H   -2.55608474  -0.55931392  -2.11450078
| 22> H   -1.76134333  -2.88628856  -1.70265658
| 23> H    0.18792751  -1.54066734   1.87770536
| 24> H   -0.24528080  -3.33548412   0.23021216
| 25> Pd   1.51216148   1.26087419   0.11444166
| 26> O    2.87852565   1.14481392  -1.44942790
| 27> O    2.63539127  -0.41671098   0.01952853
| 28> O    0.44461829   2.91052442   0.00745862
| 29> C    0.11520247   2.93164740   1.23572864
| 30> O    0.53935880   2.06081322   2.00203302
| 31> H   -1.00108304   0.56967610   1.68822313
| 32> C    3.24190151   0.03522723  -0.99154009
| 33> H    4.07977144  -0.51273455  -1.43386791
| 34> H   -0.56530512   3.73180995   1.56590788
| 35> *
| 36>
| 37>                          ****END OF INPUT****

CARTESIAN COORDINATES (ANGSTROEM)
---------------------------------
  C     -1.747739    0.192377   -0.300715
  C     -1.990028   -0.805497   -1.234956
  C     -1.510186   -2.090889   -1.007540
  C     -0.686176   -2.366799    0.076710
  C     -1.050324   -0.140100    0.852365
  C     -0.440239   -1.373763    1.014127
  H     -2.094145    1.207838   -0.443994
  H     -2.556085   -0.559314   -2.114501
  H     -1.761343   -2.886289   -1.702657
  H      0.187928   -1.540667    1.877705
  H     -0.245281   -3.335484    0.230212
  Pd     1.512161    1.260874    0.114442
  O      2.878526    1.144814   -1.449428
  O      2.635391   -0.416711    0.019529
  O      0.444618    2.910524    0.007459
  C      0.115202    2.931647    1.235729
  O      0.539359    2.060813    2.002033
  H     -1.001083    0.569676    1.688223
  C      3.241902    0.035227   -0.991540
  H      4.079771   -0.512735   -1.433868
  H     -0.565305    3.731810    1.565908

 Total Charge           Charge          ....    0
 Multiplicity           Mult            ....    1
 Number of Electrons    NEL             ....  106
 Basis Dimension        Dim             ....  227

ORBITAL ENERGIES
----------------

  NO   OCC          E(Eh)            E(eV)
   0   2.0000     -19.539647      -531.7008
   1   2.0000     -19.538566      -531.6714
   2   2.0000     -19.536804      -531.6235
   3   2.0000     -19.521914      -531.2183
   4   2.0000     -10.598894      -288.4106
   5   2.0000     -10.590189      -288.1737
   6   2.0000     -10.452585      -284.4293
   7   2.0000     -10.452389      -284.4240
   8   2.0000     -10.451075      -284.3882
   9   2.0000     -10.450324      -284.3678
  10   2.0000     -10.449601      -284.3481
  11   2.0000     -10.448218      -284.3105
  12   2.0000      -3.698026      -100.6284
  13   2.0000      -2.353761       -64.0491
  14   2.0000      -2.336705       -63.5850
  15   2.0000      -2.306450       -62.7617
  16   2.0000      -1.243419       -33.8351
  17   2.0000      -1.232443       -33.5365
  18   2.0000      -1.125525       -30.6271
  19   2.0000      -1.120044       -30.4780
  20   2.0000      -0.960143       -26.1268
  21   2.0000      -0.842904       -22.9366
  22   2.0000      -0.839371       -22.8405
  23   2.0000      -0.709237       -19.2993
  24   2.0000      -0.695300       -18.9201
  25   2.0000      -0.684496       -18.6261
  26   2.0000      -0.682100       -18.5609
  27   2.0000      -0.604062       -16.4374
  28   2.0000      -0.598267       -16.2797
  29   2.0000      -0.587289       -15.9810
  30   2.0000      -0.577998       -15.7281
  31   2.0000      -0.556175       -15.1343
  32   2.0000      -0.545379       -14.8405
  33   2.0000      -0.534108       -14.5338
  34   2.0000      -0.524911       -14.2836
  35   2.0000      -0.513996       -13.9865
  36   2.0000      -0.489234       -13.3127
  37   2.0000      -0.478700       -13.0261
  38   2.0000      -0.455373       -12.3913
  39   2.0000      -0.435348       -11.8464
  40   2.0000      -0.426389       -11.6026
  41   2.0000      -0.419317       -11.4102
  42   2.0000      -0.405469       -11.0334
  43   2.0000      -0.401497       -10.9253
  44   2.0000      -0.393518       -10.7082
  45   2.0000      -0.389826       -10.6077
  46   2.0000      -0.385219       -10.4823
  47   2.0000      -0.373098       -10.1525
  48   2.0000      -0.350516        -9.5380
  49   2.0000      -0.342384        -9.3168
  50   2.0000      -0.336086        -9.1454
  51   2.0000      -0.297557        -8.0969
  52   2.0000      -0.289839        -7.8869
  53   0.0000      -0.098599        -2.6830
  54   0.0000       0.012888         0.3507
  55   0.0000       0.012976         0.3531
  56   0.0000       0.014485         0.3942
  57   0.0000       0.026634         0.7247

MULLIKEN ATOMIC CHARGES
-----------------------
   0 C :   -0.204362
   1 C :   -0.225624
   2 C :   -0.220569
   3 C :   -0.224549
   4 C :   -0.325354
   5 C :   -0.200932
   6 H :    0.229470
   7 H :    0.224136
   8 H :    0.218938
   9 H :    0.240908
  10 H :    0.223645
  11 Pd:    0.564356
  12 O :   -0.445671
  13 O :   -0.465404
  14 O :   -0.473608
  15 C :    0.400097
  16 O :   -0.441808
  17 H :    0.278026
  18 C :    0.432844
  19 H :    0.213627
  20 H :    0.201833
Sum of atomic charges:   -0.0000000

LOEWDIN ATOMIC CHARGES
----------------------
   0 C :   -0.122734
   1 C :   -0.129521
   2 C :   -0.129127
   3 C :   -0.126784
   4 C :   -0.133786
   5 C :   -0.115127
   6 H :    0.145145
   7 H :    0.138551
   8 H :    0.136927
   9 H :    0.150021
  10 H :    0.138907
  11 Pd:   -0.099820
  12 O :   -0.134006
  13 O :   -0.140616
  14 O :   -0.138027
  15 C :    0.148803
  16 O :   -0.172916
  17 H :    0.161250
  18 C :    0.176071
  19 H :    0.127314
  20 H :    0.119476

  Mayer bond orders larger than 0.100000
B(  0-C ,  1-C ) :   1.4292 B(  0-C ,  4-C ) :   1.3955 B(  0-C ,  6-H ) :   0.9145
B(  1-C ,  2-C ) :   1.4217 B(  1-C ,  7-H ) :   0.9189 B(  2-C ,  3-C ) :   1.4240
B(  2-C ,  8-H ) :   0.9217 B(  3-C ,  5-C ) :   1.4245 B(  3-C , 10-H ) :   0.9191
B(  4-C ,  5-C ) :   1.4211 B(  4-C , 17-H ) :   0.8716 B(  5-C ,  9-H ) :   0.9105
B( 11-Pd, 12-O ) :   0.5687 B( 11-Pd, 13-O ) :   0.5801 B( 11-Pd, 14-O ) :   0.6341
B( 11-Pd, 16-O ) :   0.4045 B( 12-O , 13-O ) :   0.1138 B( 12-O , 18-C ) :   1.4832
B( 13-O , 18-C ) :   1.4335 B( 14-O , 15-C ) :   1.3692 B( 14-O , 16-O ) :   0.1077
B( 15-C , 16-O ) :   1.6030 B( 15-C , 20-H ) :   0.8866 B( 18-C , 19-H ) :   0.8878

Dispersion correction           -0.013110512
FINAL SINGLE POINT ENERGY      -737.132669098761
Dispersion correction            ... done

DIPOLE MOMENT
-------------
                                X             Y             Z
Electronic contribution:     58.57729      48.20061       4.10480
Nuclear contribution   :    -58.60811     -48.51300      -4.29532
                        -----------------------------------------
Total Dipole Moment    :     -0.03083      -0.31239      -0.19052
                        -----------------------------------------
Magnitude (a.u.)       :      0.36720
Magnitude (Debye)      :      0.93335

Rotational constants in cm-1:     0.029715     0.017378     0.013453
Rotational constants in MHz :   890.844302   520.979131   403.308053

                             ****ORCA TERMINATED NORMALLY****
TOTAL RUN TIME: 0 days 0 hours 3 minutes 36 seconds 269 msec
