                         Program Version 5.0.3 -  RELEASE  -
|  1> ! EnGrad PBEh-3c
|  2> %output
|  3> xyzfile=True
|  4> end
|  5> %scf
|  6> maxiter 250
|  7> end
|  8> %output
|  9> Print[P_Hirshfeld] = 1
| 10> end
| 11> % maxcore
| 12> 4000
| 13> *xyz 0 1
| 14> C   -1.85415041   0.17170736  -0.19965058
| 15> C   -1.66097387  -0.67345592  -1.29938975
| 16> C   -0.96943442  -1.85561234  -1.16297365
| 17> C   -0.38336764  -2.19171096   0.03930679
| 18> C   -1.37117363  -0.09559493   1.22704919
| 19> C   -0.53435595  -1.36958564   1.16422906
| 20> H   -2.42284757   1.05257369  -0.32921273
| 21> H   -2.12421097  -0.41016928  -2.23634326
| 22> H   -0.90363813  -2.52830218  -1.99252350
| 23> H   -0.05876318  -1.64177332   2.07034528
| 24> H    0.15491468  -3.11538052   0.14757927
| 25> Pd   1.41183713   1.23716685   0.07675821
| 26> O    2.45239843   0.76475310  -1.68407148
| 27> O    2.59834522  -0.43594233   0.09622058
| 28> O    0.32558923   2.92379024  -0.09713665
| 29> C    0.17473384   2.94229845   1.23892941
| 30> O    0.68069517   2.12791576   1.87973372
| 31> H   -1.62507075   0.47290819   2.14389864
| 32> C    2.95581275  -0.24350109  -1.09750370
| 33> H    3.63548717  -0.91592552  -1.60367648
| 34> H   -0.48200361   3.78004883   1.61879864
| 35> *
| 36>
| 37>                          ****END OF INPUT****

CARTESIAN COORDINATES (ANGSTROEM)
---------------------------------
  C     -1.854150    0.171707   -0.199651
  C     -1.660974   -0.673456   -1.299390
  C     -0.969434   -1.855612   -1.162974
  C     -0.383368   -2.191711    0.039307
  C     -1.371174   -0.095595    1.227049
  C     -0.534356   -1.369586    1.164229
  H     -2.422848    1.052574   -0.329213
  H     -2.124211   -0.410169   -2.236343
  H     -0.903638   -2.528302   -1.992523
  H     -0.058763   -1.641773    2.070345
  H      0.154915   -3.115381    0.147579
  Pd     1.411837    1.237167    0.076758
  O      2.452398    0.764753   -1.684071
  O      2.598345   -0.435942    0.096221
  O      0.325589    2.923790   -0.097137
  C      0.174734    2.942298    1.238929
  O      0.680695    2.127916    1.879734
  H     -1.625071    0.472908    2.143899
  C      2.955813   -0.243501   -1.097504
  H      3.635487   -0.915926   -1.603676
  H     -0.482004    3.780049    1.618799

 Total Charge           Charge          ....    0
 Multiplicity           Mult            ....    1
 Number of Electrons    NEL             ....  106
 Basis Dimension        Dim             ....  227

ORBITAL ENERGIES
----------------

  NO   OCC          E(Eh)            E(eV)
   0   2.0000     -19.545219      -531.8525
   1   2.0000     -19.530123      -531.4417
   2   2.0000     -19.528932      -531.4093
   3   2.0000     -19.519057      -531.1405
   4   2.0000     -10.592697      -288.2419
   5   2.0000     -10.591659      -288.2137
   6   2.0000     -10.488476      -285.4059
   7   2.0000     -10.467558      -284.8367
   8   2.0000     -10.466509      -284.8082
   9   2.0000     -10.453654      -284.4584
  10   2.0000     -10.453382      -284.4510
  11   2.0000     -10.452035      -284.4143
  12   2.0000      -3.690811      -100.4321
  13   2.0000      -2.344141       -63.7873
  14   2.0000      -2.331773       -63.4508
  15   2.0000      -2.298385       -62.5422
  16   2.0000      -1.268062       -34.5057
  17   2.0000      -1.228206       -33.4212
  18   2.0000      -1.109743       -30.1976
  19   2.0000      -1.103945       -30.0399
  20   2.0000      -0.943917       -25.6853
  21   2.0000      -0.835692       -22.7403
  22   2.0000      -0.826503       -22.4903
  23   2.0000      -0.705135       -19.1877
  24   2.0000      -0.689970       -18.7750
  25   2.0000      -0.688001       -18.7215
  26   2.0000      -0.675250       -18.3745
  27   2.0000      -0.601947       -16.3798
  28   2.0000      -0.591543       -16.0967
  29   2.0000      -0.585376       -15.9289
  30   2.0000      -0.575034       -15.6475
  31   2.0000      -0.554505       -15.0888
  32   2.0000      -0.550844       -14.9892
  33   2.0000      -0.542875       -14.7724
  34   2.0000      -0.526369       -14.3232
  35   2.0000      -0.503995       -13.7144
  36   2.0000      -0.486796       -13.2464
  37   2.0000      -0.478748       -13.0274
  38   2.0000      -0.448947       -12.2165
  39   2.0000      -0.423742       -11.5306
  40   2.0000      -0.418978       -11.4010
  41   2.0000      -0.416414       -11.3312
  42   2.0000      -0.410650       -11.1744
  43   2.0000      -0.394173       -10.7260
  44   2.0000      -0.383392       -10.4326
  45   2.0000      -0.382455       -10.4071
  46   2.0000      -0.376614       -10.2482
  47   2.0000      -0.368893       -10.0381
  48   2.0000      -0.350495        -9.5375
  49   2.0000      -0.332905        -9.0588
  50   2.0000      -0.327320        -8.9068
  51   2.0000      -0.293691        -7.9917
  52   2.0000      -0.284327        -7.7369
  53   0.0000      -0.089575        -2.4375
  54   0.0000      -0.008668        -0.2359
  55   0.0000       0.012527         0.3409
  56   0.0000       0.019010         0.5173
  57   0.0000       0.032717         0.8903

MULLIKEN ATOMIC CHARGES
-----------------------
   0 C :   -0.250497
   1 C :   -0.189667
   2 C :   -0.229051
   3 C :   -0.188883
   4 C :   -0.269816
   5 C :   -0.250059
   6 H :    0.226758
   7 H :    0.229580
   8 H :    0.226022
   9 H :    0.230707
  10 H :    0.226568
  11 Pd:    0.543604
  12 O :   -0.457211
  13 O :   -0.463607
  14 O :   -0.510837
  15 C :    0.400017
  16 O :   -0.360513
  17 H :    0.247012
  18 C :    0.430216
  19 H :    0.213531
  20 H :    0.196124
Sum of atomic charges:   -0.0000000

LOEWDIN ATOMIC CHARGES
----------------------
   0 C :   -0.109218
   1 C :   -0.136481
   2 C :   -0.121871
   3 C :   -0.136597
   4 C :   -0.131163
   5 C :   -0.107442
   6 H :    0.138006
   7 H :    0.144589
   8 H :    0.138028
   9 H :    0.139847
  10 H :    0.143282
  11 Pd:   -0.133980
  12 O :   -0.152360
  13 O :   -0.146592
  14 O :   -0.201928
  15 C :    0.145833
  16 O :   -0.056179
  17 H :    0.159610
  18 C :    0.179317
  19 H :    0.126796
  20 H :    0.118504

  Mayer bond orders larger than 0.100000
B(  0-C ,  1-C ) :   1.4392 B(  0-C ,  4-C ) :   1.3793 B(  0-C ,  6-H ) :   0.9170
B(  1-C ,  2-C ) :   1.4159 B(  1-C ,  7-H ) :   0.9165 B(  2-C ,  3-C ) :   1.4187
B(  2-C ,  4-C ) :   0.1124 B(  2-C ,  8-H ) :   0.9157 B(  3-C ,  5-C ) :   1.4352
B(  3-C , 10-H ) :   0.9179 B(  4-C ,  5-C ) :   1.3949 B(  4-C , 17-H ) :   0.9071
B(  5-C ,  9-H ) :   0.9157 B( 11-Pd, 12-O ) :   0.5764 B( 11-Pd, 13-O ) :   0.5559
B( 11-Pd, 14-O ) :   0.6816 B( 11-Pd, 16-O ) :   0.4276 B( 12-O , 13-O ) :   0.1125
B( 12-O , 18-C ) :   1.4616 B( 13-O , 18-C ) :   1.4573 B( 14-O , 15-C ) :   1.2761
B( 14-O , 16-O ) :   0.1047 B( 15-C , 16-O ) :   1.6877 B( 15-C , 20-H ) :   0.8839
B( 18-C , 19-H ) :   0.8883

Dispersion correction           -0.013233323
FINAL SINGLE POINT ENERGY      -737.087864809729
Dispersion correction            ... done

DIPOLE MOMENT
-------------
                                X             Y             Z
Electronic contribution:     54.33811      47.36349       3.31235
Nuclear contribution   :    -54.50827     -47.77701      -3.11775
                        -----------------------------------------
Total Dipole Moment    :     -0.17017      -0.41352       0.19460
                        -----------------------------------------
Magnitude (a.u.)       :      0.48767
Magnitude (Debye)      :      1.23956

Rotational constants in cm-1:     0.027756     0.019829     0.014800
Rotational constants in MHz :   832.099706   594.464853   443.694729

                             ****ORCA TERMINATED NORMALLY****
TOTAL RUN TIME: 0 days 0 hours 3 minutes 47 seconds 494 msec
