                         Program Version 5.0.3 -  RELEASE  -
|  1> ! EnGrad PBEh-3c
|  2> %output
|  3> xyzfile=True
|  4> end
|  5> %scf
|  6> maxiter 250
|  7> end
|  8> %output
|  9> Print[P_Hirshfeld] = 1
| 10> end
| 11> % maxcore
| 12> 4000
| 13> *xyz 0 1
| 14> C   -1.85656051   0.15882030  -0.18216232
| 15> C   -1.63941704  -0.65101364  -1.28968201
| 16> C   -0.92338402  -1.82421000  -1.16271252
| 17> C   -0.36526748  -2.16908673   0.05271950
| 18> C   -1.36611374  -0.19272784   1.11414743
| 19> C   -0.55064769  -1.36287717   1.16885357
| 20> H   -2.45285182   1.04126362  -0.31534566
| 21> H   -2.08503163  -0.39259532  -2.23841574
| 22> H   -0.82440405  -2.48476058  -2.00631337
| 23> H   -0.08542214  -1.64959089   2.09369346
| 24> H    0.19118126  -3.08789440   0.14638624
| 25> Pd   1.40985017   1.22206523   0.03647206
| 26> O    2.41451958   0.73523602  -1.69246800
| 27> O    2.61005932  -0.43538535   0.10460104
| 28> O    0.32084786   2.92422991  -0.07420684
| 29> C    0.16560347   2.97472742   1.19767516
| 30> O    0.70142751   2.11765181   1.89108410
| 31> H   -1.69290346   0.51227899   2.24560840
| 32> C    2.90546827  -0.26590080  -1.10462542
| 33> H    3.59305644  -0.94600975  -1.61048306
| 34> H   -0.47007002   3.77446193   1.62530346
| 35> *
| 36>
| 37>                          ****END OF INPUT****

CARTESIAN COORDINATES (ANGSTROEM)
---------------------------------
  C     -1.856561    0.158820   -0.182162
  C     -1.639417   -0.651014   -1.289682
  C     -0.923384   -1.824210   -1.162713
  C     -0.365267   -2.169087    0.052719
  C     -1.366114   -0.192728    1.114147
  C     -0.550648   -1.362877    1.168854
  H     -2.452852    1.041264   -0.315346
  H     -2.085032   -0.392595   -2.238416
  H     -0.824404   -2.484761   -2.006313
  H     -0.085422   -1.649591    2.093693
  H      0.191181   -3.087894    0.146386
  Pd     1.409850    1.222065    0.036472
  O      2.414520    0.735236   -1.692468
  O      2.610059   -0.435385    0.104601
  O      0.320848    2.924230   -0.074207
  C      0.165603    2.974727    1.197675
  O      0.701428    2.117652    1.891084
  H     -1.692903    0.512279    2.245608
  C      2.905468   -0.265901   -1.104625
  H      3.593056   -0.946010   -1.610483
  H     -0.470070    3.774462    1.625303

 Total Charge           Charge          ....    0
 Multiplicity           Mult            ....    1
 Number of Electrons    NEL             ....  106
 Basis Dimension        Dim             ....  227

ORBITAL ENERGIES
----------------

  NO   OCC          E(Eh)            E(eV)
   0   2.0000     -19.536629      -531.6187
   1   2.0000     -19.536374      -531.6118
   2   2.0000     -19.527756      -531.3773
   3   2.0000     -19.527669      -531.3749
   4   2.0000     -10.596271      -288.3392
   5   2.0000     -10.589199      -288.1468
   6   2.0000     -10.489370      -285.4303
   7   2.0000     -10.458849      -284.5998
   8   2.0000     -10.457513      -284.5634
   9   2.0000     -10.452770      -284.4343
  10   2.0000     -10.452330      -284.4224
  11   2.0000     -10.450813      -284.3811
  12   2.0000      -3.694311      -100.5273
  13   2.0000      -2.347290       -63.8730
  14   2.0000      -2.335764       -63.5594
  15   2.0000      -2.301299       -62.6215
  16   2.0000      -1.240903       -33.7667
  17   2.0000      -1.231647       -33.5148
  18   2.0000      -1.121744       -30.5242
  19   2.0000      -1.114069       -30.3154
  20   2.0000      -0.956913       -26.0389
  21   2.0000      -0.841996       -22.9119
  22   2.0000      -0.834564       -22.7097
  23   2.0000      -0.706994       -19.2383
  24   2.0000      -0.691271       -18.8104
  25   2.0000      -0.681698       -18.5499
  26   2.0000      -0.677707       -18.4414
  27   2.0000      -0.599753       -16.3201
  28   2.0000      -0.590323       -16.0635
  29   2.0000      -0.582825       -15.8595
  30   2.0000      -0.575221       -15.6526
  31   2.0000      -0.552867       -15.0443
  32   2.0000      -0.541118       -14.7246
  33   2.0000      -0.527870       -14.3641
  34   2.0000      -0.521308       -14.1855
  35   2.0000      -0.512636       -13.9495
  36   2.0000      -0.485670       -13.2158
  37   2.0000      -0.468398       -12.7458
  38   2.0000      -0.452035       -12.3005
  39   2.0000      -0.431037       -11.7291
  40   2.0000      -0.424018       -11.5381
  41   2.0000      -0.414154       -11.2697
  42   2.0000      -0.399940       -10.8829
  43   2.0000      -0.394837       -10.7441
  44   2.0000      -0.392423       -10.6784
  45   2.0000      -0.389602       -10.6016
  46   2.0000      -0.377327       -10.2676
  47   2.0000      -0.373248       -10.1566
  48   2.0000      -0.353384        -9.6161
  49   2.0000      -0.337204        -9.1758
  50   2.0000      -0.328720        -8.9449
  51   2.0000      -0.297956        -8.1078
  52   2.0000      -0.293323        -7.9817
  53   0.0000      -0.091583        -2.4921
  54   0.0000       0.005727         0.1559
  55   0.0000       0.012385         0.3370
  56   0.0000       0.018576         0.5055
  57   0.0000       0.029774         0.8102

MULLIKEN ATOMIC CHARGES
-----------------------
   0 C :   -0.234620
   1 C :   -0.203057
   2 C :   -0.231882
   3 C :   -0.203992
   4 C :   -0.232487
   5 C :   -0.231031
   6 H :    0.230839
   7 H :    0.228182
   8 H :    0.224283
   9 H :    0.237434
  10 H :    0.225140
  11 Pd:    0.544311
  12 O :   -0.454546
  13 O :   -0.455158
  14 O :   -0.477992
  15 C :    0.415880
  16 O :   -0.427578
  17 H :    0.197723
  18 C :    0.435448
  19 H :    0.211387
  20 H :    0.201714
Sum of atomic charges:   -0.0000000

LOEWDIN ATOMIC CHARGES
----------------------
   0 C :   -0.125621
   1 C :   -0.127639
   2 C :   -0.130275
   3 C :   -0.128069
   4 C :   -0.107660
   5 C :   -0.120987
   6 H :    0.143440
   7 H :    0.142465
   8 H :    0.137742
   9 H :    0.146603
  10 H :    0.141222
  11 Pd:   -0.128585
  12 O :   -0.137440
  13 O :   -0.136517
  14 O :   -0.158996
  15 C :    0.157358
  16 O :   -0.137275
  17 H :    0.147094
  18 C :    0.176407
  19 H :    0.126329
  20 H :    0.120403

  Mayer bond orders larger than 0.100000
B(  0-C ,  1-C ) :   1.4312 B(  0-C ,  4-C ) :   1.3915 B(  0-C ,  6-H ) :   0.9161
B(  1-C ,  2-C ) :   1.4232 B(  1-C ,  7-H ) :   0.9167 B(  2-C ,  3-C ) :   1.4245
B(  2-C ,  8-H ) :   0.9178 B(  3-C ,  5-C ) :   1.4284 B(  3-C , 10-H ) :   0.9181
B(  4-C ,  5-C ) :   1.4078 B(  4-C , 17-H ) :   0.9181 B(  5-C ,  9-H ) :   0.9138
B( 11-Pd, 12-O ) :   0.5849 B( 11-Pd, 13-O ) :   0.5706 B( 11-Pd, 14-O ) :   0.6201
B( 11-Pd, 16-O ) :   0.4795 B( 12-O , 13-O ) :   0.1126 B( 12-O , 18-C ) :   1.4554
B( 13-O , 18-C ) :   1.4559 B( 14-O , 15-C ) :   1.3803 B( 14-O , 16-O ) :   0.1091
B( 15-C , 16-O ) :   1.5683 B( 15-C , 20-H ) :   0.8872 B( 18-C , 19-H ) :   0.8897

Dispersion correction           -0.013379051
FINAL SINGLE POINT ENERGY      -737.106644210092
Dispersion correction            ... done

DIPOLE MOMENT
-------------
                                X             Y             Z
Electronic contribution:     54.26993      46.82401       1.31235
Nuclear contribution   :    -54.42460     -47.21080      -1.40048
                        -----------------------------------------
Total Dipole Moment    :     -0.15467      -0.38679      -0.08813
                        -----------------------------------------
Magnitude (a.u.)       :      0.42579
Magnitude (Debye)      :      1.08227

Rotational constants in cm-1:     0.027951     0.020068     0.014968
Rotational constants in MHz :   837.964356   601.616804   448.743411

                             ****ORCA TERMINATED NORMALLY****
TOTAL RUN TIME: 0 days 0 hours 4 minutes 9 seconds 393 msec
