                         Program Version 5.0.3 -  RELEASE  -
|  1> ! EnGrad PBEh-3c
|  2> %output
|  3> xyzfile=True
|  4> end
|  5> %scf
|  6> maxiter 250
|  7> end
|  8> %output
|  9> Print[P_Hirshfeld] = 1
| 10> end
| 11> % maxcore
| 12> 4000
| 13> *xyz 0 1
| 14> C   -1.84591387   0.16832532  -0.18002117
| 15> C   -1.66537252  -0.67305535  -1.29380049
| 16> C   -0.97588384  -1.86007312  -1.16222739
| 17> C   -0.38906151  -2.18956989   0.04275832
| 18> C   -1.36330830  -0.10463871   1.20915084
| 19> C   -0.54499058  -1.35126765   1.16349169
| 20> H   -2.42094771   1.05782400  -0.33392228
| 21> H   -2.12991981  -0.41272797  -2.23610832
| 22> H   -0.91507760  -2.53548780  -1.99145413
| 23> H   -0.05241404  -1.64341173   2.06989655
| 24> H    0.15010910  -3.11970755   0.14785450
| 25> Pd   1.41405669   1.23712668   0.07361290
| 26> O    2.46008210   0.76698161  -1.67961092
| 27> O    2.59889345  -0.43697036   0.09524782
| 28> O    0.32656589   2.92125769  -0.08025836
| 29> C    0.16208834   2.96198871   1.21146307
| 30> O    0.68824563   2.11171048   1.89629587
| 31> H   -1.61508196   0.46744618   2.12874731
| 32> C    2.95497698  -0.23401494  -1.09526460
| 33> H    3.64372956  -0.91248834  -1.60317404
| 34> H   -0.48113300   3.77701943   1.61781497
| 35> *
| 36>
| 37>                          ****END OF INPUT****

CARTESIAN COORDINATES (ANGSTROEM)
---------------------------------
  C     -1.845914    0.168325   -0.180021
  C     -1.665373   -0.673055   -1.293800
  C     -0.975884   -1.860073   -1.162227
  C     -0.389062   -2.189570    0.042758
  C     -1.363308   -0.104639    1.209151
  C     -0.544991   -1.351268    1.163492
  H     -2.420948    1.057824   -0.333922
  H     -2.129920   -0.412728   -2.236108
  H     -0.915078   -2.535488   -1.991454
  H     -0.052414   -1.643412    2.069897
  H      0.150109   -3.119708    0.147854
  Pd     1.414057    1.237127    0.073613
  O      2.460082    0.766982   -1.679611
  O      2.598893   -0.436970    0.095248
  O      0.326566    2.921258   -0.080258
  C      0.162088    2.961989    1.211463
  O      0.688246    2.111710    1.896296
  H     -1.615082    0.467446    2.128747
  C      2.954977   -0.234015   -1.095265
  H      3.643730   -0.912488   -1.603174
  H     -0.481133    3.777019    1.617815

 Total Charge           Charge          ....    0
 Multiplicity           Mult            ....    1
 Number of Electrons    NEL             ....  106
 Basis Dimension        Dim             ....  227

ORBITAL ENERGIES
----------------

  NO   OCC          E(Eh)            E(eV)
   0   2.0000     -19.536495      -531.6151
   1   2.0000     -19.530951      -531.4642
   2   2.0000     -19.530919      -531.4633
   3   2.0000     -19.529434      -531.4229
   4   2.0000     -10.594564      -288.2927
   5   2.0000     -10.592247      -288.2297
   6   2.0000     -10.482632      -285.2469
   7   2.0000     -10.465690      -284.7859
   8   2.0000     -10.464161      -284.7443
   9   2.0000     -10.453915      -284.4655
  10   2.0000     -10.453352      -284.4502
  11   2.0000     -10.451207      -284.3918
  12   2.0000      -3.692925      -100.4896
  13   2.0000      -2.346230       -63.8442
  14   2.0000      -2.333957       -63.5102
  15   2.0000      -2.300119       -62.5894
  16   2.0000      -1.241644       -33.7868
  17   2.0000      -1.231966       -33.5235
  18   2.0000      -1.117280       -30.4027
  19   2.0000      -1.113087       -30.2886
  20   2.0000      -0.945092       -25.7173
  21   2.0000      -0.832739       -22.6600
  22   2.0000      -0.831295       -22.6207
  23   2.0000      -0.704299       -19.1649
  24   2.0000      -0.692502       -18.8439
  25   2.0000      -0.685786       -18.6612
  26   2.0000      -0.674869       -18.3641
  27   2.0000      -0.598411       -16.2836
  28   2.0000      -0.590600       -16.0710
  29   2.0000      -0.583537       -15.8788
  30   2.0000      -0.573733       -15.6121
  31   2.0000      -0.553686       -15.0666
  32   2.0000      -0.541924       -14.7465
  33   2.0000      -0.537480       -14.6256
  34   2.0000      -0.527150       -14.3445
  35   2.0000      -0.503311       -13.6958
  36   2.0000      -0.488764       -13.2999
  37   2.0000      -0.475979       -12.9520
  38   2.0000      -0.451738       -12.2924
  39   2.0000      -0.424310       -11.5461
  40   2.0000      -0.421391       -11.4666
  41   2.0000      -0.415910       -11.3175
  42   2.0000      -0.409122       -11.1328
  43   2.0000      -0.395260       -10.7556
  44   2.0000      -0.387655       -10.5486
  45   2.0000      -0.386102       -10.5064
  46   2.0000      -0.377875       -10.2825
  47   2.0000      -0.371943       -10.1211
  48   2.0000      -0.352758        -9.5990
  49   2.0000      -0.336190        -9.1482
  50   2.0000      -0.328596        -8.9415
  51   2.0000      -0.291563        -7.9338
  52   2.0000      -0.287668        -7.8278
  53   0.0000      -0.090938        -2.4746
  54   0.0000      -0.003016        -0.0821
  55   0.0000       0.011586         0.3153
  56   0.0000       0.018214         0.4956
  57   0.0000       0.027920         0.7597

MULLIKEN ATOMIC CHARGES
-----------------------
   0 C :   -0.254192
   1 C :   -0.192854
   2 C :   -0.229772
   3 C :   -0.191637
   4 C :   -0.253892
   5 C :   -0.250395
   6 H :    0.223498
   7 H :    0.228679
   8 H :    0.225679
   9 H :    0.229827
  10 H :    0.225903
  11 Pd:    0.548058
  12 O :   -0.452602
  13 O :   -0.460720
  14 O :   -0.486071
  15 C :    0.417260
  16 O :   -0.415930
  17 H :    0.245535
  18 C :    0.429353
  19 H :    0.211051
  20 H :    0.203223
Sum of atomic charges:   -0.0000000

LOEWDIN ATOMIC CHARGES
----------------------
   0 C :   -0.113133
   1 C :   -0.136139
   2 C :   -0.124788
   3 C :   -0.135486
   4 C :   -0.127104
   5 C :   -0.108337
   6 H :    0.137613
   7 H :    0.143714
   8 H :    0.137499
   9 H :    0.140698
  10 H :    0.142728
  11 Pd:   -0.127705
  12 O :   -0.145093
  13 O :   -0.144037
  14 O :   -0.167390
  15 C :    0.162516
  16 O :   -0.116820
  17 H :    0.159827
  18 C :    0.173583
  19 H :    0.125847
  20 H :    0.122008

  Mayer bond orders larger than 0.100000
B(  0-C ,  1-C ) :   1.4342 B(  0-C ,  4-C ) :   1.3823 B(  0-C ,  6-H ) :   0.9180
B(  1-C ,  2-C ) :   1.4185 B(  1-C ,  7-H ) :   0.9170 B(  2-C ,  3-C ) :   1.4216
B(  2-C ,  4-C ) :   0.1053 B(  2-C ,  8-H ) :   0.9156 B(  3-C ,  5-C ) :   1.4301
B(  3-C , 10-H ) :   0.9184 B(  4-C ,  5-C ) :   1.3993 B(  4-C , 17-H ) :   0.9096
B(  5-C ,  9-H ) :   0.9162 B( 11-Pd, 12-O ) :   0.5710 B( 11-Pd, 13-O ) :   0.5667
B( 11-Pd, 14-O ) :   0.6389 B( 11-Pd, 16-O ) :   0.4691 B( 12-O , 13-O ) :   0.1120
B( 12-O , 18-C ) :   1.4699 B( 13-O , 18-C ) :   1.4518 B( 14-O , 15-C ) :   1.3505
B( 14-O , 16-O ) :   0.1093 B( 15-C , 16-O ) :   1.5884 B( 15-C , 20-H ) :   0.8863
B( 18-C , 19-H ) :   0.8882

Dispersion correction           -0.013241164
FINAL SINGLE POINT ENERGY      -737.115271973736
Dispersion correction            ... done

DIPOLE MOMENT
-------------
                                X             Y             Z
Electronic contribution:     54.41118      47.45320       2.96505
Nuclear contribution   :    -54.60435     -47.76822      -2.91273
                        -----------------------------------------
Total Dipole Moment    :     -0.19317      -0.31502       0.05232
                        -----------------------------------------
Magnitude (a.u.)       :      0.37322
Magnitude (Debye)      :      0.94865

Rotational constants in cm-1:     0.027830     0.019829     0.014795
Rotational constants in MHz :   834.325170   594.459388   443.543160

                             ****ORCA TERMINATED NORMALLY****
TOTAL RUN TIME: 0 days 0 hours 3 minutes 32 seconds 153 msec
