                         Program Version 5.0.3 -  RELEASE  -
|  1> ! EnGrad PBEh-3c
|  2> %output
|  3> xyzfile=True
|  4> end
|  5> %scf
|  6> maxiter 250
|  7> end
|  8> %output
|  9> Print[P_Hirshfeld] = 1
| 10> end
| 11> % maxcore
| 12> 4000
| 13> *xyz 0 1
| 14> C   -1.82067186   0.18984094  -0.13190015
| 15> C   -1.72048138  -0.69877061  -1.26615671
| 16> C   -1.08048513  -1.92803975  -1.15607634
| 17> C   -0.44839938  -2.20272163   0.05004965
| 18> C   -1.30881970  -0.07057577   1.19253599
| 19> C   -0.55454277  -1.29458860   1.16844593
| 20> H   -2.36050400   1.09645527  -0.37446819
| 21> H   -2.21725035  -0.45040788  -2.22547770
| 22> H   -1.09439551  -2.64069735  -1.96705716
| 23> H    0.01502406  -1.63502005   2.02649256
| 24> H    0.06871431  -3.17757568   0.15399001
| 25> Pd   1.43422589   1.26069139   0.12353598
| 26> O    2.55009741   0.83421105  -1.65063666
| 27> O    2.58388997  -0.44009116   0.08074246
| 28> O    0.33950899   2.91189145  -0.06286504
| 29> C    0.13928904   2.96623453   1.20050840
| 30> O    0.66956968   2.08162484   1.92409046
| 31> H   -1.47940838   0.42777884   1.96940005
| 32> C    3.03347519  -0.16818630  -1.07034201
| 33> H    3.74649964  -0.84295766  -1.58627436
| 34> H   -0.49699929   3.77373204   1.60287726
| 35> *
| 36>
| 37>                          ****END OF INPUT****

CARTESIAN COORDINATES (ANGSTROEM)
---------------------------------
  C     -1.820672    0.189841   -0.131900
  C     -1.720481   -0.698771   -1.266157
  C     -1.080485   -1.928040   -1.156076
  C     -0.448399   -2.202722    0.050050
  C     -1.308820   -0.070576    1.192536
  C     -0.554543   -1.294589    1.168446
  H     -2.360504    1.096455   -0.374468
  H     -2.217250   -0.450408   -2.225478
  H     -1.094396   -2.640697   -1.967057
  H      0.015024   -1.635020    2.026493
  H      0.068714   -3.177576    0.153990
  Pd     1.434226    1.260691    0.123536
  O      2.550097    0.834211   -1.650637
  O      2.583890   -0.440091    0.080742
  O      0.339509    2.911891   -0.062865
  C      0.139289    2.966235    1.200508
  O      0.669570    2.081625    1.924090
  H     -1.479408    0.427779    1.969400
  C      3.033475   -0.168186   -1.070342
  H      3.746500   -0.842958   -1.586274
  H     -0.496999    3.773732    1.602877

 Total Charge           Charge          ....    0
 Multiplicity           Mult            ....    1
 Number of Electrons    NEL             ....  106
 Basis Dimension        Dim             ....  227

ORBITAL ENERGIES
----------------

  NO   OCC          E(Eh)            E(eV)
   0   2.0000     -19.543439      -531.8040
   1   2.0000     -19.537870      -531.6525
   2   2.0000     -19.527598      -531.3729
   3   2.0000     -19.526857      -531.3528
   4   2.0000     -10.602986      -288.5219
   5   2.0000     -10.590715      -288.1880
   6   2.0000     -10.464893      -284.7642
   7   2.0000     -10.462242      -284.6921
   8   2.0000     -10.458398      -284.5875
   9   2.0000     -10.458160      -284.5810
  10   2.0000     -10.457331      -284.5584
  11   2.0000     -10.452430      -284.4251
  12   2.0000      -3.694591      -100.5349
  13   2.0000      -2.348329       -63.9013
  14   2.0000      -2.335219       -63.5445
  15   2.0000      -2.301788       -62.6348
  16   2.0000      -1.236911       -33.6581
  17   2.0000      -1.226903       -33.3857
  18   2.0000      -1.122109       -30.5341
  19   2.0000      -1.109351       -30.1870
  20   2.0000      -0.943471       -25.6732
  21   2.0000      -0.846959       -23.0469
  22   2.0000      -0.820356       -22.3230
  23   2.0000      -0.708068       -19.2675
  24   2.0000      -0.693859       -18.8809
  25   2.0000      -0.691728       -18.8229
  26   2.0000      -0.673646       -18.3308
  27   2.0000      -0.601032       -16.3549
  28   2.0000      -0.594189       -16.1687
  29   2.0000      -0.581452       -15.8221
  30   2.0000      -0.574467       -15.6320
  31   2.0000      -0.551554       -15.0085
  32   2.0000      -0.547987       -14.9115
  33   2.0000      -0.540157       -14.6984
  34   2.0000      -0.523716       -14.2510
  35   2.0000      -0.501373       -13.6430
  36   2.0000      -0.498694       -13.5701
  37   2.0000      -0.461289       -12.5523
  38   2.0000      -0.454484       -12.3671
  39   2.0000      -0.426084       -11.5943
  40   2.0000      -0.422796       -11.5049
  41   2.0000      -0.416613       -11.3366
  42   2.0000      -0.405557       -11.0358
  43   2.0000      -0.397759       -10.8236
  44   2.0000      -0.390386       -10.6230
  45   2.0000      -0.388808       -10.5800
  46   2.0000      -0.378472       -10.2987
  47   2.0000      -0.371205       -10.1010
  48   2.0000      -0.352506        -9.5922
  49   2.0000      -0.338090        -9.1999
  50   2.0000      -0.330690        -8.9985
  51   2.0000      -0.294123        -8.0035
  52   2.0000      -0.282189        -7.6788
  53   0.0000      -0.092761        -2.5242
  54   0.0000       0.003707         0.1009
  55   0.0000       0.005971         0.1625
  56   0.0000       0.010998         0.2993
  57   0.0000       0.026489         0.7208

MULLIKEN ATOMIC CHARGES
-----------------------
   0 C :   -0.267821
   1 C :   -0.209839
   2 C :   -0.217454
   3 C :   -0.207127
   4 C :   -0.196151
   5 C :   -0.260846
   6 H :    0.219292
   7 H :    0.224202
   8 H :    0.228486
   9 H :    0.229030
  10 H :    0.221748
  11 Pd:    0.551846
  12 O :   -0.446177
  13 O :   -0.466056
  14 O :   -0.464814
  15 C :    0.429395
  16 O :   -0.452828
  17 H :    0.240503
  18 C :    0.421665
  19 H :    0.209505
  20 H :    0.213442
Sum of atomic charges:    0.0000000

LOEWDIN ATOMIC CHARGES
----------------------
   0 C :   -0.113195
   1 C :   -0.133962
   2 C :   -0.132030
   3 C :   -0.130828
   4 C :   -0.122212
   5 C :   -0.104523
   6 H :    0.138379
   7 H :    0.140676
   8 H :    0.138631
   9 H :    0.143055
  10 H :    0.140426
  11 Pd:   -0.121354
  12 O :   -0.149627
  13 O :   -0.152917
  14 O :   -0.136385
  15 C :    0.183059
  16 O :   -0.152140
  17 H :    0.142145
  18 C :    0.169202
  19 H :    0.125520
  20 H :    0.128081

  Mayer bond orders larger than 0.100000
B(  0-C ,  1-C ) :   1.4246 B(  0-C ,  4-C ) :   1.3967 B(  0-C ,  6-H ) :   0.9198
B(  1-C ,  2-C ) :   1.4208 B(  1-C ,  7-H ) :   0.9185 B(  2-C ,  3-C ) :   1.4265
B(  2-C ,  8-H ) :   0.9138 B(  3-C ,  5-C ) :   1.4167 B(  3-C , 10-H ) :   0.9200
B(  4-C ,  5-C ) :   1.4205 B(  4-C , 17-H ) :   0.9132 B(  5-C ,  9-H ) :   0.9166
B( 11-Pd, 12-O ) :   0.5478 B( 11-Pd, 13-O ) :   0.5719 B( 11-Pd, 14-O ) :   0.6170
B( 11-Pd, 16-O ) :   0.5072 B( 12-O , 13-O ) :   0.1110 B( 12-O , 18-C ) :   1.4937
B( 13-O , 18-C ) :   1.4383 B( 14-O , 15-C ) :   1.3982 B( 14-O , 16-O ) :   0.1122
B( 15-C , 16-O ) :   1.5103 B( 15-C , 20-H ) :   0.8867 B( 18-C , 19-H ) :   0.8851

Dispersion correction           -0.013205958
FINAL SINGLE POINT ENERGY      -737.101374605322
Dispersion correction            ... done

DIPOLE MOMENT
-------------
                                X             Y             Z
Electronic contribution:     55.26647      48.53607       4.89063
Nuclear contribution   :    -55.48250     -48.66341      -4.88000
                        -----------------------------------------
Total Dipole Moment    :     -0.21603      -0.12734       0.01063
                        -----------------------------------------
Magnitude (a.u.)       :      0.25099
Magnitude (Debye)      :      0.63798

Rotational constants in cm-1:     0.028051     0.019384     0.014519
Rotational constants in MHz :   840.952840   581.103189   435.259272

                             ****ORCA TERMINATED NORMALLY****
TOTAL RUN TIME: 0 days 0 hours 3 minutes 41 seconds 813 msec
