                         Program Version 5.0.3 -  RELEASE  -
|  1> ! EnGrad PBEh-3c
|  2> %output
|  3> xyzfile=True
|  4> end
|  5> %scf
|  6> maxiter 250
|  7> end
|  8> %output
|  9> Print[P_Hirshfeld] = 1
| 10> end
| 11> % maxcore
| 12> 4000
| 13> *xyz 0 1
| 14> C   -1.83471112   0.17787425  -0.15866440
| 15> C   -1.68983059  -0.68446813  -1.28153180
| 16> C   -1.02230733  -1.89023765  -1.15949747
| 17> C   -0.41539647  -2.19540681   0.04599431
| 18> C   -1.33912551  -0.08952111   1.20177694
| 19> C   -0.54922997  -1.32611271   1.16569045
| 20> H   -2.39412196   1.07496909  -0.35191711
| 21> H   -2.16867830  -0.42945083  -2.23139031
| 22> H   -0.99466135  -2.58218125  -1.98062642
| 23> H   -0.02248409  -1.63968739   2.05063326
| 24> H    0.11398498  -3.14539022   0.15057753
| 25> Pd   1.42300806   1.24758502   0.09576945
| 26> O    2.50003213   0.79681896  -1.66675175
| 27> O    2.59223470  -0.43835542   0.08881014
| 28> O    0.33231022   2.91710082  -0.07253896
| 29> C    0.15196970   2.96387306   1.20660124
| 30> O    0.67995699   2.09835806   1.90863149
| 31> H   -1.55486816   0.44984127   2.05802681
| 32> C    2.98981556  -0.20479929  -1.08420361
| 33> H    3.68934034  -0.88162967  -1.59567373
| 34> H   -0.48817468   3.77556044   1.61118541
| 35> *
| 36>
| 37>                          ****END OF INPUT****

CARTESIAN COORDINATES (ANGSTROEM)
---------------------------------
  C     -1.834711    0.177874   -0.158664
  C     -1.689831   -0.684468   -1.281532
  C     -1.022307   -1.890238   -1.159497
  C     -0.415396   -2.195407    0.045994
  C     -1.339126   -0.089521    1.201777
  C     -0.549230   -1.326113    1.165690
  H     -2.394122    1.074969   -0.351917
  H     -2.168678   -0.429451   -2.231390
  H     -0.994661   -2.582181   -1.980626
  H     -0.022484   -1.639687    2.050633
  H      0.113985   -3.145390    0.150578
  Pd     1.423008    1.247585    0.095769
  O      2.500032    0.796819   -1.666752
  O      2.592235   -0.438355    0.088810
  O      0.332310    2.917101   -0.072539
  C      0.151970    2.963873    1.206601
  O      0.679957    2.098358    1.908631
  H     -1.554868    0.449841    2.058027
  C      2.989816   -0.204799   -1.084204
  H      3.689340   -0.881630   -1.595674
  H     -0.488175    3.775560    1.611185

 Total Charge           Charge          ....    0
 Multiplicity           Mult            ....    1
 Number of Electrons    NEL             ....  106
 Basis Dimension        Dim             ....  227

ORBITAL ENERGIES
----------------

  NO   OCC          E(Eh)            E(eV)
   0   2.0000     -19.537048      -531.6301
   1   2.0000     -19.535649      -531.5920
   2   2.0000     -19.529214      -531.4169
   3   2.0000     -19.529202      -531.4166
   4   2.0000     -10.598277      -288.3938
   5   2.0000     -10.591350      -288.2053
   6   2.0000     -10.471741      -284.9506
   7   2.0000     -10.465054      -284.7686
   8   2.0000     -10.463054      -284.7142
   9   2.0000     -10.455697      -284.5140
  10   2.0000     -10.454911      -284.4926
  11   2.0000     -10.451468      -284.3989
  12   2.0000      -3.693627      -100.5087
  13   2.0000      -2.347130       -63.8687
  14   2.0000      -2.334459       -63.5239
  15   2.0000      -2.300824       -62.6086
  16   2.0000      -1.238535       -33.7022
  17   2.0000      -1.229870       -33.4665
  18   2.0000      -1.120165       -30.4813
  19   2.0000      -1.111893       -30.2562
  20   2.0000      -0.943983       -25.6871
  21   2.0000      -0.837943       -22.8016
  22   2.0000      -0.827277       -22.5113
  23   2.0000      -0.704498       -19.1704
  24   2.0000      -0.693584       -18.8734
  25   2.0000      -0.688582       -18.7373
  26   2.0000      -0.674337       -18.3496
  27   2.0000      -0.599113       -16.3027
  28   2.0000      -0.591340       -16.0912
  29   2.0000      -0.582799       -15.8588
  30   2.0000      -0.573840       -15.6150
  31   2.0000      -0.552957       -15.0467
  32   2.0000      -0.543874       -14.7996
  33   2.0000      -0.538948       -14.6655
  34   2.0000      -0.525759       -14.3066
  35   2.0000      -0.501816       -13.6551
  36   2.0000      -0.494634       -13.4597
  37   2.0000      -0.469681       -12.7807
  38   2.0000      -0.452891       -12.3238
  39   2.0000      -0.424836       -11.5604
  40   2.0000      -0.421883       -11.4800
  41   2.0000      -0.416231       -11.3262
  42   2.0000      -0.407683       -11.0936
  43   2.0000      -0.396196       -10.7810
  44   2.0000      -0.388969       -10.5844
  45   2.0000      -0.388190       -10.5632
  46   2.0000      -0.378413       -10.2971
  47   2.0000      -0.371485       -10.1086
  48   2.0000      -0.353177        -9.6104
  49   2.0000      -0.337105        -9.1731
  50   2.0000      -0.329537        -8.9672
  51   2.0000      -0.290523        -7.9055
  52   2.0000      -0.287406        -7.8207
  53   0.0000      -0.091651        -2.4940
  54   0.0000       0.000310         0.0084
  55   0.0000       0.009522         0.2591
  56   0.0000       0.015301         0.4164
  57   0.0000       0.026884         0.7315

MULLIKEN ATOMIC CHARGES
-----------------------
   0 C :   -0.257462
   1 C :   -0.200962
   2 C :   -0.223881
   3 C :   -0.198968
   4 C :   -0.234753
   5 C :   -0.252263
   6 H :    0.221785
   7 H :    0.226690
   8 H :    0.226906
   9 H :    0.229444
  10 H :    0.224087
  11 Pd:    0.549907
  12 O :   -0.450114
  13 O :   -0.462285
  14 O :   -0.476738
  15 C :    0.423332
  16 O :   -0.433238
  17 H :    0.244607
  18 C :    0.425898
  19 H :    0.210149
  20 H :    0.207861
Sum of atomic charges:    0.0000000

LOEWDIN ATOMIC CHARGES
----------------------
   0 C :   -0.113624
   1 C :   -0.135109
   2 C :   -0.128038
   3 C :   -0.133329
   4 C :   -0.124451
   5 C :   -0.107143
   6 H :    0.137766
   7 H :    0.142345
   8 H :    0.137898
   9 H :    0.141480
  10 H :    0.141687
  11 Pd:   -0.124727
  12 O :   -0.147364
  13 O :   -0.146832
  14 O :   -0.153559
  15 C :    0.171813
  16 O :   -0.133144
  17 H :    0.153046
  18 C :    0.170968
  19 H :    0.125552
  20 H :    0.124764

  Mayer bond orders larger than 0.100000
B(  0-C ,  1-C ) :   1.4306 B(  0-C ,  4-C ) :   1.3879 B(  0-C ,  6-H ) :   0.9186
B(  1-C ,  2-C ) :   1.4197 B(  1-C ,  7-H ) :   0.9177 B(  2-C ,  3-C ) :   1.4240
B(  2-C ,  8-H ) :   0.9149 B(  3-C ,  5-C ) :   1.4248 B(  3-C , 10-H ) :   0.9191
B(  4-C ,  5-C ) :   1.4078 B(  4-C , 17-H ) :   0.9120 B(  5-C ,  9-H ) :   0.9163
B( 11-Pd, 12-O ) :   0.5614 B( 11-Pd, 13-O ) :   0.5686 B( 11-Pd, 14-O ) :   0.6291
B( 11-Pd, 16-O ) :   0.4859 B( 12-O , 13-O ) :   0.1115 B( 12-O , 18-C ) :   1.4795
B( 13-O , 18-C ) :   1.4474 B( 14-O , 15-C ) :   1.3717 B( 14-O , 16-O ) :   0.1108
B( 15-C , 16-O ) :   1.5531 B( 15-C , 20-H ) :   0.8866 B( 18-C , 19-H ) :   0.8869

Dispersion correction           -0.013224334
FINAL SINGLE POINT ENERGY      -737.119607110500
Dispersion correction            ... done

DIPOLE MOMENT
-------------
                                X             Y             Z
Electronic contribution:     54.78948      47.93314       3.82212
Nuclear contribution   :    -54.99409     -48.16552      -3.78583
                        -----------------------------------------
Total Dipole Moment    :     -0.20461      -0.23238       0.03629
                        -----------------------------------------
Magnitude (a.u.)       :      0.31174
Magnitude (Debye)      :      0.79238

Rotational constants in cm-1:     0.027929     0.019635     0.014674
Rotational constants in MHz :   837.277845   588.646094   439.919502

                             ****ORCA TERMINATED NORMALLY****
TOTAL RUN TIME: 0 days 0 hours 3 minutes 35 seconds 350 msec
