                         Program Version 5.0.3 -  RELEASE  -
|  1> ! EnGrad PBEh-3c
|  2> %output
|  3> xyzfile=True
|  4> end
|  5> %scf
|  6> maxiter 250
|  7> end
|  8> %output
|  9> Print[P_Hirshfeld] = 1
| 10> end
| 11> % maxcore
| 12> 4000
| 13> *xyz 0 1
| 14> C   -1.82650205   0.18248461  -0.14425247
| 15> C   -1.71339152  -0.68578897  -1.25939897
| 16> C   -1.06211624  -1.90947790  -1.15015393
| 17> C   -0.44055345  -2.19293127   0.06049959
| 18> C   -1.30064860  -0.13690264   1.10874151
| 19> C   -0.55205285  -1.30968730   1.16426238
| 20> H   -2.37166294   1.09084631  -0.36392311
| 21> H   -2.19808431  -0.44214288  -2.21873594
| 22> H   -1.06096169  -2.62185548  -1.97210679
| 23> H    0.00031674  -1.63445898   2.03657215
| 24> H    0.08130756  -3.15819459   0.15539310
| 25> Pd   1.43738712   1.25363901   0.10326514
| 26> O    2.53210388   0.82494928  -1.65355968
| 27> O    2.59092928  -0.43844962   0.08659451
| 28> O    0.33748970   2.91426351  -0.05804356
| 29> C    0.14904232   2.95821228   1.20405285
| 30> O    0.66577735   2.09564523   1.91122960
| 31> H   -1.51504628   0.46717906   2.04537979
| 32> C    3.01068776  -0.18331729  -1.07435333
| 33> H    3.72659946  -0.85195475  -1.58608940
| 34> H   -0.49245867   3.77221838   1.60596686
| 35> *
| 36>
| 37>                          ****END OF INPUT****

CARTESIAN COORDINATES (ANGSTROEM)
---------------------------------
  C     -1.826502    0.182485   -0.144252
  C     -1.713392   -0.685789   -1.259399
  C     -1.062116   -1.909478   -1.150154
  C     -0.440553   -2.192931    0.060500
  C     -1.300649   -0.136903    1.108742
  C     -0.552053   -1.309687    1.164262
  H     -2.371663    1.090846   -0.363923
  H     -2.198084   -0.442143   -2.218736
  H     -1.060962   -2.621855   -1.972107
  H      0.000317   -1.634459    2.036572
  H      0.081308   -3.158195    0.155393
  Pd     1.437387    1.253639    0.103265
  O      2.532104    0.824949   -1.653560
  O      2.590929   -0.438450    0.086595
  O      0.337490    2.914264   -0.058044
  C      0.149042    2.958212    1.204053
  O      0.665777    2.095645    1.911230
  H     -1.515046    0.467179    2.045380
  C      3.010688   -0.183317   -1.074353
  H      3.726599   -0.851955   -1.586089
  H     -0.492459    3.772218    1.605967

 Total Charge           Charge          ....    0
 Multiplicity           Mult            ....    1
 Number of Electrons    NEL             ....  106
 Basis Dimension        Dim             ....  227

ORBITAL ENERGIES
----------------

  NO   OCC          E(Eh)            E(eV)
   0   2.0000     -19.536266      -531.6088
   1   2.0000     -19.534949      -531.5730
   2   2.0000     -19.530964      -531.4645
   3   2.0000     -19.530935      -531.4638
   4   2.0000     -10.596037      -288.3328
   5   2.0000     -10.593156      -288.2544
   6   2.0000     -10.463714      -284.7321
   7   2.0000     -10.456808      -284.5442
   8   2.0000     -10.454914      -284.4927
   9   2.0000     -10.454711      -284.4872
  10   2.0000     -10.454022      -284.4684
  11   2.0000     -10.451725      -284.4059
  12   2.0000      -3.695269      -100.5534
  13   2.0000      -2.348902       -63.9169
  14   2.0000      -2.336012       -63.5661
  15   2.0000      -2.302519       -62.6547
  16   2.0000      -1.243175       -33.8285
  17   2.0000      -1.231852       -33.5204
  18   2.0000      -1.124649       -30.6032
  19   2.0000      -1.114158       -30.3178
  20   2.0000      -0.953561       -25.9477
  21   2.0000      -0.843102       -22.9420
  22   2.0000      -0.830332       -22.5945
  23   2.0000      -0.704133       -19.1604
  24   2.0000      -0.692871       -18.8540
  25   2.0000      -0.680230       -18.5100
  26   2.0000      -0.678548       -18.4642
  27   2.0000      -0.600854       -16.3501
  28   2.0000      -0.590401       -16.0656
  29   2.0000      -0.584261       -15.8985
  30   2.0000      -0.575974       -15.6730
  31   2.0000      -0.554700       -15.0941
  32   2.0000      -0.543475       -14.7887
  33   2.0000      -0.528300       -14.3758
  34   2.0000      -0.524252       -14.2656
  35   2.0000      -0.510698       -13.8968
  36   2.0000      -0.489582       -13.3222
  37   2.0000      -0.471436       -12.8284
  38   2.0000      -0.453239       -12.3333
  39   2.0000      -0.430047       -11.7022
  40   2.0000      -0.423645       -11.5280
  41   2.0000      -0.416157       -11.3242
  42   2.0000      -0.398384       -10.8406
  43   2.0000      -0.397297       -10.8110
  44   2.0000      -0.395608       -10.7650
  45   2.0000      -0.390232       -10.6188
  46   2.0000      -0.379862       -10.3366
  47   2.0000      -0.373283       -10.1576
  48   2.0000      -0.354431        -9.6446
  49   2.0000      -0.338842        -9.2203
  50   2.0000      -0.330887        -9.0039
  51   2.0000      -0.296217        -8.0605
  52   2.0000      -0.288753        -7.8574
  53   0.0000      -0.093069        -2.5325
  54   0.0000       0.009675         0.2633
  55   0.0000       0.012040         0.3276
  56   0.0000       0.017321         0.4713
  57   0.0000       0.027963         0.7609

MULLIKEN ATOMIC CHARGES
-----------------------
   0 C :   -0.227056
   1 C :   -0.218709
   2 C :   -0.221420
   3 C :   -0.216931
   4 C :   -0.253783
   5 C :   -0.222837
   6 H :    0.225838
   7 H :    0.223637
   8 H :    0.226077
   9 H :    0.234326
  10 H :    0.221096
  11 Pd:    0.546100
  12 O :   -0.448717
  13 O :   -0.462183
  14 O :   -0.469812
  15 C :    0.421119
  16 O :   -0.433024
  17 H :    0.234347
  18 C :    0.426993
  19 H :    0.210239
  20 H :    0.204701
Sum of atomic charges:   -0.0000000

LOEWDIN ATOMIC CHARGES
----------------------
   0 C :   -0.124064
   1 C :   -0.127555
   2 C :   -0.134592
   3 C :   -0.125337
   4 C :   -0.123518
   5 C :   -0.117409
   6 H :    0.142963
   7 H :    0.139194
   8 H :    0.138439
   9 H :    0.146797
  10 H :    0.138702
  11 Pd:   -0.120861
  12 O :   -0.146072
  13 O :   -0.145950
  14 O :   -0.143407
  15 C :    0.161257
  16 O :   -0.133148
  17 H :    0.154421
  18 C :    0.171491
  19 H :    0.125896
  20 H :    0.122751

  Mayer bond orders larger than 0.100000
B(  0-C ,  1-C ) :   1.4279 B(  0-C ,  4-C ) :   1.3922 B(  0-C ,  6-H ) :   0.9176
B(  1-C ,  2-C ) :   1.4233 B(  1-C ,  7-H ) :   0.9182 B(  2-C ,  3-C ) :   1.4266
B(  2-C ,  8-H ) :   0.9162 B(  3-C ,  5-C ) :   1.4226 B(  3-C , 10-H ) :   0.9196
B(  4-C ,  5-C ) :   1.4144 B(  4-C , 17-H ) :   0.9147 B(  5-C ,  9-H ) :   0.9145
B( 11-Pd, 12-O ) :   0.5620 B( 11-Pd, 13-O ) :   0.5708 B( 11-Pd, 14-O ) :   0.6261
B( 11-Pd, 16-O ) :   0.4911 B( 12-O , 13-O ) :   0.1115 B( 12-O , 18-C ) :   1.4799
B( 13-O , 18-C ) :   1.4447 B( 14-O , 15-C ) :   1.3835 B( 14-O , 16-O ) :   0.1098
B( 15-C , 16-O ) :   1.5501 B( 15-C , 20-H ) :   0.8878 B( 18-C , 19-H ) :   0.8864

Dispersion correction           -0.013221090
FINAL SINGLE POINT ENERGY      -737.135345553964
Dispersion correction            ... done

DIPOLE MOMENT
-------------
                                X             Y             Z
Electronic contribution:     55.46684      48.19854       4.09114
Nuclear contribution   :    -55.62697     -48.42623      -4.09463
                        -----------------------------------------
Total Dipole Moment    :     -0.16013      -0.22768      -0.00349
                        -----------------------------------------
Magnitude (a.u.)       :      0.27838
Magnitude (Debye)      :      0.70757

Rotational constants in cm-1:     0.028239     0.019471     0.014597
Rotational constants in MHz :   846.592371   583.713606   437.609097

                             ****ORCA TERMINATED NORMALLY****
TOTAL RUN TIME: 0 days 0 hours 3 minutes 52 seconds 386 msec
