                         Program Version 5.0.3 -  RELEASE  -
|  1> ! EnGrad PBEh-3c
|  2> %output
|  3> xyzfile=True
|  4> end
|  5> %scf
|  6> maxiter 250
|  7> end
|  8> %output
|  9> Print[P_Hirshfeld] = 1
| 10> end
| 11> % maxcore
| 12> 4000
| 13> *xyz 0 1
| 14> C   -1.82264634   0.18238307  -0.14751263
| 15> C   -1.73289962  -0.68389259  -1.24013960
| 16> C   -1.09144102  -1.91875051  -1.13788108
| 17> C   -0.46063604  -2.19031200   0.07548380
| 18> C   -1.26957226  -0.18179346   1.02698339
| 19> C   -0.54811879  -1.31020422   1.15639863
| 20> H   -2.35476171   1.10295767  -0.36988499
| 21> H   -2.21718342  -0.45036616  -2.20275052
| 22> H   -1.10861915  -2.64790630  -1.96276723
| 23> H    0.01467262  -1.62846716   2.02794969
| 24> H    0.05582715  -3.16077970   0.16103541
| 25> Pd   1.45172110   1.25451480   0.09685241
| 26> O    2.55572846   0.84684359  -1.64039314
| 27> O    2.59397606  -0.43809073   0.08615191
| 28> O    0.34285038   2.91126347  -0.04091963
| 29> C    0.13989864   2.96613674   1.19224542
| 30> O    0.65859438   2.08701523   1.92092719
| 31> H   -1.48779170   0.48446498   2.04130890
| 32> C    3.01820532  -0.16849670  -1.06731313
| 33> H    3.75285098  -0.82795782  -1.57645481
| 34> H   -0.49337605   3.76625631   1.60233170
| 35> *
| 36>
| 37>                          ****END OF INPUT****

CARTESIAN COORDINATES (ANGSTROEM)
---------------------------------
  C     -1.822646    0.182383   -0.147513
  C     -1.732900   -0.683893   -1.240140
  C     -1.091441   -1.918751   -1.137881
  C     -0.460636   -2.190312    0.075484
  C     -1.269572   -0.181793    1.026983
  C     -0.548119   -1.310204    1.156399
  H     -2.354762    1.102958   -0.369885
  H     -2.217183   -0.450366   -2.202751
  H     -1.108619   -2.647906   -1.962767
  H      0.014673   -1.628467    2.027950
  H      0.055827   -3.160780    0.161035
  Pd     1.451721    1.254515    0.096852
  O      2.555728    0.846844   -1.640393
  O      2.593976   -0.438091    0.086152
  O      0.342850    2.911263   -0.040920
  C      0.139899    2.966137    1.192245
  O      0.658594    2.087015    1.920927
  H     -1.487792    0.484465    2.041309
  C      3.018205   -0.168497   -1.067313
  H      3.752851   -0.827958   -1.576455
  H     -0.493376    3.766256    1.602332

 Total Charge           Charge          ....    0
 Multiplicity           Mult            ....    1
 Number of Electrons    NEL             ....  106
 Basis Dimension        Dim             ....  227

ORBITAL ENERGIES
----------------

  NO   OCC          E(Eh)            E(eV)
   0   2.0000     -19.539305      -531.6915
   1   2.0000     -19.534185      -531.5522
   2   2.0000     -19.534020      -531.5477
   3   2.0000     -19.527689      -531.3754
   4   2.0000     -10.595501      -288.3182
   5   2.0000     -10.593570      -288.2657
   6   2.0000     -10.460127      -284.6345
   7   2.0000     -10.452885      -284.4374
   8   2.0000     -10.452174      -284.4181
   9   2.0000     -10.451593      -284.4023
  10   2.0000     -10.450091      -284.3614
  11   2.0000     -10.447590      -284.2934
  12   2.0000      -3.696610      -100.5899
  13   2.0000      -2.350261       -63.9538
  14   2.0000      -2.337373       -63.6031
  15   2.0000      -2.303782       -62.6891
  16   2.0000      -1.242585       -33.8125
  17   2.0000      -1.235414       -33.6173
  18   2.0000      -1.122280       -30.5388
  19   2.0000      -1.118740       -30.4425
  20   2.0000      -0.965046       -26.2602
  21   2.0000      -0.843014       -22.9396
  22   2.0000      -0.838803       -22.8250
  23   2.0000      -0.705946       -19.2098
  24   2.0000      -0.694054       -18.8862
  25   2.0000      -0.682165       -18.5627
  26   2.0000      -0.677139       -18.4259
  27   2.0000      -0.601545       -16.3689
  28   2.0000      -0.591230       -16.0882
  29   2.0000      -0.586037       -15.9469
  30   2.0000      -0.576804       -15.6956
  31   2.0000      -0.555592       -15.1184
  32   2.0000      -0.543541       -14.7905
  33   2.0000      -0.530465       -14.4347
  34   2.0000      -0.520192       -14.1551
  35   2.0000      -0.514898       -14.0111
  36   2.0000      -0.479153       -13.0384
  37   2.0000      -0.478297       -13.0151
  38   2.0000      -0.453860       -12.3501
  39   2.0000      -0.437370       -11.9014
  40   2.0000      -0.424511       -11.5515
  41   2.0000      -0.415684       -11.3113
  42   2.0000      -0.399531       -10.8718
  43   2.0000      -0.395118       -10.7517
  44   2.0000      -0.392900       -10.6913
  45   2.0000      -0.385376       -10.4866
  46   2.0000      -0.379052       -10.3145
  47   2.0000      -0.374663       -10.1951
  48   2.0000      -0.355080        -9.6622
  49   2.0000      -0.339929        -9.2499
  50   2.0000      -0.331586        -9.0229
  51   2.0000      -0.297655        -8.0996
  52   2.0000      -0.293921        -7.9980
  53   0.0000      -0.093834        -2.5534
  54   0.0000       0.012102         0.3293
  55   0.0000       0.016117         0.4386
  56   0.0000       0.019714         0.5365
  57   0.0000       0.028450         0.7742

MULLIKEN ATOMIC CHARGES
-----------------------
   0 C :   -0.191030
   1 C :   -0.237800
   2 C :   -0.217975
   3 C :   -0.236140
   4 C :   -0.266980
   5 C :   -0.187419
   6 H :    0.227829
   7 H :    0.222134
   8 H :    0.224594
   9 H :    0.237768
  10 H :    0.219799
  11 Pd:    0.543809
  12 O :   -0.447689
  13 O :   -0.459405
  14 O :   -0.454111
  15 C :    0.420828
  16 O :   -0.452767
  17 H :    0.209192
  18 C :    0.429631
  19 H :    0.209442
  20 H :    0.206289
Sum of atomic charges:   -0.0000000

LOEWDIN ATOMIC CHARGES
----------------------
   0 C :   -0.133164
   1 C :   -0.121864
   2 C :   -0.138895
   3 C :   -0.119342
   4 C :   -0.112514
   5 C :   -0.125679
   6 H :    0.147116
   7 H :    0.136676
   8 H :    0.138961
   9 H :    0.151496
  10 H :    0.136352
  11 Pd:   -0.118285
  12 O :   -0.140799
  13 O :   -0.141239
  14 O :   -0.123518
  15 C :    0.160189
  16 O :   -0.160446
  17 H :    0.145473
  18 C :    0.170759
  19 H :    0.125781
  20 H :    0.122943

  Mayer bond orders larger than 0.100000
B(  0-C ,  1-C ) :   1.4233 B(  0-C ,  4-C ) :   1.3934 B(  0-C ,  6-H ) :   0.9167
B(  1-C ,  2-C ) :   1.4252 B(  1-C ,  7-H ) :   0.9177 B(  2-C ,  3-C ) :   1.4272
B(  2-C ,  8-H ) :   0.9180 B(  3-C ,  5-C ) :   1.4186 B(  3-C , 10-H ) :   0.9189
B(  4-C ,  5-C ) :   1.4179 B(  4-C , 17-H ) :   0.9177 B(  5-C ,  9-H ) :   0.9128
B( 11-Pd, 12-O ) :   0.5653 B( 11-Pd, 13-O ) :   0.5761 B( 11-Pd, 14-O ) :   0.6055
B( 11-Pd, 16-O ) :   0.5089 B( 12-O , 13-O ) :   0.1117 B( 12-O , 18-C ) :   1.4773
B( 13-O , 18-C ) :   1.4436 B( 14-O , 15-C ) :   1.4240 B( 14-O , 16-O ) :   0.1098
B( 15-C , 16-O ) :   1.5126 B( 15-C , 20-H ) :   0.8889 B( 18-C , 19-H ) :   0.8867

Dispersion correction           -0.013226283
FINAL SINGLE POINT ENERGY      -737.124134480199
Dispersion correction            ... done

DIPOLE MOMENT
-------------
                                X             Y             Z
Electronic contribution:     56.12765      48.26872       3.66940
Nuclear contribution   :    -56.25779     -48.47958      -3.78925
                        -----------------------------------------
Total Dipole Moment    :     -0.13013      -0.21086      -0.11985
                        -----------------------------------------
Magnitude (a.u.)       :      0.27525
Magnitude (Debye)      :      0.69962

Rotational constants in cm-1:     0.028491     0.019337     0.014543
Rotational constants in MHz :   854.124458   579.717377   435.977044

                             ****ORCA TERMINATED NORMALLY****
TOTAL RUN TIME: 0 days 0 hours 3 minutes 49 seconds 658 msec
