                         Program Version 5.0.3 -  RELEASE  -
|  1> ! EnGrad PBEh-3c
|  2> %output
|  3> xyzfile=True
|  4> end
|  5> %scf
|  6> maxiter 250
|  7> end
|  8> %output
|  9> Print[P_Hirshfeld] = 1
| 10> end
| 11> % maxcore
| 12> 4000
| 13> *xyz 0 1
| 14> C   -1.82019823   0.18850293  -0.17233498
| 15> C   -1.77260425  -0.69539581  -1.22363588
| 16> C   -1.15475971  -1.94390097  -1.11744187
| 17> C   -0.49777449  -2.20398885   0.08642036
| 18> C   -1.23128916  -0.18357536   0.98674984
| 19> C   -0.52872399  -1.32570771   1.14070334
| 20> H   -2.31714309   1.12654637  -0.38170133
| 21> H   -2.26105901  -0.46904511  -2.17500673
| 22> H   -1.21198180  -2.70044686  -1.93845047
| 23> H    0.04568453  -1.61451821   2.00759414
| 24> H    0.00231803  -3.17300768   0.17123642
| 25> Pd   1.47457237   1.26177332   0.10074051
| 26> O    2.60602839   0.89218897  -1.61534186
| 27> O    2.59496483  -0.43730130   0.08365401
| 28> O    0.35472579   2.90703426  -0.02735080
| 29> C    0.12801025   2.96665752   1.19142505
| 30> O    0.64096908   2.07556679   1.93307495
| 31> H   -1.41356178   0.48017677   1.97035209
| 32> C    3.04877814  -0.13739932  -1.05555393
| 33> H    3.80844347  -0.77824025  -1.55769024
| 34> H   -0.49956970   3.75923200   1.59473498
| 35> *
| 36>
| 37>                          ****END OF INPUT****

CARTESIAN COORDINATES (ANGSTROEM)
---------------------------------
  C     -1.820198    0.188503   -0.172335
  C     -1.772604   -0.695396   -1.223636
  C     -1.154760   -1.943901   -1.117442
  C     -0.497774   -2.203989    0.086420
  C     -1.231289   -0.183575    0.986750
  C     -0.528724   -1.325708    1.140703
  H     -2.317143    1.126546   -0.381701
  H     -2.261059   -0.469045   -2.175007
  H     -1.211982   -2.700447   -1.938450
  H      0.045685   -1.614518    2.007594
  H      0.002318   -3.173008    0.171236
  Pd     1.474572    1.261773    0.100741
  O      2.606028    0.892189   -1.615342
  O      2.594965   -0.437301    0.083654
  O      0.354726    2.907034   -0.027351
  C      0.128010    2.966658    1.191425
  O      0.640969    2.075567    1.933075
  H     -1.413562    0.480177    1.970352
  C      3.048778   -0.137399   -1.055554
  H      3.808443   -0.778240   -1.557690
  H     -0.499570    3.759232    1.594735

 Total Charge           Charge          ....    0
 Multiplicity           Mult            ....    1
 Number of Electrons    NEL             ....  106
 Basis Dimension        Dim             ....  227

ORBITAL ENERGIES
----------------

  NO   OCC          E(Eh)            E(eV)
   0   2.0000     -19.540800      -531.7322
   1   2.0000     -19.537025      -531.6295
   2   2.0000     -19.535823      -531.5968
   3   2.0000     -19.523980      -531.2745
   4   2.0000     -10.597818      -288.3813
   5   2.0000     -10.592481      -288.2360
   6   2.0000     -10.455201      -284.5005
   7   2.0000     -10.452573      -284.4290
   8   2.0000     -10.448737      -284.3246
   9   2.0000     -10.447582      -284.2931
  10   2.0000     -10.446623      -284.2671
  11   2.0000     -10.443673      -284.1868
  12   2.0000      -3.697115      -100.6036
  13   2.0000      -2.350961       -63.9729
  14   2.0000      -2.337758       -63.6136
  15   2.0000      -2.304306       -62.7033
  16   2.0000      -1.243195       -33.8291
  17   2.0000      -1.236323       -33.6421
  18   2.0000      -1.122492       -30.5446
  19   2.0000      -1.116570       -30.3834
  20   2.0000      -0.967357       -26.3231
  21   2.0000      -0.844828       -22.9889
  22   2.0000      -0.838908       -22.8278
  23   2.0000      -0.708384       -19.2761
  24   2.0000      -0.695740       -18.9320
  25   2.0000      -0.681001       -18.5310
  26   2.0000      -0.679296       -18.4846
  27   2.0000      -0.602561       -16.3965
  28   2.0000      -0.593250       -16.1431
  29   2.0000      -0.587312       -15.9816
  30   2.0000      -0.577376       -15.7112
  31   2.0000      -0.555755       -15.1229
  32   2.0000      -0.544006       -14.8032
  33   2.0000      -0.531108       -14.4522
  34   2.0000      -0.520119       -14.1531
  35   2.0000      -0.514636       -14.0040
  36   2.0000      -0.485161       -13.2019
  37   2.0000      -0.475815       -12.9476
  38   2.0000      -0.454800       -12.3757
  39   2.0000      -0.438694       -11.9375
  40   2.0000      -0.425128       -11.5683
  41   2.0000      -0.415916       -11.3176
  42   2.0000      -0.397530       -10.8174
  43   2.0000      -0.395095       -10.7511
  44   2.0000      -0.394374       -10.7315
  45   2.0000      -0.385802       -10.4982
  46   2.0000      -0.379567       -10.3286
  47   2.0000      -0.374324       -10.1859
  48   2.0000      -0.354616        -9.6496
  49   2.0000      -0.340150        -9.2559
  50   2.0000      -0.332102        -9.0369
  51   2.0000      -0.298195        -8.1143
  52   2.0000      -0.293267        -7.9802
  53   0.0000      -0.093903        -2.5552
  54   0.0000       0.012477         0.3395
  55   0.0000       0.017866         0.4862
  56   0.0000       0.020407         0.5553
  57   0.0000       0.026930         0.7328

MULLIKEN ATOMIC CHARGES
-----------------------
   0 C :   -0.175932
   1 C :   -0.241054
   2 C :   -0.218481
   3 C :   -0.239364
   4 C :   -0.291542
   5 C :   -0.172220
   6 H :    0.227022
   7 H :    0.220605
   8 H :    0.222052
   9 H :    0.238284
  10 H :    0.218666
  11 Pd:    0.545255
  12 O :   -0.445866
  13 O :   -0.461684
  14 O :   -0.448103
  15 C :    0.419189
  16 O :   -0.463439
  17 H :    0.215361
  18 C :    0.432469
  19 H :    0.210215
  20 H :    0.208565
Sum of atomic charges:    0.0000000

LOEWDIN ATOMIC CHARGES
----------------------
   0 C :   -0.136051
   1 C :   -0.121669
   2 C :   -0.139085
   3 C :   -0.118784
   4 C :   -0.109970
   5 C :   -0.127952
   6 H :    0.147302
   7 H :    0.134876
   8 H :    0.139306
   9 H :    0.152148
  10 H :    0.134792
  11 Pd:   -0.115167
  12 O :   -0.136672
  13 O :   -0.142151
  14 O :   -0.114894
  15 C :    0.160850
  16 O :   -0.176263
  17 H :    0.145464
  18 C :    0.173817
  19 H :    0.126535
  20 H :    0.123568

  Mayer bond orders larger than 0.100000
B(  0-C ,  1-C ) :   1.4268 B(  0-C ,  4-C ) :   1.3922 B(  0-C ,  6-H ) :   0.9171
B(  1-C ,  2-C ) :   1.4237 B(  1-C ,  7-H ) :   0.9177 B(  2-C ,  3-C ) :   1.4246
B(  2-C ,  8-H ) :   0.9196 B(  3-C ,  5-C ) :   1.4227 B(  3-C , 10-H ) :   0.9187
B(  4-C ,  5-C ) :   1.4176 B(  4-C , 17-H ) :   0.9148 B(  5-C ,  9-H ) :   0.9127
B( 11-Pd, 12-O ) :   0.5655 B( 11-Pd, 13-O ) :   0.5812 B( 11-Pd, 14-O ) :   0.5969
B( 11-Pd, 16-O ) :   0.5111 B( 12-O , 13-O ) :   0.1122 B( 12-O , 18-C ) :   1.4791
B( 13-O , 18-C ) :   1.4359 B( 14-O , 15-C ) :   1.4409 B( 14-O , 16-O ) :   0.1097
B( 15-C , 16-O ) :   1.4980 B( 15-C , 20-H ) :   0.8893 B( 18-C , 19-H ) :   0.8866

Dispersion correction           -0.013197028
FINAL SINGLE POINT ENERGY      -737.125707441322
Dispersion correction            ... done

DIPOLE MOMENT
-------------
                                X             Y             Z
Electronic contribution:     57.17083      48.60595       3.71763
Nuclear contribution   :    -57.26534     -48.77684      -3.88330
                        -----------------------------------------
Total Dipole Moment    :     -0.09452      -0.17089      -0.16568
                        -----------------------------------------
Magnitude (a.u.)       :      0.25609
Magnitude (Debye)      :      0.65094

Rotational constants in cm-1:     0.028706     0.019006     0.014373
Rotational constants in MHz :   860.598781   569.772277   430.882960

                             ****ORCA TERMINATED NORMALLY****
TOTAL RUN TIME: 0 days 0 hours 3 minutes 48 seconds 368 msec
