                         Program Version 5.0.3 -  RELEASE  -
|  1> ! EnGrad PBEh-3c
|  2> %output
|  3> xyzfile=True
|  4> end
|  5> %scf
|  6> maxiter 250
|  7> end
|  8> %output
|  9> Print[P_Hirshfeld] = 1
| 10> end
| 11> % maxcore
| 12> 4000
| 13> *xyz 0 1
| 14> C   -1.81367222   0.19254307  -0.19356042
| 15> C   -1.81309582  -0.72491260  -1.23429990
| 16> C   -1.21621191  -1.96752267  -1.09685883
| 17> C   -0.53295707  -2.24277748   0.07449559
| 18> C   -1.19900166  -0.15621801   0.98787049
| 19> C   -0.51148424  -1.33619153   1.12272316
| 20> H   -2.28287988   1.15213922  -0.39023519
| 21> H   -2.30338157  -0.48447898  -2.14759782
| 22> H   -1.30722109  -2.73272054  -1.89719037
| 23> H    0.07468560  -1.60048316   1.99481312
| 24> H   -0.04676223  -3.18314978   0.18348600
| 25> Pd   1.49340126   1.26510995   0.09560118
| 26> O    2.65348671   0.93628607  -1.58600030
| 27> O    2.60281805  -0.43345729   0.07645869
| 28> O    0.37084883   2.90560903  -0.02287356
| 29> C    0.11751584   2.96528138   1.19360566
| 30> O    0.62601078   2.06382670   1.94973300
| 31> H   -1.33886702   0.46350512   1.88034324
| 32> C    3.07326749  -0.11149489  -1.04363038
| 33> H    3.85663875  -0.72798313  -1.53510567
| 34> H   -0.50875859   3.75452833   1.59067176
| 35> *
| 36>
| 37>                          ****END OF INPUT****

CARTESIAN COORDINATES (ANGSTROEM)
---------------------------------
  C     -1.813672    0.192543   -0.193560
  C     -1.813096   -0.724913   -1.234300
  C     -1.216212   -1.967523   -1.096859
  C     -0.532957   -2.242777    0.074496
  C     -1.199002   -0.156218    0.987870
  C     -0.511484   -1.336192    1.122723
  H     -2.282880    1.152139   -0.390235
  H     -2.303382   -0.484479   -2.147598
  H     -1.307221   -2.732721   -1.897190
  H      0.074686   -1.600483    1.994813
  H     -0.046762   -3.183150    0.183486
  Pd     1.493401    1.265110    0.095601
  O      2.653487    0.936286   -1.586000
  O      2.602818   -0.433457    0.076459
  O      0.370849    2.905609   -0.022874
  C      0.117516    2.965281    1.193606
  O      0.626011    2.063827    1.949733
  H     -1.338867    0.463505    1.880343
  C      3.073267   -0.111495   -1.043630
  H      3.856639   -0.727983   -1.535106
  H     -0.508759    3.754528    1.590672

 Total Charge           Charge          ....    0
 Multiplicity           Mult            ....    1
 Number of Electrons    NEL             ....  106
 Basis Dimension        Dim             ....  227

ORBITAL ENERGIES
----------------

  NO   OCC          E(Eh)            E(eV)
   0   2.0000     -19.541615      -531.7544
   1   2.0000     -19.538783      -531.6773
   2   2.0000     -19.538079      -531.6581
   3   2.0000     -19.521540      -531.2081
   4   2.0000     -10.598663      -288.4043
   5   2.0000     -10.593143      -288.2541
   6   2.0000     -10.449887      -284.3559
   7   2.0000     -10.449376      -284.3420
   8   2.0000     -10.448035      -284.3055
   9   2.0000     -10.446098      -284.2528
  10   2.0000     -10.445539      -284.2376
  11   2.0000     -10.444348      -284.2052
  12   2.0000      -3.697244      -100.6071
  13   2.0000      -2.351342       -63.9833
  14   2.0000      -2.337828       -63.6155
  15   2.0000      -2.304410       -62.7062
  16   2.0000      -1.245020       -33.8787
  17   2.0000      -1.233837       -33.5744
  18   2.0000      -1.126307       -30.6484
  19   2.0000      -1.110604       -30.2211
  20   2.0000      -0.961357       -26.1599
  21   2.0000      -0.840916       -22.8825
  22   2.0000      -0.840256       -22.8645
  23   2.0000      -0.709974       -19.3194
  24   2.0000      -0.697611       -18.9830
  25   2.0000      -0.682392       -18.5688
  26   2.0000      -0.681232       -18.5373
  27   2.0000      -0.603707       -16.4277
  28   2.0000      -0.595916       -16.2157
  29   2.0000      -0.587867       -15.9967
  30   2.0000      -0.578365       -15.7381
  31   2.0000      -0.554949       -15.1009
  32   2.0000      -0.544882       -14.8270
  33   2.0000      -0.530520       -14.4362
  34   2.0000      -0.523582       -14.2474
  35   2.0000      -0.514795       -14.0083
  36   2.0000      -0.483559       -13.1583
  37   2.0000      -0.481543       -13.1035
  38   2.0000      -0.455025       -12.3819
  39   2.0000      -0.435040       -11.8380
  40   2.0000      -0.426272       -11.5995
  41   2.0000      -0.416093       -11.3225
  42   2.0000      -0.402801       -10.9608
  43   2.0000      -0.395991       -10.7755
  44   2.0000      -0.395095       -10.7511
  45   2.0000      -0.389584       -10.6011
  46   2.0000      -0.380307       -10.3487
  47   2.0000      -0.374983       -10.2038
  48   2.0000      -0.353938        -9.6311
  49   2.0000      -0.340097        -9.2545
  50   2.0000      -0.332662        -9.0522
  51   2.0000      -0.294809        -8.0222
  52   2.0000      -0.291554        -7.9336
  53   0.0000      -0.093527        -2.5450
  54   0.0000       0.011257         0.3063
  55   0.0000       0.016884         0.4594
  56   0.0000       0.018285         0.4975
  57   0.0000       0.025319         0.6890

MULLIKEN ATOMIC CHARGES
-----------------------
   0 C :   -0.202946
   1 C :   -0.225366
   2 C :   -0.223729
   3 C :   -0.224370
   4 C :   -0.285621
   5 C :   -0.198894
   6 H :    0.224129
   7 H :    0.223788
   8 H :    0.217758
   9 H :    0.236238
  10 H :    0.222430
  11 Pd:    0.549184
  12 O :   -0.447075
  13 O :   -0.457707
  14 O :   -0.449304
  15 C :    0.417449
  16 O :   -0.472226
  17 H :    0.240127
  18 C :    0.434535
  19 H :    0.209853
  20 H :    0.211747
Sum of atomic charges:   -0.0000000

LOEWDIN ATOMIC CHARGES
----------------------
   0 C :   -0.128728
   1 C :   -0.126865
   2 C :   -0.134868
   3 C :   -0.124246
   4 C :   -0.120959
   5 C :   -0.120188
   6 H :    0.144300
   7 H :    0.135924
   8 H :    0.137361
   9 H :    0.149528
  10 H :    0.136032
  11 Pd:   -0.112255
  12 O :   -0.133125
  13 O :   -0.135240
  14 O :   -0.115800
  15 C :    0.167399
  16 O :   -0.192708
  17 H :    0.150537
  18 C :    0.172601
  19 H :    0.126364
  20 H :    0.124934

  Mayer bond orders larger than 0.100000
B(  0-C ,  1-C ) :   1.4330 B(  0-C ,  4-C ) :   1.3986 B(  0-C ,  6-H ) :   0.9180
B(  1-C ,  2-C ) :   1.4245 B(  1-C ,  7-H ) :   0.9172 B(  2-C ,  3-C ) :   1.4279
B(  2-C ,  8-H ) :   0.9213 B(  3-C ,  5-C ) :   1.4266 B(  3-C , 10-H ) :   0.9180
B(  4-C ,  5-C ) :   1.4268 B(  4-C , 17-H ) :   0.9071 B(  5-C ,  9-H ) :   0.9135
B( 11-Pd, 12-O ) :   0.5746 B( 11-Pd, 13-O ) :   0.5809 B( 11-Pd, 14-O ) :   0.5931
B( 11-Pd, 16-O ) :   0.5001 B( 12-O , 13-O ) :   0.1126 B( 12-O , 18-C ) :   1.4708
B( 13-O , 18-C ) :   1.4418 B( 14-O , 15-C ) :   1.4434 B( 14-O , 16-O ) :   0.1101
B( 15-C , 16-O ) :   1.4945 B( 15-C , 20-H ) :   0.8882 B( 18-C , 19-H ) :   0.8878

Dispersion correction           -0.013181834
FINAL SINGLE POINT ENERGY      -737.136849512875
Dispersion correction            ... done

DIPOLE MOMENT
-------------
                                X             Y             Z
Electronic contribution:     58.00406      48.74905       3.40390
Nuclear contribution   :    -58.07591     -48.90996      -3.59069
                        -----------------------------------------
Total Dipole Moment    :     -0.07184      -0.16091      -0.18679
                        -----------------------------------------
Magnitude (a.u.)       :      0.25680
Magnitude (Debye)      :      0.65273

Rotational constants in cm-1:     0.028827     0.018666     0.014188
Rotational constants in MHz :   864.226130   559.588048   425.337199

                             ****ORCA TERMINATED NORMALLY****
TOTAL RUN TIME: 0 days 0 hours 3 minutes 45 seconds 485 msec
