                         Program Version 5.0.3 -  RELEASE  -
|  1> ! EnGrad PBEh-3c
|  2> %output
|  3> xyzfile=True
|  4> end
|  5> %scf
|  6> maxiter 250
|  7> end
|  8> %output
|  9> Print[P_Hirshfeld] = 1
| 10> end
| 11> % maxcore
| 12> 4000
| 13> *xyz -1 1
| 14> Pd  -2.10925202  -1.60024265   0.66674185
| 15> Cl  -3.30674961  -3.34577594  -0.35187344
| 16> Cl  -0.27536673  -5.00183739   1.10474844
| 17> Cl  -4.10650105  -0.77710348   1.32551471
| 18> N   -1.01271878   0.02008260   1.39056025
| 19> C   -1.33890752   0.59837281   2.53114483
| 20> C   -0.82716354   1.82786923   2.95092839
| 21> C    0.09390053   2.45134230   2.14842821
| 22> C   -0.09487806   0.60253946   0.58982511
| 23> C    0.47750805   1.83985003   0.94828262
| 24> H    0.52056826   3.40154913   2.45077704
| 25> H   -2.00806514   0.03444659   3.17152979
| 26> H   -1.14221741   2.26417581   3.88971380
| 27> C    0.31214546  -0.09245157  -0.59524467
| 28> C    1.43201271   2.44375545   0.07471486
| 29> C    1.78605192   1.82998318  -1.07446406
| 30> C    1.25019653   0.55266474  -1.43034429
| 31> H    1.86493269   3.40378127   0.33933088
| 32> H    2.50711604   2.31272250  -1.72673510
| 33> C   -0.19055252  -1.37792364  -0.89686474
| 34> C    1.67685594  -0.08118005  -2.60927080
| 35> C    0.20096160  -1.92878820  -2.10845926
| 36> C    1.17836518  -1.33087306  -2.91506256
| 37> H    2.38976772   0.39511874  -3.26206351
| 38> H    1.52114476  -1.80706983  -3.82279403
| 39> H   -0.53834391  -3.80088787  -0.31523530
| 40> H   -0.26081457  -2.83412015  -2.47383252
| 41> *
| 42>
| 43>                          ****END OF INPUT****

CARTESIAN COORDINATES (ANGSTROEM)
---------------------------------
  Pd    -2.109252   -1.600243    0.666742
  Cl    -3.306750   -3.345776   -0.351873
  Cl    -0.275367   -5.001837    1.104748
  Cl    -4.106501   -0.777103    1.325515
  N     -1.012719    0.020083    1.390560
  C     -1.338908    0.598373    2.531145
  C     -0.827164    1.827869    2.950928
  C      0.093901    2.451342    2.148428
  C     -0.094878    0.602539    0.589825
  C      0.477508    1.839850    0.948283
  H      0.520568    3.401549    2.450777
  H     -2.008065    0.034447    3.171530
  H     -1.142217    2.264176    3.889714
  C      0.312145   -0.092452   -0.595245
  C      1.432013    2.443755    0.074715
  C      1.786052    1.829983   -1.074464
  C      1.250197    0.552665   -1.430344
  H      1.864933    3.403781    0.339331
  H      2.507116    2.312723   -1.726735
  C     -0.190553   -1.377924   -0.896865
  C      1.676856   -0.081180   -2.609271
  C      0.200962   -1.928788   -2.108459
  C      1.178365   -1.330873   -2.915063
  H      2.389768    0.395119   -3.262064
  H      1.521145   -1.807070   -3.822794
  H     -0.538344   -3.800888   -0.315235
  H     -0.260815   -2.834120   -2.473833

 Total Charge           Charge          ....   -1
 Multiplicity           Mult            ....    1
 Number of Electrons    NEL             ....  164
 Basis Dimension        Dim             ....  313

ORBITAL ENERGIES
----------------

  NO   OCC          E(Eh)            E(eV)
   0   2.0000    -102.138810     -2779.3383
   1   2.0000    -102.088977     -2777.9823
   2   2.0000    -102.082978     -2777.8191
   3   2.0000     -14.597664      -397.2226
   4   2.0000     -10.410982      -283.2972
   5   2.0000     -10.407738      -283.2089
   6   2.0000     -10.394014      -282.8355
   7   2.0000     -10.386292      -282.6254
   8   2.0000     -10.379372      -282.4371
   9   2.0000     -10.373991      -282.2907
  10   2.0000     -10.373038      -282.2647
  11   2.0000     -10.368400      -282.1385
  12   2.0000     -10.358152      -281.8597
  13   2.0000     -10.353784      -281.7408
  14   2.0000     -10.352127      -281.6957
  15   2.0000     -10.339466      -281.3512
  16   2.0000     -10.338150      -281.3154
  17   2.0000      -9.600329      -261.2382
  18   2.0000      -9.553585      -259.9663
  19   2.0000      -9.546580      -259.7757
  20   2.0000      -7.288230      -198.3228
  21   2.0000      -7.280293      -198.1068
  22   2.0000      -7.280164      -198.1033
  23   2.0000      -7.239472      -196.9961
  24   2.0000      -7.234552      -196.8622
  25   2.0000      -7.234273      -196.8546
  26   2.0000      -7.232614      -196.8094
  27   2.0000      -7.227445      -196.6688
  28   2.0000      -7.227381      -196.6670
  29   2.0000      -3.514601       -95.6372
  30   2.0000      -2.163039       -58.8593
  31   2.0000      -2.155258       -58.6475
  32   2.0000      -2.125925       -57.8494
  33   2.0000      -0.991663       -26.9845
  34   2.0000      -0.883370       -24.0377
  35   2.0000      -0.847060       -23.0497
  36   2.0000      -0.813883       -22.1469
  37   2.0000      -0.778237       -21.1769
  38   2.0000      -0.741106       -20.1665
  39   2.0000      -0.717514       -19.5245
  40   2.0000      -0.708241       -19.2722
  41   2.0000      -0.684689       -18.6313
  42   2.0000      -0.667312       -18.1585
  43   2.0000      -0.646708       -17.5978
  44   2.0000      -0.641320       -17.4512
  45   2.0000      -0.608994       -16.5716
  46   2.0000      -0.572341       -15.5742
  47   2.0000      -0.527405       -14.3514
  48   2.0000      -0.516008       -14.0413
  49   2.0000      -0.495463       -13.4822
  50   2.0000      -0.460385       -12.5277
  51   2.0000      -0.458893       -12.4871
  52   2.0000      -0.430003       -11.7010
  53   2.0000      -0.412663       -11.2291
  54   2.0000      -0.407878       -11.0989
  55   2.0000      -0.403309       -10.9746
  56   2.0000      -0.383507       -10.4358
  57   2.0000      -0.375747       -10.2246
  58   2.0000      -0.354712        -9.6522
  59   2.0000      -0.341834        -9.3018
  60   2.0000      -0.336159        -9.1474
  61   2.0000      -0.314541        -8.5591
  62   2.0000      -0.303534        -8.2596
  63   2.0000      -0.293190        -7.9781
  64   2.0000      -0.283900        -7.7253
  65   2.0000      -0.263578        -7.1723
  66   2.0000      -0.260049        -7.0763
  67   2.0000      -0.250641        -6.8203
  68   2.0000      -0.232262        -6.3202
  69   2.0000      -0.226951        -6.1756
  70   2.0000      -0.218303        -5.9403
  71   2.0000      -0.213006        -5.7962
  72   2.0000      -0.204102        -5.5539
  73   2.0000      -0.201039        -5.4706
  74   2.0000      -0.183289        -4.9875
  75   2.0000      -0.172371        -4.6905
  76   2.0000      -0.167895        -4.5687
  77   2.0000      -0.157008        -4.2724
  78   2.0000      -0.151722        -4.1286
  79   2.0000      -0.145911        -3.9705
  80   2.0000      -0.141810        -3.8589
  81   2.0000      -0.122140        -3.3236
  82   0.0000       0.044807         1.2193
  83   0.0000       0.061985         1.6867
  84   0.0000       0.070947         1.9306
  85   0.0000       0.078500         2.1361
  86   0.0000       0.108474         2.9517

MULLIKEN ATOMIC CHARGES
-----------------------
   0 Pd:    0.190051
   1 Cl:   -0.368352
   2 Cl:   -0.358722
   3 Cl:   -0.392570
   4 N :   -0.574090
   5 C :    0.041991
   6 C :   -0.323685
   7 C :   -0.158385
   8 C :    0.409683
   9 C :    0.031198
  10 H :    0.210953
  11 H :    0.278916
  12 H :    0.220518
  13 C :   -0.023692
  14 C :   -0.306023
  15 C :   -0.282641
  16 C :    0.118657
  17 H :    0.193190
  18 H :    0.194722
  19 C :   -0.111628
  20 C :   -0.320220
  21 C :   -0.352713
  22 C :   -0.191632
  23 H :    0.187998
  24 H :    0.192384
  25 H :    0.272896
  26 H :    0.221195
Sum of atomic charges:   -1.0000000

LOEWDIN ATOMIC CHARGES
----------------------
   0 Pd:   -0.804366
   1 Cl:   -0.117283
   2 Cl:   -0.309507
   3 Cl:   -0.100427
   4 N :    0.037855
   5 C :    0.007626
   6 C :   -0.170691
   7 C :   -0.088001
   8 C :    0.090658
   9 C :   -0.055964
  10 H :    0.135071
  11 H :    0.166699
  12 H :    0.140738
  13 C :   -0.042520
  14 C :   -0.144142
  15 C :   -0.116973
  16 C :   -0.033962
  17 H :    0.129211
  18 H :    0.130355
  19 C :   -0.081517
  20 C :   -0.157779
  21 C :   -0.155536
  22 C :   -0.129528
  23 H :    0.123903
  24 H :    0.124737
  25 H :    0.286459
  26 H :    0.134883

  Mayer bond orders larger than 0.100000
B(  0-Pd,  1-Cl) :   0.8553 B(  0-Pd,  3-Cl) :   0.8380 B(  0-Pd,  4-N ) :   0.4013
B(  0-Pd, 19-C ) :   0.4776 B(  2-Cl, 25-H ) :   0.7688 B(  4-N ,  5-C ) :   1.4668
B(  4-N ,  8-C ) :   1.1525 B(  5-C ,  6-C ) :   1.3217 B(  5-C , 11-H ) :   0.8880
B(  6-C ,  7-C ) :   1.4574 B(  6-C , 12-H ) :   0.9190 B(  7-C ,  9-C ) :   1.2787
B(  7-C , 10-H ) :   0.9288 B(  8-C ,  9-C ) :   1.2213 B(  8-C , 13-C ) :   1.1308
B(  9-C , 14-C ) :   1.1647 B( 13-C , 16-C ) :   1.2637 B( 13-C , 19-C ) :   1.3411
B( 14-C , 15-C ) :   1.6503 B( 14-C , 17-H ) :   0.9303 B( 15-C , 16-C ) :   1.1517
B( 15-C , 18-H ) :   0.9288 B( 16-C , 20-C ) :   1.2857 B( 19-C , 21-C ) :   1.4707
B( 20-C , 22-C ) :   1.4949 B( 20-C , 23-H ) :   0.9308 B( 21-C , 22-C ) :   1.3548
B( 21-C , 26-H ) :   0.9149 B( 22-C , 24-H ) :   0.9226

Dispersion correction           -0.024088395
FINAL SINGLE POINT ENERGY     -2061.393408977793
Dispersion correction            ... done

DIPOLE MOMENT
-------------
                                X             Y             Z
Electronic contribution:    -83.19960     -54.41144      27.74757
Nuclear contribution   :     86.20765      58.12087     -27.56706
                        -----------------------------------------
Total Dipole Moment    :      3.00805       3.70943       0.18050
                        -----------------------------------------
Magnitude (a.u.)       :      4.77921
Magnitude (Debye)      :     12.14778

Rotational constants in cm-1:     0.010893     0.007197     0.005341
Rotational constants in MHz :   326.573302   215.754154   160.129505

                             ****ORCA TERMINATED NORMALLY****
TOTAL RUN TIME: 0 days 0 hours 11 minutes 14 seconds 459 msec
