                         Program Version 5.0.3 -  RELEASE  -
|  1> ! EnGrad PBEh-3c
|  2> %output
|  3> xyzfile=True
|  4> end
|  5> %scf
|  6> maxiter 250
|  7> end
|  8> %output
|  9> Print[P_Hirshfeld] = 1
| 10> end
| 11> % maxcore
| 12> 4000
| 13> *xyz -1 1
| 14> Pd  -1.97377164  -1.54794975   0.40547668
| 15> Cl  -3.29628316  -3.29991500  -0.29506783
| 16> Cl  -0.50893444  -4.61081030   1.00485325
| 17> Cl  -4.05052349  -0.51298095   1.14195577
| 18> N   -0.98335031  -0.04387199   1.39251664
| 19> C   -1.31420583   0.50171263   2.55475460
| 20> C   -0.78973342   1.73206402   2.97919103
| 21> C    0.08155691   2.39630656   2.15543660
| 22> C   -0.07000606   0.54967418   0.61074144
| 23> C    0.46496186   1.80371638   0.94964927
| 24> H    0.50267195   3.35756755   2.43423809
| 25> H   -2.02997587  -0.02555419   3.18257687
| 26> H   -1.10975502   2.16371609   3.91774897
| 27> C    0.31829711  -0.14732504  -0.57963411
| 28> C    1.38627036   2.43820333   0.06006384
| 29> C    1.73557000   1.83559253  -1.09132129
| 30> C    1.23245101   0.53130536  -1.43258497
| 31> H    1.79767966   3.40686862   0.33498360
| 32> H    2.43428089   2.32602622  -1.77042930
| 33> C   -0.24259920  -1.42429115  -0.87466276
| 34> C    1.67034309  -0.07882089  -2.62509920
| 35> C    0.22645727  -1.97716109  -2.06739162
| 36> C    1.16249631  -1.32976287  -2.92180763
| 37> H    2.36973509   0.43957196  -3.28111816
| 38> H    1.52865513  -1.80607668  -3.84047270
| 39> H   -0.40657475  -3.75493294   0.09657864
| 40> H   -0.13416742  -2.92175546  -2.44147859
| 41> *
| 42>
| 43>                          ****END OF INPUT****

CARTESIAN COORDINATES (ANGSTROEM)
---------------------------------
  Pd    -1.973772   -1.547950    0.405477
  Cl    -3.296283   -3.299915   -0.295068
  Cl    -0.508934   -4.610810    1.004853
  Cl    -4.050523   -0.512981    1.141956
  N     -0.983350   -0.043872    1.392517
  C     -1.314206    0.501713    2.554755
  C     -0.789733    1.732064    2.979191
  C      0.081557    2.396307    2.155437
  C     -0.070006    0.549674    0.610741
  C      0.464962    1.803716    0.949649
  H      0.502672    3.357568    2.434238
  H     -2.029976   -0.025554    3.182577
  H     -1.109755    2.163716    3.917749
  C      0.318297   -0.147325   -0.579634
  C      1.386270    2.438203    0.060064
  C      1.735570    1.835593   -1.091321
  C      1.232451    0.531305   -1.432585
  H      1.797680    3.406869    0.334984
  H      2.434281    2.326026   -1.770429
  C     -0.242599   -1.424291   -0.874663
  C      1.670343   -0.078821   -2.625099
  C      0.226457   -1.977161   -2.067392
  C      1.162496   -1.329763   -2.921808
  H      2.369735    0.439572   -3.281118
  H      1.528655   -1.806077   -3.840473
  H     -0.406575   -3.754933    0.096579
  H     -0.134167   -2.921755   -2.441479

 Total Charge           Charge          ....   -1
 Multiplicity           Mult            ....    1
 Number of Electrons    NEL             ....  164
 Basis Dimension        Dim             ....  313

ORBITAL ENERGIES
----------------

  NO   OCC          E(Eh)            E(eV)
   0   2.0000    -102.152501     -2779.7109
   1   2.0000    -102.068298     -2777.4196
   2   2.0000    -102.061784     -2777.2423
   3   2.0000     -14.591862      -397.0648
   4   2.0000     -10.405870      -283.1581
   5   2.0000     -10.403873      -283.1038
   6   2.0000     -10.388807      -282.6938
   7   2.0000     -10.380348      -282.4636
   8   2.0000     -10.375373      -282.3282
   9   2.0000     -10.371408      -282.2204
  10   2.0000     -10.370439      -282.1940
  11   2.0000     -10.367837      -282.1232
  12   2.0000     -10.356876      -281.8249
  13   2.0000     -10.356417      -281.8124
  14   2.0000     -10.352675      -281.7106
  15   2.0000     -10.340873      -281.3895
  16   2.0000     -10.340133      -281.3693
  17   2.0000      -9.622560      -261.8432
  18   2.0000      -9.532618      -259.3957
  19   2.0000      -9.525145      -259.1924
  20   2.0000      -7.309804      -198.9099
  21   2.0000      -7.302109      -198.7005
  22   2.0000      -7.301857      -198.6936
  23   2.0000      -7.218626      -196.4288
  24   2.0000      -7.213620      -196.2926
  25   2.0000      -7.213235      -196.2821
  26   2.0000      -7.210463      -196.2067
  27   2.0000      -7.206642      -196.1027
  28   2.0000      -7.206323      -196.0940
  29   2.0000      -3.509415       -95.4961
  30   2.0000      -2.157516       -58.7090
  31   2.0000      -2.149374       -58.4874
  32   2.0000      -2.120839       -57.7110
  33   2.0000      -0.988275       -26.8923
  34   2.0000      -0.877929       -23.8897
  35   2.0000      -0.842998       -22.9391
  36   2.0000      -0.808399       -21.9977
  37   2.0000      -0.788460       -21.4551
  38   2.0000      -0.775420       -21.1002
  39   2.0000      -0.734391       -19.9838
  40   2.0000      -0.716322       -19.4921
  41   2.0000      -0.662567       -18.0294
  42   2.0000      -0.648517       -17.6471
  43   2.0000      -0.642479       -17.4827
  44   2.0000      -0.635170       -17.2838
  45   2.0000      -0.606496       -16.5036
  46   2.0000      -0.568568       -15.4715
  47   2.0000      -0.524535       -14.2733
  48   2.0000      -0.512049       -13.9336
  49   2.0000      -0.491604       -13.3772
  50   2.0000      -0.456838       -12.4312
  51   2.0000      -0.453696       -12.3457
  52   2.0000      -0.425684       -11.5835
  53   2.0000      -0.410390       -11.1673
  54   2.0000      -0.404692       -11.0122
  55   2.0000      -0.398167       -10.8347
  56   2.0000      -0.386368       -10.5136
  57   2.0000      -0.379036       -10.3141
  58   2.0000      -0.372393       -10.1333
  59   2.0000      -0.349204        -9.5023
  60   2.0000      -0.338084        -9.1997
  61   2.0000      -0.333910        -9.0861
  62   2.0000      -0.311044        -8.4640
  63   2.0000      -0.300427        -8.1750
  64   2.0000      -0.288186        -7.8419
  65   2.0000      -0.260701        -7.0940
  66   2.0000      -0.249473        -6.7885
  67   2.0000      -0.243887        -6.6365
  68   2.0000      -0.240856        -6.5540
  69   2.0000      -0.238111        -6.4793
  70   2.0000      -0.232419        -6.3244
  71   2.0000      -0.214238        -5.8297
  72   2.0000      -0.206153        -5.6097
  73   2.0000      -0.195863        -5.3297
  74   2.0000      -0.178128        -4.8471
  75   2.0000      -0.170124        -4.6293
  76   2.0000      -0.165336        -4.4990
  77   2.0000      -0.148970        -4.0537
  78   2.0000      -0.140920        -3.8346
  79   2.0000      -0.131039        -3.5658
  80   2.0000      -0.128095        -3.4856
  81   2.0000      -0.114135        -3.1058
  82   0.0000       0.050261         1.3677
  83   0.0000       0.072581         1.9750
  84   0.0000       0.093248         2.5374
  85   0.0000       0.110551         3.0082
  86   0.0000       0.144953         3.9444

MULLIKEN ATOMIC CHARGES
-----------------------
   0 Pd:    0.181038
   1 Cl:   -0.378195
   2 Cl:   -0.324455
   3 Cl:   -0.462740
   4 N :   -0.572403
   5 C :    0.043881
   6 C :   -0.338891
   7 C :   -0.153720
   8 C :    0.417266
   9 C :    0.045089
  10 H :    0.208550
  11 H :    0.280589
  12 H :    0.218473
  13 C :    0.023059
  14 C :   -0.304121
  15 C :   -0.282457
  16 C :    0.109385
  17 H :    0.191199
  18 H :    0.193201
  19 C :   -0.154203
  20 C :   -0.317359
  21 C :   -0.351064
  22 C :   -0.201869
  23 H :    0.188806
  24 H :    0.189504
  25 H :    0.329535
  26 H :    0.221903
Sum of atomic charges:   -1.0000000

LOEWDIN ATOMIC CHARGES
----------------------
   0 Pd:   -0.811047
   1 Cl:   -0.116129
   2 Cl:   -0.158705
   3 Cl:   -0.232357
   4 N :    0.042571
   5 C :    0.010363
   6 C :   -0.170663
   7 C :   -0.089579
   8 C :    0.088977
   9 C :   -0.056260
  10 H :    0.134029
  11 H :    0.166659
  12 H :    0.139536
  13 C :   -0.027815
  14 C :   -0.142998
  15 C :   -0.119263
  16 C :   -0.031622
  17 H :    0.128326
  18 H :    0.129804
  19 C :   -0.051713
  20 C :   -0.160155
  21 C :   -0.143854
  22 C :   -0.129640
  23 H :    0.124066
  24 H :    0.124059
  25 H :    0.214780
  26 H :    0.138628

  Mayer bond orders larger than 0.100000
B(  0-Pd,  1-Cl) :   0.8940 B(  0-Pd,  3-Cl) :   0.7138 B(  0-Pd,  4-N ) :   0.4103
B(  0-Pd, 19-C ) :   0.6718 B(  2-Cl, 25-H ) :   0.8313 B(  4-N ,  5-C ) :   1.4716
B(  4-N ,  8-C ) :   1.1362 B(  5-C ,  6-C ) :   1.3170 B(  5-C , 11-H ) :   0.8856
B(  6-C ,  7-C ) :   1.4518 B(  6-C , 12-H ) :   0.9203 B(  7-C ,  9-C ) :   1.2847
B(  7-C , 10-H ) :   0.9290 B(  8-C ,  9-C ) :   1.2187 B(  8-C , 13-C ) :   1.1331
B(  9-C , 14-C ) :   1.1632 B( 13-C , 16-C ) :   1.2737 B( 13-C , 19-C ) :   1.2110
B( 14-C , 15-C ) :   1.6487 B( 14-C , 17-H ) :   0.9300 B( 15-C , 16-C ) :   1.1533
B( 15-C , 18-H ) :   0.9285 B( 16-C , 20-C ) :   1.2830 B( 19-C , 21-C ) :   1.4633
B( 20-C , 22-C ) :   1.4956 B( 20-C , 23-H ) :   0.9291 B( 21-C , 22-C ) :   1.3465
B( 21-C , 26-H ) :   0.9154 B( 22-C , 24-H ) :   0.9249

Dispersion correction           -0.024056104
FINAL SINGLE POINT ENERGY     -2061.480498328009
Dispersion correction            ... done

DIPOLE MOMENT
-------------
                                X             Y             Z
Electronic contribution:    -75.09026     -54.41643      15.32812
Nuclear contribution   :     78.76898      57.21593     -14.95559
                        -----------------------------------------
Total Dipole Moment    :      3.67872       2.79950       0.37252
                        -----------------------------------------
Magnitude (a.u.)       :      4.63777
Magnitude (Debye)      :     11.78829

Rotational constants in cm-1:     0.011622     0.007730     0.005695
Rotational constants in MHz :   348.408372   231.730719   170.721870

                             ****ORCA TERMINATED NORMALLY****
TOTAL RUN TIME: 0 days 0 hours 11 minutes 14 seconds 720 msec
