                         Program Version 5.0.3 -  RELEASE  -
|  1> ! EnGrad PBEh-3c
|  2> %output
|  3> xyzfile=True
|  4> end
|  5> %scf
|  6> maxiter 250
|  7> end
|  8> %output
|  9> Print[P_Hirshfeld] = 1
| 10> end
| 11> % maxcore
| 12> 4000
| 13> *xyz -1 1
| 14> Pd  -1.97149659  -1.53522616   0.38849560
| 15> Cl  -3.29656292  -3.29716244  -0.29567964
| 16> Cl  -0.52529900  -4.58952790   1.01621423
| 17> Cl  -4.03643869  -0.48896922   1.12165103
| 18> N   -0.97800245  -0.04978302   1.39115776
| 19> C   -1.31378165   0.49177680   2.55589513
| 20> C   -0.78581562   1.72254629   2.98091132
| 21> C    0.08021934   2.38808952   2.15772041
| 22> C   -0.06704634   0.54484509   0.61148630
| 23> C    0.46520279   1.80025853   0.95042410
| 24> H    0.49983525   3.35310086   2.43294596
| 25> H   -2.03115207  -0.03273128   3.18132032
| 26> H   -1.10615967   2.15219446   3.92114489
| 27> C    0.31930812  -0.15033936  -0.57934881
| 28> C    1.38205790   2.43576682   0.05552066
| 29> C    1.72894161   1.83501010  -1.08974938
| 30> C    1.23221152   0.52851749  -1.43304532
| 31> H    1.79035854   3.40781291   0.33436549
| 32> H    2.42571770   2.32653328  -1.77478232
| 33> C   -0.24084635  -1.42584091  -0.87563223
| 34> C    1.66558246  -0.07999426  -2.62599029
| 35> C    0.22919242  -1.98237981  -2.06655831
| 36> C    1.16330401  -1.33046265  -2.91995568
| 37> H    2.36533928   0.44201568  -3.28149114
| 38> H    1.52595773  -1.80615665  -3.83865339
| 39> H   -0.39733635  -3.72721848   0.11810358
| 40> H   -0.12229101  -2.93158586  -2.43645495
| 41> *
| 42>
| 43>                          ****END OF INPUT****

CARTESIAN COORDINATES (ANGSTROEM)
---------------------------------
  Pd    -1.971497   -1.535226    0.388496
  Cl    -3.296563   -3.297162   -0.295680
  Cl    -0.525299   -4.589528    1.016214
  Cl    -4.036439   -0.488969    1.121651
  N     -0.978002   -0.049783    1.391158
  C     -1.313782    0.491777    2.555895
  C     -0.785816    1.722546    2.980911
  C      0.080219    2.388090    2.157720
  C     -0.067046    0.544845    0.611486
  C      0.465203    1.800259    0.950424
  H      0.499835    3.353101    2.432946
  H     -2.031152   -0.032731    3.181320
  H     -1.106160    2.152194    3.921145
  C      0.319308   -0.150339   -0.579349
  C      1.382058    2.435767    0.055521
  C      1.728942    1.835010   -1.089749
  C      1.232212    0.528517   -1.433045
  H      1.790359    3.407813    0.334365
  H      2.425718    2.326533   -1.774782
  C     -0.240846   -1.425841   -0.875632
  C      1.665582   -0.079994   -2.625990
  C      0.229192   -1.982380   -2.066558
  C      1.163304   -1.330463   -2.919956
  H      2.365339    0.442016   -3.281491
  H      1.525958   -1.806157   -3.838653
  H     -0.397336   -3.727218    0.118104
  H     -0.122291   -2.931586   -2.436455

 Total Charge           Charge          ....   -1
 Multiplicity           Mult            ....    1
 Number of Electrons    NEL             ....  164
 Basis Dimension        Dim             ....  313

ORBITAL ENERGIES
----------------

  NO   OCC          E(Eh)            E(eV)
   0   2.0000    -102.151561     -2779.6853
   1   2.0000    -102.067240     -2777.3908
   2   2.0000    -102.062063     -2777.2499
   3   2.0000     -14.591739      -397.0614
   4   2.0000     -10.406308      -283.1700
   5   2.0000     -10.403577      -283.0957
   6   2.0000     -10.388575      -282.6875
   7   2.0000     -10.380174      -282.4589
   8   2.0000     -10.375359      -282.3279
   9   2.0000     -10.371073      -282.2112
  10   2.0000     -10.370134      -282.1857
  11   2.0000     -10.367524      -282.1147
  12   2.0000     -10.356518      -281.8152
  13   2.0000     -10.355982      -281.8006
  14   2.0000     -10.352450      -281.7045
  15   2.0000     -10.340784      -281.3870
  16   2.0000     -10.340161      -281.3701
  17   2.0000      -9.621642      -261.8182
  18   2.0000      -9.531523      -259.3659
  19   2.0000      -9.525471      -259.2013
  20   2.0000      -7.308883      -198.8848
  21   2.0000      -7.301195      -198.6756
  22   2.0000      -7.300933      -198.6685
  23   2.0000      -7.217519      -196.3987
  24   2.0000      -7.212542      -196.2633
  25   2.0000      -7.212151      -196.2526
  26   2.0000      -7.210777      -196.2152
  27   2.0000      -7.206975      -196.1118
  28   2.0000      -7.206646      -196.1028
  29   2.0000      -3.509459       -95.4972
  30   2.0000      -2.157359       -58.7047
  31   2.0000      -2.149693       -58.4961
  32   2.0000      -2.120885       -57.7122
  33   2.0000      -0.988556       -26.9000
  34   2.0000      -0.878462       -23.9042
  35   2.0000      -0.843367       -22.9492
  36   2.0000      -0.809073       -22.0160
  37   2.0000      -0.787806       -21.4373
  38   2.0000      -0.775842       -21.1117
  39   2.0000      -0.734619       -19.9900
  40   2.0000      -0.716888       -19.5075
  41   2.0000      -0.661651       -18.0044
  42   2.0000      -0.648930       -17.6583
  43   2.0000      -0.642556       -17.4848
  44   2.0000      -0.635363       -17.2891
  45   2.0000      -0.606669       -16.5083
  46   2.0000      -0.568476       -15.4690
  47   2.0000      -0.524695       -14.2777
  48   2.0000      -0.512497       -13.9458
  49   2.0000      -0.491685       -13.3794
  50   2.0000      -0.456753       -12.4289
  51   2.0000      -0.453746       -12.3471
  52   2.0000      -0.425983       -11.5916
  53   2.0000      -0.410755       -11.1772
  54   2.0000      -0.404919       -11.0184
  55   2.0000      -0.398024       -10.8308
  56   2.0000      -0.385964       -10.5026
  57   2.0000      -0.379449       -10.3253
  58   2.0000      -0.373006       -10.1500
  59   2.0000      -0.349119        -9.5000
  60   2.0000      -0.338292        -9.2054
  61   2.0000      -0.333785        -9.0827
  62   2.0000      -0.311544        -8.4775
  63   2.0000      -0.300958        -8.1895
  64   2.0000      -0.288381        -7.8472
  65   2.0000      -0.261309        -7.1106
  66   2.0000      -0.249875        -6.7994
  67   2.0000      -0.244092        -6.6421
  68   2.0000      -0.240940        -6.5563
  69   2.0000      -0.237711        -6.4684
  70   2.0000      -0.232493        -6.3265
  71   2.0000      -0.214220        -5.8292
  72   2.0000      -0.206171        -5.6102
  73   2.0000      -0.193958        -5.2779
  74   2.0000      -0.178333        -4.8527
  75   2.0000      -0.170395        -4.6367
  76   2.0000      -0.165427        -4.5015
  77   2.0000      -0.148781        -4.0485
  78   2.0000      -0.140710        -3.8289
  79   2.0000      -0.130843        -3.5604
  80   2.0000      -0.127496        -3.4693
  81   2.0000      -0.114046        -3.1033
  82   0.0000       0.050558         1.3757
  83   0.0000       0.072790         1.9807
  84   0.0000       0.094006         2.5580
  85   0.0000       0.110469         3.0060
  86   0.0000       0.145534         3.9602

MULLIKEN ATOMIC CHARGES
-----------------------
   0 Pd:    0.181427
   1 Cl:   -0.380857
   2 Cl:   -0.324765
   3 Cl:   -0.461273
   4 N :   -0.573470
   5 C :    0.043914
   6 C :   -0.340095
   7 C :   -0.152364
   8 C :    0.418935
   9 C :    0.044326
  10 H :    0.208066
  11 H :    0.281283
  12 H :    0.218173
  13 C :    0.023052
  14 C :   -0.301097
  15 C :   -0.282570
  16 C :    0.111098
  17 H :    0.190682
  18 H :    0.192404
  19 C :   -0.158635
  20 C :   -0.316494
  21 C :   -0.348255
  22 C :   -0.202925
  23 H :    0.188353
  24 H :    0.189609
  25 H :    0.329150
  26 H :    0.222331
Sum of atomic charges:   -1.0000000

LOEWDIN ATOMIC CHARGES
----------------------
   0 Pd:   -0.813866
   1 Cl:   -0.119944
   2 Cl:   -0.158515
   3 Cl:   -0.228996
   4 N :    0.042819
   5 C :    0.011211
   6 C :   -0.170356
   7 C :   -0.090015
   8 C :    0.088770
   9 C :   -0.055989
  10 H :    0.133900
  11 H :    0.166760
  12 H :    0.139468
  13 C :   -0.027442
  14 C :   -0.142573
  15 C :   -0.119027
  16 C :   -0.031550
  17 H :    0.128237
  18 H :    0.129609
  19 C :   -0.051659
  20 C :   -0.159930
  21 C :   -0.142938
  22 C :   -0.129476
  23 H :    0.124008
  24 H :    0.124050
  25 H :    0.214433
  26 H :    0.139010

  Mayer bond orders larger than 0.100000
B(  0-Pd,  1-Cl) :   0.8912 B(  0-Pd,  3-Cl) :   0.7148 B(  0-Pd,  4-N ) :   0.4121
B(  0-Pd, 19-C ) :   0.6771 B(  2-Cl, 25-H ) :   0.8302 B(  4-N ,  5-C ) :   1.4692
B(  4-N ,  8-C ) :   1.1367 B(  5-C ,  6-C ) :   1.3174 B(  5-C , 11-H ) :   0.8854
B(  6-C ,  7-C ) :   1.4511 B(  6-C , 12-H ) :   0.9204 B(  7-C ,  9-C ) :   1.2864
B(  7-C , 10-H ) :   0.9291 B(  8-C ,  9-C ) :   1.2198 B(  8-C , 13-C ) :   1.1315
B(  9-C , 14-C ) :   1.1617 B( 13-C , 16-C ) :   1.2772 B( 13-C , 19-C ) :   1.2089
B( 14-C , 15-C ) :   1.6503 B( 14-C , 17-H ) :   0.9300 B( 15-C , 16-C ) :   1.1517
B( 15-C , 18-H ) :   0.9286 B( 16-C , 20-C ) :   1.2835 B( 19-C , 21-C ) :   1.4625
B( 20-C , 22-C ) :   1.4951 B( 20-C , 23-H ) :   0.9292 B( 21-C , 22-C ) :   1.3473
B( 21-C , 26-H ) :   0.9153 B( 22-C , 24-H ) :   0.9249

Dispersion correction           -0.024095194
FINAL SINGLE POINT ENERGY     -2061.480324537342
Dispersion correction            ... done

DIPOLE MOMENT
-------------
                                X             Y             Z
Electronic contribution:    -74.96657     -53.87112      14.50844
Nuclear contribution   :     78.64827      56.67362     -14.12273
                        -----------------------------------------
Total Dipole Moment    :      3.68171       2.80250       0.38571
                        -----------------------------------------
Magnitude (a.u.)       :      4.64303
Magnitude (Debye)      :     11.80165

Rotational constants in cm-1:     0.011662     0.007762     0.005727
Rotational constants in MHz :   349.604163   232.707058   171.677475

                             ****ORCA TERMINATED NORMALLY****
TOTAL RUN TIME: 0 days 0 hours 12 minutes 45 seconds 51 msec
