                         Program Version 5.0.3 -  RELEASE  -
|  1> ! EnGrad PBEh-3c
|  2> %output
|  3> xyzfile=True
|  4> end
|  5> %scf
|  6> maxiter 250
|  7> end
|  8> %output
|  9> Print[P_Hirshfeld] = 1
| 10> end
| 11> % maxcore
| 12> 4000
| 13> *xyz -1 1
| 14> Pd  -1.97327469  -1.54517043   0.40176737
| 15> Cl  -3.29634427  -3.29931373  -0.29520147
| 16> Cl  -0.51250908  -4.60616142   1.00733492
| 17> Cl  -4.04744683  -0.50773588   1.13752045
| 18> N   -0.98218214  -0.04516319   1.39221981
| 19> C   -1.31411317   0.49954227   2.55500373
| 20> C   -0.78887762   1.72998499   2.97956681
| 21> C    0.08126474   2.39451164   2.15593547
| 22> C   -0.06935954   0.54861932   0.61090415
| 23> C    0.46501449   1.80296105   0.94981853
| 24> H    0.50205231   3.35659186   2.43395584
| 25> H   -2.03023279  -0.02712194   3.18230240
| 26> H   -1.10896966   2.16119933   3.91849077
| 27> C    0.31851795  -0.14798348  -0.57957179
| 28> C    1.38535020   2.43767111   0.05907143
| 29> C    1.73412211   1.83546531  -1.09097792
| 30> C    1.23239870   0.53069638  -1.43268553
| 31> H    1.79608045   3.40707489   0.33484858
| 32> H    2.43241037   2.32613698  -1.77138016
| 33> C   -0.24221631  -1.42462968  -0.87487453
| 34> C    1.66930319  -0.07907720  -2.62529384
| 35> C    0.22705473  -1.97830106  -2.06720959
| 36> C    1.16267274  -1.32991573  -2.92140309
| 37> H    2.36877488   0.44010576  -3.28119964
| 38> H    1.52806592  -1.80609415  -3.84007529
| 39> H   -0.40455674  -3.74887906   0.10128050
| 40> H   -0.13157316  -2.92390279  -2.44038124
| 41> *
| 42>
| 43>                          ****END OF INPUT****

CARTESIAN COORDINATES (ANGSTROEM)
---------------------------------
  Pd    -1.973275   -1.545170    0.401767
  Cl    -3.296344   -3.299314   -0.295201
  Cl    -0.512509   -4.606161    1.007335
  Cl    -4.047447   -0.507736    1.137520
  N     -0.982182   -0.045163    1.392220
  C     -1.314113    0.499542    2.555004
  C     -0.788878    1.729985    2.979567
  C      0.081265    2.394512    2.155935
  C     -0.069360    0.548619    0.610904
  C      0.465014    1.802961    0.949819
  H      0.502052    3.356592    2.433956
  H     -2.030233   -0.027122    3.182302
  H     -1.108970    2.161199    3.918491
  C      0.318518   -0.147983   -0.579572
  C      1.385350    2.437671    0.059071
  C      1.734122    1.835465   -1.090978
  C      1.232399    0.530696   -1.432686
  H      1.796080    3.407075    0.334849
  H      2.432410    2.326137   -1.771380
  C     -0.242216   -1.424630   -0.874875
  C      1.669303   -0.079077   -2.625294
  C      0.227055   -1.978301   -2.067210
  C      1.162673   -1.329916   -2.921403
  H      2.368775    0.440106   -3.281200
  H      1.528066   -1.806094   -3.840075
  H     -0.404557   -3.748879    0.101280
  H     -0.131573   -2.923903   -2.440381

 Total Charge           Charge          ....   -1
 Multiplicity           Mult            ....    1
 Number of Electrons    NEL             ....  164
 Basis Dimension        Dim             ....  313

ORBITAL ENERGIES
----------------

  NO   OCC          E(Eh)            E(eV)
   0   2.0000    -102.152293     -2779.7052
   1   2.0000    -102.068067     -2777.4133
   2   2.0000    -102.061844     -2777.2440
   3   2.0000     -14.591836      -397.0641
   4   2.0000     -10.405965      -283.1607
   5   2.0000     -10.403808      -283.1020
   6   2.0000     -10.388756      -282.6924
   7   2.0000     -10.380310      -282.4626
   8   2.0000     -10.375370      -282.3282
   9   2.0000     -10.371334      -282.2183
  10   2.0000     -10.370373      -282.1922
  11   2.0000     -10.367768      -282.1213
  12   2.0000     -10.356797      -281.8228
  13   2.0000     -10.356321      -281.8098
  14   2.0000     -10.352625      -281.7092
  15   2.0000     -10.340850      -281.3888
  16   2.0000     -10.340140      -281.3695
  17   2.0000      -9.622359      -261.8377
  18   2.0000      -9.532379      -259.3892
  19   2.0000      -9.525215      -259.1943
  20   2.0000      -7.309602      -198.9044
  21   2.0000      -7.301909      -198.6950
  22   2.0000      -7.301655      -198.6881
  23   2.0000      -7.218384      -196.4222
  24   2.0000      -7.213385      -196.2862
  25   2.0000      -7.212999      -196.2757
  26   2.0000      -7.210530      -196.2085
  27   2.0000      -7.206714      -196.1046
  28   2.0000      -7.206393      -196.0959
  29   2.0000      -3.509425       -95.4963
  30   2.0000      -2.157482       -58.7081
  31   2.0000      -2.149442       -58.4893
  32   2.0000      -2.120848       -57.7112
  33   2.0000      -0.988336       -26.8940
  34   2.0000      -0.878045       -23.8928
  35   2.0000      -0.843078       -22.9413
  36   2.0000      -0.808546       -22.0017
  37   2.0000      -0.788327       -21.4515
  38   2.0000      -0.775512       -21.1028
  39   2.0000      -0.734441       -19.9851
  40   2.0000      -0.716446       -19.4955
  41   2.0000      -0.662363       -18.0238
  42   2.0000      -0.648611       -17.6496
  43   2.0000      -0.642494       -17.4831
  44   2.0000      -0.635214       -17.2850
  45   2.0000      -0.606534       -16.5046
  46   2.0000      -0.568548       -15.4710
  47   2.0000      -0.524570       -14.2743
  48   2.0000      -0.512145       -13.9362
  49   2.0000      -0.491625       -13.3778
  50   2.0000      -0.456819       -12.4307
  51   2.0000      -0.453706       -12.3460
  52   2.0000      -0.425749       -11.5852
  53   2.0000      -0.410471       -11.1695
  54   2.0000      -0.404741       -11.0136
  55   2.0000      -0.398139       -10.8339
  56   2.0000      -0.386285       -10.5114
  57   2.0000      -0.379118       -10.3163
  58   2.0000      -0.372534       -10.1372
  59   2.0000      -0.349183        -9.5018
  60   2.0000      -0.338128        -9.2009
  61   2.0000      -0.333892        -9.0857
  62   2.0000      -0.311153        -8.4669
  63   2.0000      -0.300543        -8.1782
  64   2.0000      -0.288234        -7.8433
  65   2.0000      -0.260833        -7.0976
  66   2.0000      -0.249555        -6.7907
  67   2.0000      -0.243917        -6.6373
  68   2.0000      -0.240891        -6.5550
  69   2.0000      -0.238026        -6.4770
  70   2.0000      -0.232441        -6.3251
  71   2.0000      -0.214231        -5.8295
  72   2.0000      -0.206157        -5.6098
  73   2.0000      -0.195447        -5.3184
  74   2.0000      -0.178173        -4.8483
  75   2.0000      -0.170183        -4.6309
  76   2.0000      -0.165355        -4.4995
  77   2.0000      -0.148930        -4.0526
  78   2.0000      -0.140874        -3.8334
  79   2.0000      -0.130993        -3.5645
  80   2.0000      -0.127971        -3.4823
  81   2.0000      -0.114115        -3.1052
  82   0.0000       0.050327         1.3695
  83   0.0000       0.072628         1.9763
  84   0.0000       0.093419         2.5421
  85   0.0000       0.110533         3.0078
  86   0.0000       0.145081         3.9479

MULLIKEN ATOMIC CHARGES
-----------------------
   0 Pd:    0.181105
   1 Cl:   -0.378771
   2 Cl:   -0.324524
   3 Cl:   -0.462419
   4 N :   -0.572648
   5 C :    0.043890
   6 C :   -0.339154
   7 C :   -0.153427
   8 C :    0.417643
   9 C :    0.044929
  10 H :    0.208445
  11 H :    0.280741
  12 H :    0.218406
  13 C :    0.023061
  14 C :   -0.303470
  15 C :   -0.282489
  16 C :    0.109768
  17 H :    0.191089
  18 H :    0.193029
  19 C :   -0.155160
  20 C :   -0.317178
  21 C :   -0.350464
  22 C :   -0.202098
  23 H :    0.188709
  24 H :    0.189528
  25 H :    0.329459
  26 H :    0.222000
Sum of atomic charges:   -1.0000000

LOEWDIN ATOMIC CHARGES
----------------------
   0 Pd:   -0.811683
   1 Cl:   -0.116955
   2 Cl:   -0.158650
   3 Cl:   -0.231623
   4 N :    0.042631
   5 C :    0.010548
   6 C :   -0.170595
   7 C :   -0.089676
   8 C :    0.088933
   9 C :   -0.056200
  10 H :    0.134000
  11 H :    0.166682
  12 H :    0.139522
  13 C :   -0.027733
  14 C :   -0.142905
  15 C :   -0.119212
  16 C :   -0.031606
  17 H :    0.128307
  18 H :    0.129762
  19 C :   -0.051699
  20 C :   -0.160105
  21 C :   -0.143655
  22 C :   -0.129603
  23 H :    0.124053
  24 H :    0.124057
  25 H :    0.214695
  26 H :    0.138712

  Mayer bond orders larger than 0.100000
B(  0-Pd,  1-Cl) :   0.8934 B(  0-Pd,  3-Cl) :   0.7140 B(  0-Pd,  4-N ) :   0.4107
B(  0-Pd, 19-C ) :   0.6730 B(  2-Cl, 25-H ) :   0.8310 B(  4-N ,  5-C ) :   1.4711
B(  4-N ,  8-C ) :   1.1363 B(  5-C ,  6-C ) :   1.3171 B(  5-C , 11-H ) :   0.8856
B(  6-C ,  7-C ) :   1.4516 B(  6-C , 12-H ) :   0.9203 B(  7-C ,  9-C ) :   1.2851
B(  7-C , 10-H ) :   0.9290 B(  8-C ,  9-C ) :   1.2189 B(  8-C , 13-C ) :   1.1327
B(  9-C , 14-C ) :   1.1628 B( 13-C , 16-C ) :   1.2745 B( 13-C , 19-C ) :   1.2105
B( 14-C , 15-C ) :   1.6491 B( 14-C , 17-H ) :   0.9300 B( 15-C , 16-C ) :   1.1530
B( 15-C , 18-H ) :   0.9285 B( 16-C , 20-C ) :   1.2831 B( 19-C , 21-C ) :   1.4631
B( 20-C , 22-C ) :   1.4955 B( 20-C , 23-H ) :   0.9291 B( 21-C , 22-C ) :   1.3467
B( 21-C , 26-H ) :   0.9153 B( 22-C , 24-H ) :   0.9249

Dispersion correction           -0.024064708
FINAL SINGLE POINT ENERGY     -2061.480494803060
Dispersion correction            ... done

DIPOLE MOMENT
-------------
                                X             Y             Z
Electronic contribution:    -75.06324     -54.29731      15.14908
Nuclear contribution   :     78.74261      57.09747     -14.77367
                        -----------------------------------------
Total Dipole Moment    :      3.67937       2.80016       0.37542
                        -----------------------------------------
Magnitude (a.u.)       :      4.63893
Magnitude (Debye)      :     11.79122

Rotational constants in cm-1:     0.011630     0.007737     0.005702
Rotational constants in MHz :   348.671330   231.944474   170.930540

                             ****ORCA TERMINATED NORMALLY****
TOTAL RUN TIME: 0 days 0 hours 11 minutes 13 seconds 315 msec
