                         Program Version 5.0.3 -  RELEASE  -
|  1> ! EnGrad PBEh-3c
|  2> %output
|  3> xyzfile=True
|  4> end
|  5> %scf
|  6> maxiter 250
|  7> end
|  8> %output
|  9> Print[P_Hirshfeld] = 1
| 10> end
| 11> % maxcore
| 12> 4000
| 13> *xyz -1 1
| 14> Pd  -1.97210114  -1.53860721   0.39300800
| 15> Cl  -3.29648858  -3.29789388  -0.29551706
| 16> Cl  -0.52095043  -4.59518329   1.01319526
| 17> Cl  -4.04018146  -0.49534989   1.12704663
| 18> N   -0.97942355  -0.04821228   1.39151885
| 19> C   -1.31389437   0.49441706   2.55559205
| 20> C   -0.78685670   1.72507545   2.98045418
| 21> C    0.08057478   2.39027304   2.15711353
| 22> C   -0.06783283   0.54612833   0.61128837
| 23> C    0.46513877   1.80117739   0.95021820
| 24> H    0.50058905   3.35428780   2.43328932
| 25> H   -2.03083952  -0.03082411   3.18165423
| 26> H   -1.10711506   2.15525611   3.92024249
| 27> C    0.31903946  -0.14953836  -0.57942462
| 28> C    1.38317728   2.43641428   0.05672792
| 29> C    1.73070298   1.83516487  -1.09016708
| 30> C    1.23227516   0.52925831  -1.43292299
| 31> H    1.79230399   3.40756199   0.33452974
| 32> H    2.42799321   2.32639854  -1.77362558
| 33> C   -0.24131214  -1.42542909  -0.87537462
| 34> C    1.66684751  -0.07968246  -2.62575350
| 35> C    0.22846561  -1.98099303  -2.06677975
| 36> C    1.16308938  -1.33027670  -2.92044780
| 37> H    2.36650738   0.44136631  -3.28139203
| 38> H    1.52667451  -1.80613540  -3.83913683
| 39> H   -0.39979128  -3.73458307   0.11238374
| 40> H   -0.12544694  -2.92897362  -2.43778989
| 41> *
| 42>
| 43>                          ****END OF INPUT****

CARTESIAN COORDINATES (ANGSTROEM)
---------------------------------
  Pd    -1.972101   -1.538607    0.393008
  Cl    -3.296489   -3.297894   -0.295517
  Cl    -0.520950   -4.595183    1.013195
  Cl    -4.040181   -0.495350    1.127047
  N     -0.979424   -0.048212    1.391519
  C     -1.313894    0.494417    2.555592
  C     -0.786857    1.725075    2.980454
  C      0.080575    2.390273    2.157114
  C     -0.067833    0.546128    0.611288
  C      0.465139    1.801177    0.950218
  H      0.500589    3.354288    2.433289
  H     -2.030840   -0.030824    3.181654
  H     -1.107115    2.155256    3.920242
  C      0.319039   -0.149538   -0.579425
  C      1.383177    2.436414    0.056728
  C      1.730703    1.835165   -1.090167
  C      1.232275    0.529258   -1.432923
  H      1.792304    3.407562    0.334530
  H      2.427993    2.326399   -1.773626
  C     -0.241312   -1.425429   -0.875375
  C      1.666848   -0.079682   -2.625754
  C      0.228466   -1.980993   -2.066780
  C      1.163089   -1.330277   -2.920448
  H      2.366507    0.441366   -3.281392
  H      1.526675   -1.806135   -3.839137
  H     -0.399791   -3.734583    0.112384
  H     -0.125447   -2.928974   -2.437790

 Total Charge           Charge          ....   -1
 Multiplicity           Mult            ....    1
 Number of Electrons    NEL             ....  164
 Basis Dimension        Dim             ....  313

ORBITAL ENERGIES
----------------

  NO   OCC          E(Eh)            E(eV)
   0   2.0000    -102.151808     -2779.6920
   1   2.0000    -102.067521     -2777.3984
   2   2.0000    -102.061988     -2777.2479
   3   2.0000     -14.591773      -397.0623
   4   2.0000     -10.406191      -283.1669
   5   2.0000     -10.403655      -283.0978
   6   2.0000     -10.388636      -282.6892
   7   2.0000     -10.380220      -282.4601
   8   2.0000     -10.375363      -282.3280
   9   2.0000     -10.371161      -282.2136
  10   2.0000     -10.370216      -282.1879
  11   2.0000     -10.367607      -282.1169
  12   2.0000     -10.356612      -281.8177
  13   2.0000     -10.356097      -281.8037
  14   2.0000     -10.352509      -281.7061
  15   2.0000     -10.340804      -281.3876
  16   2.0000     -10.340155      -281.3699
  17   2.0000      -9.621886      -261.8248
  18   2.0000      -9.531814      -259.3739
  19   2.0000      -9.525383      -259.1989
  20   2.0000      -7.309127      -198.8915
  21   2.0000      -7.301437      -198.6822
  22   2.0000      -7.301178      -198.6752
  23   2.0000      -7.217813      -196.4067
  24   2.0000      -7.212829      -196.2710
  25   2.0000      -7.212439      -196.2605
  26   2.0000      -7.210692      -196.2129
  27   2.0000      -7.206885      -196.1093
  28   2.0000      -7.206559      -196.1004
  29   2.0000      -3.509447       -95.4969
  30   2.0000      -2.157401       -58.7059
  31   2.0000      -2.149606       -58.4938
  32   2.0000      -2.120872       -57.7119
  33   2.0000      -0.988481       -26.8979
  34   2.0000      -0.878320       -23.9003
  35   2.0000      -0.843268       -22.9465
  36   2.0000      -0.808894       -22.0111
  37   2.0000      -0.787991       -21.4423
  38   2.0000      -0.775730       -21.1087
  39   2.0000      -0.734559       -19.9884
  40   2.0000      -0.716738       -19.5034
  41   2.0000      -0.661889       -18.0109
  42   2.0000      -0.648824       -17.6554
  43   2.0000      -0.642534       -17.4842
  44   2.0000      -0.635314       -17.2878
  45   2.0000      -0.606624       -16.5071
  46   2.0000      -0.568501       -15.4697
  47   2.0000      -0.524652       -14.2765
  48   2.0000      -0.512377       -13.9425
  49   2.0000      -0.491667       -13.3789
  50   2.0000      -0.456774       -12.4295
  51   2.0000      -0.453731       -12.3467
  52   2.0000      -0.425904       -11.5894
  53   2.0000      -0.410660       -11.1746
  54   2.0000      -0.404859       -11.0168
  55   2.0000      -0.398066       -10.8319
  56   2.0000      -0.386077       -10.5057
  57   2.0000      -0.379330       -10.3221
  58   2.0000      -0.372851       -10.1458
  59   2.0000      -0.349139        -9.5005
  60   2.0000      -0.338235        -9.2038
  61   2.0000      -0.333829        -9.0840
  62   2.0000      -0.311411        -8.4739
  63   2.0000      -0.300817        -8.1856
  64   2.0000      -0.288336        -7.8460
  65   2.0000      -0.261147        -7.1062
  66   2.0000      -0.249761        -6.7963
  67   2.0000      -0.244022        -6.6402
  68   2.0000      -0.240936        -6.5562
  69   2.0000      -0.237819        -6.4714
  70   2.0000      -0.232481        -6.3261
  71   2.0000      -0.214221        -5.8293
  72   2.0000      -0.206166        -5.6101
  73   2.0000      -0.194464        -5.2916
  74   2.0000      -0.178280        -4.8512
  75   2.0000      -0.170323        -4.6347
  76   2.0000      -0.165402        -4.5008
  77   2.0000      -0.148833        -4.0499
  78   2.0000      -0.140765        -3.8304
  79   2.0000      -0.130891        -3.5617
  80   2.0000      -0.127663        -3.4739
  81   2.0000      -0.114069        -3.1040
  82   0.0000       0.050480         1.3736
  83   0.0000       0.072736         1.9792
  84   0.0000       0.093811         2.5527
  85   0.0000       0.110491         3.0066
  86   0.0000       0.145381         3.9560

MULLIKEN ATOMIC CHARGES
-----------------------
   0 Pd:    0.181304
   1 Cl:   -0.380141
   2 Cl:   -0.324685
   3 Cl:   -0.461664
   4 N :   -0.573202
   5 C :    0.043910
   6 C :   -0.339775
   7 C :   -0.152731
   8 C :    0.418500
   9 C :    0.044543
  10 H :    0.208194
  11 H :    0.281098
  12 H :    0.218253
  13 C :    0.023063
  14 C :   -0.301908
  15 C :   -0.282549
  16 C :    0.110654
  17 H :    0.190822
  18 H :    0.192618
  19 C :   -0.157452
  20 C :   -0.316738
  21 C :   -0.349016
  22 C :   -0.202635
  23 H :    0.188474
  24 H :    0.189581
  25 H :    0.329262
  26 H :    0.222220
Sum of atomic charges:   -1.0000000

LOEWDIN ATOMIC CHARGES
----------------------
   0 Pd:   -0.813139
   1 Cl:   -0.118922
   2 Cl:   -0.158551
   3 Cl:   -0.229890
   4 N :    0.042760
   5 C :    0.010986
   6 C :   -0.170437
   7 C :   -0.089901
   8 C :    0.088826
   9 C :   -0.056061
  10 H :    0.133934
  11 H :    0.166734
  12 H :    0.139487
  13 C :   -0.027541
  14 C :   -0.142685
  15 C :   -0.119091
  16 C :   -0.031569
  17 H :    0.128261
  18 H :    0.129661
  19 C :   -0.051671
  20 C :   -0.159989
  21 C :   -0.143183
  22 C :   -0.129518
  23 H :    0.124024
  24 H :    0.124052
  25 H :    0.214514
  26 H :    0.138908

  Mayer bond orders larger than 0.100000
B(  0-Pd,  1-Cl) :   0.8920 B(  0-Pd,  3-Cl) :   0.7146 B(  0-Pd,  4-N ) :   0.4116
B(  0-Pd, 19-C ) :   0.6757 B(  2-Cl, 25-H ) :   0.8305 B(  4-N ,  5-C ) :   1.4698
B(  4-N ,  8-C ) :   1.1365 B(  5-C ,  6-C ) :   1.3173 B(  5-C , 11-H ) :   0.8855
B(  6-C ,  7-C ) :   1.4513 B(  6-C , 12-H ) :   0.9204 B(  7-C ,  9-C ) :   1.2859
B(  7-C , 10-H ) :   0.9291 B(  8-C ,  9-C ) :   1.2195 B(  8-C , 13-C ) :   1.1319
B(  9-C , 14-C ) :   1.1621 B( 13-C , 16-C ) :   1.2763 B( 13-C , 19-C ) :   1.2094
B( 14-C , 15-C ) :   1.6499 B( 14-C , 17-H ) :   0.9300 B( 15-C , 16-C ) :   1.1521
B( 15-C , 18-H ) :   0.9285 B( 16-C , 20-C ) :   1.2833 B( 19-C , 21-C ) :   1.4627
B( 20-C , 22-C ) :   1.4953 B( 20-C , 23-H ) :   0.9292 B( 21-C , 22-C ) :   1.3471
B( 21-C , 26-H ) :   0.9153 B( 22-C , 24-H ) :   0.9249

Dispersion correction           -0.024084886
FINAL SINGLE POINT ENERGY     -2061.480410122227
Dispersion correction            ... done

DIPOLE MOMENT
-------------
                                X             Y             Z
Electronic contribution:    -74.99944     -54.01602      14.72627
Nuclear contribution   :     78.68035      56.81773     -14.34405
                        -----------------------------------------
Total Dipole Moment    :      3.68091       2.80171       0.38222
                        -----------------------------------------
Magnitude (a.u.)       :      4.64164
Magnitude (Debye)      :     11.79810

Rotational constants in cm-1:     0.011651     0.007754     0.005718
Rotational constants in MHz :   349.288417   232.448173   171.423463

                             ****ORCA TERMINATED NORMALLY****
TOTAL RUN TIME: 0 days 0 hours 11 minutes 36 seconds 526 msec
