                         Program Version 5.0.3 -  RELEASE  -
|  1> ! EnGrad PBEh-3c
|  2> %output
|  3> xyzfile=True
|  4> end
|  5> %scf
|  6> maxiter 250
|  7> end
|  8> %output
|  9> Print[P_Hirshfeld] = 1
| 10> end
| 11> % maxcore
| 12> 4000
| 13> *xyz -1 1
| 14> Pd  -2.02107665  -1.61572052   0.52774168
| 15> Cl  -3.29479856  -3.31536183  -0.31270181
| 16> Cl  -0.38272165  -4.78814842   0.99015180
| 17> Cl  -4.11296685  -0.66694008   1.26604922
| 18> N   -1.02696946  -0.01059283   1.40751613
| 19> C   -1.33463975   0.55594738   2.56553560
| 20> C   -0.80842943   1.79337649   2.95558305
| 21> C    0.08070278   2.42790561   2.15221284
| 22> C   -0.08793307   0.57251446   0.59750951
| 23> C    0.48231967   1.84759011   0.94802752
| 24> H    0.51754643   3.38488344   2.44259140
| 25> H   -2.00660498   0.02346278   3.16561822
| 26> H   -1.13134354   2.22741901   3.89906071
| 27> C    0.33385738  -0.11086108  -0.59376328
| 28> C    1.41796936   2.44135383   0.06677942
| 29> C    1.76593959   1.84058965  -1.07461684
| 30> C    1.26369248   0.56181585  -1.46587828
| 31> H    1.83723973   3.39873607   0.33755626
| 32> H    2.47764263   2.31412318  -1.74146674
| 33> C   -0.26520908  -1.42073460  -0.84649896
| 34> C    1.65719194  -0.10939820  -2.59338447
| 35> C    0.23052309  -1.94101419  -2.09915032
| 36> C    1.18497845  -1.29283595  -2.93237461
| 37> H    2.38899422   0.41824971  -3.27432483
| 38> H    1.53133192  -1.81181440  -3.83997620
| 39> H   -0.47722253  -3.85018664  -0.08385101
| 40> H   -0.21680726  -2.87392080  -2.46530184
| 41> *
| 42>
| 43>                          ****END OF INPUT****

CARTESIAN COORDINATES (ANGSTROEM)
---------------------------------
  Pd    -2.021077   -1.615721    0.527742
  Cl    -3.294799   -3.315362   -0.312702
  Cl    -0.382722   -4.788148    0.990152
  Cl    -4.112967   -0.666940    1.266049
  N     -1.026969   -0.010593    1.407516
  C     -1.334640    0.555947    2.565536
  C     -0.808429    1.793376    2.955583
  C      0.080703    2.427906    2.152213
  C     -0.087933    0.572514    0.597510
  C      0.482320    1.847590    0.948028
  H      0.517546    3.384883    2.442591
  H     -2.006605    0.023463    3.165618
  H     -1.131344    2.227419    3.899061
  C      0.333857   -0.110861   -0.593763
  C      1.417969    2.441354    0.066779
  C      1.765940    1.840590   -1.074617
  C      1.263692    0.561816   -1.465878
  H      1.837240    3.398736    0.337556
  H      2.477643    2.314123   -1.741467
  C     -0.265209   -1.420735   -0.846499
  C      1.657192   -0.109398   -2.593384
  C      0.230523   -1.941014   -2.099150
  C      1.184978   -1.292836   -2.932375
  H      2.388994    0.418250   -3.274325
  H      1.531332   -1.811814   -3.839976
  H     -0.477223   -3.850187   -0.083851
  H     -0.216807   -2.873921   -2.465302

 Total Charge           Charge          ....   -1
 Multiplicity           Mult            ....    1
 Number of Electrons    NEL             ....  164
 Basis Dimension        Dim             ....  313

ORBITAL ENERGIES
----------------

  NO   OCC          E(Eh)            E(eV)
   0   2.0000    -102.160245     -2779.9216
   1   2.0000    -102.076685     -2777.6478
   2   2.0000    -102.068749     -2777.4319
   3   2.0000     -14.594514      -397.1369
   4   2.0000     -10.408903      -283.2406
   5   2.0000     -10.402257      -283.0598
   6   2.0000     -10.388109      -282.6748
   7   2.0000     -10.382338      -282.5178
   8   2.0000     -10.374800      -282.3127
   9   2.0000     -10.370536      -282.1966
  10   2.0000     -10.368941      -282.1532
  11   2.0000     -10.366603      -282.0896
  12   2.0000     -10.360921      -281.9350
  13   2.0000     -10.351918      -281.6900
  14   2.0000     -10.348158      -281.5877
  15   2.0000     -10.348000      -281.5834
  16   2.0000     -10.344461      -281.4871
  17   2.0000      -9.625732      -261.9295
  18   2.0000      -9.541160      -259.6282
  19   2.0000      -9.532152      -259.3830
  20   2.0000      -7.313421      -199.0083
  21   2.0000      -7.305438      -198.7911
  22   2.0000      -7.305262      -198.7863
  23   2.0000      -7.227242      -196.6633
  24   2.0000      -7.222048      -196.5219
  25   2.0000      -7.221739      -196.5135
  26   2.0000      -7.217656      -196.4024
  27   2.0000      -7.213502      -196.2894
  28   2.0000      -7.213235      -196.2821
  29   2.0000      -3.512007       -95.5666
  30   2.0000      -2.160938       -58.8021
  31   2.0000      -2.150948       -58.5303
  32   2.0000      -2.123343       -57.7791
  33   2.0000      -0.979661       -26.6579
  34   2.0000      -0.880278       -23.9536
  35   2.0000      -0.844642       -22.9839
  36   2.0000      -0.812411       -22.1068
  37   2.0000      -0.774208       -21.0673
  38   2.0000      -0.762546       -20.7499
  39   2.0000      -0.736923       -20.0527
  40   2.0000      -0.712694       -19.3934
  41   2.0000      -0.671160       -18.2632
  42   2.0000      -0.654552       -17.8113
  43   2.0000      -0.643127       -17.5004
  44   2.0000      -0.636397       -17.3172
  45   2.0000      -0.602944       -16.4069
  46   2.0000      -0.564275       -15.3547
  47   2.0000      -0.527913       -14.3652
  48   2.0000      -0.512363       -13.9421
  49   2.0000      -0.489733       -13.3263
  50   2.0000      -0.458603       -12.4792
  51   2.0000      -0.453469       -12.3395
  52   2.0000      -0.425306       -11.5732
  53   2.0000      -0.408236       -11.1087
  54   2.0000      -0.400928       -10.9098
  55   2.0000      -0.397064       -10.8047
  56   2.0000      -0.385217       -10.4823
  57   2.0000      -0.371234       -10.1018
  58   2.0000      -0.360687        -9.8148
  59   2.0000      -0.341651        -9.2968
  60   2.0000      -0.340268        -9.2592
  61   2.0000      -0.326570        -8.8864
  62   2.0000      -0.311646        -8.4803
  63   2.0000      -0.300695        -8.1823
  64   2.0000      -0.283094        -7.7034
  65   2.0000      -0.263333        -7.1657
  66   2.0000      -0.250071        -6.8048
  67   2.0000      -0.243295        -6.6204
  68   2.0000      -0.236937        -6.4474
  69   2.0000      -0.234515        -6.3815
  70   2.0000      -0.230940        -6.2842
  71   2.0000      -0.218227        -5.9383
  72   2.0000      -0.209883        -5.7112
  73   2.0000      -0.208527        -5.6743
  74   2.0000      -0.178663        -4.8617
  75   2.0000      -0.173580        -4.7234
  76   2.0000      -0.167959        -4.5704
  77   2.0000      -0.151286        -4.1167
  78   2.0000      -0.145838        -3.9685
  79   2.0000      -0.136319        -3.7094
  80   2.0000      -0.134625        -3.6633
  81   2.0000      -0.119099        -3.2409
  82   0.0000       0.048741         1.3263
  83   0.0000       0.070223         1.9109
  84   0.0000       0.087903         2.3920
  85   0.0000       0.110716         3.0127
  86   0.0000       0.146458         3.9853

MULLIKEN ATOMIC CHARGES
-----------------------
   0 Pd:    0.187151
   1 Cl:   -0.363062
   2 Cl:   -0.328150
   3 Cl:   -0.449724
   4 N :   -0.570119
   5 C :    0.052715
   6 C :   -0.338741
   7 C :   -0.151174
   8 C :    0.380240
   9 C :    0.041423
  10 H :    0.205183
  11 H :    0.281712
  12 H :    0.216660
  13 C :   -0.066314
  14 C :   -0.285247
  15 C :   -0.283197
  16 C :    0.198593
  17 H :    0.192091
  18 H :    0.191550
  19 C :   -0.138917
  20 C :   -0.322969
  21 C :   -0.384238
  22 C :   -0.165654
  23 H :    0.172398
  24 H :    0.193393
  25 H :    0.316729
  26 H :    0.217668
Sum of atomic charges:   -1.0000000

LOEWDIN ATOMIC CHARGES
----------------------
   0 Pd:   -0.808550
   1 Cl:   -0.094042
   2 Cl:   -0.204744
   3 Cl:   -0.211598
   4 N :    0.035728
   5 C :    0.008722
   6 C :   -0.170860
   7 C :   -0.091679
   8 C :    0.094763
   9 C :   -0.056657
  10 H :    0.133098
  11 H :    0.163407
  12 H :    0.139765
  13 C :   -0.029241
  14 C :   -0.145074
  15 C :   -0.116997
  16 C :   -0.040832
  17 H :    0.129515
  18 H :    0.129455
  19 C :   -0.058225
  20 C :   -0.150604
  21 C :   -0.147451
  22 C :   -0.137338
  23 H :    0.117437
  24 H :    0.128555
  25 H :    0.249187
  26 H :    0.134261

  Mayer bond orders larger than 0.100000
B(  0-Pd,  1-Cl) :   0.9006 B(  0-Pd,  3-Cl) :   0.7412 B(  0-Pd,  4-N ) :   0.4044
B(  0-Pd, 19-C ) :   0.6104 B(  2-Cl, 25-H ) :   0.8339 B(  4-N ,  5-C ) :   1.4808
B(  4-N ,  8-C ) :   1.1284 B(  5-C ,  6-C ) :   1.3136 B(  5-C , 11-H ) :   0.8851
B(  6-C ,  7-C ) :   1.4588 B(  6-C , 12-H ) :   0.9206 B(  7-C ,  9-C ) :   1.2770
B(  7-C , 10-H ) :   0.9303 B(  8-C ,  9-C ) :   1.2305 B(  8-C , 13-C ) :   1.1640
B(  9-C , 14-C ) :   1.1744 B( 13-C , 16-C ) :   1.2442 B( 13-C , 19-C ) :   1.2341
B( 14-C , 15-C ) :   1.6345 B( 14-C , 17-H ) :   0.9295 B( 15-C , 16-C ) :   1.1615
B( 15-C , 18-H ) :   0.9275 B( 16-C , 20-C ) :   1.2732 B( 19-C , 21-C ) :   1.4585
B( 20-C , 22-C ) :   1.4959 B( 20-C , 23-H ) :   0.9328 B( 21-C , 22-C ) :   1.3264
B( 21-C , 26-H ) :   0.9154 B( 22-C , 24-H ) :   0.9245

Dispersion correction           -0.023846300
FINAL SINGLE POINT ENERGY     -2061.458643477927
Dispersion correction            ... done

DIPOLE MOMENT
-------------
                                X             Y             Z
Electronic contribution:    -77.93595     -56.95331      21.17481
Nuclear contribution   :     81.37400      59.85837     -20.87720
                        -----------------------------------------
Total Dipole Moment    :      3.43805       2.90506       0.29760
                        -----------------------------------------
Magnitude (a.u.)       :      4.51089
Magnitude (Debye)      :     11.46577

Rotational constants in cm-1:     0.011273     0.007469     0.005488
Rotational constants in MHz :   337.967150   223.925197   164.531081

                             ****ORCA TERMINATED NORMALLY****
TOTAL RUN TIME: 0 days 0 hours 11 minutes 53 seconds 271 msec
