                         Program Version 5.0.3 -  RELEASE  -
|  1> ! EnGrad PBEh-3c
|  2> %output
|  3> xyzfile=True
|  4> end
|  5> %scf
|  6> maxiter 250
|  7> end
|  8> %output
|  9> Print[P_Hirshfeld] = 1
| 10> end
| 11> % maxcore
| 12> 4000
| 13> *xyz -1 1
| 14> Pd  -1.99001718  -1.60523483   0.46875854
| 15> Cl  -3.29636122  -3.30424404  -0.29494856
| 16> Cl  -0.44644469  -4.65425600   0.93302052
| 17> Cl  -4.09881382  -0.59619984   1.21229228
| 18> N   -1.01567469  -0.02727135   1.40566039
| 19> C   -1.31362778   0.54087136   2.55726390
| 20> C   -0.80878636   1.76202067   2.97422282
| 21> C    0.08711689   2.42469906   2.14913281
| 22> C   -0.08001011   0.56914324   0.61065924
| 23> C    0.47011880   1.82240808   0.94577184
| 24> H    0.51116382   3.37030329   2.43868883
| 25> H   -2.02008100   0.00035123   3.17903242
| 26> H   -1.12104990   2.20117161   3.90332553
| 27> C    0.33019417  -0.13137786  -0.58953875
| 28> C    1.40399075   2.44695587   0.07276296
| 29> C    1.75983104   1.83686457  -1.09682168
| 30> C    1.24255419   0.55773959  -1.44015467
| 31> H    1.82014482   3.39927990   0.33535667
| 32> H    2.45760150   2.31889455  -1.75089719
| 33> C   -0.26356855  -1.43436682  -0.85731496
| 34> C    1.69921650  -0.05987552  -2.62241759
| 35> C    0.22878321  -1.95399951  -2.07612692
| 36> C    1.16192795  -1.33872187  -2.94542313
| 37> H    2.37053675   0.42030827  -3.26806604
| 38> H    1.53565609  -1.80499295  -3.84157851
| 39> H   -0.44200477  -3.86819842   0.05468729
| 40> H   -0.17894366  -2.89153447  -2.45872410
| 41> *
| 42>
| 43>                          ****END OF INPUT****

CARTESIAN COORDINATES (ANGSTROEM)
---------------------------------
  Pd    -1.990017   -1.605235    0.468759
  Cl    -3.296361   -3.304244   -0.294949
  Cl    -0.446445   -4.654256    0.933021
  Cl    -4.098814   -0.596200    1.212292
  N     -1.015675   -0.027271    1.405660
  C     -1.313628    0.540871    2.557264
  C     -0.808786    1.762021    2.974223
  C      0.087117    2.424699    2.149133
  C     -0.080010    0.569143    0.610659
  C      0.470119    1.822408    0.945772
  H      0.511164    3.370303    2.438689
  H     -2.020081    0.000351    3.179032
  H     -1.121050    2.201172    3.903326
  C      0.330194   -0.131378   -0.589539
  C      1.403991    2.446956    0.072763
  C      1.759831    1.836865   -1.096822
  C      1.242554    0.557740   -1.440155
  H      1.820145    3.399280    0.335357
  H      2.457601    2.318895   -1.750897
  C     -0.263569   -1.434367   -0.857315
  C      1.699216   -0.059876   -2.622418
  C      0.228783   -1.954000   -2.076127
  C      1.161928   -1.338722   -2.945423
  H      2.370537    0.420308   -3.268066
  H      1.535656   -1.804993   -3.841579
  H     -0.442005   -3.868198    0.054687
  H     -0.178944   -2.891534   -2.458724

 Total Charge           Charge          ....   -1
 Multiplicity           Mult            ....    1
 Number of Electrons    NEL             ....  164
 Basis Dimension        Dim             ....  313

ORBITAL ENERGIES
----------------

  NO   OCC          E(Eh)            E(eV)
   0   2.0000    -102.152864     -2779.7208
   1   2.0000    -102.074042     -2777.5759
   2   2.0000    -102.062014     -2777.2486
   3   2.0000     -14.591676      -397.0597
   4   2.0000     -10.405556      -283.1496
   5   2.0000     -10.401075      -283.0276
   6   2.0000     -10.388920      -282.6969
   7   2.0000     -10.379843      -282.4499
   8   2.0000     -10.373304      -282.2719
   9   2.0000     -10.369630      -282.1720
  10   2.0000     -10.368912      -282.1524
  11   2.0000     -10.366671      -282.0915
  12   2.0000     -10.359339      -281.8920
  13   2.0000     -10.357416      -281.8396
  14   2.0000     -10.350942      -281.6635
  15   2.0000     -10.345239      -281.5083
  16   2.0000     -10.340802      -281.3875
  17   2.0000      -9.625722      -261.9292
  18   2.0000      -9.538670      -259.5604
  19   2.0000      -9.525232      -259.1947
  20   2.0000      -7.312879      -198.9936
  21   2.0000      -7.305020      -198.7797
  22   2.0000      -7.304797      -198.7736
  23   2.0000      -7.224738      -196.5951
  24   2.0000      -7.219578      -196.4547
  25   2.0000      -7.219217      -196.4449
  26   2.0000      -7.210623      -196.2110
  27   2.0000      -7.206690      -196.1040
  28   2.0000      -7.206398      -196.0961
  29   2.0000      -3.510735       -95.5319
  30   2.0000      -2.159563       -58.7647
  31   2.0000      -2.149855       -58.5005
  32   2.0000      -2.122070       -57.7445
  33   2.0000      -0.982362       -26.7314
  34   2.0000      -0.875072       -23.8119
  35   2.0000      -0.838394       -22.8139
  36   2.0000      -0.807060       -21.9612
  37   2.0000      -0.802710       -21.8429
  38   2.0000      -0.773235       -21.0408
  39   2.0000      -0.731601       -19.9079
  40   2.0000      -0.711375       -19.3575
  41   2.0000      -0.668822       -18.1996
  42   2.0000      -0.647887       -17.6299
  43   2.0000      -0.641870       -17.4662
  44   2.0000      -0.632609       -17.2142
  45   2.0000      -0.602852       -16.4044
  46   2.0000      -0.571005       -15.5378
  47   2.0000      -0.523055       -14.2330
  48   2.0000      -0.509739       -13.8707
  49   2.0000      -0.490410       -13.3447
  50   2.0000      -0.456925       -12.4336
  51   2.0000      -0.453718       -12.3463
  52   2.0000      -0.423955       -11.5364
  53   2.0000      -0.407650       -11.0927
  54   2.0000      -0.403364       -10.9761
  55   2.0000      -0.400002       -10.8846
  56   2.0000      -0.395647       -10.7661
  57   2.0000      -0.378600       -10.3022
  58   2.0000      -0.365247        -9.9389
  59   2.0000      -0.352352        -9.5880
  60   2.0000      -0.335454        -9.1282
  61   2.0000      -0.331626        -9.0240
  62   2.0000      -0.308411        -8.3923
  63   2.0000      -0.295926        -8.0526
  64   2.0000      -0.282891        -7.6979
  65   2.0000      -0.256475        -6.9790
  66   2.0000      -0.250068        -6.8047
  67   2.0000      -0.247912        -6.7460
  68   2.0000      -0.242953        -6.6111
  69   2.0000      -0.241745        -6.5782
  70   2.0000      -0.231996        -6.3129
  71   2.0000      -0.216233        -5.8840
  72   2.0000      -0.207844        -5.6557
  73   2.0000      -0.205024        -5.5790
  74   2.0000      -0.175743        -4.7822
  75   2.0000      -0.170650        -4.6436
  76   2.0000      -0.165481        -4.5030
  77   2.0000      -0.148005        -4.0274
  78   2.0000      -0.142544        -3.8788
  79   2.0000      -0.132946        -3.6176
  80   2.0000      -0.130606        -3.5540
  81   2.0000      -0.115525        -3.1436
  82   0.0000       0.049225         1.3395
  83   0.0000       0.071234         1.9384
  84   0.0000       0.089953         2.4478
  85   0.0000       0.113292         3.0828
  86   0.0000       0.140528         3.8240

MULLIKEN ATOMIC CHARGES
-----------------------
   0 Pd:    0.178877
   1 Cl:   -0.363562
   2 Cl:   -0.320919
   3 Cl:   -0.465347
   4 N :   -0.564178
   5 C :    0.046353
   6 C :   -0.331766
   7 C :   -0.163952
   8 C :    0.384875
   9 C :    0.055764
  10 H :    0.209170
  11 H :    0.276116
  12 H :    0.218872
  13 C :   -0.005699
  14 C :   -0.309726
  15 C :   -0.281584
  16 C :    0.133561
  17 H :    0.192454
  18 H :    0.195637
  19 C :   -0.134978
  20 C :   -0.333814
  21 C :   -0.361942
  22 C :   -0.189114
  23 H :    0.191352
  24 H :    0.194080
  25 H :    0.334384
  26 H :    0.215086
Sum of atomic charges:   -1.0000000

LOEWDIN ATOMIC CHARGES
----------------------
   0 Pd:   -0.804391
   1 Cl:   -0.092114
   2 Cl:   -0.138500
   3 Cl:   -0.240419
   4 N :    0.037323
   5 C :    0.004437
   6 C :   -0.173531
   7 C :   -0.086641
   8 C :    0.093758
   9 C :   -0.059163
  10 H :    0.133699
  11 H :    0.164453
  12 H :    0.139828
  13 C :   -0.028091
  14 C :   -0.145372
  15 C :   -0.118887
  16 C :   -0.036900
  17 H :    0.128525
  18 H :    0.130434
  19 C :   -0.048851
  20 C :   -0.161288
  21 C :   -0.147074
  22 C :   -0.133425
  23 H :    0.123570
  24 H :    0.125894
  25 H :    0.197774
  26 H :    0.134952

  Mayer bond orders larger than 0.100000
B(  0-Pd,  1-Cl) :   0.9096 B(  0-Pd,  3-Cl) :   0.7141 B(  0-Pd,  4-N ) :   0.4006
B(  0-Pd, 19-C ) :   0.6528 B(  2-Cl, 25-H ) :   0.8328 B(  4-N ,  5-C ) :   1.4807
B(  4-N ,  8-C ) :   1.1354 B(  5-C ,  6-C ) :   1.3210 B(  5-C , 11-H ) :   0.8876
B(  6-C ,  7-C ) :   1.4523 B(  6-C , 12-H ) :   0.9205 B(  7-C ,  9-C ) :   1.2811
B(  7-C , 10-H ) :   0.9289 B(  8-C ,  9-C ) :   1.2228 B(  8-C , 13-C ) :   1.1505
B(  9-C , 14-C ) :   1.1682 B( 13-C , 16-C ) :   1.2413 B( 13-C , 19-C ) :   1.2149
B( 14-C , 15-C ) :   1.6420 B( 14-C , 17-H ) :   0.9299 B( 15-C , 16-C ) :   1.1628
B( 15-C , 18-H ) :   0.9280 B( 16-C , 20-C ) :   1.2950 B( 19-C , 21-C ) :   1.4442
B( 20-C , 22-C ) :   1.4805 B( 20-C , 23-H ) :   0.9273 B( 21-C , 22-C ) :   1.3598
B( 21-C , 26-H ) :   0.9170 B( 22-C , 24-H ) :   0.9238

Dispersion correction           -0.023939091
FINAL SINGLE POINT ENERGY     -2061.465071474156
Dispersion correction            ... done

DIPOLE MOMENT
-------------
                                X             Y             Z
Electronic contribution:    -76.03955     -57.20210      18.53063
Nuclear contribution   :     79.64787      59.89254     -18.18268
                        -----------------------------------------
Total Dipole Moment    :      3.60832       2.69044       0.34795
                        -----------------------------------------
Magnitude (a.u.)       :      4.51437
Magnitude (Debye)      :     11.47461

Rotational constants in cm-1:     0.011483     0.007629     0.005577
Rotational constants in MHz :   344.252804   228.721415   167.179362

                             ****ORCA TERMINATED NORMALLY****
TOTAL RUN TIME: 0 days 0 hours 9 minutes 40 seconds 460 msec
