                         Program Version 5.0.3 -  RELEASE  -
|  1> ! EnGrad PBEh-3c
|  2> %output
|  3> xyzfile=True
|  4> end
|  5> %scf
|  6> maxiter 250
|  7> end
|  8> %output
|  9> Print[P_Hirshfeld] = 1
| 10> end
| 11> % maxcore
| 12> 4000
| 13> *xyz -1 1
| 14> Pd  -1.99359237  -1.59003739   0.46767820
| 15> Cl  -3.29650130  -3.30700794  -0.29905550
| 16> Cl  -0.44875889  -4.67072786   0.96197178
| 17> Cl  -4.08879281  -0.59099226   1.20539729
| 18> N   -1.00344689  -0.02604049   1.39721849
| 19> C   -1.31627823   0.53497113   2.55370449
| 20> C   -0.80339796   1.76288264   2.97318671
| 21> C    0.08493593   2.41916547   2.15107894
| 22> C   -0.07995663   0.56674362   0.61026649
| 23> C    0.46738619   1.81735600   0.94774330
| 24> H    0.51029324   3.37056090   2.43876237
| 25> H   -2.02309845  -0.00334887   3.18109551
| 26> H   -1.12031578   2.19762298   3.90583844
| 27> C    0.32127368  -0.13525437  -0.58443095
| 28> C    1.40290987   2.44226585   0.06618596
| 29> C    1.75508590   1.83846136  -1.09011520
| 30> C    1.23919517   0.54908978  -1.43571272
| 31> H    1.81930871   3.40303202   0.33618550
| 32> H    2.45761855   2.32111509  -1.75480407
| 33> C   -0.24908367  -1.42395224  -0.86846094
| 34> C    1.69077913  -0.06759150  -2.62381368
| 35> C    0.22133287  -1.96071705  -2.07372709
| 36> C    1.16217484  -1.33409006  -2.93411169
| 37> H    2.37402448   0.42442779  -3.27231005
| 38> H    1.53383796  -1.80604042  -3.84187531
| 39> H   -0.44053535  -3.83921917   0.03657992
| 40> H   -0.17354701  -2.89186660  -2.45552853
| 41> *
| 42>
| 43>                          ****END OF INPUT****

CARTESIAN COORDINATES (ANGSTROEM)
---------------------------------
  Pd    -1.993592   -1.590037    0.467678
  Cl    -3.296501   -3.307008   -0.299055
  Cl    -0.448759   -4.670728    0.961972
  Cl    -4.088793   -0.590992    1.205397
  N     -1.003447   -0.026040    1.397218
  C     -1.316278    0.534971    2.553704
  C     -0.803398    1.762883    2.973187
  C      0.084936    2.419165    2.151079
  C     -0.079957    0.566744    0.610266
  C      0.467386    1.817356    0.947743
  H      0.510293    3.370561    2.438762
  H     -2.023098   -0.003349    3.181096
  H     -1.120316    2.197623    3.905838
  C      0.321274   -0.135254   -0.584431
  C      1.402910    2.442266    0.066186
  C      1.755086    1.838461   -1.090115
  C      1.239195    0.549090   -1.435713
  H      1.819309    3.403032    0.336186
  H      2.457619    2.321115   -1.754804
  C     -0.249084   -1.423952   -0.868461
  C      1.690779   -0.067591   -2.623814
  C      0.221333   -1.960717   -2.073727
  C      1.162175   -1.334090   -2.934112
  H      2.374024    0.424428   -3.272310
  H      1.533838   -1.806040   -3.841875
  H     -0.440535   -3.839219    0.036580
  H     -0.173547   -2.891867   -2.455529

 Total Charge           Charge          ....   -1
 Multiplicity           Mult            ....    1
 Number of Electrons    NEL             ....  164
 Basis Dimension        Dim             ....  313

ORBITAL ENERGIES
----------------

  NO   OCC          E(Eh)            E(eV)
   0   2.0000    -102.154967     -2779.7780
   1   2.0000    -102.072427     -2777.5319
   2   2.0000    -102.063247     -2777.2821
   3   2.0000     -14.591935      -397.0667
   4   2.0000     -10.404781      -283.1285
   5   2.0000     -10.403620      -283.0969
   6   2.0000     -10.389029      -282.6999
   7   2.0000     -10.380535      -282.4687
   8   2.0000     -10.374411      -282.3021
   9   2.0000     -10.370192      -282.1873
  10   2.0000     -10.369384      -282.1653
  11   2.0000     -10.367511      -282.1143
  12   2.0000     -10.358001      -281.8555
  13   2.0000     -10.357198      -281.8337
  14   2.0000     -10.351757      -281.6856
  15   2.0000     -10.341549      -281.4079
  16   2.0000     -10.339689      -281.3572
  17   2.0000      -9.625300      -261.9177
  18   2.0000      -9.536901      -259.5123
  19   2.0000      -9.526554      -259.2307
  20   2.0000      -7.312527      -198.9840
  21   2.0000      -7.304820      -198.7742
  22   2.0000      -7.304597      -198.7682
  23   2.0000      -7.222953      -196.5465
  24   2.0000      -7.217837      -196.4073
  25   2.0000      -7.217486      -196.3978
  26   2.0000      -7.211952      -196.2472
  27   2.0000      -7.207995      -196.1395
  28   2.0000      -7.207706      -196.1316
  29   2.0000      -3.509422       -95.4962
  30   2.0000      -2.158191       -58.7274
  31   2.0000      -2.148557       -58.4652
  32   2.0000      -2.120839       -57.7110
  33   2.0000      -0.985669       -26.8214
  34   2.0000      -0.875855       -23.8332
  35   2.0000      -0.840443       -22.8696
  36   2.0000      -0.805530       -21.9196
  37   2.0000      -0.792361       -21.5612
  38   2.0000      -0.774325       -21.0704
  39   2.0000      -0.732314       -19.9273
  40   2.0000      -0.713901       -19.4262
  41   2.0000      -0.666858       -18.1461
  42   2.0000      -0.649358       -17.6699
  43   2.0000      -0.642114       -17.4728
  44   2.0000      -0.633913       -17.2497
  45   2.0000      -0.604515       -16.4497
  46   2.0000      -0.569406       -15.4943
  47   2.0000      -0.523431       -14.2433
  48   2.0000      -0.510786       -13.8992
  49   2.0000      -0.491200       -13.3662
  50   2.0000      -0.456759       -12.4290
  51   2.0000      -0.453880       -12.3507
  52   2.0000      -0.425047       -11.5661
  53   2.0000      -0.408821       -11.1246
  54   2.0000      -0.402912       -10.9638
  55   2.0000      -0.397812       -10.8250
  56   2.0000      -0.389113       -10.5883
  57   2.0000      -0.377568       -10.2741
  58   2.0000      -0.369723       -10.0607
  59   2.0000      -0.350479        -9.5370
  60   2.0000      -0.336171        -9.1477
  61   2.0000      -0.332536        -9.0488
  62   2.0000      -0.309504        -8.4220
  63   2.0000      -0.297919        -8.1068
  64   2.0000      -0.285807        -7.7772
  65   2.0000      -0.258370        -7.0306
  66   2.0000      -0.248926        -6.7736
  67   2.0000      -0.244702        -6.6587
  68   2.0000      -0.240711        -6.5501
  69   2.0000      -0.238976        -6.5029
  70   2.0000      -0.231322        -6.2946
  71   2.0000      -0.215523        -5.8647
  72   2.0000      -0.207082        -5.6350
  73   2.0000      -0.203126        -5.5273
  74   2.0000      -0.176597        -4.8054
  75   2.0000      -0.169801        -4.6205
  76   2.0000      -0.165845        -4.5129
  77   2.0000      -0.149159        -4.0588
  78   2.0000      -0.142349        -3.8735
  79   2.0000      -0.132828        -3.6144
  80   2.0000      -0.130510        -3.5513
  81   2.0000      -0.115226        -3.1355
  82   0.0000       0.050065         1.3623
  83   0.0000       0.072295         1.9673
  84   0.0000       0.090758         2.4696
  85   0.0000       0.111492         3.0339
  86   0.0000       0.142824         3.8864

MULLIKEN ATOMIC CHARGES
-----------------------
   0 Pd:    0.178823
   1 Cl:   -0.368930
   2 Cl:   -0.324370
   3 Cl:   -0.460806
   4 N :   -0.568101
   5 C :    0.043803
   6 C :   -0.333497
   7 C :   -0.158271
   8 C :    0.401218
   9 C :    0.047459
  10 H :    0.208953
  11 H :    0.278130
  12 H :    0.219032
  13 C :    0.005463
  14 C :   -0.306815
  15 C :   -0.278158
  16 C :    0.115490
  17 H :    0.191419
  18 H :    0.194405
  19 C :   -0.138822
  20 C :   -0.324476
  21 C :   -0.358366
  22 C :   -0.196579
  23 H :    0.190968
  24 H :    0.191269
  25 H :    0.331769
  26 H :    0.218988
Sum of atomic charges:   -1.0000000

LOEWDIN ATOMIC CHARGES
----------------------
   0 Pd:   -0.807037
   1 Cl:   -0.101592
   2 Cl:   -0.157858
   3 Cl:   -0.230235
   4 N :    0.040070
   5 C :    0.007778
   6 C :   -0.172330
   7 C :   -0.088266
   8 C :    0.090337
   9 C :   -0.057409
  10 H :    0.133906
  11 H :    0.165608
  12 H :    0.139794
  13 C :   -0.029237
  14 C :   -0.144083
  15 C :   -0.119694
  16 C :   -0.033769
  17 H :    0.128284
  18 H :    0.130166
  19 C :   -0.053914
  20 C :   -0.161596
  21 C :   -0.146788
  22 C :   -0.131240
  23 H :    0.124007
  24 H :    0.124679
  25 H :    0.213859
  26 H :    0.136558

  Mayer bond orders larger than 0.100000
B(  0-Pd,  1-Cl) :   0.9030 B(  0-Pd,  3-Cl) :   0.7212 B(  0-Pd,  4-N ) :   0.4035
B(  0-Pd, 19-C ) :   0.6431 B(  2-Cl, 25-H ) :   0.8334 B(  4-N ,  5-C ) :   1.4751
B(  4-N ,  8-C ) :   1.1404 B(  5-C ,  6-C ) :   1.3205 B(  5-C , 11-H ) :   0.8868
B(  6-C ,  7-C ) :   1.4518 B(  6-C , 12-H ) :   0.9202 B(  7-C ,  9-C ) :   1.2832
B(  7-C , 10-H ) :   0.9290 B(  8-C ,  9-C ) :   1.2210 B(  8-C , 13-C ) :   1.1390
B(  9-C , 14-C ) :   1.1637 B( 13-C , 16-C ) :   1.2566 B( 13-C , 19-C ) :   1.2256
B( 14-C , 15-C ) :   1.6475 B( 14-C , 17-H ) :   0.9301 B( 15-C , 16-C ) :   1.1571
B( 15-C , 18-H ) :   0.9282 B( 16-C , 20-C ) :   1.2916 B( 19-C , 21-C ) :   1.4571
B( 20-C , 22-C ) :   1.4882 B( 20-C , 23-H ) :   0.9278 B( 21-C , 22-C ) :   1.3537
B( 21-C , 26-H ) :   0.9160 B( 22-C , 24-H ) :   0.9245

Dispersion correction           -0.023943231
FINAL SINGLE POINT ENERGY     -2061.477841546950
Dispersion correction            ... done

DIPOLE MOMENT
-------------
                                X             Y             Z
Electronic contribution:    -76.24508     -56.27829      18.42312
Nuclear contribution   :     79.84900      59.05265     -18.07233
                        -----------------------------------------
Total Dipole Moment    :      3.60392       2.77436       0.35078
                        -----------------------------------------
Magnitude (a.u.)       :      4.56161
Magnitude (Debye)      :     11.59470

Rotational constants in cm-1:     0.011480     0.007624     0.005589
Rotational constants in MHz :   344.155177   228.557344   167.557838

                             ****ORCA TERMINATED NORMALLY****
TOTAL RUN TIME: 0 days 0 hours 9 minutes 23 seconds 150 msec
