                         Program Version 5.0.3 -  RELEASE  -
|  1> ! EnGrad PBEh-3c
|  2> %output
|  3> xyzfile=True
|  4> end
|  5> %scf
|  6> maxiter 250
|  7> end
|  8> %output
|  9> Print[P_Hirshfeld] = 1
| 10> end
| 11> % maxcore
| 12> 4000
| 13> *xyz -1 1
| 14> Pd  -1.96360131  -1.54643269   0.39205807
| 15> Cl  -3.29764710  -3.29819432  -0.28814114
| 16> Cl  -0.52400050  -4.56980737   0.98026782
| 17> Cl  -4.05014615  -0.49663398   1.12921740
| 18> N   -0.97397697  -0.04502700   1.38586601
| 19> C   -1.31484280   0.49291112   2.55601936
| 20> C   -0.78185230   1.73250805   2.97892211
| 21> C    0.07747445   2.39080940   2.15688656
| 22> C   -0.07145567   0.54339788   0.61321979
| 23> C    0.46077021   1.79942125   0.95140689
| 24> H    0.50286652   3.35681590   2.43385309
| 25> H   -2.03213419  -0.02914496   3.18686819
| 26> H   -1.10855857   2.15922060   3.92038355
| 27> C    0.30986091  -0.15698276  -0.57289623
| 28> C    1.38481323   2.43365414   0.05303695
| 29> C    1.73016919   1.84125092  -1.08520380
| 30> C    1.22926287   0.52552291  -1.43232583
| 31> H    1.79544969   3.40975200   0.33578147
| 32> H    2.43336285   2.32945911  -1.77539622
| 33> C   -0.23755232  -1.42173027  -0.87850792
| 34> C    1.66358926  -0.08935843  -2.62599516
| 35> C    0.22199891  -1.98612825  -2.06243506
| 36> C    1.16270718  -1.31832466  -2.91498194
| 37> H    2.37602224   0.44820385  -3.28872341
| 38> H    1.53273703  -1.80757177  -3.84735090
| 39> H   -0.39943166  -3.77349886   0.13796620
| 40> H   -0.12416443  -2.92276817  -2.44015829
| 41> *
| 42>
| 43>                          ****END OF INPUT****

CARTESIAN COORDINATES (ANGSTROEM)
---------------------------------
  Pd    -1.963601   -1.546433    0.392058
  Cl    -3.297647   -3.298194   -0.288141
  Cl    -0.524000   -4.569807    0.980268
  Cl    -4.050146   -0.496634    1.129217
  N     -0.973977   -0.045027    1.385866
  C     -1.314843    0.492911    2.556019
  C     -0.781852    1.732508    2.978922
  C      0.077474    2.390809    2.156887
  C     -0.071456    0.543398    0.613220
  C      0.460770    1.799421    0.951407
  H      0.502867    3.356816    2.433853
  H     -2.032134   -0.029145    3.186868
  H     -1.108559    2.159221    3.920384
  C      0.309861   -0.156983   -0.572896
  C      1.384813    2.433654    0.053037
  C      1.730169    1.841251   -1.085204
  C      1.229263    0.525523   -1.432326
  H      1.795450    3.409752    0.335781
  H      2.433363    2.329459   -1.775396
  C     -0.237552   -1.421730   -0.878508
  C      1.663589   -0.089358   -2.625995
  C      0.221999   -1.986128   -2.062435
  C      1.162707   -1.318325   -2.914982
  H      2.376022    0.448204   -3.288723
  H      1.532737   -1.807572   -3.847351
  H     -0.399432   -3.773499    0.137966
  H     -0.124164   -2.922768   -2.440158

 Total Charge           Charge          ....   -1
 Multiplicity           Mult            ....    1
 Number of Electrons    NEL             ....  164
 Basis Dimension        Dim             ....  313

ORBITAL ENERGIES
----------------

  NO   OCC          E(Eh)            E(eV)
   0   2.0000    -102.148552     -2779.6034
   1   2.0000    -102.066904     -2777.3817
   2   2.0000    -102.058967     -2777.1657
   3   2.0000     -14.591145      -397.0452
   4   2.0000     -10.407796      -283.2105
   5   2.0000     -10.402518      -283.0669
   6   2.0000     -10.387950      -282.6705
   7   2.0000     -10.380517      -282.4682
   8   2.0000     -10.375591      -282.3342
   9   2.0000     -10.371244      -282.2159
  10   2.0000     -10.370161      -282.1864
  11   2.0000     -10.368887      -282.1518
  12   2.0000     -10.356274      -281.8085
  13   2.0000     -10.356101      -281.8038
  14   2.0000     -10.352859      -281.7156
  15   2.0000     -10.339790      -281.3600
  16   2.0000     -10.338074      -281.3133
  17   2.0000      -9.621946      -261.8264
  18   2.0000      -9.531234      -259.3581
  19   2.0000      -9.522262      -259.1139
  20   2.0000      -7.309116      -198.8912
  21   2.0000      -7.301198      -198.6757
  22   2.0000      -7.300930      -198.6684
  23   2.0000      -7.217218      -196.3905
  24   2.0000      -7.212256      -196.2555
  25   2.0000      -7.211861      -196.2447
  26   2.0000      -7.207521      -196.1266
  27   2.0000      -7.203802      -196.0254
  28   2.0000      -7.203489      -196.0169
  29   2.0000      -3.507819       -95.4526
  30   2.0000      -2.155896       -58.6649
  31   2.0000      -2.147840       -58.4457
  32   2.0000      -2.119335       -57.6700
  33   2.0000      -0.990491       -26.9526
  34   2.0000      -0.877289       -23.8722
  35   2.0000      -0.844323       -22.9752
  36   2.0000      -0.810473       -22.0541
  37   2.0000      -0.806777       -21.9535
  38   2.0000      -0.775746       -21.1091
  39   2.0000      -0.733548       -19.9608
  40   2.0000      -0.718135       -19.5415
  41   2.0000      -0.661035       -17.9877
  42   2.0000      -0.646736       -17.5986
  43   2.0000      -0.641753       -17.4630
  44   2.0000      -0.634623       -17.2690
  45   2.0000      -0.607292       -16.5252
  46   2.0000      -0.565153       -15.3786
  47   2.0000      -0.524894       -14.2831
  48   2.0000      -0.511936       -13.9305
  49   2.0000      -0.490684       -13.3522
  50   2.0000      -0.456676       -12.4268
  51   2.0000      -0.452239       -12.3060
  52   2.0000      -0.426000       -11.5921
  53   2.0000      -0.411098       -11.1865
  54   2.0000      -0.405181       -11.0255
  55   2.0000      -0.401048       -10.9131
  56   2.0000      -0.393786       -10.7155
  57   2.0000      -0.380727       -10.3601
  58   2.0000      -0.373329       -10.1588
  59   2.0000      -0.347499        -9.4559
  60   2.0000      -0.337138        -9.1740
  61   2.0000      -0.332843        -9.0571
  62   2.0000      -0.311838        -8.4856
  63   2.0000      -0.301847        -8.2137
  64   2.0000      -0.288698        -7.8559
  65   2.0000      -0.262392        -7.1400
  66   2.0000      -0.249421        -6.7871
  67   2.0000      -0.245724        -6.6865
  68   2.0000      -0.241123        -6.5613
  69   2.0000      -0.239325        -6.5124
  70   2.0000      -0.232190        -6.3182
  71   2.0000      -0.212988        -5.7957
  72   2.0000      -0.204117        -5.5543
  73   2.0000      -0.193928        -5.2770
  74   2.0000      -0.177706        -4.8356
  75   2.0000      -0.169601        -4.6151
  76   2.0000      -0.163842        -4.4584
  77   2.0000      -0.148585        -4.0432
  78   2.0000      -0.139293        -3.7904
  79   2.0000      -0.129407        -3.5214
  80   2.0000      -0.126501        -3.4423
  81   2.0000      -0.112094        -3.0502
  82   0.0000       0.051688         1.4065
  83   0.0000       0.074202         2.0191
  84   0.0000       0.094201         2.5633
  85   0.0000       0.109172         2.9707
  86   0.0000       0.149096         4.0571

MULLIKEN ATOMIC CHARGES
-----------------------
   0 Pd:    0.174930
   1 Cl:   -0.380686
   2 Cl:   -0.319958
   3 Cl:   -0.470201
   4 N :   -0.571952
   5 C :    0.040806
   6 C :   -0.341680
   7 C :   -0.146776
   8 C :    0.430094
   9 C :    0.036716
  10 H :    0.207627
  11 H :    0.282324
  12 H :    0.218123
  13 C :    0.032442
  14 C :   -0.298910
  15 C :   -0.275279
  16 C :    0.089746
  17 H :    0.189686
  18 H :    0.191711
  19 C :   -0.158933
  20 C :   -0.301824
  21 C :   -0.346888
  22 C :   -0.210215
  23 H :    0.186135
  24 H :    0.185108
  25 H :    0.333396
  26 H :    0.224459
Sum of atomic charges:   -1.0000000

LOEWDIN ATOMIC CHARGES
----------------------
   0 Pd:   -0.808851
   1 Cl:   -0.118550
   2 Cl:   -0.132532
   3 Cl:   -0.244121
   4 N :    0.044541
   5 C :    0.013534
   6 C :   -0.169937
   7 C :   -0.091601
   8 C :    0.084743
   9 C :   -0.054277
  10 H :    0.133989
  11 H :    0.167424
  12 H :    0.139330
  13 C :   -0.027277
  14 C :   -0.141970
  15 C :   -0.120607
  16 C :   -0.028516
  17 H :    0.127901
  18 H :    0.129430
  19 C :   -0.050871
  20 C :   -0.160380
  21 C :   -0.141808
  22 C :   -0.128336
  23 H :    0.123490
  24 H :    0.122498
  25 H :    0.193006
  26 H :    0.139746

  Mayer bond orders larger than 0.100000
B(  0-Pd,  1-Cl) :   0.8936 B(  0-Pd,  3-Cl) :   0.7021 B(  0-Pd,  4-N ) :   0.4099
B(  0-Pd, 19-C ) :   0.6862 B(  2-Cl, 25-H ) :   0.8306 B(  4-N ,  5-C ) :   1.4668
B(  4-N ,  8-C ) :   1.1450 B(  5-C ,  6-C ) :   1.3168 B(  5-C , 11-H ) :   0.8846
B(  6-C ,  7-C ) :   1.4497 B(  6-C , 12-H ) :   0.9202 B(  7-C ,  9-C ) :   1.2882
B(  7-C , 10-H ) :   0.9293 B(  8-C ,  9-C ) :   1.2156 B(  8-C , 13-C ) :   1.1211
B(  9-C , 14-C ) :   1.1592 B( 13-C , 16-C ) :   1.2873 B( 13-C , 19-C ) :   1.2050
B( 14-C , 15-C ) :   1.6524 B( 14-C , 17-H ) :   0.9301 B( 15-C , 16-C ) :   1.1496
B( 15-C , 18-H ) :   0.9281 B( 16-C , 20-C ) :   1.2784 B( 19-C , 21-C ) :   1.4749
B( 20-C , 22-C ) :   1.5031 B( 20-C , 23-H ) :   0.9297 B( 21-C , 22-C ) :   1.3357
B( 21-C , 26-H ) :   0.9146 B( 22-C , 24-H ) :   0.9258

Dispersion correction           -0.024087774
FINAL SINGLE POINT ENERGY     -2061.465807356039
Dispersion correction            ... done

DIPOLE MOMENT
-------------
                                X             Y             Z
Electronic contribution:    -74.45806     -54.56425      14.77042
Nuclear contribution   :     78.19168      57.28959     -14.36330
                        -----------------------------------------
Total Dipole Moment    :      3.73362       2.72534       0.40712
                        -----------------------------------------
Magnitude (a.u.)       :      4.64038
Magnitude (Debye)      :     11.79491

Rotational constants in cm-1:     0.011694     0.007785     0.005723
Rotational constants in MHz :   350.582570   233.392872   171.576441

                             ****ORCA TERMINATED NORMALLY****
TOTAL RUN TIME: 0 days 0 hours 9 minutes 37 seconds 558 msec
