                         Program Version 5.0.3 -  RELEASE  -
|  1> ! EnGrad PBEh-3c
|  2> %output
|  3> xyzfile=True
|  4> end
|  5> %scf
|  6> maxiter 250
|  7> end
|  8> %output
|  9> Print[P_Hirshfeld] = 1
| 10> end
| 11> % maxcore
| 12> 4000
| 13> *xyz -1 1
| 14> Pd  -1.98480198  -1.57725685   0.44551392
| 15> Cl  -3.29683713  -3.30442467  -0.29585650
| 16> Cl  -0.47081223  -4.64114804   0.96733436
| 17> Cl  -4.07746546  -0.56333582   1.18306895
| 18> N   -0.99480925  -0.03160544   1.39389108
| 19> C   -1.31585751   0.52264333   2.55438298
| 20> C   -0.79708293   1.75397984   2.97486776
| 21> C    0.08274897   2.41085430   2.15278115
| 22> C   -0.07746500   0.55990098   0.61113210
| 23> C    0.46544705   1.81209932   0.94881710
| 24> H    0.50811646   3.36653224   2.43732345
| 25> H   -2.02574683  -0.01090971   3.18278749
| 26> H   -1.11686974   2.18636723   3.91010162
| 27> C    0.31792860  -0.14162297  -0.58105012
| 28> C    1.39760574   2.43974176   0.06233198
| 29> C    1.74778281   1.83927898  -1.08867567
| 30> C    1.23628401   0.54218233  -1.43472002
| 31> H    1.81231563   3.40500165   0.33606708
| 32> H    2.45050920   2.32356072  -1.76083963
| 33> C   -0.24570383  -1.42330098  -0.87140571
| 34> C    1.68280977  -0.07397140  -2.62445307
| 35> C    0.22152809  -1.96816507  -2.07041739
| 36> C    1.16233087  -1.32946922  -2.92850476
| 37> H    2.37461003   0.43139656  -3.27712081
| 38> H    1.53351528  -1.80648926  -3.84348021
| 39> H   -0.42848785  -3.81995653   0.06629626
| 40> H   -0.15907297  -2.90092385  -2.45102351
| 41> *
| 42>
| 43>                          ****END OF INPUT****

CARTESIAN COORDINATES (ANGSTROEM)
---------------------------------
  Pd    -1.984802   -1.577257    0.445514
  Cl    -3.296837   -3.304425   -0.295857
  Cl    -0.470812   -4.641148    0.967334
  Cl    -4.077465   -0.563336    1.183069
  N     -0.994809   -0.031605    1.393891
  C     -1.315858    0.522643    2.554383
  C     -0.797083    1.753980    2.974868
  C      0.082749    2.410854    2.152781
  C     -0.077465    0.559901    0.611132
  C      0.465447    1.812099    0.948817
  H      0.508116    3.366532    2.437323
  H     -2.025747   -0.010910    3.182787
  H     -1.116870    2.186367    3.910102
  C      0.317929   -0.141623   -0.581050
  C      1.397606    2.439742    0.062332
  C      1.747783    1.839279   -1.088676
  C      1.236284    0.542182   -1.434720
  H      1.812316    3.405002    0.336067
  H      2.450509    2.323561   -1.760840
  C     -0.245704   -1.423301   -0.871406
  C      1.682810   -0.073971   -2.624453
  C      0.221528   -1.968165   -2.070417
  C      1.162331   -1.329469   -2.928505
  H      2.374610    0.431397   -3.277121
  H      1.533515   -1.806489   -3.843480
  H     -0.428488   -3.819957    0.066296
  H     -0.159073   -2.900924   -2.451024

 Total Charge           Charge          ....   -1
 Multiplicity           Mult            ....    1
 Number of Electrons    NEL             ....  164
 Basis Dimension        Dim             ....  313

ORBITAL ENERGIES
----------------

  NO   OCC          E(Eh)            E(eV)
   0   2.0000    -102.153112     -2779.7275
   1   2.0000    -102.070801     -2777.4877
   2   2.0000    -102.061957     -2777.2470
   3   2.0000     -14.591735      -397.0613
   4   2.0000     -10.404827      -283.1297
   5   2.0000     -10.404103      -283.1100
   6   2.0000     -10.388706      -282.6911
   7   2.0000     -10.380525      -282.4685
   8   2.0000     -10.374768      -282.3118
   9   2.0000     -10.370486      -282.1953
  10   2.0000     -10.369643      -282.1723
  11   2.0000     -10.367890      -282.1246
  12   2.0000     -10.357421      -281.8397
  13   2.0000     -10.356944      -281.8268
  14   2.0000     -10.352115      -281.6954
  15   2.0000     -10.340556      -281.3808
  16   2.0000     -10.339573      -281.3541
  17   2.0000      -9.624322      -261.8911
  18   2.0000      -9.535235      -259.4669
  19   2.0000      -9.525261      -259.1955
  20   2.0000      -7.311511      -198.9563
  21   2.0000      -7.303779      -198.7459
  22   2.0000      -7.303544      -198.7395
  23   2.0000      -7.221269      -196.5007
  24   2.0000      -7.216195      -196.3627
  25   2.0000      -7.215832      -196.3528
  26   2.0000      -7.210618      -196.2109
  27   2.0000      -7.206731      -196.1051
  28   2.0000      -7.206434      -196.0971
  29   2.0000      -3.508922       -95.4826
  30   2.0000      -2.157504       -58.7087
  31   2.0000      -2.148285       -58.4578
  32   2.0000      -2.120359       -57.6979
  33   2.0000      -0.987037       -26.8586
  34   2.0000      -0.876214       -23.8430
  35   2.0000      -0.841544       -22.8996
  36   2.0000      -0.806925       -21.9576
  37   2.0000      -0.796563       -21.6756
  38   2.0000      -0.774698       -21.0806
  39   2.0000      -0.732623       -19.9357
  40   2.0000      -0.715140       -19.4599
  41   2.0000      -0.665157       -18.0999
  42   2.0000      -0.648381       -17.6433
  43   2.0000      -0.642059       -17.4713
  44   2.0000      -0.634218       -17.2580
  45   2.0000      -0.605294       -16.4709
  46   2.0000      -0.568109       -15.4590
  47   2.0000      -0.523802       -14.2534
  48   2.0000      -0.511080       -13.9072
  49   2.0000      -0.491170       -13.3654
  50   2.0000      -0.456681       -12.4269
  51   2.0000      -0.453387       -12.3373
  52   2.0000      -0.425333       -11.5739
  53   2.0000      -0.409429       -11.1411
  54   2.0000      -0.403463       -10.9788
  55   2.0000      -0.398021       -10.8307
  56   2.0000      -0.391627       -10.6567
  57   2.0000      -0.377629       -10.2758
  58   2.0000      -0.371534       -10.1100
  59   2.0000      -0.349298        -9.5049
  60   2.0000      -0.336585        -9.1589
  61   2.0000      -0.332872        -9.0579
  62   2.0000      -0.310130        -8.4391
  63   2.0000      -0.299060        -8.1378
  64   2.0000      -0.287013        -7.8100
  65   2.0000      -0.259521        -7.0619
  66   2.0000      -0.249015        -6.7760
  67   2.0000      -0.245045        -6.6680
  68   2.0000      -0.240778        -6.5519
  69   2.0000      -0.239133        -6.5071
  70   2.0000      -0.231568        -6.3013
  71   2.0000      -0.214741        -5.8434
  72   2.0000      -0.206168        -5.6101
  73   2.0000      -0.200482        -5.4554
  74   2.0000      -0.176880        -4.8131
  75   2.0000      -0.169538        -4.6134
  76   2.0000      -0.165487        -4.5031
  77   2.0000      -0.149085        -4.0568
  78   2.0000      -0.141452        -3.8491
  79   2.0000      -0.131835        -3.5874
  80   2.0000      -0.129327        -3.5192
  81   2.0000      -0.114274        -3.1096
  82   0.0000       0.050585         1.3765
  83   0.0000       0.072909         1.9840
  84   0.0000       0.091907         2.5009
  85   0.0000       0.110752         3.0137
  86   0.0000       0.144652         3.9362

MULLIKEN ATOMIC CHARGES
-----------------------
   0 Pd:    0.177436
   1 Cl:   -0.372177
   2 Cl:   -0.323281
   3 Cl:   -0.463574
   4 N :   -0.569471
   5 C :    0.042950
   6 C :   -0.335951
   7 C :   -0.154919
   8 C :    0.409610
   9 C :    0.044430
  10 H :    0.208578
  11 H :    0.279408
  12 H :    0.218806
  13 C :    0.013066
  14 C :   -0.304632
  15 C :   -0.277452
  16 C :    0.108682
  17 H :    0.190940
  18 H :    0.193656
  19 C :   -0.144208
  20 C :   -0.318890
  21 C :   -0.355562
  22 C :   -0.200186
  23 H :    0.189860
  24 H :    0.189576
  25 H :    0.332536
  26 H :    0.220767
Sum of atomic charges:   -1.0000000

LOEWDIN ATOMIC CHARGES
----------------------
   0 Pd:   -0.808055
   1 Cl:   -0.106314
   2 Cl:   -0.150465
   3 Cl:   -0.234323
   4 N :    0.041493
   5 C :    0.009508
   6 C :   -0.171604
   7 C :   -0.089274
   8 C :    0.088740
   9 C :   -0.056495
  10 H :    0.133937
  11 H :    0.166133
  12 H :    0.139667
  13 C :   -0.028673
  14 C :   -0.143449
  15 C :   -0.119990
  16 C :   -0.032291
  17 H :    0.128185
  18 H :    0.129968
  19 C :   -0.053048
  20 C :   -0.161299
  21 C :   -0.145380
  22 C :   -0.130433
  23 H :    0.124014
  24 H :    0.124112
  25 H :    0.207796
  26 H :    0.137540

  Mayer bond orders larger than 0.100000
B(  0-Pd,  1-Cl) :   0.9007 B(  0-Pd,  3-Cl) :   0.7155 B(  0-Pd,  4-N ) :   0.4055
B(  0-Pd, 19-C ) :   0.6555 B(  2-Cl, 25-H ) :   0.8325 B(  4-N ,  5-C ) :   1.4729
B(  4-N ,  8-C ) :   1.1413 B(  5-C ,  6-C ) :   1.3193 B(  5-C , 11-H ) :   0.8861
B(  6-C ,  7-C ) :   1.4514 B(  6-C , 12-H ) :   0.9202 B(  7-C ,  9-C ) :   1.2846
B(  7-C , 10-H ) :   0.9291 B(  8-C ,  9-C ) :   1.2196 B(  8-C , 13-C ) :   1.1342
B(  9-C , 14-C ) :   1.1624 B( 13-C , 16-C ) :   1.2655 B( 13-C , 19-C ) :   1.2199
B( 14-C , 15-C ) :   1.6490 B( 14-C , 17-H ) :   0.9301 B( 15-C , 16-C ) :   1.1549
B( 15-C , 18-H ) :   0.9282 B( 16-C , 20-C ) :   1.2878 B( 19-C , 21-C ) :   1.4624
B( 20-C , 22-C ) :   1.4927 B( 20-C , 23-H ) :   0.9284 B( 21-C , 22-C ) :   1.3485
B( 21-C , 26-H ) :   0.9156 B( 22-C , 24-H ) :   0.9249

Dispersion correction           -0.023984892
FINAL SINGLE POINT ENERGY     -2061.477423505225
Dispersion correction            ... done

DIPOLE MOMENT
-------------
                                X             Y             Z
Electronic contribution:    -75.72052     -55.77523      17.35201
Nuclear contribution   :     79.36324      58.53589     -16.98522
                        -----------------------------------------
Total Dipole Moment    :      3.64272       2.76066       0.36679
                        -----------------------------------------
Magnitude (a.u.)       :      4.58532
Magnitude (Debye)      :     11.65496

Rotational constants in cm-1:     0.011543     0.007671     0.005628
Rotational constants in MHz :   346.064253   229.977713   168.733477

                             ****ORCA TERMINATED NORMALLY****
TOTAL RUN TIME: 0 days 0 hours 9 minutes 47 seconds 106 msec
