                         Program Version 5.0.3 -  RELEASE  -
|  1> ! EnGrad PBEh-3c
|  2> %output
|  3> xyzfile=True
|  4> end
|  5> %scf
|  6> maxiter 250
|  7> end
|  8> %output
|  9> Print[P_Hirshfeld] = 1
| 10> end
| 11> % maxcore
| 12> 4000
| 13> *xyz -1 1
| 14> Pd  -1.94974108  -1.49474078   0.33214769
| 15> Cl  -3.29444864  -3.29299330  -0.29211596
| 16> Cl  -0.57844425  -4.56865113   1.08082092
| 17> Cl  -4.00541253  -0.42498371   1.07122368
| 18> N   -0.96314002  -0.06521001   1.39123538
| 19> C   -1.31074055   0.46506369   2.55386948
| 20> C   -0.77754802   1.69227922   2.98728976
| 21> C    0.08069893   2.37292265   2.15845618
| 22> C   -0.05602015   0.53172664   0.60857549
| 23> C    0.46336163   1.78820733   0.95050140
| 24> H    0.49354051   3.34220704   2.42856094
| 25> H   -2.03870501  -0.05083720   3.18405046
| 26> H   -1.09764466   2.12527986   3.93151242
| 27> C    0.31761055  -0.15681927  -0.57653845
| 28> C    1.36456122   2.43822753   0.06161432
| 29> C    1.71550948   1.82727787  -1.10045821
| 30> C    1.22322265   0.50847623  -1.42649880
| 31> H    1.77264744   3.41004518   0.33325176
| 32> H    2.40723499   2.33139984  -1.78753781
| 33> C   -0.23760767  -1.42430497  -0.88128433
| 34> C    1.64667080  -0.08911013  -2.62529965
| 35> C    0.23445845  -1.99140223  -2.06113301
| 36> C    1.16162443  -1.32938437  -2.90796704
| 37> H    2.36451523   0.45617609  -3.29054597
| 38> H    1.52076690  -1.80491488  -3.83583051
| 39> H   -0.36635184  -3.63605742   0.13821268
| 40> H   -0.09064424  -2.95832387  -2.42555055
| 41> *
| 42>
| 43>                          ****END OF INPUT****

CARTESIAN COORDINATES (ANGSTROEM)
---------------------------------
  Pd    -1.949741   -1.494741    0.332148
  Cl    -3.294449   -3.292993   -0.292116
  Cl    -0.578444   -4.568651    1.080821
  Cl    -4.005413   -0.424984    1.071224
  N     -0.963140   -0.065210    1.391235
  C     -1.310741    0.465064    2.553869
  C     -0.777548    1.692279    2.987290
  C      0.080699    2.372923    2.158456
  C     -0.056020    0.531727    0.608575
  C      0.463362    1.788207    0.950501
  H      0.493541    3.342207    2.428561
  H     -2.038705   -0.050837    3.184050
  H     -1.097645    2.125280    3.931512
  C      0.317611   -0.156819   -0.576538
  C      1.364561    2.438228    0.061614
  C      1.715509    1.827278   -1.100458
  C      1.223223    0.508476   -1.426499
  H      1.772647    3.410045    0.333252
  H      2.407235    2.331400   -1.787538
  C     -0.237608   -1.424305   -0.881284
  C      1.646671   -0.089110   -2.625300
  C      0.234458   -1.991402   -2.061133
  C      1.161624   -1.329384   -2.907967
  H      2.364515    0.456176   -3.290546
  H      1.520767   -1.804915   -3.835831
  H     -0.366352   -3.636057    0.138213
  H     -0.090644   -2.958324   -2.425551

 Total Charge           Charge          ....   -1
 Multiplicity           Mult            ....    1
 Number of Electrons    NEL             ....  164
 Basis Dimension        Dim             ....  313

ORBITAL ENERGIES
----------------

  NO   OCC          E(Eh)            E(eV)
   0   2.0000    -102.151275     -2779.6775
   1   2.0000    -102.063781     -2777.2967
   2   2.0000    -102.061478     -2777.2340
   3   2.0000     -14.592187      -397.0736
   4   2.0000     -10.407987      -283.2157
   5   2.0000     -10.404014      -283.1076
   6   2.0000     -10.389609      -282.7156
   7   2.0000     -10.380303      -282.4624
   8   2.0000     -10.377009      -282.3728
   9   2.0000     -10.374662      -282.3089
  10   2.0000     -10.372686      -282.2551
  11   2.0000     -10.368355      -282.1373
  12   2.0000     -10.356318      -281.8097
  13   2.0000     -10.355923      -281.7990
  14   2.0000     -10.354450      -281.7589
  15   2.0000     -10.342351      -281.4297
  16   2.0000     -10.341744      -281.4132
  17   2.0000      -9.618705      -261.7383
  18   2.0000      -9.527865      -259.2664
  19   2.0000      -9.524901      -259.1857
  20   2.0000      -7.306166      -198.8109
  21   2.0000      -7.298397      -198.5995
  22   2.0000      -7.298112      -198.5917
  23   2.0000      -7.213833      -196.2984
  24   2.0000      -7.210149      -196.1981
  25   2.0000      -7.208937      -196.1652
  26   2.0000      -7.208520      -196.1538
  27   2.0000      -7.206451      -196.0975
  28   2.0000      -7.206093      -196.0877
  29   2.0000      -3.511087       -95.5415
  30   2.0000      -2.158207       -58.7278
  31   2.0000      -2.152296       -58.5669
  32   2.0000      -2.122555       -57.7577
  33   2.0000      -0.990907       -26.9639
  34   2.0000      -0.881808       -23.9952
  35   2.0000      -0.846116       -23.0240
  36   2.0000      -0.811123       -22.0718
  37   2.0000      -0.776795       -21.1377
  38   2.0000      -0.768871       -20.9220
  39   2.0000      -0.738494       -20.0954
  40   2.0000      -0.718548       -19.5527
  41   2.0000      -0.658101       -17.9078
  42   2.0000      -0.648249       -17.6397
  43   2.0000      -0.643313       -17.5054
  44   2.0000      -0.637197       -17.3390
  45   2.0000      -0.609397       -16.5825
  46   2.0000      -0.570099       -15.5132
  47   2.0000      -0.526262       -14.3203
  48   2.0000      -0.513940       -13.9850
  49   2.0000      -0.492543       -13.4028
  50   2.0000      -0.457360       -12.4454
  51   2.0000      -0.454540       -12.3687
  52   2.0000      -0.426294       -11.6001
  53   2.0000      -0.412238       -11.2176
  54   2.0000      -0.407494       -11.0885
  55   2.0000      -0.400188       -10.8897
  56   2.0000      -0.382896       -10.4191
  57   2.0000      -0.375111       -10.2073
  58   2.0000      -0.369345       -10.0504
  59   2.0000      -0.348437        -9.4815
  60   2.0000      -0.341425        -9.2907
  61   2.0000      -0.336396        -9.1538
  62   2.0000      -0.312451        -8.5022
  63   2.0000      -0.302910        -8.2426
  64   2.0000      -0.290330        -7.9003
  65   2.0000      -0.262904        -7.1540
  66   2.0000      -0.252843        -6.8802
  67   2.0000      -0.244803        -6.6614
  68   2.0000      -0.237159        -6.4534
  69   2.0000      -0.236636        -6.4392
  70   2.0000      -0.230218        -6.2645
  71   2.0000      -0.213539        -5.8107
  72   2.0000      -0.206484        -5.6187
  73   2.0000      -0.187467        -5.1012
  74   2.0000      -0.180803        -4.9199
  75   2.0000      -0.171323        -4.6619
  76   2.0000      -0.164866        -4.4862
  77   2.0000      -0.148992        -4.0543
  78   2.0000      -0.140301        -3.8178
  79   2.0000      -0.129925        -3.5355
  80   2.0000      -0.125411        -3.4126
  81   2.0000      -0.114217        -3.1080
  82   0.0000       0.048862         1.3296
  83   0.0000       0.071203         1.9375
  84   0.0000       0.093811         2.5527
  85   0.0000       0.109902         2.9906
  86   0.0000       0.144025         3.9191

MULLIKEN ATOMIC CHARGES
-----------------------
   0 Pd:    0.193574
   1 Cl:   -0.390073
   2 Cl:   -0.325467
   3 Cl:   -0.462306
   4 N :   -0.576027
   5 C :    0.045474
   6 C :   -0.343402
   7 C :   -0.153550
   8 C :    0.433167
   9 C :    0.047513
  10 H :    0.209342
  11 H :    0.282226
  12 H :    0.218036
  13 C :    0.050674
  14 C :   -0.307346
  15 C :   -0.293638
  16 C :    0.103459
  17 H :    0.192693
  18 H :    0.193411
  19 C :   -0.176632
  20 C :   -0.310879
  21 C :   -0.340438
  22 C :   -0.206756
  23 H :    0.186204
  24 H :    0.189307
  25 H :    0.317440
  26 H :    0.223996
Sum of atomic charges:   -1.0000000

LOEWDIN ATOMIC CHARGES
----------------------
   0 Pd:   -0.809448
   1 Cl:   -0.135727
   2 Cl:   -0.181298
   3 Cl:   -0.232110
   4 N :    0.043708
   5 C :    0.011135
   6 C :   -0.168887
   7 C :   -0.089459
   8 C :    0.089844
   9 C :   -0.056174
  10 H :    0.134513
  11 H :    0.167752
  12 H :    0.139270
  13 C :   -0.026239
  14 C :   -0.142542
  15 C :   -0.117848
  16 C :   -0.029985
  17 H :    0.128842
  18 H :    0.129733
  19 C :   -0.049117
  20 C :   -0.157369
  21 C :   -0.140982
  22 C :   -0.128179
  23 H :    0.123969
  24 H :    0.124015
  25 H :    0.231575
  26 H :    0.141008

  Mayer bond orders larger than 0.100000
B(  0-Pd,  1-Cl) :   0.8791 B(  0-Pd,  3-Cl) :   0.7087 B(  0-Pd,  4-N ) :   0.4167
B(  0-Pd, 19-C ) :   0.7036 B(  2-Cl, 25-H ) :   0.8288 B(  4-N ,  5-C ) :   1.4719
B(  4-N ,  8-C ) :   1.1270 B(  5-C ,  6-C ) :   1.3108 B(  5-C , 11-H ) :   0.8851
B(  6-C ,  7-C ) :   1.4537 B(  6-C , 12-H ) :   0.9204 B(  7-C ,  9-C ) :   1.2829
B(  7-C , 10-H ) :   0.9286 B(  8-C ,  9-C ) :   1.2143 B(  8-C , 13-C ) :   1.1312
B(  9-C , 14-C ) :   1.1669 B( 13-C , 16-C ) :   1.2892 B( 13-C , 19-C ) :   1.1912
B( 14-C , 15-C ) :   1.6456 B( 14-C , 17-H ) :   0.9299 B( 15-C , 16-C ) :   1.1525
B( 15-C , 18-H ) :   0.9287 B( 16-C , 20-C ) :   1.2704 B( 19-C , 21-C ) :   1.4670
B( 20-C , 22-C ) :   1.5036 B( 20-C , 23-H ) :   0.9306 B( 21-C , 22-C ) :   1.3394
B( 21-C , 26-H ) :   0.9150 B( 22-C , 24-H ) :   0.9247

Dispersion correction           -0.024156044
FINAL SINGLE POINT ENERGY     -2061.476234031070
Dispersion correction            ... done

DIPOLE MOMENT
-------------
                                X             Y             Z
Electronic contribution:    -73.71476     -51.86639      11.55320
Nuclear contribution   :     77.47135      54.77048     -11.19376
                        -----------------------------------------
Total Dipole Moment    :      3.75659       2.90409       0.35944
                        -----------------------------------------
Magnitude (a.u.)       :      4.76181
Magnitude (Debye)      :     12.10357

Rotational constants in cm-1:     0.011742     0.007820     0.005810
Rotational constants in MHz :   352.024707   234.425645   174.172509

                             ****ORCA TERMINATED NORMALLY****
TOTAL RUN TIME: 0 days 0 hours 8 minutes 34 seconds 252 msec
