                         Program Version 5.0.3 -  RELEASE  -
|  1> ! EnGrad PBEh-3c
|  2> %output
|  3> xyzfile=True
|  4> end
|  5> %scf
|  6> maxiter 250
|  7> end
|  8> %output
|  9> Print[P_Hirshfeld] = 1
| 10> end
| 11> % maxcore
| 12> 4000
| 13> *xyz -1 1
| 14> Pd  -1.97480498  -1.55372883   0.41318951
| 15> Cl  -3.29615609  -3.30116521  -0.29478995
| 16> Cl  -0.50150162  -4.62047681   0.99969308
| 17> Cl  -4.05692082  -0.52388712   1.15117822
| 18> N   -0.98577932  -0.04118720   1.39313385
| 19> C   -1.31439850   0.50622550   2.55423656
| 20> C   -0.79151289   1.73638698   2.97840967
| 21> C    0.08216444   2.40003875   2.15439929
| 22> C   -0.07135037   0.55186756   0.61040313
| 23> C    0.46485243   1.80528694   0.94929735
| 24> H    0.50396039   3.35959633   2.43482498
| 25> H   -2.02944163  -0.02229434   3.18314760
| 26> H   -1.11138804   2.16894923   3.91620654
| 27> C    0.31783791  -0.14595593  -0.57976370
| 28> C    1.38818367   2.43931000   0.06212735
| 29> C    1.73858063   1.83585707  -1.09203525
| 30> C    1.23255979   0.53257162  -1.43237588
| 31> H    1.80100493   3.40643972   0.33526434
| 32> H    2.43817031   2.32579591  -1.76845215
| 33> C   -0.24339535  -1.42358725  -0.87422243
| 34> C    1.67250537  -0.07828794  -2.62469446
| 35> C    0.22521496  -1.97479075  -2.06777011
| 36> C    1.16212944  -1.32944503  -2.92264878
| 37> H    2.37173167   0.43846201  -3.28094876
| 38> H    1.52988030  -1.80604036  -3.84129903
| 39> H   -0.41077085  -3.76752090   0.08680198
| 40> H   -0.13956171  -2.91729047  -2.44376034
| 41> *
| 42>
| 43>                          ****END OF INPUT****

CARTESIAN COORDINATES (ANGSTROEM)
---------------------------------
  Pd    -1.974805   -1.553729    0.413190
  Cl    -3.296156   -3.301165   -0.294790
  Cl    -0.501502   -4.620477    0.999693
  Cl    -4.056921   -0.523887    1.151178
  N     -0.985779   -0.041187    1.393134
  C     -1.314399    0.506225    2.554237
  C     -0.791513    1.736387    2.978410
  C      0.082164    2.400039    2.154399
  C     -0.071350    0.551868    0.610403
  C      0.464852    1.805287    0.949297
  H      0.503960    3.359596    2.434825
  H     -2.029442   -0.022294    3.183148
  H     -1.111388    2.168949    3.916207
  C      0.317838   -0.145956   -0.579764
  C      1.388184    2.439310    0.062127
  C      1.738581    1.835857   -1.092035
  C      1.232560    0.532572   -1.432376
  H      1.801005    3.406440    0.335264
  H      2.438170    2.325796   -1.768452
  C     -0.243395   -1.423587   -0.874222
  C      1.672505   -0.078288   -2.624694
  C      0.225215   -1.974791   -2.067770
  C      1.162129   -1.329445   -2.922649
  H      2.371732    0.438462   -3.280949
  H      1.529880   -1.806040   -3.841299
  H     -0.410771   -3.767521    0.086802
  H     -0.139562   -2.917290   -2.443760

 Total Charge           Charge          ....   -1
 Multiplicity           Mult            ....    1
 Number of Electrons    NEL             ....  164
 Basis Dimension        Dim             ....  313

ORBITAL ENERGIES
----------------

  NO   OCC          E(Eh)            E(eV)
   0   2.0000    -102.152936     -2779.7227
   1   2.0000    -102.068776     -2777.4326
   2   2.0000    -102.061661     -2777.2390
   3   2.0000     -14.591913      -397.0661
   4   2.0000     -10.405674      -283.1528
   5   2.0000     -10.404009      -283.1075
   6   2.0000     -10.388917      -282.6968
   7   2.0000     -10.380430      -282.4659
   8   2.0000     -10.375380      -282.3284
   9   2.0000     -10.371566      -282.2246
  10   2.0000     -10.370573      -282.1976
  11   2.0000     -10.367982      -282.1271
  12   2.0000     -10.357041      -281.8294
  13   2.0000     -10.356616      -281.8178
  14   2.0000     -10.352778      -281.7134
  15   2.0000     -10.340925      -281.3909
  16   2.0000     -10.340117      -281.3689
  17   2.0000      -9.622978      -261.8546
  18   2.0000      -9.533113      -259.4092
  19   2.0000      -9.525001      -259.1884
  20   2.0000      -7.310224      -198.9213
  21   2.0000      -7.302526      -198.7118
  22   2.0000      -7.302278      -198.7051
  23   2.0000      -7.219127      -196.4424
  24   2.0000      -7.214107      -196.3058
  25   2.0000      -7.213726      -196.2955
  26   2.0000      -7.210324      -196.2029
  27   2.0000      -7.206494      -196.0987
  28   2.0000      -7.206181      -196.0902
  29   2.0000      -3.509396       -95.4955
  30   2.0000      -2.157587       -58.7109
  31   2.0000      -2.149233       -58.4836
  32   2.0000      -2.120820       -57.7104
  33   2.0000      -0.988146       -26.8888
  34   2.0000      -0.877689       -23.8831
  35   2.0000      -0.842832       -22.9346
  36   2.0000      -0.808094       -21.9894
  37   2.0000      -0.788719       -21.4621
  38   2.0000      -0.775227       -21.0950
  39   2.0000      -0.734287       -19.9810
  40   2.0000      -0.716064       -19.4851
  41   2.0000      -0.662996       -18.0411
  42   2.0000      -0.648318       -17.6416
  43   2.0000      -0.642450       -17.4820
  44   2.0000      -0.635075       -17.2813
  45   2.0000      -0.606414       -16.5014
  46   2.0000      -0.568608       -15.4726
  47   2.0000      -0.524464       -14.2714
  48   2.0000      -0.511850       -13.9282
  49   2.0000      -0.491559       -13.3760
  50   2.0000      -0.456880       -12.4323
  51   2.0000      -0.453679       -12.3452
  52   2.0000      -0.425550       -11.5798
  53   2.0000      -0.410217       -11.1626
  54   2.0000      -0.404590       -11.0095
  55   2.0000      -0.398218       -10.8361
  56   2.0000      -0.386531       -10.5181
  57   2.0000      -0.378882       -10.3099
  58   2.0000      -0.372089       -10.1251
  59   2.0000      -0.349253        -9.5037
  60   2.0000      -0.337997        -9.1974
  61   2.0000      -0.333929        -9.0867
  62   2.0000      -0.310819        -8.4578
  63   2.0000      -0.300187        -8.1685
  64   2.0000      -0.288076        -7.8389
  65   2.0000      -0.260427        -7.0866
  66   2.0000      -0.249316        -6.7842
  67   2.0000      -0.243849        -6.6355
  68   2.0000      -0.240755        -6.5513
  69   2.0000      -0.238279        -6.4839
  70   2.0000      -0.232363        -6.3229
  71   2.0000      -0.214258        -5.8303
  72   2.0000      -0.206145        -5.6095
  73   2.0000      -0.196727        -5.3532
  74   2.0000      -0.178032        -4.8445
  75   2.0000      -0.170000        -4.6259
  76   2.0000      -0.165298        -4.4980
  77   2.0000      -0.149050        -4.0559
  78   2.0000      -0.141019        -3.8373
  79   2.0000      -0.131141        -3.5685
  80   2.0000      -0.128339        -3.4923
  81   2.0000      -0.114176        -3.1069
  82   0.0000       0.050124         1.3639
  83   0.0000       0.072482         1.9723
  84   0.0000       0.092881         2.5274
  85   0.0000       0.110586         3.0092
  86   0.0000       0.144685         3.9371

MULLIKEN ATOMIC CHARGES
-----------------------
   0 Pd:    0.180929
   1 Cl:   -0.377019
   2 Cl:   -0.324308
   3 Cl:   -0.463406
   4 N :   -0.571876
   5 C :    0.043856
   6 C :   -0.338343
   7 C :   -0.154319
   8 C :    0.416487
   9 C :    0.045395
  10 H :    0.208769
  11 H :    0.280269
  12 H :    0.218610
  13 C :    0.023049
  14 C :   -0.305461
  15 C :   -0.282382
  16 C :    0.108578
  17 H :    0.191426
  18 H :    0.193555
  19 C :   -0.152234
  20 C :   -0.317705
  21 C :   -0.352297
  22 C :   -0.201415
  23 H :    0.189006
  24 H :    0.189458
  25 H :    0.329680
  26 H :    0.221697
Sum of atomic charges:   -1.0000000

LOEWDIN ATOMIC CHARGES
----------------------
   0 Pd:   -0.809690
   1 Cl:   -0.114423
   2 Cl:   -0.158841
   3 Cl:   -0.233881
   4 N :    0.042436
   5 C :    0.009975
   6 C :   -0.170806
   7 C :   -0.089376
   8 C :    0.089068
   9 C :   -0.056384
  10 H :    0.134088
  11 H :    0.166610
  12 H :    0.139566
  13 C :   -0.027985
  14 C :   -0.143192
  15 C :   -0.119370
  16 C :   -0.031655
  17 H :    0.128365
  18 H :    0.129889
  19 C :   -0.051747
  20 C :   -0.160257
  21 C :   -0.144262
  22 C :   -0.129720
  23 H :    0.124092
  24 H :    0.124065
  25 H :    0.214976
  26 H :    0.138456

  Mayer bond orders larger than 0.100000
B(  0-Pd,  1-Cl) :   0.8952 B(  0-Pd,  3-Cl) :   0.7133 B(  0-Pd,  4-N ) :   0.4095
B(  0-Pd, 19-C ) :   0.6693 B(  2-Cl, 25-H ) :   0.8318 B(  4-N ,  5-C ) :   1.4727
B(  4-N ,  8-C ) :   1.1361 B(  5-C ,  6-C ) :   1.3168 B(  5-C , 11-H ) :   0.8857
B(  6-C ,  7-C ) :   1.4521 B(  6-C , 12-H ) :   0.9203 B(  7-C ,  9-C ) :   1.2839
B(  7-C , 10-H ) :   0.9290 B(  8-C ,  9-C ) :   1.2182 B(  8-C , 13-C ) :   1.1338
B(  9-C , 14-C ) :   1.1638 B( 13-C , 16-C ) :   1.2721 B( 13-C , 19-C ) :   1.2119
B( 14-C , 15-C ) :   1.6480 B( 14-C , 17-H ) :   0.9301 B( 15-C , 16-C ) :   1.1541
B( 15-C , 18-H ) :   0.9284 B( 16-C , 20-C ) :   1.2828 B( 19-C , 21-C ) :   1.4637
B( 20-C , 22-C ) :   1.4959 B( 20-C , 23-H ) :   0.9290 B( 21-C , 22-C ) :   1.3461
B( 21-C , 26-H ) :   0.9154 B( 22-C , 24-H ) :   0.9249

Dispersion correction           -0.024038124
FINAL SINGLE POINT ENERGY     -2061.480443940471
Dispersion correction            ... done

DIPOLE MOMENT
-------------
                                X             Y             Z
Electronic contribution:    -75.14645     -54.66413      15.70035
Nuclear contribution   :     78.82380      57.46225     -15.33388
                        -----------------------------------------
Total Dipole Moment    :      3.67735       2.79812       0.36647
                        -----------------------------------------
Magnitude (a.u.)       :      4.63537
Magnitude (Debye)      :     11.78218

Rotational constants in cm-1:     0.011603     0.007715     0.005680
Rotational constants in MHz :   347.858510   231.285401   170.288117

                             ****ORCA TERMINATED NORMALLY****
TOTAL RUN TIME: 0 days 0 hours 12 minutes 0 seconds 56 msec
