                         Program Version 5.0.3 -  RELEASE  -
|  1> ! EnGrad PBEh-3c
|  2> %output
|  3> xyzfile=True
|  4> end
|  5> %scf
|  6> maxiter 250
|  7> end
|  8> %output
|  9> Print[P_Hirshfeld] = 1
| 10> end
| 11> % maxcore
| 12> 4000
| 13> *xyz -1 1
| 14> Pd  -1.95681530  -1.45311877   0.27891398
| 15> Cl  -3.29836827  -3.27939974  -0.29962774
| 16> Cl  -0.63090216  -4.45218910   1.08952843
| 17> Cl  -3.94554725  -0.33401765   0.99062132
| 18> N   -0.94349184  -0.08792782   1.38238865
| 19> C   -1.31104431   0.42765933   2.56325518
| 20> C   -0.76053347   1.66112689   2.99201259
| 21> C    0.07158781   2.33506364   2.17245819
| 22> C   -0.04794678   0.51368223   0.61629295
| 23> C    0.46675757   1.77794449   0.95542417
| 24> H    0.48152954   3.32427660   2.42460767
| 25> H   -2.03874231  -0.07904625   3.17321158
| 26> H   -1.08295824   2.07784355   3.94305934
| 27> C    0.32583229  -0.16979125  -0.57750771
| 28> C    1.35487420   2.42004360   0.02620281
| 29> C    1.68616755   1.83125158  -1.07960559
| 30> C    1.23066604   0.51052687  -1.43601600
| 31> H    1.74311414   3.41390657   0.33037677
| 32> H    2.37045806   2.32980544  -1.80287304
| 33> C   -0.22953489  -1.43584173  -0.88188840
| 34> C    1.63486137  -0.08756620  -2.63174063
| 35> C    0.24684281  -2.01605699  -2.06118082
| 36> C    1.16851629  -1.33497847  -2.90800479
| 37> H    2.33697240   0.45778544  -3.28389798
| 38> H    1.50855094  -1.80667273  -3.82691310
| 39> H   -0.33771950  -3.54837257   0.25700748
| 40> H   -0.04565061  -2.99502306  -2.40403659
| 41> *
| 42>
| 43>                          ****END OF INPUT****

CARTESIAN COORDINATES (ANGSTROEM)
---------------------------------
  Pd    -1.956815   -1.453119    0.278914
  Cl    -3.298368   -3.279400   -0.299628
  Cl    -0.630902   -4.452189    1.089528
  Cl    -3.945547   -0.334018    0.990621
  N     -0.943492   -0.087928    1.382389
  C     -1.311044    0.427659    2.563255
  C     -0.760533    1.661127    2.992013
  C      0.071588    2.335064    2.172458
  C     -0.047947    0.513682    0.616293
  C      0.466758    1.777944    0.955424
  H      0.481530    3.324277    2.424608
  H     -2.038742   -0.079046    3.173212
  H     -1.082958    2.077844    3.943059
  C      0.325832   -0.169791   -0.577508
  C      1.354874    2.420044    0.026203
  C      1.686168    1.831252   -1.079606
  C      1.230666    0.510527   -1.436016
  H      1.743114    3.413907    0.330377
  H      2.370458    2.329805   -1.802873
  C     -0.229535   -1.435842   -0.881888
  C      1.634861   -0.087566   -2.631741
  C      0.246843   -2.016057   -2.061181
  C      1.168516   -1.334978   -2.908005
  H      2.336972    0.457785   -3.283898
  H      1.508551   -1.806673   -3.826913
  H     -0.337720   -3.548373    0.257007
  H     -0.045651   -2.995023   -2.404037

 Total Charge           Charge          ....   -1
 Multiplicity           Mult            ....    1
 Number of Electrons    NEL             ....  164
 Basis Dimension        Dim             ....  313

ORBITAL ENERGIES
----------------

  NO   OCC          E(Eh)            E(eV)
   0   2.0000    -102.146149     -2779.5380
   1   2.0000    -102.064107     -2777.3055
   2   2.0000    -102.060349     -2777.2033
   3   2.0000     -14.590571      -397.0296
   4   2.0000     -10.409335      -283.2524
   5   2.0000     -10.401879      -283.0495
   6   2.0000     -10.387322      -282.6534
   7   2.0000     -10.379218      -282.4329
   8   2.0000     -10.375309      -282.3265
   9   2.0000     -10.369265      -282.1621
  10   2.0000     -10.367851      -282.1236
  11   2.0000     -10.365681      -282.0645
  12   2.0000     -10.354400      -281.7576
  13   2.0000     -10.353298      -281.7276
  14   2.0000     -10.351092      -281.6675
  15   2.0000     -10.341466      -281.4056
  16   2.0000     -10.339752      -281.3590
  17   2.0000      -9.615868      -261.6611
  18   2.0000      -9.527842      -259.2658
  19   2.0000      -9.524383      -259.1716
  20   2.0000      -7.303118      -198.7280
  21   2.0000      -7.295470      -198.5198
  22   2.0000      -7.295151      -198.5111
  23   2.0000      -7.213073      -196.2777
  24   2.0000      -7.210297      -196.2022
  25   2.0000      -7.209383      -196.1773
  26   2.0000      -7.208982      -196.1664
  27   2.0000      -7.205503      -196.0717
  28   2.0000      -7.205081      -196.0602
  29   2.0000      -3.509824       -95.5072
  30   2.0000      -2.156358       -58.6775
  31   2.0000      -2.152010       -58.5592
  32   2.0000      -2.121381       -57.7257
  33   2.0000      -0.990283       -26.9470
  34   2.0000      -0.881991       -24.0002
  35   2.0000      -0.845873       -23.0174
  36   2.0000      -0.813535       -22.1374
  37   2.0000      -0.781058       -21.2537
  38   2.0000      -0.778265       -21.1777
  39   2.0000      -0.736069       -20.0295
  40   2.0000      -0.720496       -19.6057
  41   2.0000      -0.658289       -17.9129
  42   2.0000      -0.649498       -17.6737
  43   2.0000      -0.643208       -17.5026
  44   2.0000      -0.636026       -17.3071
  45   2.0000      -0.607606       -16.5338
  46   2.0000      -0.567757       -15.4494
  47   2.0000      -0.525726       -14.3057
  48   2.0000      -0.515672       -14.0321
  49   2.0000      -0.491631       -13.3779
  50   2.0000      -0.456461       -12.4209
  51   2.0000      -0.454461       -12.3665
  52   2.0000      -0.427734       -11.6392
  53   2.0000      -0.412755       -11.2316
  54   2.0000      -0.406376       -11.0580
  55   2.0000      -0.396276       -10.7832
  56   2.0000      -0.385143       -10.4803
  57   2.0000      -0.380740       -10.3605
  58   2.0000      -0.375499       -10.2179
  59   2.0000      -0.349108        -9.4997
  60   2.0000      -0.340148        -9.2559
  61   2.0000      -0.330457        -8.9922
  62   2.0000      -0.314863        -8.5679
  63   2.0000      -0.304400        -8.2831
  64   2.0000      -0.288044        -7.8381
  65   2.0000      -0.265343        -7.2203
  66   2.0000      -0.253931        -6.9098
  67   2.0000      -0.246855        -6.7173
  68   2.0000      -0.238978        -6.5029
  69   2.0000      -0.235648        -6.4123
  70   2.0000      -0.230753        -6.2791
  71   2.0000      -0.214925        -5.8484
  72   2.0000      -0.206218        -5.6115
  73   2.0000      -0.183018        -4.9802
  74   2.0000      -0.178429        -4.8553
  75   2.0000      -0.171940        -4.6787
  76   2.0000      -0.166333        -4.5262
  77   2.0000      -0.147204        -4.0056
  78   2.0000      -0.139464        -3.7950
  79   2.0000      -0.130061        -3.5391
  80   2.0000      -0.122176        -3.3246
  81   2.0000      -0.113466        -3.0876
  82   0.0000       0.052266         1.4222
  83   0.0000       0.073757         2.0070
  84   0.0000       0.097317         2.6481
  85   0.0000       0.109687         2.9847
  86   0.0000       0.148927         4.0525

MULLIKEN ATOMIC CHARGES
-----------------------
   0 Pd:    0.189188
   1 Cl:   -0.399865
   2 Cl:   -0.325838
   3 Cl:   -0.452003
   4 N :   -0.577230
   5 C :    0.043684
   6 C :   -0.347589
   7 C :   -0.142524
   8 C :    0.426724
   9 C :    0.037333
  10 H :    0.204766
  11 H :    0.285316
  12 H :    0.216053
  13 C :    0.022407
  14 C :   -0.279092
  15 C :   -0.281442
  16 C :    0.119396
  17 H :    0.186755
  18 H :    0.186669
  19 C :   -0.190110
  20 C :   -0.307006
  21 C :   -0.327716
  22 C :   -0.211852
  23 H :    0.185146
  24 H :    0.190392
  25 H :    0.324137
  26 H :    0.224298
Sum of atomic charges:   -1.0000000

LOEWDIN ATOMIC CHARGES
----------------------
   0 Pd:   -0.826682
   1 Cl:   -0.146505
   2 Cl:   -0.160782
   3 Cl:   -0.207455
   4 N :    0.042959
   5 C :    0.016626
   6 C :   -0.168604
   7 C :   -0.092460
   8 C :    0.087043
   9 C :   -0.054277
  10 H :    0.133095
  11 H :    0.167174
  12 H :    0.138967
  13 C :   -0.025086
  14 C :   -0.139906
  15 C :   -0.117424
  16 C :   -0.031080
  17 H :    0.127583
  18 H :    0.128121
  19 C :   -0.051760
  20 C :   -0.158432
  21 C :   -0.136531
  22 C :   -0.128860
  23 H :    0.123650
  24 H :    0.124109
  25 H :    0.215004
  26 H :    0.141512

  Mayer bond orders larger than 0.100000
B(  0-Pd,  1-Cl) :   0.8697 B(  0-Pd,  3-Cl) :   0.7226 B(  0-Pd,  4-N ) :   0.4195
B(  0-Pd, 19-C ) :   0.7108 B(  2-Cl, 25-H ) :   0.8244 B(  4-N ,  5-C ) :   1.4526
B(  4-N ,  8-C ) :   1.1459 B(  5-C ,  6-C ) :   1.3202 B(  5-C , 11-H ) :   0.8842
B(  6-C ,  7-C ) :   1.4459 B(  6-C , 12-H ) :   0.9211 B(  7-C ,  9-C ) :   1.2982
B(  7-C , 10-H ) :   0.9293 B(  8-C ,  9-C ) :   1.2271 B(  8-C , 13-C ) :   1.1205
B(  9-C , 14-C ) :   1.1514 B( 13-C , 16-C ) :   1.3008 B( 13-C , 19-C ) :   1.1948
B( 14-C , 15-C ) :   1.6589 B( 14-C , 17-H ) :   0.9296 B( 15-C , 16-C ) :   1.1417
B( 15-C , 18-H ) :   0.9291 B( 16-C , 20-C ) :   1.2858 B( 19-C , 21-C ) :   1.4584
B( 20-C , 22-C ) :   1.4908 B( 20-C , 23-H ) :   0.9302 B( 21-C , 22-C ) :   1.3509
B( 21-C , 26-H ) :   0.9148 B( 22-C , 24-H ) :   0.9247

Dispersion correction           -0.024322104
FINAL SINGLE POINT ENERGY     -2061.469314436310
Dispersion correction            ... done

DIPOLE MOMENT
-------------
                                X             Y             Z
Electronic contribution:    -74.16690     -50.35469       9.21293
Nuclear contribution   :     77.86937      53.17398      -8.74813
                        -----------------------------------------
Total Dipole Moment    :      3.70247       2.81929       0.46480
                        -----------------------------------------
Magnitude (a.u.)       :      4.67683
Magnitude (Debye)      :     11.88755

Rotational constants in cm-1:     0.011901     0.007967     0.005933
Rotational constants in MHz :   356.792827   238.858372   177.855024

                             ****ORCA TERMINATED NORMALLY****
TOTAL RUN TIME: 0 days 0 hours 9 minutes 23 seconds 515 msec
