                         Program Version 5.0.3 -  RELEASE  -
|  1> ! EnGrad PBEh-3c
|  2> %output
|  3> xyzfile=True
|  4> end
|  5> %scf
|  6> maxiter 250
|  7> end
|  8> %output
|  9> Print[P_Hirshfeld] = 1
| 10> end
| 11> % maxcore
| 12> 4000
| 13> *xyz -1 1
| 14> Pd  -1.97032459  -1.52867158   0.37974777
| 15> Cl  -3.29670704  -3.29574445  -0.29599482
| 16> Cl  -0.53372923  -4.57856423   1.02206685
| 17> Cl  -4.02918289  -0.47659954   1.11119102
| 18> N   -0.97524749  -0.05282809   1.39045772
| 19> C   -1.31356313   0.48665835   2.55648268
| 20> C   -0.78379737   1.71764322   2.98179752
| 21> C    0.07953030   2.38385650   2.15889691
| 22> C   -0.06552163   0.54235738   0.61187001
| 23> C    0.46532691   1.79847722   0.95082325
| 24> H    0.49837391   3.35079984   2.43228032
| 25> H   -2.03175800  -0.03642858   3.18067301
| 26> H   -1.10430751   2.14625907   3.92289431
| 27> C    0.31982894  -0.15189219  -0.57920184
| 28> C    1.37988784   2.43451164   0.05318024
| 29> C    1.72552699   1.83471006  -1.08893961
| 30> C    1.23208815   0.52708131  -1.43328247
| 31> H    1.78658705   3.40829937   0.33404708
| 32> H    2.42130636   2.32679450  -1.77702478
| 33> C   -0.23994336  -1.42663927  -0.87613166
| 34> C    1.66313002  -0.08059872  -2.62644933
| 35> C    0.23060144  -1.98506823  -2.06612903
| 36> C    1.16372011  -1.33082315  -2.91900165
| 37> H    2.36307477   0.44327457  -3.28168327
| 38> H    1.52456816  -1.80619785  -3.83771617
| 39> H   -0.39257718  -3.71294133   0.12919219
| 40> H   -0.11617285  -2.93665001  -2.43386701
| 41> *
| 42>
| 43>                          ****END OF INPUT****

CARTESIAN COORDINATES (ANGSTROEM)
---------------------------------
  Pd    -1.970325   -1.528672    0.379748
  Cl    -3.296707   -3.295744   -0.295995
  Cl    -0.533729   -4.578564    1.022067
  Cl    -4.029183   -0.476600    1.111191
  N     -0.975247   -0.052828    1.390458
  C     -1.313563    0.486658    2.556483
  C     -0.783797    1.717643    2.981798
  C      0.079530    2.383856    2.158897
  C     -0.065522    0.542357    0.611870
  C      0.465327    1.798477    0.950823
  H      0.498374    3.350800    2.432280
  H     -2.031758   -0.036429    3.180673
  H     -1.104308    2.146259    3.922894
  C      0.319829   -0.151892   -0.579202
  C      1.379888    2.434512    0.053180
  C      1.725527    1.834710   -1.088940
  C      1.232088    0.527081   -1.433282
  H      1.786587    3.408299    0.334047
  H      2.421306    2.326795   -1.777025
  C     -0.239943   -1.426639   -0.876132
  C      1.663130   -0.080599   -2.626449
  C      0.230601   -1.985068   -2.066129
  C      1.163720   -1.330823   -2.919002
  H      2.363075    0.443275   -3.281683
  H      1.524568   -1.806198   -3.837716
  H     -0.392577   -3.712941    0.129192
  H     -0.116173   -2.936650   -2.433867

 Total Charge           Charge          ....   -1
 Multiplicity           Mult            ....    1
 Number of Electrons    NEL             ....  164
 Basis Dimension        Dim             ....  313

ORBITAL ENERGIES
----------------

  NO   OCC          E(Eh)            E(eV)
   0   2.0000    -102.151087     -2779.6724
   1   2.0000    -102.066695     -2777.3760
   2   2.0000    -102.062212     -2777.2540
   3   2.0000     -14.591669      -397.0595
   4   2.0000     -10.406538      -283.1763
   5   2.0000     -10.403428      -283.0917
   6   2.0000     -10.388459      -282.6844
   7   2.0000     -10.380087      -282.4565
   8   2.0000     -10.375353      -282.3277
   9   2.0000     -10.370907      -282.2067
  10   2.0000     -10.369970      -282.1812
  11   2.0000     -10.367366      -282.1104
  12   2.0000     -10.356336      -281.8102
  13   2.0000     -10.355760      -281.7945
  14   2.0000     -10.352335      -281.7014
  15   2.0000     -10.340757      -281.3863
  16   2.0000     -10.340166      -281.3702
  17   2.0000      -9.621171      -261.8054
  18   2.0000      -9.530959      -259.3506
  19   2.0000      -9.525645      -259.2060
  20   2.0000      -7.308411      -198.8720
  21   2.0000      -7.300726      -198.6628
  22   2.0000      -7.300460      -198.6556
  23   2.0000      -7.216948      -196.3831
  24   2.0000      -7.211986      -196.2481
  25   2.0000      -7.211592      -196.2374
  26   2.0000      -7.210944      -196.2198
  27   2.0000      -7.207152      -196.1166
  28   2.0000      -7.206817      -196.1075
  29   2.0000      -3.509484       -95.4979
  30   2.0000      -2.157277       -58.7025
  31   2.0000      -2.149864       -58.5008
  32   2.0000      -2.120913       -57.7130
  33   2.0000      -0.988699       -26.9039
  34   2.0000      -0.878738       -23.9117
  35   2.0000      -0.843559       -22.9544
  36   2.0000      -0.809423       -22.0255
  37   2.0000      -0.787424       -21.4269
  38   2.0000      -0.776057       -21.1176
  39   2.0000      -0.734736       -19.9932
  40   2.0000      -0.717179       -19.5154
  41   2.0000      -0.661200       -17.9922
  42   2.0000      -0.649126       -17.6636
  43   2.0000      -0.642602       -17.4861
  44   2.0000      -0.635452       -17.2915
  45   2.0000      -0.606755       -16.5107
  46   2.0000      -0.568427       -15.4677
  47   2.0000      -0.524777       -14.2799
  48   2.0000      -0.512734       -13.9522
  49   2.0000      -0.491716       -13.3803
  50   2.0000      -0.456712       -12.4278
  51   2.0000      -0.453777       -12.3479
  52   2.0000      -0.426138       -11.5958
  53   2.0000      -0.410936       -11.1821
  54   2.0000      -0.405037       -11.0216
  55   2.0000      -0.397936       -10.8284
  56   2.0000      -0.385736       -10.4964
  57   2.0000      -0.379695       -10.3320
  58   2.0000      -0.373291       -10.1578
  59   2.0000      -0.349086        -9.4991
  60   2.0000      -0.338409        -9.2086
  61   2.0000      -0.333674        -9.0797
  62   2.0000      -0.311802        -8.4846
  63   2.0000      -0.301232        -8.1969
  64   2.0000      -0.288455        -7.8493
  65   2.0000      -0.261624        -7.1191
  66   2.0000      -0.250111        -6.8059
  67   2.0000      -0.244256        -6.6465
  68   2.0000      -0.240911        -6.5555
  69   2.0000      -0.237500        -6.4627
  70   2.0000      -0.232502        -6.3267
  71   2.0000      -0.214226        -5.8294
  72   2.0000      -0.206180        -5.6104
  73   2.0000      -0.192978        -5.2512
  74   2.0000      -0.178435        -4.8555
  75   2.0000      -0.170534        -4.6405
  76   2.0000      -0.165479        -4.5029
  77   2.0000      -0.148678        -4.0457
  78   2.0000      -0.140605        -3.8261
  79   2.0000      -0.130756        -3.5581
  80   2.0000      -0.127157        -3.4601
  81   2.0000      -0.114002        -3.1021
  82   0.0000       0.050707         1.3798
  83   0.0000       0.072891         1.9835
  84   0.0000       0.094369         2.5679
  85   0.0000       0.110424         3.0048
  86   0.0000       0.145827         3.9682

MULLIKEN ATOMIC CHARGES
-----------------------
   0 Pd:    0.181706
   1 Cl:   -0.382264
   2 Cl:   -0.324916
   3 Cl:   -0.460518
   4 N :   -0.573970
   5 C :    0.043929
   6 C :   -0.340704
   7 C :   -0.151660
   8 C :    0.419734
   9 C :    0.043918
  10 H :    0.207812
  11 H :    0.281627
  12 H :    0.218016
  13 C :    0.023028
  14 C :   -0.299492
  15 C :   -0.282605
  16 C :    0.111948
  17 H :    0.190407
  18 H :    0.191983
  19 C :   -0.160966
  20 C :   -0.315985
  21 C :   -0.346754
  22 C :   -0.203505
  23 H :    0.188116
  24 H :    0.189666
  25 H :    0.328915
  26 H :    0.222535
Sum of atomic charges:   -1.0000000

LOEWDIN ATOMIC CHARGES
----------------------
   0 Pd:   -0.815230
   1 Cl:   -0.121942
   2 Cl:   -0.158477
   3 Cl:   -0.227263
   4 N :    0.042922
   5 C :    0.011647
   6 C :   -0.170202
   7 C :   -0.090234
   8 C :    0.088657
   9 C :   -0.055850
  10 H :    0.133834
  11 H :    0.166807
  12 H :    0.139432
  13 C :   -0.027251
  14 C :   -0.142355
  15 C :   -0.118905
  16 C :   -0.031512
  17 H :    0.128191
  18 H :    0.129505
  19 C :   -0.051639
  20 C :   -0.159813
  21 C :   -0.142457
  22 C :   -0.129398
  23 H :    0.123979
  24 H :    0.124047
  25 H :    0.214300
  26 H :    0.139206

  Mayer bond orders larger than 0.100000
B(  0-Pd,  1-Cl) :   0.8897 B(  0-Pd,  3-Cl) :   0.7154 B(  0-Pd,  4-N ) :   0.4130
B(  0-Pd, 19-C ) :   0.6799 B(  2-Cl, 25-H ) :   0.8296 B(  4-N ,  5-C ) :   1.4679
B(  4-N ,  8-C ) :   1.1370 B(  5-C ,  6-C ) :   1.3177 B(  5-C , 11-H ) :   0.8853
B(  6-C ,  7-C ) :   1.4507 B(  6-C , 12-H ) :   0.9205 B(  7-C ,  9-C ) :   1.2873
B(  7-C , 10-H ) :   0.9291 B(  8-C ,  9-C ) :   1.2203 B(  8-C , 13-C ) :   1.1307
B(  9-C , 14-C ) :   1.1609 B( 13-C , 16-C ) :   1.2791 B( 13-C , 19-C ) :   1.2077
B( 14-C , 15-C ) :   1.6511 B( 14-C , 17-H ) :   0.9300 B( 15-C , 16-C ) :   1.1509
B( 15-C , 18-H ) :   0.9286 B( 16-C , 20-C ) :   1.2837 B( 19-C , 21-C ) :   1.4621
B( 20-C , 22-C ) :   1.4948 B( 20-C , 23-H ) :   0.9293 B( 21-C , 22-C ) :   1.3477
B( 21-C , 26-H ) :   0.9152 B( 22-C , 24-H ) :   0.9249

Dispersion correction           -0.024114992
FINAL SINGLE POINT ENERGY     -2061.480077297945
Dispersion correction            ... done

DIPOLE MOMENT
-------------
                                X             Y             Z
Electronic contribution:    -74.90284     -53.59024      14.08609
Nuclear contribution   :     78.58610      56.39425     -13.69368
                        -----------------------------------------
Total Dipole Moment    :      3.68326       2.80401       0.39241
                        -----------------------------------------
Magnitude (a.u.)       :      4.64573
Magnitude (Debye)      :     11.80851

Rotational constants in cm-1:     0.011682     0.007779     0.005743
Rotational constants in MHz :   350.212068   233.207765   172.170053

                             ****ORCA TERMINATED NORMALLY****
TOTAL RUN TIME: 0 days 0 hours 11 minutes 12 seconds 864 msec
