                         Program Version 5.0.3 -  RELEASE  -
|  1> ! EnGrad PBEh-3c
|  2> %output
|  3> xyzfile=True
|  4> end
|  5> %scf
|  6> maxiter 250
|  7> end
|  8> %output
|  9> Print[P_Hirshfeld] = 1
| 10> end
| 11> % maxcore
| 12> 4000
| 13> *xyz -1 1
| 14> C   -2.17461624  -0.04702872   0.64970394
| 15> C   -1.84374413   0.99582396   1.53657959
| 16> C   -3.53155140  -0.38363363   0.61247165
| 17> C   -4.53542943   0.50325970   0.96345923
| 18> C   -4.19252868   1.62641987   1.69062871
| 19> C   -2.85337138   1.92804933   1.83545056
| 20> H   -2.54308175  -1.71727673  -2.07197849
| 21> H   -3.84757424  -1.40619195   0.44565492
| 22> H   -2.63120963   2.95071091   2.13557980
| 23> H   -5.58341352   0.25758721   0.82232534
| 24> H   -4.96436352   2.30347511   2.03763291
| 25> C   -0.43658626   1.46051010   1.82160287
| 26> C    0.72679313   0.49367690   1.95813163
| 27> H   -0.45856667   2.00995774   2.77811839
| 28> H   -0.25165770   2.28363991   1.12047024
| 29> C    1.74634970   0.65478602   0.86444248
| 30> H    0.36139750  -0.53472443   1.98499795
| 31> H    1.23923867   0.58765631   2.92718647
| 32> C    1.55156895   0.07336375  -0.39741555
| 33> C    2.58406418   0.25616653  -1.32239622
| 34> C    3.63254070   1.14879480  -1.12273540
| 35> C    2.91717918   1.36991920   1.13501608
| 36> C    3.73426384   1.79570591   0.09632314
| 37> H    2.63237209  -0.34651653  -2.22117328
| 38> H    4.36543504   1.33488919  -1.89922461
| 39> H    3.08834315   1.76677906   2.13183833
| 40> H    4.43677040   2.60855468   0.23309012
| 41> Pd   0.12013513  -1.25882492  -0.63742109
| 42> Br  -1.55911061  -3.73264152  -0.66383744
| 43> P    1.41011300  -2.99341597  -0.02617655
| 44> H    1.12068674  -3.60807935   1.20506235
| 45> C    0.29553274  -1.43623632  -3.83132086
| 46> O    1.39443167  -1.80961491  -4.16537431
| 47> O   -0.58077693  -2.21182752  -3.29364572
| 48> O   -0.23636305  -0.25558049  -4.19739824
| 49> H    2.78275709  -2.80690862   0.25013519
| 50> H    1.60973931  -4.13856448  -0.81598364
| 51> H    0.47422435   0.27734026  -4.56980495
| 52> *
| 53>
| 54>                          ****END OF INPUT****

CARTESIAN COORDINATES (ANGSTROEM)
---------------------------------
  C     -2.174616   -0.047029    0.649704
  C     -1.843744    0.995824    1.536580
  C     -3.531551   -0.383634    0.612472
  C     -4.535429    0.503260    0.963459
  C     -4.192529    1.626420    1.690629
  C     -2.853371    1.928049    1.835451
  H     -2.543082   -1.717277   -2.071978
  H     -3.847574   -1.406192    0.445655
  H     -2.631210    2.950711    2.135580
  H     -5.583414    0.257587    0.822325
  H     -4.964364    2.303475    2.037633
  C     -0.436586    1.460510    1.821603
  C      0.726793    0.493677    1.958132
  H     -0.458567    2.009958    2.778118
  H     -0.251658    2.283640    1.120470
  C      1.746350    0.654786    0.864442
  H      0.361397   -0.534724    1.984998
  H      1.239239    0.587656    2.927186
  C      1.551569    0.073364   -0.397416
  C      2.584064    0.256167   -1.322396
  C      3.632541    1.148795   -1.122735
  C      2.917179    1.369919    1.135016
  C      3.734264    1.795706    0.096323
  H      2.632372   -0.346517   -2.221173
  H      4.365435    1.334889   -1.899225
  H      3.088343    1.766779    2.131838
  H      4.436770    2.608555    0.233090
  Pd     0.120135   -1.258825   -0.637421
  Br    -1.559111   -3.732642   -0.663837
  P      1.410113   -2.993416   -0.026177
  H      1.120687   -3.608079    1.205062
  C      0.295533   -1.436236   -3.831321
  O      1.394432   -1.809615   -4.165374
  O     -0.580777   -2.211828   -3.293646
  O     -0.236363   -0.255580   -4.197398
  H      2.782757   -2.806909    0.250135
  H      1.609739   -4.138564   -0.815984
  H      0.474224    0.277340   -4.569805

 Total Charge           Charge          ....   -1
 Multiplicity           Mult            ....    1
 Number of Electrons    NEL             ....  200
 Basis Dimension        Dim             ....  385

ORBITAL ENERGIES
----------------

  NO   OCC          E(Eh)            E(eV)
   0   2.0000    -484.361014    -13180.1333
   1   2.0000     -77.679076     -2113.7551
   2   2.0000     -63.022021     -1714.9164
   3   2.0000     -56.725390     -1543.5763
   4   2.0000     -56.724942     -1543.5641
   5   2.0000     -56.724569     -1543.5540
   6   2.0000     -19.391546      -527.6708
   7   2.0000     -19.322983      -525.8051
   8   2.0000     -19.313772      -525.5545
   9   2.0000     -10.442983      -284.1680
  10   2.0000     -10.357118      -281.8315
  11   2.0000     -10.353071      -281.7214
  12   2.0000     -10.349526      -281.6249
  13   2.0000     -10.348047      -281.5847
  14   2.0000     -10.346510      -281.5429
  15   2.0000     -10.340295      -281.3737
  16   2.0000     -10.336220      -281.2628
  17   2.0000     -10.334090      -281.2049
  18   2.0000     -10.331219      -281.1268
  19   2.0000     -10.325856      -280.9808
  20   2.0000     -10.323196      -280.9084
  21   2.0000     -10.321409      -280.8598
  22   2.0000     -10.320347      -280.8309
  23   2.0000     -10.315393      -280.6961
  24   2.0000      -8.848746      -240.7866
  25   2.0000      -6.753561      -183.7737
  26   2.0000      -6.617958      -180.0838
  27   2.0000      -6.615033      -180.0042
  28   2.0000      -6.611396      -179.9052
  29   2.0000      -4.844612      -131.8286
  30   2.0000      -4.844210      -131.8177
  31   2.0000      -4.842980      -131.7842
  32   2.0000      -3.536176       -96.2242
  33   2.0000      -2.632514       -71.6343
  34   2.0000      -2.632163       -71.6248
  35   2.0000      -2.629115       -71.5419
  36   2.0000      -2.626620       -71.4740
  37   2.0000      -2.626052       -71.4585
  38   2.0000      -2.185677       -59.4753
  39   2.0000      -2.176284       -59.2197
  40   2.0000      -2.152457       -58.5713
  41   2.0000      -1.084750       -29.5175
  42   2.0000      -0.975085       -26.5334
  43   2.0000      -0.916775       -24.9467
  44   2.0000      -0.857987       -23.3470
  45   2.0000      -0.832806       -22.6618
  46   2.0000      -0.783724       -21.3262
  47   2.0000      -0.736945       -20.0533
  48   2.0000      -0.730163       -19.8688
  49   2.0000      -0.700839       -19.0708
  50   2.0000      -0.683323       -18.5942
  51   2.0000      -0.666312       -18.1313
  52   2.0000      -0.643514       -17.5109
  53   2.0000      -0.612180       -16.6583
  54   2.0000      -0.575886       -15.6707
  55   2.0000      -0.550133       -14.9699
  56   2.0000      -0.544233       -14.8093
  57   2.0000      -0.539700       -14.6860
  58   2.0000      -0.516730       -14.0609
  59   2.0000      -0.471673       -12.8349
  60   2.0000      -0.449611       -12.2346
  61   2.0000      -0.428924       -11.6716
  62   2.0000      -0.415260       -11.2998
  63   2.0000      -0.404691       -11.0122
  64   2.0000      -0.393996       -10.7212
  65   2.0000      -0.391429       -10.6513
  66   2.0000      -0.383925       -10.4471
  67   2.0000      -0.380393       -10.3510
  68   2.0000      -0.375794       -10.2259
  69   2.0000      -0.372119       -10.1259
  70   2.0000      -0.371019       -10.0959
  71   2.0000      -0.361336        -9.8325
  72   2.0000      -0.356884        -9.7113
  73   2.0000      -0.342610        -9.3229
  74   2.0000      -0.333379        -9.0717
  75   2.0000      -0.332043        -9.0353
  76   2.0000      -0.324877        -8.8403
  77   2.0000      -0.313034        -8.5181
  78   2.0000      -0.305157        -8.3038
  79   2.0000      -0.299082        -8.1384
  80   2.0000      -0.287242        -7.8162
  81   2.0000      -0.279303        -7.6002
  82   2.0000      -0.268453        -7.3050
  83   2.0000      -0.264646        -7.2014
  84   2.0000      -0.259334        -7.0568
  85   2.0000      -0.242196        -6.5905
  86   2.0000      -0.229794        -6.2530
  87   2.0000      -0.228685        -6.2228
  88   2.0000      -0.213747        -5.8164
  89   2.0000      -0.208469        -5.6727
  90   2.0000      -0.200443        -5.4543
  91   2.0000      -0.183539        -4.9943
  92   2.0000      -0.178164        -4.8481
  93   2.0000      -0.173334        -4.7166
  94   2.0000      -0.171746        -4.6735
  95   2.0000      -0.165471        -4.5027
  96   2.0000      -0.161119        -4.3843
  97   2.0000      -0.150355        -4.0914
  98   2.0000      -0.148841        -4.0502
  99   2.0000      -0.096004        -2.6124
 100   0.0000      -0.023814        -0.6480
 101   0.0000       0.042158         1.1472
 102   0.0000       0.112986         3.0745
 103   0.0000       0.124067         3.3760
 104   0.0000       0.134020         3.6469

MULLIKEN ATOMIC CHARGES
-----------------------
   0 C :   -0.075675
   1 C :    0.006979
   2 C :   -0.327143
   3 C :   -0.207258
   4 C :   -0.229814
   5 C :   -0.245761
   6 H :    0.241540
   7 H :    0.217455
   8 H :    0.175118
   9 H :    0.175883
  10 H :    0.172769
  11 C :   -0.463781
  12 C :   -0.531219
  13 H :    0.200327
  14 H :    0.251106
  15 C :    0.101460
  16 H :    0.279154
  17 H :    0.207769
  18 C :   -0.115008
  19 C :   -0.293221
  20 C :   -0.221180
  21 C :   -0.272349
  22 C :   -0.236243
  23 H :    0.259341
  24 H :    0.197166
  25 H :    0.184530
  26 H :    0.192046
  27 Pd:    0.138810
  28 Br:   -0.410551
  29 P :   -0.163433
  30 H :    0.123644
  31 C :    0.634412
  32 O :   -0.505637
  33 O :   -0.500586
  34 O :   -0.597658
  35 H :    0.082565
  36 H :    0.143450
  37 H :    0.410995
Sum of atomic charges:   -1.0000000

LOEWDIN ATOMIC CHARGES
----------------------
   0 C :   -0.094758
   1 C :   -0.067709
   2 C :   -0.160399
   3 C :   -0.167446
   4 C :   -0.173150
   5 C :   -0.153381
   6 H :    0.279540
   7 H :    0.131262
   8 H :    0.117439
   9 H :    0.114971
  10 H :    0.113545
  11 C :   -0.220016
  12 C :   -0.213070
  13 H :    0.122051
  14 H :    0.145746
  15 C :   -0.027116
  16 H :    0.162292
  17 H :    0.119127
  18 C :    0.003330
  19 C :   -0.123792
  20 C :   -0.155787
  21 C :   -0.147552
  22 C :   -0.152624
  23 H :    0.160100
  24 H :    0.126868
  25 H :    0.123084
  26 H :    0.122374
  27 Pd:   -0.729408
  28 Br:   -0.264153
  29 P :    0.394910
  30 H :    0.056114
  31 C :    0.068234
  32 O :   -0.315157
  33 O :   -0.286214
  34 O :   -0.316654
  35 H :    0.025284
  36 H :    0.066941
  37 H :    0.315175

  Mayer bond orders larger than 0.100000
B(  0-C ,  1-C ) :   1.4351 B(  0-C ,  2-C ) :   1.4134 B(  0-C ,  6-H ) :   0.1183
B(  0-C , 27-Pd) :   0.4568 B(  1-C ,  5-C ) :   1.3425 B(  1-C , 11-C ) :   0.9687
B(  2-C ,  3-C ) :   1.4305 B(  2-C ,  7-H ) :   0.9121 B(  3-C ,  4-C ) :   1.4038
B(  3-C ,  9-H ) :   0.9273 B(  4-C ,  5-C ) :   1.4708 B(  4-C , 10-H ) :   0.9288
B(  5-C ,  8-H ) :   0.9268 B(  6-H , 27-Pd) :   0.1150 B(  6-H , 28-Br) :   0.3353
B(  6-H , 33-O ) :   0.2682 B( 11-C , 12-C ) :   0.9307 B( 11-C , 13-H ) :   0.9300
B( 11-C , 14-H ) :   0.9038 B( 12-C , 15-C ) :   0.9617 B( 12-C , 16-H ) :   0.8821
B( 12-C , 17-H ) :   0.9319 B( 15-C , 18-C ) :   1.3325 B( 15-C , 21-C ) :   1.4149
B( 18-C , 19-C ) :   1.3912 B( 18-C , 27-Pd) :   0.8650 B( 19-C , 20-C ) :   1.4073
B( 19-C , 23-H ) :   0.8811 B( 20-C , 22-C ) :   1.4371 B( 20-C , 24-H ) :   0.9247
B( 21-C , 22-C ) :   1.4179 B( 21-C , 25-H ) :   0.9261 B( 22-C , 26-H ) :   0.9261
B( 27-Pd, 28-Br) :   0.2611 B( 27-Pd, 29-P ) :   0.6459 B( 27-Pd, 33-O ) :   0.1570
B( 28-Br, 29-P ) :   0.1142 B( 29-P , 30-H ) :   0.9280 B( 29-P , 35-H ) :   0.9124
B( 29-P , 36-H ) :   0.9250 B( 31-C , 32-O ) :   1.8205 B( 31-C , 33-O ) :   1.4519
B( 31-C , 34-O ) :   1.0536 B( 34-O , 37-H ) :   0.7799

Dispersion correction           -0.031318240
FINAL SINGLE POINT ENERGY     -3847.415452962178
Dispersion correction            ... done

DIPOLE MOMENT
-------------
                                X             Y             Z
Electronic contribution:      5.81773     -60.67485     -23.22560
Nuclear contribution   :     -4.25520      61.52443      25.14125
                        -----------------------------------------
Total Dipole Moment    :      1.56253       0.84958       1.91565
                        -----------------------------------------
Magnitude (a.u.)       :      2.61400
Magnitude (Debye)      :      6.64426

Rotational constants in cm-1:     0.006545     0.006347     0.004303
Rotational constants in MHz :   196.202901   190.279698   128.995339

                             ****ORCA TERMINATED NORMALLY****
TOTAL RUN TIME: 0 days 0 hours 18 minutes 38 seconds 203 msec
