                         Program Version 5.0.3 -  RELEASE  -
|  1> ! EnGrad PBEh-3c
|  2> %output
|  3> xyzfile=True
|  4> end
|  5> %scf
|  6> maxiter 250
|  7> end
|  8> %output
|  9> Print[P_Hirshfeld] = 1
| 10> end
| 11> % maxcore
| 12> 4000
| 13> *xyz -1 1
| 14> C   -2.06580931  -0.12700610   0.73363148
| 15> C   -1.80967291   1.12847637   1.35173524
| 16> C   -3.44051791  -0.43710461   0.60834923
| 17> C   -4.48109355   0.40722157   1.05558139
| 18> C   -4.18483808   1.67975273   1.56079373
| 19> C   -2.84285364   1.97281185   1.77128187
| 20> H   -1.92876327  -2.08365145  -1.97474624
| 21> H   -3.76391736  -1.37512785   0.11492193
| 22> H   -2.54964908   2.87752719   2.32791224
| 23> H   -5.53076174   0.17951225   0.84113367
| 24> H   -4.94789828   2.37198300   1.93610742
| 25> C   -0.42231784   1.52796604   1.85136365
| 26> C    0.70639524   0.47058484   1.99264201
| 27> H   -0.57144387   1.97033360   2.85415577
| 28> H   -0.05507467   2.30336861   1.18508964
| 29> C    1.75404990   0.59652702   0.90707623
| 30> H    0.30884712  -0.55905207   1.99440449
| 31> H    1.22447620   0.65218801   2.94409271
| 32> C    1.56771292  -0.06431902  -0.31872424
| 33> C    2.52707498   0.20348251  -1.33185759
| 34> C    3.55227404   1.14241802  -1.13443255
| 35> C    2.80090562   1.51768700   1.10290920
| 36> C    3.71433607   1.78738655   0.09647486
| 37> H    2.49540426  -0.33070184  -2.29488984
| 38> H    4.28466903   1.33148056  -1.91318219
| 39> H    3.02269317   1.83354324   2.12183449
| 40> H    4.52018181   2.49931205   0.27232964
| 41> Pd  -0.18965540  -1.30453598  -0.46550494
| 42> Br  -1.74745651  -3.35235025  -0.77567127
| 43> P    1.47515313  -2.94739014  -0.07897172
| 44> H    1.13421141  -3.59473243   1.13297387
| 45> C    0.18112144  -1.44483602  -3.83780971
| 46> O    1.31117285  -1.79004407  -4.14377752
| 47> O   -0.71954022  -2.16197414  -3.13737509
| 48> O   -0.25471743  -0.23169029  -4.15124671
| 49> H    2.86810476  -2.75671343   0.21468917
| 50> H    1.55143178  -4.12539761  -0.86430448
| 51> H    0.49645128   0.23913903  -4.54239402
| 52> *
| 53>
| 54>                          ****END OF INPUT****

CARTESIAN COORDINATES (ANGSTROEM)
---------------------------------
  C     -2.065809   -0.127006    0.733631
  C     -1.809673    1.128476    1.351735
  C     -3.440518   -0.437105    0.608349
  C     -4.481094    0.407222    1.055581
  C     -4.184838    1.679753    1.560794
  C     -2.842854    1.972812    1.771282
  H     -1.928763   -2.083651   -1.974746
  H     -3.763917   -1.375128    0.114922
  H     -2.549649    2.877527    2.327912
  H     -5.530762    0.179512    0.841134
  H     -4.947898    2.371983    1.936107
  C     -0.422318    1.527966    1.851364
  C      0.706395    0.470585    1.992642
  H     -0.571444    1.970334    2.854156
  H     -0.055075    2.303369    1.185090
  C      1.754050    0.596527    0.907076
  H      0.308847   -0.559052    1.994404
  H      1.224476    0.652188    2.944093
  C      1.567713   -0.064319   -0.318724
  C      2.527075    0.203483   -1.331858
  C      3.552274    1.142418   -1.134433
  C      2.800906    1.517687    1.102909
  C      3.714336    1.787387    0.096475
  H      2.495404   -0.330702   -2.294890
  H      4.284669    1.331481   -1.913182
  H      3.022693    1.833543    2.121834
  H      4.520182    2.499312    0.272330
  Pd    -0.189655   -1.304536   -0.465505
  Br    -1.747457   -3.352350   -0.775671
  P      1.475153   -2.947390   -0.078972
  H      1.134211   -3.594732    1.132974
  C      0.181121   -1.444836   -3.837810
  O      1.311173   -1.790044   -4.143778
  O     -0.719540   -2.161974   -3.137375
  O     -0.254717   -0.231690   -4.151247
  H      2.868105   -2.756713    0.214689
  H      1.551432   -4.125398   -0.864304
  H      0.496451    0.239139   -4.542394

 Total Charge           Charge          ....   -1
 Multiplicity           Mult            ....    1
 Number of Electrons    NEL             ....  200
 Basis Dimension        Dim             ....  385

ORBITAL ENERGIES
----------------

  NO   OCC          E(Eh)            E(eV)
   0   2.0000    -484.405678    -13181.3486
   1   2.0000     -77.678558     -2113.7410
   2   2.0000     -63.067135     -1716.1440
   3   2.0000     -56.771041     -1544.8186
   4   2.0000     -56.769878     -1544.7869
   5   2.0000     -56.769197     -1544.7684
   6   2.0000     -19.391269      -527.6633
   7   2.0000     -19.317301      -525.6505
   8   2.0000     -19.313104      -525.5363
   9   2.0000     -10.450822      -284.3813
  10   2.0000     -10.351445      -281.6771
  11   2.0000     -10.344921      -281.4996
  12   2.0000     -10.343857      -281.4707
  13   2.0000     -10.341961      -281.4191
  14   2.0000     -10.340672      -281.3840
  15   2.0000     -10.340604      -281.3821
  16   2.0000     -10.327170      -281.0166
  17   2.0000     -10.324862      -280.9538
  18   2.0000     -10.323418      -280.9145
  19   2.0000     -10.322745      -280.8962
  20   2.0000     -10.322399      -280.8867
  21   2.0000     -10.318392      -280.7777
  22   2.0000     -10.315648      -280.7031
  23   2.0000     -10.307686      -280.4864
  24   2.0000      -8.894868      -242.0417
  25   2.0000      -6.752329      -183.7402
  26   2.0000      -6.665659      -181.3818
  27   2.0000      -6.660684      -181.2464
  28   2.0000      -6.656640      -181.1364
  29   2.0000      -4.843300      -131.7929
  30   2.0000      -4.843204      -131.7903
  31   2.0000      -4.841373      -131.7405
  32   2.0000      -3.515575       -95.6637
  33   2.0000      -2.680159       -72.9308
  34   2.0000      -2.679238       -72.9058
  35   2.0000      -2.675796       -72.8121
  36   2.0000      -2.671498       -72.6952
  37   2.0000      -2.671033       -72.6825
  38   2.0000      -2.164077       -58.8875
  39   2.0000      -2.153674       -58.6044
  40   2.0000      -2.132147       -58.0187
  41   2.0000      -1.084040       -29.4982
  42   2.0000      -0.962250       -26.1841
  43   2.0000      -0.901554       -24.5325
  44   2.0000      -0.842368       -22.9220
  45   2.0000      -0.816147       -22.2085
  46   2.0000      -0.767493       -20.8845
  47   2.0000      -0.724110       -19.7040
  48   2.0000      -0.721978       -19.6460
  49   2.0000      -0.718138       -19.5415
  50   2.0000      -0.689332       -18.7577
  51   2.0000      -0.666810       -18.1448
  52   2.0000      -0.644357       -17.5338
  53   2.0000      -0.597757       -16.2658
  54   2.0000      -0.563835       -15.3427
  55   2.0000      -0.543998       -14.8029
  56   2.0000      -0.539366       -14.6769
  57   2.0000      -0.532138       -14.4802
  58   2.0000      -0.508428       -13.8350
  59   2.0000      -0.457493       -12.4490
  60   2.0000      -0.437326       -11.9002
  61   2.0000      -0.415515       -11.3067
  62   2.0000      -0.413619       -11.2551
  63   2.0000      -0.403953       -10.9921
  64   2.0000      -0.402337       -10.9482
  65   2.0000      -0.383636       -10.4393
  66   2.0000      -0.376881       -10.2555
  67   2.0000      -0.373416       -10.1612
  68   2.0000      -0.370665       -10.0863
  69   2.0000      -0.366418        -9.9707
  70   2.0000      -0.363466        -9.8904
  71   2.0000      -0.353598        -9.6219
  72   2.0000      -0.342902        -9.3308
  73   2.0000      -0.332490        -9.0475
  74   2.0000      -0.329780        -8.9738
  75   2.0000      -0.322728        -8.7819
  76   2.0000      -0.318555        -8.6683
  77   2.0000      -0.305460        -8.3120
  78   2.0000      -0.293518        -7.9870
  79   2.0000      -0.287679        -7.8281
  80   2.0000      -0.282119        -7.6768
  81   2.0000      -0.276868        -7.5340
  82   2.0000      -0.273081        -7.4309
  83   2.0000      -0.261802        -7.1240
  84   2.0000      -0.249349        -6.7851
  85   2.0000      -0.244175        -6.6444
  86   2.0000      -0.233287        -6.3481
  87   2.0000      -0.223714        -6.0876
  88   2.0000      -0.212947        -5.7946
  89   2.0000      -0.204431        -5.5629
  90   2.0000      -0.199143        -5.4189
  91   2.0000      -0.191411        -5.2085
  92   2.0000      -0.182609        -4.9690
  93   2.0000      -0.176266        -4.7964
  94   2.0000      -0.168028        -4.5723
  95   2.0000      -0.161504        -4.3947
  96   2.0000      -0.157853        -4.2954
  97   2.0000      -0.151596        -4.1251
  98   2.0000      -0.143478        -3.9042
  99   2.0000      -0.112371        -3.0578
 100   0.0000       0.058993         1.6053
 101   0.0000       0.109299         2.9742
 102   0.0000       0.119511         3.2521
 103   0.0000       0.126705         3.4478
 104   0.0000       0.146848         3.9959

MULLIKEN ATOMIC CHARGES
-----------------------
   0 C :   -0.118242
   1 C :    0.056154
   2 C :   -0.317695
   3 C :   -0.226023
   4 C :   -0.234656
   5 C :   -0.249807
   6 H :    0.348581
   7 H :    0.194255
   8 H :    0.168610
   9 H :    0.171448
  10 H :    0.170946
  11 C :   -0.462803
  12 C :   -0.501479
  13 H :    0.191548
  14 H :    0.244168
  15 C :    0.085254
  16 H :    0.272326
  17 H :    0.190489
  18 C :   -0.102244
  19 C :   -0.314084
  20 C :   -0.226470
  21 C :   -0.254286
  22 C :   -0.233289
  23 H :    0.256588
  24 H :    0.189532
  25 H :    0.177967
  26 H :    0.185768
  27 Pd:    0.100230
  28 Br:   -0.287399
  29 P :   -0.156993
  30 H :    0.108062
  31 C :    0.672957
  32 O :   -0.528952
  33 O :   -0.629517
  34 O :   -0.580625
  35 H :    0.103469
  36 H :    0.122489
  37 H :    0.413723
Sum of atomic charges:   -1.0000000

LOEWDIN ATOMIC CHARGES
----------------------
   0 C :   -0.119137
   1 C :   -0.054348
   2 C :   -0.148610
   3 C :   -0.168527
   4 C :   -0.170174
   5 C :   -0.159063
   6 H :    0.338180
   7 H :    0.123214
   8 H :    0.112162
   9 H :    0.114654
  10 H :    0.115143
  11 C :   -0.216029
  12 C :   -0.212282
  13 H :    0.119944
  14 H :    0.142361
  15 C :   -0.042272
  16 H :    0.164844
  17 H :    0.114448
  18 C :   -0.021389
  19 C :   -0.131846
  20 C :   -0.156287
  21 C :   -0.151352
  22 C :   -0.159880
  23 H :    0.156445
  24 H :    0.123250
  25 H :    0.122056
  26 H :    0.120834
  27 Pd:   -0.833393
  28 Br:   -0.007236
  29 P :    0.369536
  30 H :    0.049556
  31 C :    0.113355
  32 O :   -0.342052
  33 O :   -0.424313
  34 O :   -0.300276
  35 H :    0.044791
  36 H :    0.055251
  37 H :    0.318441

  Mayer bond orders larger than 0.100000
B(  0-C ,  1-C ) :   1.3859 B(  0-C ,  2-C ) :   1.4266 B(  0-C , 27-Pd) :   0.6066
B(  1-C ,  5-C ) :   1.3865 B(  1-C , 11-C ) :   0.9564 B(  2-C ,  3-C ) :   1.4073
B(  2-C ,  7-H ) :   0.9134 B(  3-C ,  4-C ) :   1.4201 B(  3-C ,  9-H ) :   0.9296
B(  4-C ,  5-C ) :   1.4348 B(  4-C , 10-H ) :   0.9303 B(  5-C ,  8-H ) :   0.9258
B(  6-H , 28-Br) :   0.5670 B(  6-H , 33-O ) :   0.2405 B( 11-C , 12-C ) :   0.9378
B( 11-C , 13-H ) :   0.9359 B( 11-C , 14-H ) :   0.9036 B( 12-C , 15-C ) :   0.9763
B( 12-C , 16-H ) :   0.8812 B( 12-C , 17-H ) :   0.9289 B( 15-C , 18-C ) :   1.3649
B( 15-C , 21-C ) :   1.3787 B( 18-C , 19-C ) :   1.3887 B( 18-C , 27-Pd) :   0.7453
B( 19-C , 20-C ) :   1.4232 B( 19-C , 23-H ) :   0.8795 B( 20-C , 22-C ) :   1.4145
B( 20-C , 24-H ) :   0.9266 B( 21-C , 22-C ) :   1.4402 B( 21-C , 25-H ) :   0.9250
B( 22-C , 26-H ) :   0.9275 B( 27-Pd, 28-Br) :   0.3551 B( 27-Pd, 29-P ) :   0.4937
B( 27-Pd, 33-O ) :   0.1397 B( 29-P , 30-H ) :   0.9336 B( 29-P , 35-H ) :   0.9284
B( 29-P , 36-H ) :   0.9259 B( 31-C , 32-O ) :   1.8347 B( 31-C , 33-O ) :   1.3731
B( 31-C , 34-O ) :   1.0894 B( 34-O , 37-H ) :   0.7764

Dispersion correction           -0.031496120
FINAL SINGLE POINT ENERGY     -3847.561102220492
Dispersion correction            ... done

DIPOLE MOMENT
-------------
                                X             Y             Z
Electronic contribution:    -10.84935     -64.48734     -14.25282
Nuclear contribution   :     12.15808      64.17639      16.01043
                        -----------------------------------------
Total Dipole Moment    :      1.30874      -0.31095       1.75760
                        -----------------------------------------
Magnitude (a.u.)       :      2.21329
Magnitude (Debye)      :      5.62574

Rotational constants in cm-1:     0.006890     0.006648     0.004458
Rotational constants in MHz :   206.544210   199.313832   133.660561

                             ****ORCA TERMINATED NORMALLY****
TOTAL RUN TIME: 0 days 0 hours 13 minutes 39 seconds 511 msec
