                         Program Version 5.0.3 -  RELEASE  -
|  1> ! EnGrad PBEh-3c
|  2> %output
|  3> xyzfile=True
|  4> end
|  5> %scf
|  6> maxiter 250
|  7> end
|  8> %output
|  9> Print[P_Hirshfeld] = 1
| 10> end
| 11> % maxcore
| 12> 4000
| 13> *xyz -1 1
| 14> C   -2.10056843  -0.13060671   0.72393522
| 15> C   -1.81327485   1.11132747   1.37997662
| 16> C   -3.46927620  -0.45401742   0.64857355
| 17> C   -4.48418605   0.40918537   1.07200997
| 18> C   -4.18109751   1.66233488   1.60062306
| 19> C   -2.83623932   1.98327193   1.76380510
| 20> H   -1.85529438  -2.09703564  -1.84484489
| 21> H   -3.77453196  -1.36851106   0.12657555
| 22> H   -2.55133039   2.84175807   2.37060091
| 23> H   -5.53573709   0.16735773   0.88709607
| 24> H   -4.94228313   2.37278741   1.93941268
| 25> C   -0.42556043   1.50360621   1.78129208
| 26> C    0.69136596   0.47517615   1.97195788
| 27> H   -0.57010639   2.01072455   2.76611409
| 28> H   -0.04698643   2.26326851   1.11105814
| 29> C    1.73693212   0.59673898   0.88872687
| 30> H    0.29185905  -0.55161619   1.97526878
| 31> H    1.18981373   0.65684477   2.92752802
| 32> C    1.56825256  -0.08020100  -0.32891811
| 33> C    2.53522795   0.18885939  -1.32459523
| 34> C    3.55965940   1.12239600  -1.13279582
| 35> C    2.79904828   1.49093360   1.10039294
| 36> C    3.70370656   1.79028943   0.09273755
| 37> H    2.50750736  -0.33159670  -2.29852854
| 38> H    4.29085222   1.33040792  -1.91039581
| 39> H    2.99630627   1.85241277   2.10996820
| 40> H    4.53195056   2.47502212   0.28067736
| 41> Pd  -0.12959575  -1.32855777  -0.47574667
| 42> Br  -1.77493782  -3.28869835  -0.81201102
| 43> P    1.46589836  -2.93831492  -0.06490360
| 44> H    1.10623608  -3.58348185   1.13912326
| 45> C    0.18854547  -1.42585228  -3.79505798
| 46> O    1.32988786  -1.78642801  -4.16160437
| 47> O   -0.67921805  -2.10758892  -3.13442351
| 48> O   -0.25643124  -0.19403708  -4.19499675
| 49> H    2.84607864  -2.74981963   0.25448705
| 50> H    1.55426335  -4.12076491  -0.83306798
| 51> H    0.52254207   0.23982252  -4.59227345
| 52> *
| 53>
| 54>                          ****END OF INPUT****

CARTESIAN COORDINATES (ANGSTROEM)
---------------------------------
  C     -2.100568   -0.130607    0.723935
  C     -1.813275    1.111327    1.379977
  C     -3.469276   -0.454017    0.648574
  C     -4.484186    0.409185    1.072010
  C     -4.181098    1.662335    1.600623
  C     -2.836239    1.983272    1.763805
  H     -1.855294   -2.097036   -1.844845
  H     -3.774532   -1.368511    0.126576
  H     -2.551330    2.841758    2.370601
  H     -5.535737    0.167358    0.887096
  H     -4.942283    2.372787    1.939413
  C     -0.425560    1.503606    1.781292
  C      0.691366    0.475176    1.971958
  H     -0.570106    2.010725    2.766114
  H     -0.046986    2.263269    1.111058
  C      1.736932    0.596739    0.888727
  H      0.291859   -0.551616    1.975269
  H      1.189814    0.656845    2.927528
  C      1.568253   -0.080201   -0.328918
  C      2.535228    0.188859   -1.324595
  C      3.559659    1.122396   -1.132796
  C      2.799048    1.490934    1.100393
  C      3.703707    1.790289    0.092738
  H      2.507507   -0.331597   -2.298529
  H      4.290852    1.330408   -1.910396
  H      2.996306    1.852413    2.109968
  H      4.531951    2.475022    0.280677
  Pd    -0.129596   -1.328558   -0.475747
  Br    -1.774938   -3.288698   -0.812011
  P      1.465898   -2.938315   -0.064904
  H      1.106236   -3.583482    1.139123
  C      0.188545   -1.425852   -3.795058
  O      1.329888   -1.786428   -4.161604
  O     -0.679218   -2.107589   -3.134424
  O     -0.256431   -0.194037   -4.194997
  H      2.846079   -2.749820    0.254487
  H      1.554263   -4.120765   -0.833068
  H      0.522542    0.239823   -4.592273

 Total Charge           Charge          ....   -1
 Multiplicity           Mult            ....    1
 Number of Electrons    NEL             ....  200
 Basis Dimension        Dim             ....  385

ORBITAL ENERGIES
----------------

  NO   OCC          E(Eh)            E(eV)
   0   2.0000    -484.422176    -13181.7975
   1   2.0000     -77.684145     -2113.8931
   2   2.0000     -63.084380     -1716.6132
   3   2.0000     -56.788237     -1545.2865
   4   2.0000     -56.787041     -1545.2539
   5   2.0000     -56.786432     -1545.2374
   6   2.0000     -19.372282      -527.1466
   7   2.0000     -19.306759      -525.3636
   8   2.0000     -19.293332      -524.9983
   9   2.0000     -10.436509      -283.9918
  10   2.0000     -10.354892      -281.7709
  11   2.0000     -10.346744      -281.5492
  12   2.0000     -10.344913      -281.4994
  13   2.0000     -10.344268      -281.4818
  14   2.0000     -10.342579      -281.4359
  15   2.0000     -10.340529      -281.3801
  16   2.0000     -10.327054      -281.0134
  17   2.0000     -10.324047      -280.9316
  18   2.0000     -10.321624      -280.8657
  19   2.0000     -10.321151      -280.8528
  20   2.0000     -10.321086      -280.8510
  21   2.0000     -10.317239      -280.7463
  22   2.0000     -10.312438      -280.6157
  23   2.0000     -10.306014      -280.4409
  24   2.0000      -8.912877      -242.5317
  25   2.0000      -6.758436      -183.9064
  26   2.0000      -6.684322      -181.8896
  27   2.0000      -6.678431      -181.7293
  28   2.0000      -6.674400      -181.6197
  29   2.0000      -4.849423      -131.9595
  30   2.0000      -4.849294      -131.9560
  31   2.0000      -4.847540      -131.9083
  32   2.0000      -3.525145       -95.9241
  33   2.0000      -2.698833       -73.4390
  34   2.0000      -2.697529       -73.4035
  35   2.0000      -2.694086       -73.3098
  36   2.0000      -2.689062       -73.1731
  37   2.0000      -2.688638       -73.1616
  38   2.0000      -2.174240       -59.1641
  39   2.0000      -2.164230       -58.8917
  40   2.0000      -2.141129       -58.2631
  41   2.0000      -1.053683       -28.6722
  42   2.0000      -0.939625       -25.5685
  43   2.0000      -0.903285       -24.5796
  44   2.0000      -0.846061       -23.0225
  45   2.0000      -0.818440       -22.2709
  46   2.0000      -0.773197       -21.0398
  47   2.0000      -0.751703       -20.4549
  48   2.0000      -0.725998       -19.7554
  49   2.0000      -0.721635       -19.6367
  50   2.0000      -0.691446       -18.8152
  51   2.0000      -0.669086       -18.2067
  52   2.0000      -0.652671       -17.7601
  53   2.0000      -0.600054       -16.3283
  54   2.0000      -0.566423       -15.4131
  55   2.0000      -0.541626       -14.7384
  56   2.0000      -0.534452       -14.5432
  57   2.0000      -0.514506       -14.0004
  58   2.0000      -0.509656       -13.8684
  59   2.0000      -0.460010       -12.5175
  60   2.0000      -0.440555       -11.9881
  61   2.0000      -0.419565       -11.4169
  62   2.0000      -0.415828       -11.3153
  63   2.0000      -0.405952       -11.0465
  64   2.0000      -0.386164       -10.5081
  65   2.0000      -0.382849       -10.4178
  66   2.0000      -0.380339       -10.3495
  67   2.0000      -0.376830       -10.2541
  68   2.0000      -0.370538       -10.0828
  69   2.0000      -0.368388       -10.0244
  70   2.0000      -0.360651        -9.8138
  71   2.0000      -0.349880        -9.5207
  72   2.0000      -0.347107        -9.4453
  73   2.0000      -0.335536        -9.1304
  74   2.0000      -0.334039        -9.0897
  75   2.0000      -0.327192        -8.9033
  76   2.0000      -0.320241        -8.7142
  77   2.0000      -0.312158        -8.4942
  78   2.0000      -0.299379        -8.1465
  79   2.0000      -0.291753        -7.9390
  80   2.0000      -0.288904        -7.8615
  81   2.0000      -0.286574        -7.7981
  82   2.0000      -0.277611        -7.5542
  83   2.0000      -0.264299        -7.1919
  84   2.0000      -0.255593        -6.9550
  85   2.0000      -0.248132        -6.7520
  86   2.0000      -0.236102        -6.4247
  87   2.0000      -0.224033        -6.0962
  88   2.0000      -0.219451        -5.9716
  89   2.0000      -0.210648        -5.7320
  90   2.0000      -0.203008        -5.5241
  91   2.0000      -0.187808        -5.1105
  92   2.0000      -0.183551        -4.9947
  93   2.0000      -0.179309        -4.8793
  94   2.0000      -0.170882        -4.6499
  95   2.0000      -0.156792        -4.2665
  96   2.0000      -0.152931        -4.1615
  97   2.0000      -0.149421        -4.0659
  98   2.0000      -0.143225        -3.8974
  99   2.0000      -0.110734        -3.0132
 100   0.0000       0.055907         1.5213
 101   0.0000       0.113889         3.0991
 102   0.0000       0.124550         3.3892
 103   0.0000       0.134229         3.6526
 104   0.0000       0.145011         3.9460

MULLIKEN ATOMIC CHARGES
-----------------------
   0 C :   -0.117552
   1 C :    0.045512
   2 C :   -0.319008
   3 C :   -0.217201
   4 C :   -0.240495
   5 C :   -0.245176
   6 H :    0.362243
   7 H :    0.189807
   8 H :    0.162422
   9 H :    0.170113
  10 H :    0.172564
  11 C :   -0.458618
  12 C :   -0.506727
  13 H :    0.184819
  14 H :    0.251869
  15 C :    0.096975
  16 H :    0.271871
  17 H :    0.197745
  18 C :   -0.091170
  19 C :   -0.309069
  20 C :   -0.230463
  21 C :   -0.266667
  22 C :   -0.226141
  23 H :    0.262720
  24 H :    0.192841
  25 H :    0.180739
  26 H :    0.186131
  27 Pd:    0.061868
  28 Br:   -0.235490
  29 P :   -0.151171
  30 H :    0.107840
  31 C :    0.670566
  32 O :   -0.573784
  33 O :   -0.605086
  34 O :   -0.614888
  35 H :    0.109700
  36 H :    0.124087
  37 H :    0.406273
Sum of atomic charges:   -1.0000000

LOEWDIN ATOMIC CHARGES
----------------------
   0 C :   -0.131770
   1 C :   -0.058670
   2 C :   -0.157447
   3 C :   -0.165925
   4 C :   -0.169962
   5 C :   -0.160844
   6 H :    0.315706
   7 H :    0.120438
   8 H :    0.112591
   9 H :    0.113939
  10 H :    0.115098
  11 C :   -0.214382
  12 C :   -0.212888
  13 H :    0.118479
  14 H :    0.144078
  15 C :   -0.038587
  16 H :    0.164521
  17 H :    0.116657
  18 C :   -0.016036
  19 C :   -0.128250
  20 C :   -0.154895
  21 C :   -0.150930
  22 C :   -0.158120
  23 H :    0.161015
  24 H :    0.124685
  25 H :    0.122107
  26 H :    0.121139
  27 Pd:   -0.840236
  28 Br:    0.062160
  29 P :    0.390848
  30 H :    0.049054
  31 C :    0.114199
  32 O :   -0.393939
  33 O :   -0.387816
  34 O :   -0.344314
  35 H :    0.049106
  36 H :    0.056208
  37 H :    0.312982

  Mayer bond orders larger than 0.100000
B(  0-C ,  1-C ) :   1.3961 B(  0-C ,  2-C ) :   1.4422 B(  0-C , 27-Pd) :   0.5844
B(  1-C ,  5-C ) :   1.4022 B(  1-C , 11-C ) :   0.9626 B(  2-C ,  3-C ) :   1.4046
B(  2-C ,  7-H ) :   0.9152 B(  3-C ,  4-C ) :   1.4359 B(  3-C ,  9-H ) :   0.9293
B(  4-C ,  5-C ) :   1.4235 B(  4-C , 10-H ) :   0.9302 B(  5-C ,  8-H ) :   0.9262
B(  6-H , 28-Br) :   0.6569 B(  6-H , 33-O ) :   0.1548 B( 11-C , 12-C ) :   0.9309
B( 11-C , 13-H ) :   0.9371 B( 11-C , 14-H ) :   0.8997 B( 12-C , 15-C ) :   0.9724
B( 12-C , 16-H ) :   0.8823 B( 12-C , 17-H ) :   0.9298 B( 15-C , 18-C ) :   1.3644
B( 15-C , 21-C ) :   1.3814 B( 18-C , 19-C ) :   1.3862 B( 18-C , 27-Pd) :   0.7608
B( 19-C , 20-C ) :   1.4206 B( 19-C , 23-H ) :   0.8735 B( 20-C , 22-C ) :   1.4127
B( 20-C , 24-H ) :   0.9263 B( 21-C , 22-C ) :   1.4420 B( 21-C , 25-H ) :   0.9257
B( 22-C , 26-H ) :   0.9272 B( 27-Pd, 28-Br) :   0.3448 B( 27-Pd, 29-P ) :   0.5639
B( 27-Pd, 33-O ) :   0.1462 B( 29-P , 30-H ) :   0.9312 B( 29-P , 35-H ) :   0.9284
B( 29-P , 36-H ) :   0.9239 B( 31-C , 32-O ) :   1.7682 B( 31-C , 33-O ) :   1.4979
B( 31-C , 34-O ) :   1.0365 B( 34-O , 37-H ) :   0.7849

Dispersion correction           -0.031652952
FINAL SINGLE POINT ENERGY     -3847.577040605286
Dispersion correction            ... done

DIPOLE MOMENT
-------------
                                X             Y             Z
Electronic contribution:     -7.68682     -66.14918     -14.23131
Nuclear contribution   :      8.93482      65.53091      16.54143
                        -----------------------------------------
Total Dipole Moment    :      1.24800      -0.61827       2.31012
                        -----------------------------------------
Magnitude (a.u.)       :      2.69749
Magnitude (Debye)      :      6.85647

Rotational constants in cm-1:     0.006979     0.006627     0.004474
Rotational constants in MHz :   209.230619   198.684743   134.121375

                             ****ORCA TERMINATED NORMALLY****
TOTAL RUN TIME: 0 days 0 hours 14 minutes 35 seconds 643 msec
