                         Program Version 5.0.3 -  RELEASE  -
|  1> ! EnGrad PBEh-3c
|  2> %output
|  3> xyzfile=True
|  4> end
|  5> %scf
|  6> maxiter 250
|  7> end
|  8> %output
|  9> Print[P_Hirshfeld] = 1
| 10> end
| 11> % maxcore
| 12> 4000
| 13> *xyz -1 1
| 14> C   -2.14648332  -0.11401112   0.70618643
| 15> C   -1.84537451   1.04452484   1.41020345
| 16> C   -3.51364353  -0.46500932   0.68392507
| 17> C   -4.51625482   0.42798988   1.09383765
| 18> C   -4.17434114   1.63771159   1.66997403
| 19> C   -2.83185804   1.96712671   1.79112677
| 20> H   -1.86006158  -2.05503669  -1.66532372
| 21> H   -3.81139073  -1.37095075   0.20391299
| 22> H   -2.56502164   2.81228900   2.39517032
| 23> H   -5.55325596   0.16107500   0.95679390
| 24> H   -4.93581388   2.35663677   1.96419281
| 25> C   -0.43270973   1.48810845   1.70922147
| 26> C    0.68009579   0.46614334   1.92821486
| 27> H   -0.53950639   2.07607086   2.61585007
| 28> H   -0.07119263   2.20623066   0.97512652
| 29> C    1.71333822   0.59699612   0.86252632
| 30> H    0.27541101  -0.53486851   1.94869236
| 31> H    1.13967328   0.65380629   2.90072524
| 32> C    1.56924838  -0.06911056  -0.35144937
| 33> C    2.55506153   0.16679887  -1.33182420
| 34> C    3.58366243   1.10638076  -1.11877863
| 35> C    2.81429749   1.43426514   1.09823165
| 36> C    3.69645202   1.77611594   0.08499374
| 37> H    2.54674085  -0.33520196  -2.28382768
| 38> H    4.30940184   1.32339917  -1.90371102
| 39> H    2.96137439   1.86888858   2.08917642
| 40> H    4.53030090   2.45524502   0.28473828
| 41> Pd   0.01385922  -1.34082118  -0.51217689
| 42> Br  -1.79000536  -3.26390407  -0.84274097
| 43> P    1.45014623  -2.93780230  -0.03189262
| 44> H    1.06133930  -3.56833453   1.16406045
| 45> C    0.20121020  -1.41646620  -3.76618606
| 46> O    1.36549413  -1.76343191  -4.17317554
| 47> O   -0.57723698  -2.01198180  -3.15711217
| 48> O   -0.22281271  -0.15366641  -4.25766118
| 49> H    2.79345750  -2.74725342   0.31702414
| 50> H    1.56922701  -4.11372944  -0.78137338
| 51> H    0.54468085   0.24292222  -4.66854285
| 52> *
| 53>
| 54>                          ****END OF INPUT****

CARTESIAN COORDINATES (ANGSTROEM)
---------------------------------
  C     -2.146483   -0.114011    0.706186
  C     -1.845375    1.044525    1.410203
  C     -3.513644   -0.465009    0.683925
  C     -4.516255    0.427990    1.093838
  C     -4.174341    1.637712    1.669974
  C     -2.831858    1.967127    1.791127
  H     -1.860062   -2.055037   -1.665324
  H     -3.811391   -1.370951    0.203913
  H     -2.565022    2.812289    2.395170
  H     -5.553256    0.161075    0.956794
  H     -4.935814    2.356637    1.964193
  C     -0.432710    1.488108    1.709221
  C      0.680096    0.466143    1.928215
  H     -0.539506    2.076071    2.615850
  H     -0.071193    2.206231    0.975127
  C      1.713338    0.596996    0.862526
  H      0.275411   -0.534869    1.948692
  H      1.139673    0.653806    2.900725
  C      1.569248   -0.069111   -0.351449
  C      2.555062    0.166799   -1.331824
  C      3.583662    1.106381   -1.118779
  C      2.814297    1.434265    1.098232
  C      3.696452    1.776116    0.084994
  H      2.546741   -0.335202   -2.283828
  H      4.309402    1.323399   -1.903711
  H      2.961374    1.868889    2.089176
  H      4.530301    2.455245    0.284738
  Pd     0.013859   -1.340821   -0.512177
  Br    -1.790005   -3.263904   -0.842741
  P      1.450146   -2.937802   -0.031893
  H      1.061339   -3.568335    1.164060
  C      0.201210   -1.416466   -3.766186
  O      1.365494   -1.763432   -4.173176
  O     -0.577237   -2.011982   -3.157112
  O     -0.222813   -0.153666   -4.257661
  H      2.793457   -2.747253    0.317024
  H      1.569227   -4.113729   -0.781373
  H      0.544681    0.242922   -4.668543

 Total Charge           Charge          ....   -1
 Multiplicity           Mult            ....    1
 Number of Electrons    NEL             ....  200
 Basis Dimension        Dim             ....  385

ORBITAL ENERGIES
----------------

  NO   OCC          E(Eh)            E(eV)
   0   2.0000    -484.439265    -13182.2626
   1   2.0000     -77.688241     -2114.0045
   2   2.0000     -63.102157     -1717.0970
   3   2.0000     -56.805950     -1545.7685
   4   2.0000     -56.804733     -1545.7354
   5   2.0000     -56.804258     -1545.7224
   6   2.0000     -19.335866      -526.1557
   7   2.0000     -19.300636      -525.1970
   8   2.0000     -19.257878      -524.0335
   9   2.0000     -10.408075      -283.2181
  10   2.0000     -10.359895      -281.9071
  11   2.0000     -10.347713      -281.5756
  12   2.0000     -10.347436      -281.5681
  13   2.0000     -10.345699      -281.5208
  14   2.0000     -10.345438      -281.5137
  15   2.0000     -10.340012      -281.3660
  16   2.0000     -10.325917      -280.9825
  17   2.0000     -10.320838      -280.8443
  18   2.0000     -10.318831      -280.7897
  19   2.0000     -10.317814      -280.7620
  20   2.0000     -10.317555      -280.7549
  21   2.0000     -10.315616      -280.7022
  22   2.0000     -10.311146      -280.5805
  23   2.0000     -10.298074      -280.2248
  24   2.0000      -8.931242      -243.0314
  25   2.0000      -6.764339      -184.0670
  26   2.0000      -6.703670      -182.4161
  27   2.0000      -6.696197      -182.2128
  28   2.0000      -6.692444      -182.1106
  29   2.0000      -4.855264      -132.1184
  30   2.0000      -4.855034      -132.1122
  31   2.0000      -4.853581      -132.0726
  32   2.0000      -3.541093       -96.3580
  33   2.0000      -2.718123       -73.9639
  34   2.0000      -2.716137       -73.9098
  35   2.0000      -2.712921       -73.8223
  36   2.0000      -2.706667       -73.6522
  37   2.0000      -2.706353       -73.6436
  38   2.0000      -2.190990       -59.6199
  39   2.0000      -2.182313       -59.3838
  40   2.0000      -2.156286       -58.6755
  41   2.0000      -1.050347       -28.5814
  42   2.0000      -0.949854       -25.8469
  43   2.0000      -0.875130       -23.8135
  44   2.0000      -0.853588       -23.2273
  45   2.0000      -0.822041       -22.3689
  46   2.0000      -0.779371       -21.2078
  47   2.0000      -0.778098       -21.1731
  48   2.0000      -0.729603       -19.8535
  49   2.0000      -0.726063       -19.7572
  50   2.0000      -0.693783       -18.8788
  51   2.0000      -0.674662       -18.3585
  52   2.0000      -0.665307       -18.1039
  53   2.0000      -0.603949       -16.4343
  54   2.0000      -0.573421       -15.6036
  55   2.0000      -0.545999       -14.8574
  56   2.0000      -0.541724       -14.7411
  57   2.0000      -0.510638       -13.8952
  58   2.0000      -0.484921       -13.1954
  59   2.0000      -0.466022       -12.6811
  60   2.0000      -0.445183       -12.1140
  61   2.0000      -0.425976       -11.5914
  62   2.0000      -0.423354       -11.5200
  63   2.0000      -0.411029       -11.1847
  64   2.0000      -0.392344       -10.6762
  65   2.0000      -0.389820       -10.6075
  66   2.0000      -0.382324       -10.4036
  67   2.0000      -0.381131       -10.3711
  68   2.0000      -0.372086       -10.1250
  69   2.0000      -0.365850        -9.9553
  70   2.0000      -0.359000        -9.7689
  71   2.0000      -0.350303        -9.5322
  72   2.0000      -0.347281        -9.4500
  73   2.0000      -0.346668        -9.4333
  74   2.0000      -0.341163        -9.2835
  75   2.0000      -0.336302        -9.1513
  76   2.0000      -0.325017        -8.8442
  77   2.0000      -0.319573        -8.6960
  78   2.0000      -0.302954        -8.2438
  79   2.0000      -0.297698        -8.1008
  80   2.0000      -0.294784        -8.0215
  81   2.0000      -0.289701        -7.8832
  82   2.0000      -0.282427        -7.6852
  83   2.0000      -0.272618        -7.4183
  84   2.0000      -0.265447        -7.2232
  85   2.0000      -0.252629        -6.8744
  86   2.0000      -0.250350        -6.8124
  87   2.0000      -0.236410        -6.4330
  88   2.0000      -0.232352        -6.3226
  89   2.0000      -0.220937        -6.0120
  90   2.0000      -0.207930        -5.6581
  91   2.0000      -0.186311        -5.0698
  92   2.0000      -0.179029        -4.8716
  93   2.0000      -0.176316        -4.7978
  94   2.0000      -0.175097        -4.7646
  95   2.0000      -0.155191        -4.2230
  96   2.0000      -0.149838        -4.0773
  97   2.0000      -0.141501        -3.8504
  98   2.0000      -0.124488        -3.3875
  99   2.0000      -0.106111        -2.8874
 100   0.0000       0.049502         1.3470
 101   0.0000       0.111791         3.0420
 102   0.0000       0.124349         3.3837
 103   0.0000       0.134106         3.6492
 104   0.0000       0.142979         3.8906

MULLIKEN ATOMIC CHARGES
-----------------------
   0 C :   -0.121609
   1 C :    0.024531
   2 C :   -0.321724
   3 C :   -0.212206
   4 C :   -0.244238
   5 C :   -0.238595
   6 H :    0.360059
   7 H :    0.183866
   8 H :    0.162202
   9 H :    0.171874
  10 H :    0.170445
  11 C :   -0.460426
  12 C :   -0.517231
  13 H :    0.191583
  14 H :    0.254297
  15 C :    0.130653
  16 H :    0.275324
  17 H :    0.203410
  18 C :   -0.093301
  19 C :   -0.286164
  20 C :   -0.242023
  21 C :   -0.289179
  22 C :   -0.208040
  23 H :    0.279400
  24 H :    0.197405
  25 H :    0.183951
  26 H :    0.185115
  27 Pd:    0.030977
  28 Br:   -0.192272
  29 P :   -0.152613
  30 H :    0.108931
  31 C :    0.615116
  32 O :   -0.635426
  33 O :   -0.486748
  34 O :   -0.668901
  35 H :    0.115571
  36 H :    0.127654
  37 H :    0.398333
Sum of atomic charges:   -1.0000000

LOEWDIN ATOMIC CHARGES
----------------------
   0 C :   -0.158726
   1 C :   -0.066003
   2 C :   -0.160307
   3 C :   -0.167320
   4 C :   -0.169371
   5 C :   -0.160795
   6 H :    0.282499
   7 H :    0.114915
   8 H :    0.114155
   9 H :    0.113970
  10 H :    0.113260
  11 C :   -0.216553
  12 C :   -0.214802
  13 H :    0.118357
  14 H :    0.144360
  15 C :   -0.033040
  16 H :    0.163472
  17 H :    0.118839
  18 C :    0.001156
  19 C :   -0.119661
  20 C :   -0.150585
  21 C :   -0.147193
  22 C :   -0.155795
  23 H :    0.168750
  24 H :    0.126475
  25 H :    0.122615
  26 H :    0.121989
  27 Pd:   -0.812656
  28 Br:    0.095700
  29 P :    0.411029
  30 H :    0.049368
  31 C :    0.054586
  32 O :   -0.461245
  33 O :   -0.247207
  34 O :   -0.405442
  35 H :    0.052090
  36 H :    0.058371
  37 H :    0.300746

  Mayer bond orders larger than 0.100000
B(  0-C ,  1-C ) :   1.4483 B(  0-C ,  2-C ) :   1.4265 B(  0-C , 27-Pd) :   0.5456
B(  1-C ,  5-C ) :   1.3814 B(  1-C , 11-C ) :   0.9676 B(  2-C ,  3-C ) :   1.4230
B(  2-C ,  7-H ) :   0.9175 B(  3-C ,  4-C ) :   1.4340 B(  3-C ,  9-H ) :   0.9280
B(  4-C ,  5-C ) :   1.4377 B(  4-C , 10-H ) :   0.9297 B(  5-C ,  8-H ) :   0.9249
B(  6-H , 28-Br) :   0.7570 B( 11-C , 12-C ) :   0.9232 B( 11-C , 13-H ) :   0.9330
B( 11-C , 14-H ) :   0.9010 B( 12-C , 15-C ) :   0.9704 B( 12-C , 16-H ) :   0.8813
B( 12-C , 17-H ) :   0.9312 B( 15-C , 18-C ) :   1.3520 B( 15-C , 21-C ) :   1.3933
B( 18-C , 19-C ) :   1.3963 B( 18-C , 27-Pd) :   0.8144 B( 19-C , 20-C ) :   1.4073
B( 19-C , 23-H ) :   0.8604 B( 20-C , 22-C ) :   1.4245 B( 20-C , 24-H ) :   0.9251
B( 21-C , 22-C ) :   1.4265 B( 21-C , 25-H ) :   0.9259 B( 22-C , 26-H ) :   0.9276
B( 27-Pd, 28-Br) :   0.2887 B( 27-Pd, 29-P ) :   0.6779 B( 27-Pd, 33-O ) :   0.1454
B( 29-P , 30-H ) :   0.9287 B( 29-P , 35-H ) :   0.9289 B( 29-P , 36-H ) :   0.9230
B( 31-C , 32-O ) :   1.6780 B( 31-C , 33-O ) :   1.7455 B( 31-C , 34-O ) :   0.9570
B( 34-O , 37-H ) :   0.7940

Dispersion correction           -0.031770031
FINAL SINGLE POINT ENERGY     -3847.559223873923
Dispersion correction            ... done

DIPOLE MOMENT
-------------
                                X             Y             Z
Electronic contribution:     -0.21527     -67.22820     -15.50558
Nuclear contribution   :      1.33337      66.25815      18.47144
                        -----------------------------------------
Total Dipole Moment    :      1.11810      -0.97006       2.96587
                        -----------------------------------------
Magnitude (a.u.)       :      3.31474
Magnitude (Debye)      :      8.42541

Rotational constants in cm-1:     0.007054     0.006536     0.004467
Rotational constants in MHz :   211.484322   195.952314   133.924034

                             ****ORCA TERMINATED NORMALLY****
TOTAL RUN TIME: 0 days 0 hours 13 minutes 37 seconds 7 msec
