                         Program Version 5.0.3 -  RELEASE  -
|  1> ! EnGrad PBEh-3c
|  2> %output
|  3> xyzfile=True
|  4> end
|  5> %scf
|  6> maxiter 250
|  7> end
|  8> %output
|  9> Print[P_Hirshfeld] = 1
| 10> end
| 11> % maxcore
| 12> 4000
| 13> *xyz -1 1
| 14> C   -2.16163286  -0.11798857   0.69548739
| 15> C   -1.85373996   1.03210453   1.41957111
| 16> C   -3.52914096  -0.44979938   0.68914157
| 17> C   -4.52550569   0.42942476   1.10131684
| 18> C   -4.17508646   1.63455839   1.69267274
| 19> C   -2.83719489   1.93986962   1.81670595
| 20> H   -1.90779872  -2.01264167  -1.61576846
| 21> H   -3.83453630  -1.38395285   0.24806676
| 22> H   -2.57115678   2.81509538   2.38918825
| 23> H   -5.56850903   0.16274520   0.98091406
| 24> H   -4.93539381   2.34541061   1.98244091
| 25> C   -0.43920379   1.48731319   1.68606967
| 26> C    0.67852731   0.46600849   1.91522806
| 27> H   -0.51847869   2.10399902   2.56763773
| 28> H   -0.09581956   2.18603500   0.92028586
| 29> C    1.71495325   0.59787257   0.85760379
| 30> H    0.27049790  -0.53321480   1.94047673
| 31> H    1.12488493   0.64852878   2.88999072
| 32> C    1.57732399  -0.05478374  -0.36706589
| 33> C    2.56723137   0.16869053  -1.32987592
| 34> C    3.59142196   1.09943944  -1.12087445
| 35> C    2.82019226   1.41442122   1.09866998
| 36> C    3.70297393   1.76493085   0.08935705
| 37> H    2.56684793  -0.34282938  -2.27972233
| 38> H    4.31865638   1.31785354  -1.89945321
| 39> H    2.95149310   1.86785487   2.07993317
| 40> H    4.52087746   2.45390886   0.28228316
| 41> Pd   0.06688162  -1.33015594  -0.53481049
| 42> Br  -1.78436804  -3.28744551  -0.84058325
| 43> P    1.44768456  -2.94642788  -0.01405112
| 44> H    1.04442450  -3.56441814   1.17933751
| 45> C    0.26975347  -1.37444162  -3.82584233
| 46> O    1.38473883  -1.75026198  -4.16945603
| 47> O   -0.59289066  -2.01907656  -3.12329855
| 48> O   -0.20759136  -0.14725348  -4.27175984
| 49> H    2.77343291  -2.74893313   0.34001895
| 50> H    1.57843177  -4.11305833  -0.76410999
| 51> H    0.55365990   0.24663629  -4.69775173
| 52> *
| 53>
| 54>                          ****END OF INPUT****

CARTESIAN COORDINATES (ANGSTROEM)
---------------------------------
  C     -2.161633   -0.117989    0.695487
  C     -1.853740    1.032105    1.419571
  C     -3.529141   -0.449799    0.689142
  C     -4.525506    0.429425    1.101317
  C     -4.175086    1.634558    1.692673
  C     -2.837195    1.939870    1.816706
  H     -1.907799   -2.012642   -1.615768
  H     -3.834536   -1.383953    0.248067
  H     -2.571157    2.815095    2.389188
  H     -5.568509    0.162745    0.980914
  H     -4.935394    2.345411    1.982441
  C     -0.439204    1.487313    1.686070
  C      0.678527    0.466008    1.915228
  H     -0.518479    2.103999    2.567638
  H     -0.095820    2.186035    0.920286
  C      1.714953    0.597873    0.857604
  H      0.270498   -0.533215    1.940477
  H      1.124885    0.648529    2.889991
  C      1.577324   -0.054784   -0.367066
  C      2.567231    0.168691   -1.329876
  C      3.591422    1.099439   -1.120874
  C      2.820192    1.414421    1.098670
  C      3.702974    1.764931    0.089357
  H      2.566848   -0.342829   -2.279722
  H      4.318656    1.317854   -1.899453
  H      2.951493    1.867855    2.079933
  H      4.520877    2.453909    0.282283
  Pd     0.066882   -1.330156   -0.534810
  Br    -1.784368   -3.287446   -0.840583
  P      1.447685   -2.946428   -0.014051
  H      1.044425   -3.564418    1.179338
  C      0.269753   -1.374442   -3.825842
  O      1.384739   -1.750262   -4.169456
  O     -0.592891   -2.019077   -3.123299
  O     -0.207591   -0.147253   -4.271760
  H      2.773433   -2.748933    0.340019
  H      1.578432   -4.113058   -0.764110
  H      0.553660    0.246636   -4.697752

 Total Charge           Charge          ....   -1
 Multiplicity           Mult            ....    1
 Number of Electrons    NEL             ....  200
 Basis Dimension        Dim             ....  385

ORBITAL ENERGIES
----------------

  NO   OCC          E(Eh)            E(eV)
   0   2.0000    -484.429154    -13181.9875
   1   2.0000     -77.683886     -2113.8860
   2   2.0000     -63.091714     -1716.8128
   3   2.0000     -56.795586     -1545.4865
   4   2.0000     -56.794277     -1545.4508
   5   2.0000     -56.793804     -1545.4380
   6   2.0000     -19.360108      -526.8153
   7   2.0000     -19.288873      -524.8769
   8   2.0000     -19.285464      -524.7841
   9   2.0000     -10.423167      -283.6288
  10   2.0000     -10.357920      -281.8533
  11   2.0000     -10.346844      -281.5519
  12   2.0000     -10.346770      -281.5499
  13   2.0000     -10.345409      -281.5129
  14   2.0000     -10.344144      -281.4785
  15   2.0000     -10.339148      -281.3425
  16   2.0000     -10.323966      -280.9294
  17   2.0000     -10.315157      -280.6897
  18   2.0000     -10.314952      -280.6841
  19   2.0000     -10.313860      -280.6544
  20   2.0000     -10.312537      -280.6184
  21   2.0000     -10.310935      -280.5748
  22   2.0000     -10.304971      -280.4125
  23   2.0000     -10.291402      -280.0433
  24   2.0000      -8.920471      -242.7384
  25   2.0000      -6.760730      -183.9688
  26   2.0000      -6.692857      -182.1219
  27   2.0000      -6.685418      -181.9195
  28   2.0000      -6.681648      -181.8169
  29   2.0000      -4.851661      -132.0204
  30   2.0000      -4.851321      -132.0112
  31   2.0000      -4.849985      -131.9748
  32   2.0000      -3.538961       -96.3000
  33   2.0000      -2.707245       -73.6679
  34   2.0000      -2.705353       -73.6164
  35   2.0000      -2.702134       -73.5288
  36   2.0000      -2.695866       -73.3582
  37   2.0000      -2.695545       -73.3495
  38   2.0000      -2.189549       -59.5807
  39   2.0000      -2.180238       -59.3273
  40   2.0000      -2.153545       -58.6009
  41   2.0000      -1.044311       -28.4171
  42   2.0000      -0.937607       -25.5136
  43   2.0000      -0.893334       -24.3089
  44   2.0000      -0.855673       -23.2840
  45   2.0000      -0.819985       -22.3129
  46   2.0000      -0.778800       -21.1922
  47   2.0000      -0.762410       -20.7462
  48   2.0000      -0.728874       -19.8337
  49   2.0000      -0.727545       -19.7975
  50   2.0000      -0.690857       -18.7992
  51   2.0000      -0.672925       -18.3112
  52   2.0000      -0.664852       -18.0915
  53   2.0000      -0.603022       -16.4091
  54   2.0000      -0.574440       -15.6313
  55   2.0000      -0.546226       -14.8636
  56   2.0000      -0.536865       -14.6088
  57   2.0000      -0.508728       -13.8432
  58   2.0000      -0.498540       -13.5660
  59   2.0000      -0.467941       -12.7333
  60   2.0000      -0.442665       -12.0455
  61   2.0000      -0.427103       -11.6221
  62   2.0000      -0.411719       -11.2034
  63   2.0000      -0.404054       -10.9949
  64   2.0000      -0.390277       -10.6200
  65   2.0000      -0.388341       -10.5673
  66   2.0000      -0.381137       -10.3713
  67   2.0000      -0.379026       -10.3138
  68   2.0000      -0.376956       -10.2575
  69   2.0000      -0.370211       -10.0740
  70   2.0000      -0.362284        -9.8583
  71   2.0000      -0.348768        -9.4905
  72   2.0000      -0.344035        -9.3617
  73   2.0000      -0.343010        -9.3338
  74   2.0000      -0.341902        -9.3036
  75   2.0000      -0.335109        -9.1188
  76   2.0000      -0.324307        -8.8248
  77   2.0000      -0.319662        -8.6985
  78   2.0000      -0.299368        -8.1462
  79   2.0000      -0.297118        -8.0850
  80   2.0000      -0.293046        -7.9742
  81   2.0000      -0.286900        -7.8070
  82   2.0000      -0.280912        -7.6440
  83   2.0000      -0.270012        -7.3474
  84   2.0000      -0.264381        -7.1942
  85   2.0000      -0.246539        -6.7087
  86   2.0000      -0.244349        -6.6491
  87   2.0000      -0.235680        -6.4132
  88   2.0000      -0.229828        -6.2539
  89   2.0000      -0.216828        -5.9002
  90   2.0000      -0.211515        -5.7556
  91   2.0000      -0.188815        -5.1379
  92   2.0000      -0.181753        -4.9458
  93   2.0000      -0.176604        -4.8057
  94   2.0000      -0.174751        -4.7552
  95   2.0000      -0.152571        -4.1517
  96   2.0000      -0.146890        -3.9971
  97   2.0000      -0.142781        -3.8853
  98   2.0000      -0.137959        -3.7541
  99   2.0000      -0.100552        -2.7362
 100   0.0000       0.051634         1.4050
 101   0.0000       0.114747         3.1224
 102   0.0000       0.124993         3.4012
 103   0.0000       0.135322         3.6823
 104   0.0000       0.146358         3.9826

MULLIKEN ATOMIC CHARGES
-----------------------
   0 C :   -0.120996
   1 C :    0.021434
   2 C :   -0.327196
   3 C :   -0.209122
   4 C :   -0.243771
   5 C :   -0.240613
   6 H :    0.354967
   7 H :    0.180398
   8 H :    0.158214
   9 H :    0.169123
  10 H :    0.169290
  11 C :   -0.464528
  12 C :   -0.520309
  13 H :    0.193996
  14 H :    0.251824
  15 C :    0.135335
  16 H :    0.277310
  17 H :    0.204540
  18 C :   -0.092621
  19 C :   -0.282953
  20 C :   -0.241132
  21 C :   -0.290491
  22 C :   -0.212569
  23 H :    0.270713
  24 H :    0.195890
  25 H :    0.183559
  26 H :    0.186415
  27 Pd:    0.062131
  28 Br:   -0.208326
  29 P :   -0.160525
  30 H :    0.110204
  31 C :    0.647265
  32 O :   -0.554760
  33 O :   -0.612173
  34 O :   -0.629039
  35 H :    0.112136
  36 H :    0.127345
  37 H :    0.399037
Sum of atomic charges:   -1.0000000

LOEWDIN ATOMIC CHARGES
----------------------
   0 C :   -0.166323
   1 C :   -0.071027
   2 C :   -0.162825
   3 C :   -0.168012
   4 C :   -0.173134
   5 C :   -0.160219
   6 H :    0.287280
   7 H :    0.113044
   8 H :    0.111909
   9 H :    0.112815
  10 H :    0.112655
  11 C :   -0.216136
  12 C :   -0.215407
  13 H :    0.118003
  14 H :    0.143405
  15 C :   -0.030780
  16 H :    0.164281
  17 H :    0.119038
  18 C :    0.006657
  19 C :   -0.122335
  20 C :   -0.150475
  21 C :   -0.145748
  22 C :   -0.156416
  23 H :    0.165544
  24 H :    0.125608
  25 H :    0.122655
  26 H :    0.122037
  27 Pd:   -0.790477
  28 Br:    0.062675
  29 P :    0.408510
  30 H :    0.050036
  31 C :    0.098509
  32 O :   -0.369657
  33 O :   -0.392441
  34 O :   -0.364845
  35 H :    0.049323
  36 H :    0.058357
  37 H :    0.303915

  Mayer bond orders larger than 0.100000
B(  0-C ,  1-C ) :   1.4520 B(  0-C ,  2-C ) :   1.4236 B(  0-C , 27-Pd) :   0.5255
B(  1-C ,  5-C ) :   1.3792 B(  1-C , 11-C ) :   0.9673 B(  2-C ,  3-C ) :   1.4331
B(  2-C ,  7-H ) :   0.9182 B(  3-C ,  4-C ) :   1.4247 B(  3-C ,  9-H ) :   0.9284
B(  4-C ,  5-C ) :   1.4504 B(  4-C , 10-H ) :   0.9294 B(  5-C ,  8-H ) :   0.9256
B(  6-H , 28-Br) :   0.7513 B( 11-C , 12-C ) :   0.9221 B( 11-C , 13-H ) :   0.9324
B( 11-C , 14-H ) :   0.9021 B( 12-C , 15-C ) :   0.9709 B( 12-C , 16-H ) :   0.8796
B( 12-C , 17-H ) :   0.9305 B( 15-C , 18-C ) :   1.3420 B( 15-C , 21-C ) :   1.4016
B( 18-C , 19-C ) :   1.4008 B( 18-C , 27-Pd) :   0.8407 B( 19-C , 20-C ) :   1.4062
B( 19-C , 23-H ) :   0.8701 B( 20-C , 22-C ) :   1.4298 B( 20-C , 24-H ) :   0.9252
B( 21-C , 22-C ) :   1.4227 B( 21-C , 25-H ) :   0.9262 B( 22-C , 26-H ) :   0.9273
B( 27-Pd, 28-Br) :   0.2613 B( 27-Pd, 29-P ) :   0.6892 B( 27-Pd, 33-O ) :   0.1975
B( 29-P , 30-H ) :   0.9288 B( 29-P , 35-H ) :   0.9287 B( 29-P , 36-H ) :   0.9236
B( 31-C , 32-O ) :   1.7926 B( 31-C , 33-O ) :   1.5271 B( 31-C , 34-O ) :   1.0087
B( 34-O , 37-H ) :   0.7919

Dispersion correction           -0.031715172
FINAL SINGLE POINT ENERGY     -3847.570585306411
Dispersion correction            ... done

DIPOLE MOMENT
-------------
                                X             Y             Z
Electronic contribution:      3.00292     -66.46439     -17.24504
Nuclear contribution   :     -1.46762      65.67300      19.71923
                        -----------------------------------------
Total Dipole Moment    :      1.53530      -0.79139       2.47418
                        -----------------------------------------
Magnitude (a.u.)       :      3.01745
Magnitude (Debye)      :      7.66976

Rotational constants in cm-1:     0.007047     0.006483     0.004450
Rotational constants in MHz :   211.267194   194.348407   133.418505

                             ****ORCA TERMINATED NORMALLY****
TOTAL RUN TIME: 0 days 0 hours 13 minutes 1 seconds 385 msec
