                         Program Version 5.0.3 -  RELEASE  -
|  1> ! EnGrad PBEh-3c
|  2> %output
|  3> xyzfile=True
|  4> end
|  5> %scf
|  6> maxiter 250
|  7> end
|  8> %output
|  9> Print[P_Hirshfeld] = 1
| 10> end
| 11> % maxcore
| 12> 4000
| 13> *xyz -1 1
| 14> C   -2.15323974  -0.12246085   0.69835627
| 15> C   -1.85116750   1.03936463   1.40794294
| 16> C   -3.52206790  -0.44638479   0.68283899
| 17> C   -4.52514384   0.42533405   1.10541150
| 18> C   -4.17865416   1.63711050   1.68422517
| 19> C   -2.84004571   1.93128989   1.82462259
| 20> H   -1.91130471  -2.01220331  -1.62309032
| 21> H   -3.83695687  -1.38897261   0.24504802
| 22> H   -2.56810189   2.82155155   2.38646587
| 23> H   -5.57082096   0.16251794   0.98003607
| 24> H   -4.93733272   2.34619293   1.98516059
| 25> C   -0.43994182   1.49469808   1.69209452
| 26> C    0.67712931   0.46665315   1.91764645
| 27> H   -0.51696962   2.10404546   2.57606888
| 28> H   -0.09787279   2.18833225   0.92061197
| 29> C    1.72170769   0.59480644   0.86148297
| 30> H    0.26949729  -0.53719648   1.94173933
| 31> H    1.12802650   0.64913553   2.89156435
| 32> C    1.58171841  -0.05549241  -0.36543304
| 33> C    2.56791204   0.17060586  -1.33223894
| 34> C    3.59017085   1.10219933  -1.12234921
| 35> C    2.81736291   1.42407399   1.09783189
| 36> C    3.70687072   1.75892225   0.09151892
| 37> H    2.56482475  -0.34548823  -2.28243807
| 38> H    4.31750787   1.31600562  -1.89975206
| 39> H    2.95144665   1.86556408   2.07989603
| 40> H    4.51983913   2.45449941   0.28175319
| 41> Pd   0.04830479  -1.32230210  -0.53458940
| 42> Br  -1.78455370  -3.29055203  -0.83937009
| 43> P    1.45030294  -2.94921669  -0.01279187
| 44> H    1.04482973  -3.56530402   1.18034682
| 45> C    0.26136015  -1.37565460  -3.83282394
| 46> O    1.38479115  -1.74689724  -4.16723699
| 47> O   -0.59438981  -2.01612712  -3.12113147
| 48> O   -0.20019423  -0.15628765  -4.26573931
| 49> H    2.78046993  -2.74874297   0.33888488
| 50> H    1.57863364  -4.11519350  -0.76810572
| 51> H    0.55258241   0.24705168  -4.69648897
| 52> *
| 53>
| 54>                          ****END OF INPUT****

CARTESIAN COORDINATES (ANGSTROEM)
---------------------------------
  C     -2.153240   -0.122461    0.698356
  C     -1.851167    1.039365    1.407943
  C     -3.522068   -0.446385    0.682839
  C     -4.525144    0.425334    1.105411
  C     -4.178654    1.637110    1.684225
  C     -2.840046    1.931290    1.824623
  H     -1.911305   -2.012203   -1.623090
  H     -3.836957   -1.388973    0.245048
  H     -2.568102    2.821552    2.386466
  H     -5.570821    0.162518    0.980036
  H     -4.937333    2.346193    1.985161
  C     -0.439942    1.494698    1.692095
  C      0.677129    0.466653    1.917646
  H     -0.516970    2.104045    2.576069
  H     -0.097873    2.188332    0.920612
  C      1.721708    0.594806    0.861483
  H      0.269497   -0.537196    1.941739
  H      1.128026    0.649136    2.891564
  C      1.581718   -0.055492   -0.365433
  C      2.567912    0.170606   -1.332239
  C      3.590171    1.102199   -1.122349
  C      2.817363    1.424074    1.097832
  C      3.706871    1.758922    0.091519
  H      2.564825   -0.345488   -2.282438
  H      4.317508    1.316006   -1.899752
  H      2.951447    1.865564    2.079896
  H      4.519839    2.454499    0.281753
  Pd     0.048305   -1.322302   -0.534589
  Br    -1.784554   -3.290552   -0.839370
  P      1.450303   -2.949217   -0.012792
  H      1.044830   -3.565304    1.180347
  C      0.261360   -1.375655   -3.832824
  O      1.384791   -1.746897   -4.167237
  O     -0.594390   -2.016127   -3.121131
  O     -0.200194   -0.156288   -4.265739
  H      2.780470   -2.748743    0.338885
  H      1.578634   -4.115194   -0.768106
  H      0.552582    0.247052   -4.696489

 Total Charge           Charge          ....   -1
 Multiplicity           Mult            ....    1
 Number of Electrons    NEL             ....  200
 Basis Dimension        Dim             ....  385

ORBITAL ENERGIES
----------------

  NO   OCC          E(Eh)            E(eV)
   0   2.0000    -484.428486    -13181.9693
   1   2.0000     -77.683949     -2113.8877
   2   2.0000     -63.090987     -1716.7930
   3   2.0000     -56.794876     -1545.4671
   4   2.0000     -56.793545     -1545.4309
   5   2.0000     -56.793070     -1545.4180
   6   2.0000     -19.361679      -526.8581
   7   2.0000     -19.286004      -524.7988
   8   2.0000     -19.284971      -524.7708
   9   2.0000     -10.422066      -283.5988
  10   2.0000     -10.357704      -281.8475
  11   2.0000     -10.346408      -281.5401
  12   2.0000     -10.346258      -281.5360
  13   2.0000     -10.344892      -281.4988
  14   2.0000     -10.343292      -281.4553
  15   2.0000     -10.338985      -281.3381
  16   2.0000     -10.324737      -280.9504
  17   2.0000     -10.315455      -280.6978
  18   2.0000     -10.315353      -280.6950
  19   2.0000     -10.314428      -280.6699
  20   2.0000     -10.312839      -280.6266
  21   2.0000     -10.311582      -280.5924
  22   2.0000     -10.306204      -280.4461
  23   2.0000     -10.291892      -280.0566
  24   2.0000      -8.919694      -242.7172
  25   2.0000      -6.760508      -183.9628
  26   2.0000      -6.692083      -182.1008
  27   2.0000      -6.684618      -181.8977
  28   2.0000      -6.680879      -181.7960
  29   2.0000      -4.851449      -132.0146
  30   2.0000      -4.851144      -132.0063
  31   2.0000      -4.849730      -131.9679
  32   2.0000      -3.536333       -96.2285
  33   2.0000      -2.706451       -73.6463
  34   2.0000      -2.704565       -73.5950
  35   2.0000      -2.701375       -73.5081
  36   2.0000      -2.695075       -73.3367
  37   2.0000      -2.694759       -73.3281
  38   2.0000      -2.187030       -59.5121
  39   2.0000      -2.177021       -59.2398
  40   2.0000      -2.151088       -58.5341
  41   2.0000      -1.048501       -28.5312
  42   2.0000      -0.936799       -25.4916
  43   2.0000      -0.892779       -24.2938
  44   2.0000      -0.855079       -23.2679
  45   2.0000      -0.819716       -22.3056
  46   2.0000      -0.777706       -21.1624
  47   2.0000      -0.760979       -20.7073
  48   2.0000      -0.728331       -19.8189
  49   2.0000      -0.727419       -19.7941
  50   2.0000      -0.690081       -18.7780
  51   2.0000      -0.672606       -18.3025
  52   2.0000      -0.663561       -18.0564
  53   2.0000      -0.602850       -16.4044
  54   2.0000      -0.573826       -15.6146
  55   2.0000      -0.545806       -14.8521
  56   2.0000      -0.535717       -14.5776
  57   2.0000      -0.508675       -13.8418
  58   2.0000      -0.505084       -13.7440
  59   2.0000      -0.467466       -12.7204
  60   2.0000      -0.441978       -12.0268
  61   2.0000      -0.426330       -11.6010
  62   2.0000      -0.411007       -11.1841
  63   2.0000      -0.403538       -10.9808
  64   2.0000      -0.389561       -10.6005
  65   2.0000      -0.388070       -10.5599
  66   2.0000      -0.380551       -10.3553
  67   2.0000      -0.378386       -10.2964
  68   2.0000      -0.376736       -10.2515
  69   2.0000      -0.369702       -10.0601
  70   2.0000      -0.361535        -9.8379
  71   2.0000      -0.347493        -9.4558
  72   2.0000      -0.344812        -9.3828
  73   2.0000      -0.342057        -9.3078
  74   2.0000      -0.340857        -9.2752
  75   2.0000      -0.333474        -9.0743
  76   2.0000      -0.323806        -8.8112
  77   2.0000      -0.319560        -8.6957
  78   2.0000      -0.298632        -8.1262
  79   2.0000      -0.296142        -8.0584
  80   2.0000      -0.291538        -7.9332
  81   2.0000      -0.286009        -7.7827
  82   2.0000      -0.280698        -7.6382
  83   2.0000      -0.269110        -7.3229
  84   2.0000      -0.262804        -7.1513
  85   2.0000      -0.246645        -6.7116
  86   2.0000      -0.242922        -6.6102
  87   2.0000      -0.233774        -6.3613
  88   2.0000      -0.227421        -6.1884
  89   2.0000      -0.215069        -5.8523
  90   2.0000      -0.211431        -5.7533
  91   2.0000      -0.187361        -5.0984
  92   2.0000      -0.181510        -4.9391
  93   2.0000      -0.176145        -4.7931
  94   2.0000      -0.174259        -4.7418
  95   2.0000      -0.152209        -4.1418
  96   2.0000      -0.146489        -3.9862
  97   2.0000      -0.142089        -3.8664
  98   2.0000      -0.136644        -3.7183
  99   2.0000      -0.101961        -2.7745
 100   0.0000       0.052301         1.4232
 101   0.0000       0.115016         3.1298
 102   0.0000       0.124933         3.3996
 103   0.0000       0.134709         3.6656
 104   0.0000       0.146782         3.9941

MULLIKEN ATOMIC CHARGES
-----------------------
   0 C :   -0.120017
   1 C :    0.029446
   2 C :   -0.330944
   3 C :   -0.210641
   4 C :   -0.240674
   5 C :   -0.246066
   6 H :    0.354930
   7 H :    0.179112
   8 H :    0.157895
   9 H :    0.169200
  10 H :    0.169815
  11 C :   -0.465700
  12 C :   -0.519613
  13 H :    0.195905
  14 H :    0.251078
  15 C :    0.132714
  16 H :    0.276574
  17 H :    0.202924
  18 C :   -0.091795
  19 C :   -0.285868
  20 C :   -0.240204
  21 C :   -0.287232
  22 C :   -0.213502
  23 H :    0.271915
  24 H :    0.195561
  25 H :    0.183796
  26 H :    0.186192
  27 Pd:    0.062377
  28 Br:   -0.209806
  29 P :   -0.159273
  30 H :    0.110372
  31 C :    0.646773
  32 O :   -0.562212
  33 O :   -0.612287
  34 O :   -0.620958
  35 H :    0.112099
  36 H :    0.127383
  37 H :    0.400733
Sum of atomic charges:   -1.0000000

LOEWDIN ATOMIC CHARGES
----------------------
   0 C :   -0.165205
   1 C :   -0.069626
   2 C :   -0.161542
   3 C :   -0.168748
   4 C :   -0.173060
   5 C :   -0.160115
   6 H :    0.289322
   7 H :    0.112741
   8 H :    0.111250
   9 H :    0.112952
  10 H :    0.112935
  11 C :   -0.216169
  12 C :   -0.214678
  13 H :    0.118586
  14 H :    0.143614
  15 C :   -0.031864
  16 H :    0.164438
  17 H :    0.118367
  18 C :    0.006960
  19 C :   -0.122651
  20 C :   -0.150655
  21 C :   -0.146146
  22 C :   -0.156428
  23 H :    0.165989
  24 H :    0.125658
  25 H :    0.122878
  26 H :    0.121880
  27 Pd:   -0.792774
  28 Br:    0.061229
  29 P :    0.405286
  30 H :    0.050302
  31 C :    0.092364
  32 O :   -0.377449
  33 O :   -0.391139
  34 O :   -0.352200
  35 H :    0.049611
  36 H :    0.058640
  37 H :    0.305447

  Mayer bond orders larger than 0.100000
B(  0-C ,  1-C ) :   1.4495 B(  0-C ,  2-C ) :   1.4249 B(  0-C , 27-Pd) :   0.5298
B(  1-C ,  5-C ) :   1.3812 B(  1-C , 11-C ) :   0.9639 B(  2-C ,  3-C ) :   1.4295
B(  2-C ,  7-H ) :   0.9185 B(  3-C ,  4-C ) :   1.4263 B(  3-C ,  9-H ) :   0.9285
B(  4-C ,  5-C ) :   1.4503 B(  4-C , 10-H ) :   0.9293 B(  5-C ,  8-H ) :   0.9260
B(  6-H , 28-Br) :   0.7481 B( 11-C , 12-C ) :   0.9235 B( 11-C , 13-H ) :   0.9328
B( 11-C , 14-H ) :   0.9026 B( 12-C , 15-C ) :   0.9705 B( 12-C , 16-H ) :   0.8798
B( 12-C , 17-H ) :   0.9304 B( 15-C , 18-C ) :   1.3436 B( 15-C , 21-C ) :   1.4024
B( 18-C , 19-C ) :   1.4013 B( 18-C , 27-Pd) :   0.8375 B( 19-C , 20-C ) :   1.4057
B( 19-C , 23-H ) :   0.8688 B( 20-C , 22-C ) :   1.4294 B( 20-C , 24-H ) :   0.9254
B( 21-C , 22-C ) :   1.4246 B( 21-C , 25-H ) :   0.9258 B( 22-C , 26-H ) :   0.9276
B( 27-Pd, 28-Br) :   0.2637 B( 27-Pd, 29-P ) :   0.6662 B( 27-Pd, 33-O ) :   0.1975
B( 29-P , 30-H ) :   0.9294 B( 29-P , 35-H ) :   0.9292 B( 29-P , 36-H ) :   0.9243
B( 31-C , 32-O ) :   1.7847 B( 31-C , 33-O ) :   1.5268 B( 31-C , 34-O ) :   1.0231
B( 34-O , 37-H ) :   0.7896

Dispersion correction           -0.031704461
FINAL SINGLE POINT ENERGY     -3847.575209879610
Dispersion correction            ... done

DIPOLE MOMENT
-------------
                                X             Y             Z
Electronic contribution:      1.95890     -66.00293     -17.27092
Nuclear contribution   :     -0.45482      65.24653      19.71744
                        -----------------------------------------
Total Dipole Moment    :      1.50408      -0.75640       2.44652
                        -----------------------------------------
Magnitude (a.u.)       :      2.96983
Magnitude (Debye)      :      7.54870

Rotational constants in cm-1:     0.007044     0.006488     0.004450
Rotational constants in MHz :   211.163501   194.504008   133.407869

                             ****ORCA TERMINATED NORMALLY****
TOTAL RUN TIME: 0 days 0 hours 14 minutes 9 seconds 18 msec
