                         Program Version 5.0.3 -  RELEASE  -
|  1> ! EnGrad PBEh-3c
|  2> %output
|  3> xyzfile=True
|  4> end
|  5> %scf
|  6> maxiter 250
|  7> end
|  8> %output
|  9> Print[P_Hirshfeld] = 1
| 10> end
| 11> % maxcore
| 12> 4000
| 13> *xyz -1 1
| 14> C   -2.15358021  -0.13180783   0.69365473
| 15> C   -1.85190442   1.03853176   1.39919367
| 16> C   -3.52965083  -0.44029404   0.67724504
| 17> C   -4.53511984   0.42126157   1.12113584
| 18> C   -4.18763504   1.63332365   1.69213090
| 19> C   -2.84715631   1.90483554   1.86162269
| 20> H   -1.95178287  -1.97879227  -1.57538358
| 21> H   -3.86026561  -1.40309393   0.28011318
| 22> H   -2.56871291   2.82698246   2.37823135
| 23> H   -5.58640647   0.16277471   1.00326573
| 24> H   -4.94109993   2.34009062   2.00743113
| 25> C   -0.44515416   1.50127975   1.67019103
| 26> C    0.67048457   0.46765230   1.90796489
| 27> H   -0.49717094   2.13415769   2.54560697
| 28> H   -0.12227358   2.17018830   0.86848346
| 29> C    1.73074551   0.58852183   0.86092011
| 30> H    0.26210829  -0.54109449   1.93435001
| 31> H    1.11834632   0.64660431   2.88414510
| 32> C    1.59562210  -0.04854900  -0.37318239
| 33> C    2.57973196   0.17181534  -1.33874361
| 34> C    3.59757200   1.10100645  -1.12393125
| 35> C    2.81774980   1.42302281   1.09530358
| 36> C    3.71787136   1.73959886   0.09653057
| 37> H    2.57977265  -0.35616479  -2.28371043
| 38> H    4.32559055   1.30845170  -1.89768013
| 39> H    2.94141029   1.86286562   2.07367438
| 40> H    4.51288788   2.45328393   0.28029841
| 41> Pd   0.06156160  -1.30457871  -0.55907582
| 42> Br  -1.78177380  -3.30582091  -0.84115567
| 43> P    1.44983836  -2.95750885   0.00520679
| 44> H    1.02826883  -3.56362559   1.19712510
| 45> C    0.26694343  -1.37894888  -3.84491224
| 46> O    1.40439827  -1.72816714  -4.16820211
| 47> O   -0.56622659  -1.98201592  -3.12203948
| 48> O   -0.17786819  -0.15828395  -4.27499081
| 49> H    2.77689008  -2.74939597   0.36138503
| 50> H    1.58699988  -4.11909358  -0.75785791
| 51> H    0.56419177   0.25433398  -4.72657128
| 52> *
| 53>
| 54>                          ****END OF INPUT****

CARTESIAN COORDINATES (ANGSTROEM)
---------------------------------
  C     -2.153580   -0.131808    0.693655
  C     -1.851904    1.038532    1.399194
  C     -3.529651   -0.440294    0.677245
  C     -4.535120    0.421262    1.121136
  C     -4.187635    1.633324    1.692131
  C     -2.847156    1.904836    1.861623
  H     -1.951783   -1.978792   -1.575384
  H     -3.860266   -1.403094    0.280113
  H     -2.568713    2.826982    2.378231
  H     -5.586406    0.162775    1.003266
  H     -4.941100    2.340091    2.007431
  C     -0.445154    1.501280    1.670191
  C      0.670485    0.467652    1.907965
  H     -0.497171    2.134158    2.545607
  H     -0.122274    2.170188    0.868483
  C      1.730746    0.588522    0.860920
  H      0.262108   -0.541094    1.934350
  H      1.118346    0.646604    2.884145
  C      1.595622   -0.048549   -0.373182
  C      2.579732    0.171815   -1.338744
  C      3.597572    1.101006   -1.123931
  C      2.817750    1.423023    1.095304
  C      3.717871    1.739599    0.096531
  H      2.579773   -0.356165   -2.283710
  H      4.325591    1.308452   -1.897680
  H      2.941410    1.862866    2.073674
  H      4.512888    2.453284    0.280298
  Pd     0.061562   -1.304579   -0.559076
  Br    -1.781774   -3.305821   -0.841156
  P      1.449838   -2.957509    0.005207
  H      1.028269   -3.563626    1.197125
  C      0.266943   -1.378949   -3.844912
  O      1.404398   -1.728167   -4.168202
  O     -0.566227   -1.982016   -3.122039
  O     -0.177868   -0.158284   -4.274991
  H      2.776890   -2.749396    0.361385
  H      1.587000   -4.119094   -0.757858
  H      0.564192    0.254334   -4.726571

 Total Charge           Charge          ....   -1
 Multiplicity           Mult            ....    1
 Number of Electrons    NEL             ....  200
 Basis Dimension        Dim             ....  385

ORBITAL ENERGIES
----------------

  NO   OCC          E(Eh)            E(eV)
   0   2.0000    -484.430111    -13182.0135
   1   2.0000     -77.684912     -2113.9139
   2   2.0000     -63.092406     -1716.8316
   3   2.0000     -56.796366     -1545.5077
   4   2.0000     -56.794923     -1545.4684
   5   2.0000     -56.794477     -1545.4563
   6   2.0000     -19.355500      -526.6899
   7   2.0000     -19.283249      -524.7239
   8   2.0000     -19.278135      -524.5847
   9   2.0000     -10.415594      -283.4227
  10   2.0000     -10.358437      -281.8674
  11   2.0000     -10.346913      -281.5538
  12   2.0000     -10.345847      -281.5248
  13   2.0000     -10.344390      -281.4852
  14   2.0000     -10.342727      -281.4399
  15   2.0000     -10.338635      -281.3286
  16   2.0000     -10.326627      -281.0018
  17   2.0000     -10.316888      -280.7368
  18   2.0000     -10.315117      -280.6886
  19   2.0000     -10.314498      -280.6718
  20   2.0000     -10.313371      -280.6411
  21   2.0000     -10.312224      -280.6099
  22   2.0000     -10.307376      -280.4780
  23   2.0000     -10.292415      -280.0708
  24   2.0000      -8.920924      -242.7507
  25   2.0000      -6.761422      -183.9876
  26   2.0000      -6.693540      -182.1405
  27   2.0000      -6.685621      -181.9250
  28   2.0000      -6.682040      -181.8276
  29   2.0000      -4.852370      -132.0397
  30   2.0000      -4.852060      -132.0313
  31   2.0000      -4.850635      -131.9925
  32   2.0000      -3.535444       -96.2043
  33   2.0000      -2.707796       -73.6829
  34   2.0000      -2.705819       -73.6291
  35   2.0000      -2.702774       -73.5462
  36   2.0000      -2.696056       -73.3634
  37   2.0000      -2.695771       -73.3557
  38   2.0000      -2.186791       -59.5056
  39   2.0000      -2.175406       -59.1958
  40   2.0000      -2.150411       -58.5157
  41   2.0000      -1.046959       -28.4892
  42   2.0000      -0.932280       -25.3686
  43   2.0000      -0.897346       -24.4180
  44   2.0000      -0.856841       -23.3158
  45   2.0000      -0.818950       -22.2848
  46   2.0000      -0.777748       -21.1636
  47   2.0000      -0.759404       -20.6644
  48   2.0000      -0.729727       -19.8569
  49   2.0000      -0.728124       -19.8133
  50   2.0000      -0.688766       -18.7423
  51   2.0000      -0.672684       -18.3047
  52   2.0000      -0.664050       -18.0697
  53   2.0000      -0.603196       -16.4138
  54   2.0000      -0.574877       -15.6432
  55   2.0000      -0.546810       -14.8795
  56   2.0000      -0.534788       -14.5523
  57   2.0000      -0.508277       -13.8309
  58   2.0000      -0.502953       -13.6861
  59   2.0000      -0.468869       -12.7586
  60   2.0000      -0.441624       -12.0172
  61   2.0000      -0.427196       -11.6246
  62   2.0000      -0.410535       -11.1712
  63   2.0000      -0.401474       -10.9247
  64   2.0000      -0.389680       -10.6037
  65   2.0000      -0.388437       -10.5699
  66   2.0000      -0.382410       -10.4059
  67   2.0000      -0.378703       -10.3050
  68   2.0000      -0.370917       -10.0932
  69   2.0000      -0.369350       -10.0505
  70   2.0000      -0.361052        -9.8247
  71   2.0000      -0.347193        -9.4476
  72   2.0000      -0.344792        -9.3823
  73   2.0000      -0.340809        -9.2739
  74   2.0000      -0.339850        -9.2478
  75   2.0000      -0.332576        -9.0499
  76   2.0000      -0.324865        -8.8400
  77   2.0000      -0.320139        -8.7114
  78   2.0000      -0.298636        -8.1263
  79   2.0000      -0.295413        -8.0386
  80   2.0000      -0.290630        -7.9084
  81   2.0000      -0.284736        -7.7480
  82   2.0000      -0.280925        -7.6443
  83   2.0000      -0.268771        -7.3136
  84   2.0000      -0.262530        -7.1438
  85   2.0000      -0.246937        -6.7195
  86   2.0000      -0.242076        -6.5872
  87   2.0000      -0.234088        -6.3698
  88   2.0000      -0.226610        -6.1664
  89   2.0000      -0.215835        -5.8732
  90   2.0000      -0.208529        -5.6744
  91   2.0000      -0.186034        -5.0622
  92   2.0000      -0.181747        -4.9456
  93   2.0000      -0.175490        -4.7753
  94   2.0000      -0.172314        -4.6889
  95   2.0000      -0.151280        -4.1165
  96   2.0000      -0.145798        -3.9674
  97   2.0000      -0.141508        -3.8506
  98   2.0000      -0.133975        -3.6456
  99   2.0000      -0.102966        -2.8019
 100   0.0000       0.050779         1.3818
 101   0.0000       0.114203         3.1076
 102   0.0000       0.123048         3.3483
 103   0.0000       0.129412         3.5215
 104   0.0000       0.146552         3.9879

MULLIKEN ATOMIC CHARGES
-----------------------
   0 C :   -0.123408
   1 C :    0.035262
   2 C :   -0.335227
   3 C :   -0.211537
   4 C :   -0.235083
   5 C :   -0.254860
   6 H :    0.351981
   7 H :    0.175959
   8 H :    0.159453
   9 H :    0.168755
  10 H :    0.170148
  11 C :   -0.470122
  12 C :   -0.520326
  13 H :    0.196861
  14 H :    0.252235
  15 C :    0.133045
  16 H :    0.276301
  17 H :    0.202640
  18 C :   -0.093711
  19 C :   -0.283301
  20 C :   -0.239779
  21 C :   -0.283706
  22 C :   -0.215121
  23 H :    0.277189
  24 H :    0.196267
  25 H :    0.184290
  26 H :    0.186779
  27 Pd:    0.071928
  28 Br:   -0.208780
  29 P :   -0.162134
  30 H :    0.111614
  31 C :    0.639584
  32 O :   -0.576133
  33 O :   -0.592562
  34 O :   -0.623829
  35 H :    0.112695
  36 H :    0.128070
  37 H :    0.398561
Sum of atomic charges:   -1.0000000

LOEWDIN ATOMIC CHARGES
----------------------
   0 C :   -0.170047
   1 C :   -0.070327
   2 C :   -0.162524
   3 C :   -0.169881
   4 C :   -0.173630
   5 C :   -0.160535
   6 H :    0.291484
   7 H :    0.111274
   8 H :    0.110618
   9 H :    0.112854
  10 H :    0.113097
  11 C :   -0.215109
  12 C :   -0.213844
  13 H :    0.118444
  14 H :    0.144604
  15 C :   -0.032387
  16 H :    0.164535
  17 H :    0.118054
  18 C :    0.012085
  19 C :   -0.120939
  20 C :   -0.149511
  21 C :   -0.145703
  22 C :   -0.155832
  23 H :    0.168783
  24 H :    0.126211
  25 H :    0.123365
  26 H :    0.122080
  27 Pd:   -0.782150
  28 Br:    0.052274
  29 P :    0.399190
  30 H :    0.051375
  31 C :    0.074041
  32 O :   -0.390877
  33 O :   -0.362401
  34 O :   -0.353245
  35 H :    0.050221
  36 H :    0.059715
  37 H :    0.304638

  Mayer bond orders larger than 0.100000
B(  0-C ,  1-C ) :   1.4509 B(  0-C ,  2-C ) :   1.4226 B(  0-C , 27-Pd) :   0.5238
B(  1-C ,  5-C ) :   1.3829 B(  1-C , 11-C ) :   0.9589 B(  2-C ,  3-C ) :   1.4287
B(  2-C ,  7-H ) :   0.9196 B(  3-C ,  4-C ) :   1.4266 B(  3-C ,  9-H ) :   0.9286
B(  4-C ,  5-C ) :   1.4532 B(  4-C , 10-H ) :   0.9290 B(  5-C ,  8-H ) :   0.9256
B(  6-H , 28-Br) :   0.7635 B( 11-C , 12-C ) :   0.9231 B( 11-C , 13-H ) :   0.9343
B( 11-C , 14-H ) :   0.9018 B( 12-C , 15-C ) :   0.9698 B( 12-C , 16-H ) :   0.8799
B( 12-C , 17-H ) :   0.9297 B( 15-C , 18-C ) :   1.3417 B( 15-C , 21-C ) :   1.4064
B( 18-C , 19-C ) :   1.4054 B( 18-C , 27-Pd) :   0.8483 B( 19-C , 20-C ) :   1.4039
B( 19-C , 23-H ) :   0.8645 B( 20-C , 22-C ) :   1.4309 B( 20-C , 24-H ) :   0.9253
B( 21-C , 22-C ) :   1.4245 B( 21-C , 25-H ) :   0.9253 B( 22-C , 26-H ) :   0.9278
B( 27-Pd, 28-Br) :   0.2466 B( 27-Pd, 29-P ) :   0.6430 B( 27-Pd, 33-O ) :   0.2050
B( 29-P , 30-H ) :   0.9299 B( 29-P , 35-H ) :   0.9301 B( 29-P , 36-H ) :   0.9255
B( 31-C , 32-O ) :   1.7684 B( 31-C , 33-O ) :   1.5654 B( 31-C , 34-O ) :   1.0183
B( 34-O , 37-H ) :   0.7907

Dispersion correction           -0.031672287
FINAL SINGLE POINT ENERGY     -3847.576197011432
Dispersion correction            ... done

DIPOLE MOMENT
-------------
                                X             Y             Z
Electronic contribution:      2.58162     -65.07964     -18.54593
Nuclear contribution   :     -1.08758      64.30179      21.04646
                        -----------------------------------------
Total Dipole Moment    :      1.49404      -0.77785       2.50053
                        -----------------------------------------
Magnitude (a.u.)       :      3.01494
Magnitude (Debye)      :      7.66337

Rotational constants in cm-1:     0.007045     0.006452     0.004438
Rotational constants in MHz :   211.207534   193.423664   133.044844

                             ****ORCA TERMINATED NORMALLY****
TOTAL RUN TIME: 0 days 0 hours 23 minutes 39 seconds 543 msec
