                         Program Version 5.0.3 -  RELEASE  -
|  1> ! EnGrad PBEh-3c
|  2> %output
|  3> xyzfile=True
|  4> end
|  5> %scf
|  6> maxiter 250
|  7> end
|  8> %output
|  9> Print[P_Hirshfeld] = 1
| 10> end
| 11> % maxcore
| 12> 4000
| 13> *xyz -1 1
| 14> C   -2.15444249  -0.13759749   0.69295151
| 15> C   -1.85555239   1.03450724   1.38784692
| 16> C   -3.53513356  -0.44735131   0.68001447
| 17> C   -4.54329977   0.41461995   1.13986240
| 18> C   -4.19252877   1.62796043   1.70134586
| 19> C   -2.84932284   1.89221407   1.88340748
| 20> H   -1.93790180  -1.97951717  -1.50339689
| 21> H   -3.87527422  -1.40881573   0.29305606
| 22> H   -2.56555563   2.81929616   2.38945388
| 23> H   -5.59453490   0.15669962   1.03090818
| 24> H   -4.94286134   2.33940299   2.02083935
| 25> C   -0.44720215   1.50742124   1.64520307
| 26> C    0.66103705   0.46576054   1.89650672
| 27> H   -0.48710873   2.16235108   2.50631263
| 28> H   -0.12938260   2.14982620   0.81664320
| 29> C    1.73231365   0.57994552   0.85866835
| 30> H    0.25078712  -0.54225842   1.92531670
| 31> H    1.10360791   0.64936314   2.87694590
| 32> C    1.60591039  -0.05472150  -0.37474625
| 33> C    2.58636638   0.16433718  -1.34698567
| 34> C    3.60279084   1.09717423  -1.12274616
| 35> C    2.81287439   1.42478833   1.09083047
| 36> C    3.72271135   1.72532109   0.09771052
| 37> H    2.58632723  -0.36303003  -2.28830045
| 38> H    4.32985038   1.30247418  -1.89746631
| 39> H    2.92554162   1.86857587   2.06809115
| 40> H    4.51506036   2.44256115   0.28315508
| 41> Pd   0.06591106  -1.29779682  -0.57136618
| 42> Br  -1.79599603  -3.28031638  -0.85922143
| 43> P    1.44941597  -2.95769482   0.01806993
| 44> H    1.01068918  -3.55991966   1.20810727
| 45> C    0.28101926  -1.37422045  -3.84688064
| 46> O    1.40961585  -1.71175827  -4.17009338
| 47> O   -0.54602351  -1.94653538  -3.11319154
| 48> O   -0.16034037  -0.14847948  -4.29173384
| 49> H    2.77625266  -2.74631733   0.38526061
| 50> H    1.59131609  -4.12123068  -0.74634800
| 51> H    0.57633435   0.25495983  -4.75609256
| 52> *
| 53>
| 54>                          ****END OF INPUT****

CARTESIAN COORDINATES (ANGSTROEM)
---------------------------------
  C     -2.154442   -0.137597    0.692952
  C     -1.855552    1.034507    1.387847
  C     -3.535134   -0.447351    0.680014
  C     -4.543300    0.414620    1.139862
  C     -4.192529    1.627960    1.701346
  C     -2.849323    1.892214    1.883407
  H     -1.937902   -1.979517   -1.503397
  H     -3.875274   -1.408816    0.293056
  H     -2.565556    2.819296    2.389454
  H     -5.594535    0.156700    1.030908
  H     -4.942861    2.339403    2.020839
  C     -0.447202    1.507421    1.645203
  C      0.661037    0.465761    1.896507
  H     -0.487109    2.162351    2.506313
  H     -0.129383    2.149826    0.816643
  C      1.732314    0.579946    0.858668
  H      0.250787   -0.542258    1.925317
  H      1.103608    0.649363    2.876946
  C      1.605910   -0.054721   -0.374746
  C      2.586366    0.164337   -1.346986
  C      3.602791    1.097174   -1.122746
  C      2.812874    1.424788    1.090830
  C      3.722711    1.725321    0.097711
  H      2.586327   -0.363030   -2.288300
  H      4.329850    1.302474   -1.897466
  H      2.925542    1.868576    2.068091
  H      4.515060    2.442561    0.283155
  Pd     0.065911   -1.297797   -0.571366
  Br    -1.795996   -3.280316   -0.859221
  P      1.449416   -2.957695    0.018070
  H      1.010689   -3.559920    1.208107
  C      0.281019   -1.374220   -3.846881
  O      1.409616   -1.711758   -4.170093
  O     -0.546024   -1.946535   -3.113192
  O     -0.160340   -0.148479   -4.291734
  H      2.776253   -2.746317    0.385261
  H      1.591316   -4.121231   -0.746348
  H      0.576334    0.254960   -4.756093

 Total Charge           Charge          ....   -1
 Multiplicity           Mult            ....    1
 Number of Electrons    NEL             ....  200
 Basis Dimension        Dim             ....  385

ORBITAL ENERGIES
----------------

  NO   OCC          E(Eh)            E(eV)
   0   2.0000    -484.430738    -13182.0305
   1   2.0000     -77.686218     -2113.9495
   2   2.0000     -63.093621     -1716.8647
   3   2.0000     -56.797466     -1545.5376
   4   2.0000     -56.796147     -1545.5017
   5   2.0000     -56.795741     -1545.4907
   6   2.0000     -19.347857      -526.4819
   7   2.0000     -19.280201      -524.6409
   8   2.0000     -19.275844      -524.5224
   9   2.0000     -10.410868      -283.2941
  10   2.0000     -10.359502      -281.8964
  11   2.0000     -10.347382      -281.5666
  12   2.0000     -10.345887      -281.5259
  13   2.0000     -10.344685      -281.4932
  14   2.0000     -10.343167      -281.4519
  15   2.0000     -10.339490      -281.3518
  16   2.0000     -10.327262      -281.0191
  17   2.0000     -10.317431      -280.7516
  18   2.0000     -10.315380      -280.6958
  19   2.0000     -10.314752      -280.6787
  20   2.0000     -10.313311      -280.6394
  21   2.0000     -10.312606      -280.6203
  22   2.0000     -10.308467      -280.5076
  23   2.0000     -10.291678      -280.0508
  24   2.0000      -8.922629      -242.7971
  25   2.0000      -6.762507      -184.0172
  26   2.0000      -6.695429      -182.1919
  27   2.0000      -6.687256      -181.9695
  28   2.0000      -6.683749      -181.8741
  29   2.0000      -4.853454      -132.0692
  30   2.0000      -4.853155      -132.0610
  31   2.0000      -4.851735      -132.0224
  32   2.0000      -3.535079       -96.1944
  33   2.0000      -2.709789       -73.7371
  34   2.0000      -2.707546       -73.6761
  35   2.0000      -2.704557       -73.5947
  36   2.0000      -2.697712       -73.4085
  37   2.0000      -2.697449       -73.4013
  38   2.0000      -2.186971       -59.5105
  39   2.0000      -2.174675       -59.1759
  40   2.0000      -2.150124       -58.5078
  41   2.0000      -1.044609       -28.4252
  42   2.0000      -0.930540       -25.3213
  43   2.0000      -0.901864       -24.5410
  44   2.0000      -0.857646       -23.3377
  45   2.0000      -0.817647       -22.2493
  46   2.0000      -0.777707       -21.1625
  47   2.0000      -0.768396       -20.9091
  48   2.0000      -0.730229       -19.8706
  49   2.0000      -0.727967       -19.8090
  50   2.0000      -0.687446       -18.7064
  51   2.0000      -0.672565       -18.3014
  52   2.0000      -0.664086       -18.0707
  53   2.0000      -0.602847       -16.4043
  54   2.0000      -0.575903       -15.6711
  55   2.0000      -0.546950       -14.8833
  56   2.0000      -0.535230       -14.5644
  57   2.0000      -0.507273       -13.8036
  58   2.0000      -0.496820       -13.5192
  59   2.0000      -0.469552       -12.7772
  60   2.0000      -0.441150       -12.0043
  61   2.0000      -0.427433       -11.6311
  62   2.0000      -0.411532       -11.1984
  63   2.0000      -0.405043       -11.0218
  64   2.0000      -0.390527       -10.6268
  65   2.0000      -0.388822       -10.5804
  66   2.0000      -0.383020       -10.4225
  67   2.0000      -0.378896       -10.3103
  68   2.0000      -0.369965       -10.0673
  69   2.0000      -0.367748       -10.0069
  70   2.0000      -0.360842        -9.8190
  71   2.0000      -0.348282        -9.4772
  72   2.0000      -0.344656        -9.3786
  73   2.0000      -0.342290        -9.3142
  74   2.0000      -0.339824        -9.2471
  75   2.0000      -0.332058        -9.0357
  76   2.0000      -0.324787        -8.8379
  77   2.0000      -0.319901        -8.7050
  78   2.0000      -0.298388        -8.1196
  79   2.0000      -0.296047        -8.0558
  80   2.0000      -0.291873        -7.9423
  81   2.0000      -0.285459        -7.7677
  82   2.0000      -0.280996        -7.6463
  83   2.0000      -0.268591        -7.3087
  84   2.0000      -0.262631        -7.1465
  85   2.0000      -0.247495        -6.7347
  86   2.0000      -0.242826        -6.6076
  87   2.0000      -0.234638        -6.3848
  88   2.0000      -0.226266        -6.1570
  89   2.0000      -0.216719        -5.8972
  90   2.0000      -0.206042        -5.6067
  91   2.0000      -0.185838        -5.0569
  92   2.0000      -0.181847        -4.9483
  93   2.0000      -0.176227        -4.7954
  94   2.0000      -0.170128        -4.6294
  95   2.0000      -0.150023        -4.0823
  96   2.0000      -0.145518        -3.9597
  97   2.0000      -0.141298        -3.8449
  98   2.0000      -0.133323        -3.6279
  99   2.0000      -0.103099        -2.8055
 100   0.0000       0.050618         1.3774
 101   0.0000       0.114777         3.1232
 102   0.0000       0.123886         3.3711
 103   0.0000       0.137680         3.7465
 104   0.0000       0.146167         3.9774

MULLIKEN ATOMIC CHARGES
-----------------------
   0 C :   -0.128623
   1 C :    0.038642
   2 C :   -0.334972
   3 C :   -0.213281
   4 C :   -0.233209
   5 C :   -0.259506
   6 H :    0.352953
   7 H :    0.175036
   8 H :    0.160980
   9 H :    0.169060
  10 H :    0.169565
  11 C :   -0.471889
  12 C :   -0.520037
  13 H :    0.197270
  14 H :    0.252693
  15 C :    0.135934
  16 H :    0.276709
  17 H :    0.201572
  18 C :   -0.097808
  19 C :   -0.278680
  20 C :   -0.241890
  21 C :   -0.282715
  22 C :   -0.212655
  23 H :    0.280141
  24 H :    0.196466
  25 H :    0.184836
  26 H :    0.186547
  27 Pd:    0.068458
  28 Br:   -0.199472
  29 P :   -0.162827
  30 H :    0.111651
  31 C :    0.632981
  32 O :   -0.570383
  33 O :   -0.585970
  34 O :   -0.632791
  35 H :    0.113238
  36 H :    0.126885
  37 H :    0.395093
Sum of atomic charges:   -1.0000000

LOEWDIN ATOMIC CHARGES
----------------------
   0 C :   -0.175082
   1 C :   -0.070137
   2 C :   -0.161889
   3 C :   -0.171010
   4 C :   -0.173126
   5 C :   -0.161823
   6 H :    0.276084
   7 H :    0.110704
   8 H :    0.110776
   9 H :    0.112922
  10 H :    0.112782
  11 C :   -0.214354
  12 C :   -0.213634
  13 H :    0.118031
  14 H :    0.145167
  15 C :   -0.032952
  16 H :    0.164738
  17 H :    0.117755
  18 C :    0.014997
  19 C :   -0.119196
  20 C :   -0.148513
  21 C :   -0.144603
  22 C :   -0.155881
  23 H :    0.169958
  24 H :    0.126424
  25 H :    0.123705
  26 H :    0.122315
  27 Pd:   -0.779332
  28 Br:    0.067808
  29 P :    0.396509
  30 H :    0.051803
  31 C :    0.062432
  32 O :   -0.381604
  33 O :   -0.349669
  34 O :   -0.363997
  35 H :    0.051063
  36 H :    0.059519
  37 H :    0.301306

  Mayer bond orders larger than 0.100000
B(  0-C ,  1-C ) :   1.4573 B(  0-C ,  2-C ) :   1.4185 B(  0-C , 27-Pd) :   0.5181
B(  1-C ,  5-C ) :   1.3813 B(  1-C , 11-C ) :   0.9559 B(  2-C ,  3-C ) :   1.4279
B(  2-C ,  7-H ) :   0.9200 B(  3-C ,  4-C ) :   1.4278 B(  3-C ,  9-H ) :   0.9285
B(  4-C ,  5-C ) :   1.4527 B(  4-C , 10-H ) :   0.9290 B(  5-C ,  8-H ) :   0.9250
B(  6-H , 28-Br) :   0.7774 B( 11-C , 12-C ) :   0.9218 B( 11-C , 13-H ) :   0.9345
B( 11-C , 14-H ) :   0.9016 B( 12-C , 15-C ) :   0.9697 B( 12-C , 16-H ) :   0.8794
B( 12-C , 17-H ) :   0.9295 B( 15-C , 18-C ) :   1.3416 B( 15-C , 21-C ) :   1.4060
B( 18-C , 19-C ) :   1.4079 B( 18-C , 27-Pd) :   0.8516 B( 19-C , 20-C ) :   1.4025
B( 19-C , 23-H ) :   0.8628 B( 20-C , 22-C ) :   1.4315 B( 20-C , 24-H ) :   0.9252
B( 21-C , 22-C ) :   1.4237 B( 21-C , 25-H ) :   0.9248 B( 22-C , 26-H ) :   0.9280
B( 27-Pd, 28-Br) :   0.2452 B( 27-Pd, 29-P ) :   0.6327 B( 27-Pd, 33-O ) :   0.2155
B( 29-P , 30-H ) :   0.9300 B( 29-P , 35-H ) :   0.9306 B( 29-P , 36-H ) :   0.9257
B( 31-C , 32-O ) :   1.7783 B( 31-C , 33-O ) :   1.5826 B( 31-C , 34-O ) :   1.0036
B( 34-O , 37-H ) :   0.7938

Dispersion correction           -0.031706189
FINAL SINGLE POINT ENERGY     -3847.577821945435
Dispersion correction            ... done

DIPOLE MOMENT
-------------
                                X             Y             Z
Electronic contribution:      2.79880     -64.83247     -19.16258
Nuclear contribution   :     -1.27987      63.96809      21.71343
                        -----------------------------------------
Total Dipole Moment    :      1.51892      -0.86439       2.55086
                        -----------------------------------------
Magnitude (a.u.)       :      3.09211
Magnitude (Debye)      :      7.85953

Rotational constants in cm-1:     0.007086     0.006435     0.004440
Rotational constants in MHz :   212.420228   192.901863   133.095197

                             ****ORCA TERMINATED NORMALLY****
TOTAL RUN TIME: 0 days 0 hours 21 minutes 44 seconds 292 msec
