                         Program Version 5.0.3 -  RELEASE  -
|  1> ! EnGrad PBEh-3c
|  2> %output
|  3> xyzfile=True
|  4> end
|  5> %scf
|  6> maxiter 250
|  7> end
|  8> %output
|  9> Print[P_Hirshfeld] = 1
| 10> end
| 11> % maxcore
| 12> 4000
| 13> *xyz -1 1
| 14> C   -2.16021912  -0.15093940   0.68410098
| 15> C   -1.86328569   1.03302823   1.37637315
| 16> C   -3.54852066  -0.45982871   0.68534312
| 17> C   -4.55327251   0.39585186   1.17120331
| 18> C   -4.20055115   1.61657295   1.72679012
| 19> C   -2.85274004   1.86876353   1.92216632
| 20> H   -1.92499571  -1.96895107  -1.36064760
| 21> H   -3.90527877  -1.41950619   0.32077820
| 22> H   -2.56010449   2.80032852   2.40878002
| 23> H   -5.60999763   0.14386037   1.08671965
| 24> H   -4.94692477   2.33649524   2.05068354
| 25> C   -0.44952803   1.51767665   1.58840431
| 26> C    0.64318144   0.46401444   1.87591519
| 27> H   -0.46448631   2.22308195   2.42720624
| 28> H   -0.14765876   2.10614434   0.71148617
| 29> C    1.73501156   0.56454415   0.85550367
| 30> H    0.22649539  -0.54379253   1.90743390
| 31> H    1.07351064   0.65382911   2.86223674
| 32> C    1.62708339  -0.06947651  -0.37983937
| 33> C    2.59876417   0.15341816  -1.35870647
| 34> C    3.61286779   1.08206507  -1.12659844
| 35> C    2.80141151   1.42545147   1.08358550
| 36> C    3.73472131   1.70121188   0.10298838
| 37> H    2.59862335  -0.37962597  -2.30102323
| 38> H    4.34001474   1.28982584  -1.89837586
| 39> H    2.89372744   1.88139456   2.05916775
| 40> H    4.51884277   2.42088992   0.28842818
| 41> Pd   0.07363575  -1.27984502  -0.60084622
| 42> Br  -1.82559565  -3.24517967  -0.88548935
| 43> P    1.44698696  -2.95637021   0.04400748
| 44> H    0.97572572  -3.55379105   1.23226848
| 45> C    0.29960133  -1.34662904  -3.84297340
| 46> O    1.44618087  -1.68940231  -4.18320645
| 47> O   -0.50768997  -1.88184374  -3.09045029
| 48> O   -0.12887240  -0.12365332  -4.32945363
| 49> H    2.77744107  -2.74139961   0.43513042
| 50> H    1.60157507  -4.12627574  -0.72289854
| 51> H    0.60292569   0.25663957  -4.81842508
| 52> *
| 53>
| 54>                          ****END OF INPUT****

CARTESIAN COORDINATES (ANGSTROEM)
---------------------------------
  C     -2.160219   -0.150939    0.684101
  C     -1.863286    1.033028    1.376373
  C     -3.548521   -0.459829    0.685343
  C     -4.553273    0.395852    1.171203
  C     -4.200551    1.616573    1.726790
  C     -2.852740    1.868764    1.922166
  H     -1.924996   -1.968951   -1.360648
  H     -3.905279   -1.419506    0.320778
  H     -2.560104    2.800329    2.408780
  H     -5.609998    0.143860    1.086720
  H     -4.946925    2.336495    2.050684
  C     -0.449528    1.517677    1.588404
  C      0.643181    0.464014    1.875915
  H     -0.464486    2.223082    2.427206
  H     -0.147659    2.106144    0.711486
  C      1.735012    0.564544    0.855504
  H      0.226495   -0.543793    1.907434
  H      1.073511    0.653829    2.862237
  C      1.627083   -0.069477   -0.379839
  C      2.598764    0.153418   -1.358706
  C      3.612868    1.082065   -1.126598
  C      2.801412    1.425451    1.083585
  C      3.734721    1.701212    0.102988
  H      2.598623   -0.379626   -2.301023
  H      4.340015    1.289826   -1.898376
  H      2.893727    1.881395    2.059168
  H      4.518843    2.420890    0.288428
  Pd     0.073636   -1.279845   -0.600846
  Br    -1.825596   -3.245180   -0.885489
  P      1.446987   -2.956370    0.044007
  H      0.975726   -3.553791    1.232268
  C      0.299601   -1.346629   -3.842973
  O      1.446181   -1.689402   -4.183206
  O     -0.507690   -1.881844   -3.090450
  O     -0.128872   -0.123653   -4.329454
  H      2.777441   -2.741400    0.435130
  H      1.601575   -4.126276   -0.722899
  H      0.602926    0.256640   -4.818425

 Total Charge           Charge          ....   -1
 Multiplicity           Mult            ....    1
 Number of Electrons    NEL             ....  200
 Basis Dimension        Dim             ....  385

ORBITAL ENERGIES
----------------

  NO   OCC          E(Eh)            E(eV)
   0   2.0000    -484.429867    -13182.0068
   1   2.0000     -77.689483     -2114.0383
   2   2.0000     -63.093849     -1716.8709
   3   2.0000     -56.797520     -1545.5391
   4   2.0000     -56.796375     -1545.5079
   5   2.0000     -56.796040     -1545.4988
   6   2.0000     -19.344431      -526.3887
   7   2.0000     -19.284441      -524.7563
   8   2.0000     -19.271089      -524.3930
   9   2.0000     -10.410971      -283.2969
  10   2.0000     -10.362037      -281.9654
  11   2.0000     -10.348756      -281.6040
  12   2.0000     -10.346995      -281.5560
  13   2.0000     -10.345867      -281.5254
  14   2.0000     -10.344617      -281.4913
  15   2.0000     -10.340599      -281.3820
  16   2.0000     -10.328954      -281.0651
  17   2.0000     -10.319989      -280.8212
  18   2.0000     -10.316330      -280.7216
  19   2.0000     -10.315609      -280.7020
  20   2.0000     -10.313902      -280.6555
  21   2.0000     -10.312930      -280.6291
  22   2.0000     -10.309129      -280.5257
  23   2.0000     -10.292282      -280.0672
  24   2.0000      -8.923729      -242.8270
  25   2.0000      -6.765061      -184.0867
  26   2.0000      -6.696949      -182.2332
  27   2.0000      -6.688133      -181.9933
  28   2.0000      -6.684852      -181.9041
  29   2.0000      -4.856012      -132.1388
  30   2.0000      -4.855736      -132.1313
  31   2.0000      -4.854333      -132.0931
  32   2.0000      -3.534957       -96.1911
  33   2.0000      -2.711481       -73.7831
  34   2.0000      -2.708648       -73.7061
  35   2.0000      -2.705871       -73.6305
  36   2.0000      -2.698651       -73.4340
  37   2.0000      -2.698439       -73.4282
  38   2.0000      -2.187911       -59.5361
  39   2.0000      -2.173762       -59.1511
  40   2.0000      -2.150245       -58.5112
  41   2.0000      -1.040182       -28.3048
  42   2.0000      -0.931054       -25.3353
  43   2.0000      -0.896720       -24.4010
  44   2.0000      -0.858864       -23.3709
  45   2.0000      -0.815368       -22.1873
  46   2.0000      -0.782219       -21.2853
  47   2.0000      -0.777726       -21.1630
  48   2.0000      -0.731466       -19.9042
  49   2.0000      -0.727400       -19.7936
  50   2.0000      -0.686343       -18.6763
  51   2.0000      -0.671471       -18.2717
  52   2.0000      -0.663187       -18.0462
  53   2.0000      -0.601918       -16.3790
  54   2.0000      -0.577139       -15.7048
  55   2.0000      -0.548021       -14.9124
  56   2.0000      -0.534883       -14.5549
  57   2.0000      -0.506442       -13.7810
  58   2.0000      -0.494598       -13.4587
  59   2.0000      -0.470500       -12.8029
  60   2.0000      -0.440388       -11.9836
  61   2.0000      -0.428272       -11.6539
  62   2.0000      -0.415972       -11.3192
  63   2.0000      -0.408044       -11.1034
  64   2.0000      -0.391194       -10.6449
  65   2.0000      -0.388815       -10.5802
  66   2.0000      -0.383296       -10.4300
  67   2.0000      -0.379460       -10.3256
  68   2.0000      -0.369847       -10.0640
  69   2.0000      -0.366725        -9.9791
  70   2.0000      -0.360721        -9.8157
  71   2.0000      -0.351384        -9.5616
  72   2.0000      -0.345685        -9.4066
  73   2.0000      -0.341090        -9.2815
  74   2.0000      -0.339480        -9.2377
  75   2.0000      -0.331323        -9.0158
  76   2.0000      -0.324999        -8.8437
  77   2.0000      -0.319852        -8.7036
  78   2.0000      -0.298841        -8.1319
  79   2.0000      -0.295468        -8.0401
  80   2.0000      -0.292072        -7.9477
  81   2.0000      -0.285568        -7.7707
  82   2.0000      -0.280352        -7.6288
  83   2.0000      -0.268301        -7.3008
  84   2.0000      -0.262916        -7.1543
  85   2.0000      -0.247261        -6.7283
  86   2.0000      -0.243128        -6.6158
  87   2.0000      -0.235880        -6.4186
  88   2.0000      -0.226612        -6.1664
  89   2.0000      -0.218279        -5.9397
  90   2.0000      -0.205965        -5.6046
  91   2.0000      -0.186130        -5.0648
  92   2.0000      -0.181794        -4.9469
  93   2.0000      -0.176155        -4.7934
  94   2.0000      -0.168500        -4.5851
  95   2.0000      -0.149454        -4.0669
  96   2.0000      -0.144548        -3.9334
  97   2.0000      -0.139994        -3.8094
  98   2.0000      -0.132003        -3.5920
  99   2.0000      -0.104188        -2.8351
 100   0.0000       0.049539         1.3480
 101   0.0000       0.114432         3.1139
 102   0.0000       0.121950         3.3184
 103   0.0000       0.144139         3.9222
 104   0.0000       0.145237         3.9521

MULLIKEN ATOMIC CHARGES
-----------------------
   0 C :   -0.139944
   1 C :    0.036739
   2 C :   -0.330777
   3 C :   -0.214275
   4 C :   -0.234503
   5 C :   -0.261516
   6 H :    0.347240
   7 H :    0.173346
   8 H :    0.162424
   9 H :    0.168744
  10 H :    0.169500
  11 C :   -0.474119
  12 C :   -0.518807
  13 H :    0.193891
  14 H :    0.255130
  15 C :    0.140349
  16 H :    0.277321
  17 H :    0.201432
  18 C :   -0.105414
  19 C :   -0.270847
  20 C :   -0.245500
  21 C :   -0.280885
  22 C :   -0.212838
  23 H :    0.285440
  24 H :    0.198006
  25 H :    0.185347
  26 H :    0.187659
  27 Pd:    0.069118
  28 Br:   -0.188354
  29 P :   -0.161750
  30 H :    0.111950
  31 C :    0.637798
  32 O :   -0.595536
  33 O :   -0.562057
  34 O :   -0.639344
  35 H :    0.113732
  36 H :    0.125582
  37 H :    0.395722
Sum of atomic charges:   -1.0000000

LOEWDIN ATOMIC CHARGES
----------------------
   0 C :   -0.183392
   1 C :   -0.070883
   2 C :   -0.164298
   3 C :   -0.171521
   4 C :   -0.173093
   5 C :   -0.163988
   6 H :    0.249259
   7 H :    0.110049
   8 H :    0.110850
   9 H :    0.112593
  10 H :    0.112513
  11 C :   -0.211789
  12 C :   -0.213432
  13 H :    0.116372
  14 H :    0.146663
  15 C :   -0.033979
  16 H :    0.165194
  17 H :    0.117852
  18 C :    0.020230
  19 C :   -0.117758
  20 C :   -0.146597
  21 C :   -0.142572
  22 C :   -0.156112
  23 H :    0.173538
  24 H :    0.127049
  25 H :    0.124101
  26 H :    0.122951
  27 Pd:   -0.771633
  28 Br:    0.081501
  29 P :    0.392116
  30 H :    0.052813
  31 C :    0.071809
  32 O :   -0.411839
  33 O :   -0.315901
  34 O :   -0.371800
  35 H :    0.052409
  36 H :    0.059839
  37 H :    0.300884

  Mayer bond orders larger than 0.100000
B(  0-C ,  1-C ) :   1.4565 B(  0-C ,  2-C ) :   1.4127 B(  0-C , 27-Pd) :   0.5058
B(  1-C ,  5-C ) :   1.3861 B(  1-C , 11-C ) :   0.9530 B(  2-C ,  3-C ) :   1.4286
B(  2-C ,  7-H ) :   0.9205 B(  3-C ,  4-C ) :   1.4287 B(  3-C ,  9-H ) :   0.9284
B(  4-C ,  5-C ) :   1.4490 B(  4-C , 10-H ) :   0.9290 B(  5-C ,  8-H ) :   0.9240
B(  6-H , 28-Br) :   0.7900 B( 11-C , 12-C ) :   0.9192 B( 11-C , 13-H ) :   0.9359
B( 11-C , 14-H ) :   0.9002 B( 12-C , 15-C ) :   0.9696 B( 12-C , 16-H ) :   0.8789
B( 12-C , 17-H ) :   0.9283 B( 15-C , 18-C ) :   1.3411 B( 15-C , 21-C ) :   1.4034
B( 18-C , 19-C ) :   1.4098 B( 18-C , 27-Pd) :   0.8611 B( 19-C , 20-C ) :   1.4028
B( 19-C , 23-H ) :   0.8566 B( 20-C , 22-C ) :   1.4287 B( 20-C , 24-H ) :   0.9248
B( 21-C , 22-C ) :   1.4248 B( 21-C , 25-H ) :   0.9243 B( 22-C , 26-H ) :   0.9280
B( 27-Pd, 28-Br) :   0.2381 B( 27-Pd, 29-P ) :   0.6096 B( 27-Pd, 33-O ) :   0.2310
B( 29-P , 30-H ) :   0.9301 B( 29-P , 35-H ) :   0.9312 B( 29-P , 36-H ) :   0.9260
B( 31-C , 32-O ) :   1.7404 B( 31-C , 33-O ) :   1.6147 B( 31-C , 34-O ) :   0.9956
B( 34-O , 37-H ) :   0.7936

Dispersion correction           -0.031752439
FINAL SINGLE POINT ENERGY     -3847.573343458641
Dispersion correction            ... done

DIPOLE MOMENT
-------------
                                X             Y             Z
Electronic contribution:      3.10885     -63.99124     -20.69020
Nuclear contribution   :     -1.59783      63.06359      23.30471
                        -----------------------------------------
Total Dipole Moment    :      1.51102      -0.92765       2.61451
                        -----------------------------------------
Magnitude (a.u.)       :      3.15902
Magnitude (Debye)      :      8.02959

Rotational constants in cm-1:     0.007151     0.006389     0.004436
Rotational constants in MHz :   214.382995   191.526772   132.994869

                             ****ORCA TERMINATED NORMALLY****
TOTAL RUN TIME: 0 days 0 hours 14 minutes 40 seconds 47 msec
