                         Program Version 5.0.3 -  RELEASE  -
|  1> ! EnGrad PBEh-3c
|  2> %output
|  3> xyzfile=True
|  4> end
|  5> %scf
|  6> maxiter 250
|  7> end
|  8> %output
|  9> Print[P_Hirshfeld] = 1
| 10> end
| 11> % maxcore
| 12> 4000
| 13> *xyz -1 1
| 14> C   -2.15641243  -0.15630090   0.67749022
| 15> C   -1.86627871   1.03932333   1.36912079
| 16> C   -3.54661240  -0.46872599   0.68288260
| 17> C   -4.55097500   0.38030574   1.18763499
| 18> C   -4.20566889   1.60509490   1.74209736
| 19> C   -2.85509620   1.85617070   1.94094552
| 20> H   -1.92971808  -1.94089584  -1.29580596
| 21> H   -3.92082758  -1.42711675   0.32769463
| 22> H   -2.55361073   2.78692254   2.41989685
| 23> H   -5.61496861   0.13122876   1.11957451
| 24> H   -4.95091107   2.33342042   2.07199330
| 25> C   -0.44848104   1.53293679   1.55667009
| 26> C    0.63228036   0.46480109   1.86901140
| 27> H   -0.44774328   2.26343468   2.38247768
| 28> H   -0.15975431   2.07844702   0.64771709
| 29> C    1.73849739   0.55272037   0.85806788
| 30> H    0.20761492  -0.54480254   1.89938575
| 31> H    1.05641070   0.65758184   2.85693340
| 32> C    1.64127412  -0.08443341  -0.37661383
| 33> C    2.60171320   0.14595046  -1.36793647
| 34> C    3.61885107   1.07009280  -1.12979835
| 35> C    2.79235322   1.43383453   1.08147619
| 36> C    3.74147203   1.68372313   0.10566352
| 37> H    2.59728066  -0.39321232  -2.31345513
| 38> H    4.34515166   1.27896687  -1.90305044
| 39> H    2.87248101   1.89258161   2.05696049
| 40> H    4.52461406   2.40634084   0.29200982
| 41> Pd   0.05711577  -1.25612167  -0.61481347
| 42> Br  -1.85364830  -3.26207040  -0.88533414
| 43> P    1.44713298  -2.95368382   0.05847614
| 44> H    0.95649962  -3.55132509   1.24646173
| 45> C    0.32622046  -1.31878118  -3.84391878
| 46> O    1.46230585  -1.67559525  -4.18941959
| 47> O   -0.49097202  -1.84333707  -3.06570997
| 48> O   -0.11110289  -0.10717791  -4.35266303
| 49> H    2.78733615  -2.73948995   0.46549255
| 50> H    1.60921378  -4.13063486  -0.71178237
| 51> H    0.62050057   0.25504660  -4.85797434
| 52> *
| 53>
| 54>                          ****END OF INPUT****

CARTESIAN COORDINATES (ANGSTROEM)
---------------------------------
  C     -2.156412   -0.156301    0.677490
  C     -1.866279    1.039323    1.369121
  C     -3.546612   -0.468726    0.682883
  C     -4.550975    0.380306    1.187635
  C     -4.205669    1.605095    1.742097
  C     -2.855096    1.856171    1.940946
  H     -1.929718   -1.940896   -1.295806
  H     -3.920828   -1.427117    0.327695
  H     -2.553611    2.786923    2.419897
  H     -5.614969    0.131229    1.119575
  H     -4.950911    2.333420    2.071993
  C     -0.448481    1.532937    1.556670
  C      0.632280    0.464801    1.869011
  H     -0.447743    2.263435    2.382478
  H     -0.159754    2.078447    0.647717
  C      1.738497    0.552720    0.858068
  H      0.207615   -0.544803    1.899386
  H      1.056411    0.657582    2.856933
  C      1.641274   -0.084433   -0.376614
  C      2.601713    0.145950   -1.367936
  C      3.618851    1.070093   -1.129798
  C      2.792353    1.433835    1.081476
  C      3.741472    1.683723    0.105664
  H      2.597281   -0.393212   -2.313455
  H      4.345152    1.278967   -1.903050
  H      2.872481    1.892582    2.056960
  H      4.524614    2.406341    0.292010
  Pd     0.057116   -1.256122   -0.614813
  Br    -1.853648   -3.262070   -0.885334
  P      1.447133   -2.953684    0.058476
  H      0.956500   -3.551325    1.246462
  C      0.326220   -1.318781   -3.843919
  O      1.462306   -1.675595   -4.189420
  O     -0.490972   -1.843337   -3.065710
  O     -0.111103   -0.107178   -4.352663
  H      2.787336   -2.739490    0.465493
  H      1.609214   -4.130635   -0.711782
  H      0.620501    0.255047   -4.857974

 Total Charge           Charge          ....   -1
 Multiplicity           Mult            ....    1
 Number of Electrons    NEL             ....  200
 Basis Dimension        Dim             ....  385

ORBITAL ENERGIES
----------------

  NO   OCC          E(Eh)            E(eV)
   0   2.0000    -484.426838    -13181.9244
   1   2.0000     -77.690743     -2114.0726
   2   2.0000     -63.090606     -1716.7827
   3   2.0000     -56.794360     -1545.4531
   4   2.0000     -56.793073     -1545.4181
   5   2.0000     -56.792791     -1545.4104
   6   2.0000     -19.347823      -526.4810
   7   2.0000     -19.285269      -524.7788
   8   2.0000     -19.276732      -524.5465
   9   2.0000     -10.414949      -283.4052
  10   2.0000     -10.364096      -282.0214
  11   2.0000     -10.349889      -281.6348
  12   2.0000     -10.348486      -281.5966
  13   2.0000     -10.347499      -281.5698
  14   2.0000     -10.346129      -281.5325
  15   2.0000     -10.342729      -281.4400
  16   2.0000     -10.330371      -281.1037
  17   2.0000     -10.322009      -280.8761
  18   2.0000     -10.317420      -280.7513
  19   2.0000     -10.316491      -280.7260
  20   2.0000     -10.314693      -280.6771
  21   2.0000     -10.313029      -280.6318
  22   2.0000     -10.309927      -280.5474
  23   2.0000     -10.293781      -280.1080
  24   2.0000      -8.920276      -242.7330
  25   2.0000      -6.765464      -184.0976
  26   2.0000      -6.693604      -182.1422
  27   2.0000      -6.684434      -181.8927
  28   2.0000      -6.681475      -181.8122
  29   2.0000      -4.856426      -132.1501
  30   2.0000      -4.856189      -132.1436
  31   2.0000      -4.854740      -132.1042
  32   2.0000      -3.532102       -96.1134
  33   2.0000      -2.708012       -73.6888
  34   2.0000      -2.705110       -73.6098
  35   2.0000      -2.702623       -73.5421
  36   2.0000      -2.695044       -73.3359
  37   2.0000      -2.694873       -73.3312
  38   2.0000      -2.185742       -59.4771
  39   2.0000      -2.169841       -59.0444
  40   2.0000      -2.147658       -58.4407
  41   2.0000      -1.040348       -28.3093
  42   2.0000      -0.928614       -25.2689
  43   2.0000      -0.899471       -24.4759
  44   2.0000      -0.858688       -23.3661
  45   2.0000      -0.814161       -22.1544
  46   2.0000      -0.777060       -21.1449
  47   2.0000      -0.775868       -21.1124
  48   2.0000      -0.731648       -19.9092
  49   2.0000      -0.726710       -19.7748
  50   2.0000      -0.685716       -18.6593
  51   2.0000      -0.670292       -18.2396
  52   2.0000      -0.659739       -17.9524
  53   2.0000      -0.601223       -16.3601
  54   2.0000      -0.577650       -15.7187
  55   2.0000      -0.547939       -14.9102
  56   2.0000      -0.534327       -14.5398
  57   2.0000      -0.505812       -13.7638
  58   2.0000      -0.495529       -13.4840
  59   2.0000      -0.470348       -12.7988
  60   2.0000      -0.439348       -11.9553
  61   2.0000      -0.427998       -11.6464
  62   2.0000      -0.412903       -11.2357
  63   2.0000      -0.406330       -11.0568
  64   2.0000      -0.390422       -10.6239
  65   2.0000      -0.387318       -10.5395
  66   2.0000      -0.381021       -10.3681
  67   2.0000      -0.379003       -10.3132
  68   2.0000      -0.369703       -10.0601
  69   2.0000      -0.368723       -10.0335
  70   2.0000      -0.359598        -9.7852
  71   2.0000      -0.352442        -9.5904
  72   2.0000      -0.345306        -9.3962
  73   2.0000      -0.341059        -9.2807
  74   2.0000      -0.338555        -9.2125
  75   2.0000      -0.328618        -8.9422
  76   2.0000      -0.325040        -8.8448
  77   2.0000      -0.318398        -8.6641
  78   2.0000      -0.298052        -8.1104
  79   2.0000      -0.294871        -8.0238
  80   2.0000      -0.291609        -7.9351
  81   2.0000      -0.284050        -7.7294
  82   2.0000      -0.279884        -7.6160
  83   2.0000      -0.267541        -7.2802
  84   2.0000      -0.261825        -7.1246
  85   2.0000      -0.245749        -6.6872
  86   2.0000      -0.241050        -6.5593
  87   2.0000      -0.233744        -6.3605
  88   2.0000      -0.224699        -6.1144
  89   2.0000      -0.216433        -5.8894
  90   2.0000      -0.206803        -5.6274
  91   2.0000      -0.186543        -5.0761
  92   2.0000      -0.183202        -4.9852
  93   2.0000      -0.176924        -4.8143
  94   2.0000      -0.168774        -4.5926
  95   2.0000      -0.149602        -4.0709
  96   2.0000      -0.144357        -3.9281
  97   2.0000      -0.138760        -3.7759
  98   2.0000      -0.134713        -3.6657
  99   2.0000      -0.105272        -2.8646
 100   0.0000       0.049917         1.3583
 101   0.0000       0.112944         3.0734
 102   0.0000       0.119807         3.2601
 103   0.0000       0.143077         3.8933
 104   0.0000       0.145265         3.9529

MULLIKEN ATOMIC CHARGES
-----------------------
   0 C :   -0.144949
   1 C :    0.035022
   2 C :   -0.327889
   3 C :   -0.215080
   4 C :   -0.235519
   5 C :   -0.261025
   6 H :    0.342658
   7 H :    0.173926
   8 H :    0.162802
   9 H :    0.167999
  10 H :    0.169397
  11 C :   -0.474420
  12 C :   -0.517996
  13 H :    0.191853
  14 H :    0.257343
  15 C :    0.138403
  16 H :    0.277763
  17 H :    0.201048
  18 C :   -0.111187
  19 C :   -0.267725
  20 C :   -0.246338
  21 C :   -0.274673
  22 C :   -0.215342
  23 H :    0.286361
  24 H :    0.198862
  25 H :    0.186456
  26 H :    0.187167
  27 Pd:    0.078870
  28 Br:   -0.198483
  29 P :   -0.160187
  30 H :    0.112015
  31 C :    0.645022
  32 O :   -0.586211
  33 O :   -0.571740
  34 O :   -0.635795
  35 H :    0.111894
  36 H :    0.124155
  37 H :    0.395545
Sum of atomic charges:   -1.0000000

LOEWDIN ATOMIC CHARGES
----------------------
   0 C :   -0.183488
   1 C :   -0.070171
   2 C :   -0.165327
   3 C :   -0.171050
   4 C :   -0.173062
   5 C :   -0.165268
   6 H :    0.252349
   7 H :    0.110854
   8 H :    0.110697
   9 H :    0.112199
  10 H :    0.112474
  11 C :   -0.210347
  12 C :   -0.213403
  13 H :    0.115690
  14 H :    0.148246
  15 C :   -0.034770
  16 H :    0.165997
  17 H :    0.117737
  18 C :    0.023365
  19 C :   -0.117489
  20 C :   -0.146238
  21 C :   -0.141398
  22 C :   -0.156152
  23 H :    0.174676
  24 H :    0.127451
  25 H :    0.124750
  26 H :    0.122979
  27 Pd:   -0.769182
  28 Br:    0.058242
  29 P :    0.385134
  30 H :    0.053363
  31 C :    0.083870
  32 O :   -0.401922
  33 O :   -0.323959
  34 O :   -0.369628
  35 H :    0.051974
  36 H :    0.059683
  37 H :    0.301123

  Mayer bond orders larger than 0.100000
B(  0-C ,  1-C ) :   1.4459 B(  0-C ,  2-C ) :   1.4132 B(  0-C , 27-Pd) :   0.5033
B(  1-C ,  5-C ) :   1.3951 B(  1-C , 11-C ) :   0.9525 B(  2-C ,  3-C ) :   1.4239
B(  2-C ,  7-H ) :   0.9204 B(  3-C ,  4-C ) :   1.4326 B(  3-C ,  9-H ) :   0.9286
B(  4-C ,  5-C ) :   1.4411 B(  4-C , 10-H ) :   0.9291 B(  5-C ,  8-H ) :   0.9235
B(  6-H , 28-Br) :   0.7832 B( 11-C , 12-C ) :   0.9185 B( 11-C , 13-H ) :   0.9363
B( 11-C , 14-H ) :   0.8993 B( 12-C , 15-C ) :   0.9701 B( 12-C , 16-H ) :   0.8782
B( 12-C , 17-H ) :   0.9269 B( 15-C , 18-C ) :   1.3421 B( 15-C , 21-C ) :   1.3989
B( 18-C , 19-C ) :   1.4091 B( 18-C , 27-Pd) :   0.8690 B( 19-C , 20-C ) :   1.4036
B( 19-C , 23-H ) :   0.8554 B( 20-C , 22-C ) :   1.4257 B( 20-C , 24-H ) :   0.9245
B( 21-C , 22-C ) :   1.4268 B( 21-C , 25-H ) :   0.9236 B( 22-C , 26-H ) :   0.9284
B( 27-Pd, 28-Br) :   0.2244 B( 27-Pd, 29-P ) :   0.5724 B( 27-Pd, 33-O ) :   0.2546
B( 29-P , 30-H ) :   0.9306 B( 29-P , 35-H ) :   0.9314 B( 29-P , 36-H ) :   0.9264
B( 31-C , 32-O ) :   1.7516 B( 31-C , 33-O ) :   1.5828 B( 31-C , 34-O ) :   1.0000
B( 34-O , 37-H ) :   0.7936

Dispersion correction           -0.031757109
FINAL SINGLE POINT ENERGY     -3847.574927882323
Dispersion correction            ... done

DIPOLE MOMENT
-------------
                                X             Y             Z
Electronic contribution:      2.22578     -62.70977     -21.52518
Nuclear contribution   :     -0.64930      61.83509      24.07250
                        -----------------------------------------
Total Dipole Moment    :      1.57648      -0.87469       2.54732
                        -----------------------------------------
Magnitude (a.u.)       :      3.12077
Magnitude (Debye)      :      7.93237

Rotational constants in cm-1:     0.007151     0.006357     0.004425
Rotational constants in MHz :   214.388542   190.579850   132.655425

                             ****ORCA TERMINATED NORMALLY****
TOTAL RUN TIME: 0 days 0 hours 15 minutes 7 seconds 705 msec
