                         Program Version 5.0.3 -  RELEASE  -
|  1> ! EnGrad PBEh-3c
|  2> %output
|  3> xyzfile=True
|  4> end
|  5> %scf
|  6> maxiter 250
|  7> end
|  8> %output
|  9> Print[P_Hirshfeld] = 1
| 10> end
| 11> % maxcore
| 12> 4000
| 13> *xyz -1 1
| 14> C   -2.15944248  -0.15203326   0.68275225
| 15> C   -1.86389632   1.03431256   1.37489352
| 16> C   -3.54813133  -0.46164394   0.68484112
| 17> C   -4.55280377   0.39268014   1.17455570
| 18> C   -4.20159527   1.61423120   1.72991310
| 19> C   -2.85322075   1.86619434   1.92599765
| 20> H   -1.92595917  -1.96322724  -1.34741861
| 21> H   -3.90845104  -1.42105889   0.32218929
| 22> H   -2.55877964   2.79759343   2.41104808
| 23> H   -5.61101181   0.14128327   1.09342269
| 24> H   -4.94773805   2.33586792   2.05503116
| 25> C   -0.44931443   1.52079003   1.58192990
| 26> C    0.64095740   0.46417494   1.87450668
| 27> H   -0.46107040   2.23131471   2.41808072
| 28> H   -0.15012649   2.10049353   0.69847601
| 29> C    1.73572274   0.56213186   0.85602682
| 30> H    0.22264340  -0.54399859   1.90579192
| 31> H    1.07002191   0.65459474   2.86115476
| 32> C    1.62997858  -0.07252802  -0.37918129
| 33> C    2.59936583   0.15189460  -1.36058957
| 34> C    3.61408850   1.07962249  -1.12725128
| 35> C    2.79956344   1.42716179   1.08315516
| 36> C    3.73609859   1.69764382   0.10353416
| 37> H    2.59834942  -0.38239786  -2.30355959
| 38> H    4.34106278   1.28761039  -1.89932957
| 39> H    2.88939274   1.88367694   2.05871742
| 40> H    4.52002023   2.41792161   0.28915891
| 41> Pd   0.07026535  -1.27500499  -0.60369582
| 42> Br  -1.83131895  -3.24862572  -0.88545768
| 43> P    1.44701675  -2.95582213   0.04695937
| 44> H    0.97180322  -3.55328794   1.23516418
| 45> C    0.30503216  -1.34094752  -3.84316627
| 46> O    1.44947069  -1.68658539  -4.18447405
| 47> O   -0.50427917  -1.87398761  -3.08540277
| 48> O   -0.12524707  -0.12029201  -4.33418881
| 49> H    2.77945987  -2.74101001   0.44132490
| 50> H    1.60313352  -4.12716508  -0.72063062
| 51> H    0.60651132   0.25631457  -4.82649392
| 52> *
| 53>
| 54>                          ****END OF INPUT****

CARTESIAN COORDINATES (ANGSTROEM)
---------------------------------
  C     -2.159442   -0.152033    0.682752
  C     -1.863896    1.034313    1.374894
  C     -3.548131   -0.461644    0.684841
  C     -4.552804    0.392680    1.174556
  C     -4.201595    1.614231    1.729913
  C     -2.853221    1.866194    1.925998
  H     -1.925959   -1.963227   -1.347419
  H     -3.908451   -1.421059    0.322189
  H     -2.558780    2.797593    2.411048
  H     -5.611012    0.141283    1.093423
  H     -4.947738    2.335868    2.055031
  C     -0.449314    1.520790    1.581930
  C      0.640957    0.464175    1.874507
  H     -0.461070    2.231315    2.418081
  H     -0.150126    2.100494    0.698476
  C      1.735723    0.562132    0.856027
  H      0.222643   -0.543999    1.905792
  H      1.070022    0.654595    2.861155
  C      1.629979   -0.072528   -0.379181
  C      2.599366    0.151895   -1.360590
  C      3.614088    1.079622   -1.127251
  C      2.799563    1.427162    1.083155
  C      3.736099    1.697644    0.103534
  H      2.598349   -0.382398   -2.303560
  H      4.341063    1.287610   -1.899330
  H      2.889393    1.883677    2.058717
  H      4.520020    2.417922    0.289159
  Pd     0.070265   -1.275005   -0.603696
  Br    -1.831319   -3.248626   -0.885458
  P      1.447017   -2.955822    0.046959
  H      0.971803   -3.553288    1.235164
  C      0.305032   -1.340948   -3.843166
  O      1.449471   -1.686585   -4.184474
  O     -0.504279   -1.873988   -3.085403
  O     -0.125247   -0.120292   -4.334189
  H      2.779460   -2.741010    0.441325
  H      1.603134   -4.127165   -0.720631
  H      0.606511    0.256315   -4.826494

 Total Charge           Charge          ....   -1
 Multiplicity           Mult            ....    1
 Number of Electrons    NEL             ....  200
 Basis Dimension        Dim             ....  385

ORBITAL ENERGIES
----------------

  NO   OCC          E(Eh)            E(eV)
   0   2.0000    -484.429250    -13181.9901
   1   2.0000     -77.689755     -2114.0457
   2   2.0000     -63.093193     -1716.8531
   3   2.0000     -56.796880     -1545.5217
   4   2.0000     -56.795706     -1545.4897
   5   2.0000     -56.795383     -1545.4809
   6   2.0000     -19.345104      -526.4070
   7   2.0000     -19.284565      -524.7597
   8   2.0000     -19.272221      -524.4238
   9   2.0000     -10.411753      -283.3182
  10   2.0000     -10.362462      -281.9769
  11   2.0000     -10.348980      -281.6101
  12   2.0000     -10.347293      -281.5641
  13   2.0000     -10.346200      -281.5344
  14   2.0000     -10.344916      -281.4995
  15   2.0000     -10.341036      -281.3939
  16   2.0000     -10.329232      -281.0727
  17   2.0000     -10.320352      -280.8311
  18   2.0000     -10.316539      -280.7273
  19   2.0000     -10.315782      -280.7067
  20   2.0000     -10.314036      -280.6592
  21   2.0000     -10.312940      -280.6294
  22   2.0000     -10.309279      -280.5298
  23   2.0000     -10.292572      -280.0751
  24   2.0000      -8.923033      -242.8081
  25   2.0000      -6.765155      -184.0892
  26   2.0000      -6.696276      -182.2149
  27   2.0000      -6.687386      -181.9730
  28   2.0000      -6.684171      -181.8855
  29   2.0000      -4.856109      -132.1414
  30   2.0000      -4.855842      -132.1342
  31   2.0000      -4.854428      -132.0957
  32   2.0000      -3.534374       -96.1752
  33   2.0000      -2.710783       -73.7642
  34   2.0000      -2.707934       -73.6866
  35   2.0000      -2.705218       -73.6127
  36   2.0000      -2.697923       -73.4142
  37   2.0000      -2.697719       -73.4087
  38   2.0000      -2.187473       -59.5242
  39   2.0000      -2.172959       -59.1292
  40   2.0000      -2.149713       -58.4967
  41   2.0000      -1.040165       -28.3043
  42   2.0000      -0.930429       -25.3183
  43   2.0000      -0.897419       -24.4200
  44   2.0000      -0.858836       -23.3701
  45   2.0000      -0.815122       -22.1806
  46   2.0000      -0.780981       -21.2516
  47   2.0000      -0.777595       -21.1594
  48   2.0000      -0.731514       -19.9055
  49   2.0000      -0.727268       -19.7900
  50   2.0000      -0.686210       -18.6727
  51   2.0000      -0.671231       -18.2651
  52   2.0000      -0.662493       -18.0274
  53   2.0000      -0.601783       -16.3754
  54   2.0000      -0.577247       -15.7077
  55   2.0000      -0.548014       -14.9122
  56   2.0000      -0.534764       -14.5517
  57   2.0000      -0.506319       -13.7776
  58   2.0000      -0.494775       -13.4635
  59   2.0000      -0.470476       -12.8023
  60   2.0000      -0.440175       -11.9778
  61   2.0000      -0.428229       -11.6527
  62   2.0000      -0.415268       -11.3000
  63   2.0000      -0.407789       -11.0965
  64   2.0000      -0.390888       -10.6366
  65   2.0000      -0.388643       -10.5755
  66   2.0000      -0.382836       -10.4175
  67   2.0000      -0.379374       -10.3233
  68   2.0000      -0.369751       -10.0614
  69   2.0000      -0.367162        -9.9910
  70   2.0000      -0.360501        -9.8097
  71   2.0000      -0.351599        -9.5675
  72   2.0000      -0.345610        -9.4045
  73   2.0000      -0.341060        -9.2807
  74   2.0000      -0.339273        -9.2321
  75   2.0000      -0.330744        -9.0000
  76   2.0000      -0.325019        -8.8442
  77   2.0000      -0.319624        -8.6974
  78   2.0000      -0.298615        -8.1257
  79   2.0000      -0.295229        -8.0336
  80   2.0000      -0.292015        -7.9461
  81   2.0000      -0.285391        -7.7659
  82   2.0000      -0.280264        -7.6264
  83   2.0000      -0.268137        -7.2964
  84   2.0000      -0.262721        -7.1490
  85   2.0000      -0.246938        -6.7195
  86   2.0000      -0.242717        -6.6047
  87   2.0000      -0.235469        -6.4074
  88   2.0000      -0.226186        -6.1548
  89   2.0000      -0.217929        -5.9302
  90   2.0000      -0.206121        -5.6088
  91   2.0000      -0.186206        -5.0669
  92   2.0000      -0.182042        -4.9536
  93   2.0000      -0.176322        -4.7980
  94   2.0000      -0.168518        -4.5856
  95   2.0000      -0.149478        -4.0675
  96   2.0000      -0.144529        -3.9328
  97   2.0000      -0.139760        -3.8031
  98   2.0000      -0.132584        -3.6078
  99   2.0000      -0.104412        -2.8412
 100   0.0000       0.049643         1.3509
 101   0.0000       0.114137         3.1058
 102   0.0000       0.121520         3.3067
 103   0.0000       0.143954         3.9172
 104   0.0000       0.145251         3.9525

MULLIKEN ATOMIC CHARGES
-----------------------
   0 C :   -0.140958
   1 C :    0.036421
   2 C :   -0.330236
   3 C :   -0.214423
   4 C :   -0.234710
   5 C :   -0.261468
   6 H :    0.346383
   7 H :    0.173445
   8 H :    0.162517
   9 H :    0.168585
  10 H :    0.169471
  11 C :   -0.474197
  12 C :   -0.518679
  13 H :    0.193485
  14 H :    0.255626
  15 C :    0.140073
  16 H :    0.277413
  17 H :    0.201350
  18 C :   -0.106704
  19 C :   -0.270196
  20 C :   -0.245714
  21 C :   -0.279703
  22 C :   -0.213283
  23 H :    0.285626
  24 H :    0.198172
  25 H :    0.185576
  26 H :    0.187558
  27 Pd:    0.071134
  28 Br:   -0.190399
  29 P :   -0.161414
  30 H :    0.111979
  31 C :    0.639304
  32 O :   -0.593649
  33 O :   -0.564140
  34 O :   -0.638601
  35 H :    0.113377
  36 H :    0.125300
  37 H :    0.395678
Sum of atomic charges:   -1.0000000

LOEWDIN ATOMIC CHARGES
----------------------
   0 C :   -0.183406
   1 C :   -0.070752
   2 C :   -0.164513
   3 C :   -0.171415
   4 C :   -0.173091
   5 C :   -0.164251
   6 H :    0.249858
   7 H :    0.110201
   8 H :    0.110817
   9 H :    0.112509
  10 H :    0.112502
  11 C :   -0.211504
  12 C :   -0.213422
  13 H :    0.116230
  14 H :    0.146982
  15 C :   -0.034140
  16 H :    0.165358
  17 H :    0.117825
  18 C :    0.020893
  19 C :   -0.117701
  20 C :   -0.146517
  21 C :   -0.142335
  22 C :   -0.156127
  23 H :    0.173774
  24 H :    0.127133
  25 H :    0.124233
  26 H :    0.122959
  27 Pd:   -0.771068
  28 Br:    0.076772
  29 P :    0.390751
  30 H :    0.052931
  31 C :    0.074242
  32 O :   -0.409819
  33 O :   -0.317647
  34 O :   -0.371331
  35 H :    0.052336
  36 H :    0.059811
  37 H :    0.300920

  Mayer bond orders larger than 0.100000
B(  0-C ,  1-C ) :   1.4543 B(  0-C ,  2-C ) :   1.4129 B(  0-C , 27-Pd) :   0.5054
B(  1-C ,  5-C ) :   1.3880 B(  1-C , 11-C ) :   0.9529 B(  2-C ,  3-C ) :   1.4277
B(  2-C ,  7-H ) :   0.9205 B(  3-C ,  4-C ) :   1.4295 B(  3-C ,  9-H ) :   0.9284
B(  4-C ,  5-C ) :   1.4473 B(  4-C , 10-H ) :   0.9291 B(  5-C ,  8-H ) :   0.9239
B(  6-H , 28-Br) :   0.7887 B( 11-C , 12-C ) :   0.9191 B( 11-C , 13-H ) :   0.9360
B( 11-C , 14-H ) :   0.9000 B( 12-C , 15-C ) :   0.9697 B( 12-C , 16-H ) :   0.8788
B( 12-C , 17-H ) :   0.9280 B( 15-C , 18-C ) :   1.3413 B( 15-C , 21-C ) :   1.4025
B( 18-C , 19-C ) :   1.4097 B( 18-C , 27-Pd) :   0.8628 B( 19-C , 20-C ) :   1.4029
B( 19-C , 23-H ) :   0.8564 B( 20-C , 22-C ) :   1.4281 B( 20-C , 24-H ) :   0.9247
B( 21-C , 22-C ) :   1.4253 B( 21-C , 25-H ) :   0.9241 B( 22-C , 26-H ) :   0.9281
B( 27-Pd, 28-Br) :   0.2352 B( 27-Pd, 29-P ) :   0.6019 B( 27-Pd, 33-O ) :   0.2358
B( 29-P , 30-H ) :   0.9302 B( 29-P , 35-H ) :   0.9313 B( 29-P , 36-H ) :   0.9261
B( 31-C , 32-O ) :   1.7427 B( 31-C , 33-O ) :   1.6082 B( 31-C , 34-O ) :   0.9966
B( 34-O , 37-H ) :   0.7936

Dispersion correction           -0.031753733
FINAL SINGLE POINT ENERGY     -3847.573923784938
Dispersion correction            ... done

DIPOLE MOMENT
-------------
                                X             Y             Z
Electronic contribution:      2.92890     -63.73025     -20.86020
Nuclear contribution   :     -1.40431      62.81295      23.46136
                        -----------------------------------------
Total Dipole Moment    :      1.52459      -0.91730       2.60116
                        -----------------------------------------
Magnitude (a.u.)       :      3.15148
Magnitude (Debye)      :      8.01043

Rotational constants in cm-1:     0.007151     0.006382     0.004434
Rotational constants in MHz :   214.383762   191.338101   132.926872

                             ****ORCA TERMINATED NORMALLY****
TOTAL RUN TIME: 0 days 0 hours 14 minutes 38 seconds 586 msec
