                         Program Version 5.0.3 -  RELEASE  -
|  1> ! EnGrad PBEh-3c
|  2> %output
|  3> xyzfile=True
|  4> end
|  5> %scf
|  6> maxiter 250
|  7> end
|  8> %output
|  9> Print[P_Hirshfeld] = 1
| 10> end
| 11> % maxcore
| 12> 4000
| 13> *xyz -1 1
| 14> C   -2.11821697  -0.05527718   0.68702032
| 15> C   -1.83364725   1.02266088   1.45670355
| 16> C   -3.51844211  -0.38704605   0.56344798
| 17> C   -4.52671811   0.48661815   0.98326726
| 18> C   -4.19014032   1.65573261   1.63019532
| 19> C   -2.86178745   1.93770607   1.84200094
| 20> H   -2.46821041  -1.79280427  -2.11765355
| 21> H   -3.82088653  -1.39499405   0.36993660
| 22> H   -2.61605364   2.94947184   2.14868745
| 23> H   -5.56530275   0.25020653   0.79699448
| 24> H   -4.95683529   2.31372609   2.00985162
| 25> C   -0.44108690   1.50557365   1.89007121
| 26> C    0.75047813   0.46462689   1.97561308
| 27> H   -0.47997815   1.97036588   2.83630666
| 28> H   -0.21691934   2.30632641   1.18063236
| 29> C    1.75169461   0.63870784   0.89091082
| 30> H    0.36361646  -0.53561256   2.00012213
| 31> H    1.25272076   0.59657176   2.93651926
| 32> C    1.56666928   0.07296182  -0.37225167
| 33> C    2.56014604   0.24640906  -1.33787265
| 34> C    3.60325146   1.16478452  -1.11771445
| 35> C    2.88686561   1.41191594   1.12645824
| 36> C    3.73796895   1.78698942   0.09589354
| 37> H    2.59590775  -0.33701872  -2.22372832
| 38> H    4.34383826   1.33353799  -1.90517749
| 39> H    3.08870132   1.77007811   2.13383398
| 40> H    4.44355196   2.60069657   0.23559924
| 41> Pd   0.03082076  -1.26052946  -0.60952236
| 42> Br  -1.58128319  -3.69246533  -0.64847494
| 43> P    1.44698888  -2.99636083  -0.04527947
| 44> H    1.14331861  -3.61409621   1.18939718
| 45> C    0.17461663  -1.53769335  -3.82827728
| 46> O    1.43727282  -1.79901049  -4.16383443
| 47> O   -0.59356966  -2.19821344  -3.27702866
| 48> O   -0.23670333  -0.22898596  -4.16745316
| 49> H    2.79429227  -2.80038870   0.21376283
| 50> H    1.59336284  -4.13042456  -0.84382792
| 51> H    0.45820591   0.27595025  -4.53526056
| 52> *
| 53>
| 54>                          ****END OF INPUT****

CARTESIAN COORDINATES (ANGSTROEM)
---------------------------------
  C     -2.118217   -0.055277    0.687020
  C     -1.833647    1.022661    1.456704
  C     -3.518442   -0.387046    0.563448
  C     -4.526718    0.486618    0.983267
  C     -4.190140    1.655733    1.630195
  C     -2.861787    1.937706    1.842001
  H     -2.468210   -1.792804   -2.117654
  H     -3.820887   -1.394994    0.369937
  H     -2.616054    2.949472    2.148687
  H     -5.565303    0.250207    0.796994
  H     -4.956835    2.313726    2.009852
  C     -0.441087    1.505574    1.890071
  C      0.750478    0.464627    1.975613
  H     -0.479978    1.970366    2.836307
  H     -0.216919    2.306326    1.180632
  C      1.751695    0.638708    0.890911
  H      0.363616   -0.535613    2.000122
  H      1.252721    0.596572    2.936519
  C      1.566669    0.072962   -0.372252
  C      2.560146    0.246409   -1.337873
  C      3.603251    1.164785   -1.117714
  C      2.886866    1.411916    1.126458
  C      3.737969    1.786989    0.095894
  H      2.595908   -0.337019   -2.223728
  H      4.343838    1.333538   -1.905177
  H      3.088701    1.770078    2.133834
  H      4.443552    2.600697    0.235599
  Pd     0.030821   -1.260529   -0.609522
  Br    -1.581283   -3.692465   -0.648475
  P      1.446989   -2.996361   -0.045279
  H      1.143319   -3.614096    1.189397
  C      0.174617   -1.537693   -3.828277
  O      1.437273   -1.799010   -4.163834
  O     -0.593570   -2.198213   -3.277029
  O     -0.236703   -0.228986   -4.167453
  H      2.794292   -2.800389    0.213763
  H      1.593363   -4.130425   -0.843828
  H      0.458206    0.275950   -4.535261

 Total Charge           Charge          ....   -1
 Multiplicity           Mult            ....    1
 Number of Electrons    NEL             ....  200
 Basis Dimension        Dim             ....  385

ORBITAL ENERGIES
----------------

  NO   OCC          E(Eh)            E(eV)
   0   2.0000    -484.379744    -13180.6429
   1   2.0000     -77.679281     -2113.7607
   2   2.0000     -63.040651     -1715.4233
   3   2.0000     -56.744102     -1544.0855
   4   2.0000     -56.743526     -1544.0698
   5   2.0000     -56.743140     -1544.0593
   6   2.0000     -19.356913      -526.7284
   7   2.0000     -19.340429      -526.2798
   8   2.0000     -19.281074      -524.6647
   9   2.0000     -10.435403      -283.9617
  10   2.0000     -10.358978      -281.8821
  11   2.0000     -10.350423      -281.6493
  12   2.0000     -10.347228      -281.5624
  13   2.0000     -10.346552      -281.5440
  14   2.0000     -10.345961      -281.5279
  15   2.0000     -10.337599      -281.3004
  16   2.0000     -10.335737      -281.2497
  17   2.0000     -10.333130      -281.1788
  18   2.0000     -10.331832      -281.1434
  19   2.0000     -10.328464      -281.0518
  20   2.0000     -10.326543      -280.9995
  21   2.0000     -10.325642      -280.9750
  22   2.0000     -10.324677      -280.9488
  23   2.0000     -10.321169      -280.8533
  24   2.0000      -8.867353      -241.2929
  25   2.0000      -6.754706      -183.8049
  26   2.0000      -6.637453      -180.6143
  27   2.0000      -6.632961      -180.4921
  28   2.0000      -6.629723      -180.4039
  29   2.0000      -4.845791      -131.8607
  30   2.0000      -4.845380      -131.8495
  31   2.0000      -4.843874      -131.8085
  32   2.0000      -3.530895       -96.0805
  33   2.0000      -2.651663       -72.1554
  34   2.0000      -2.650983       -72.1369
  35   2.0000      -2.648256       -72.0627
  36   2.0000      -2.644432       -71.9587
  37   2.0000      -2.644066       -71.9487
  38   2.0000      -2.179392       -59.3043
  39   2.0000      -2.170117       -59.0519
  40   2.0000      -2.148112       -58.4531
  41   2.0000      -1.073969       -29.2242
  42   2.0000      -0.976262       -26.5655
  43   2.0000      -0.874864       -23.8062
  44   2.0000      -0.857121       -23.3234
  45   2.0000      -0.831804       -22.6345
  46   2.0000      -0.779846       -21.2207
  47   2.0000      -0.736721       -20.0472
  48   2.0000      -0.728557       -19.8251
  49   2.0000      -0.701715       -19.0946
  50   2.0000      -0.682120       -18.5614
  51   2.0000      -0.680543       -18.5185
  52   2.0000      -0.651196       -17.7199
  53   2.0000      -0.615108       -16.7379
  54   2.0000      -0.575180       -15.6515
  55   2.0000      -0.555826       -15.1248
  56   2.0000      -0.547631       -14.9018
  57   2.0000      -0.519396       -14.1335
  58   2.0000      -0.515800       -14.0356
  59   2.0000      -0.468897       -12.7593
  60   2.0000      -0.452375       -12.3098
  61   2.0000      -0.427780       -11.6405
  62   2.0000      -0.413623       -11.2552
  63   2.0000      -0.406008       -11.0480
  64   2.0000      -0.395265       -10.7557
  65   2.0000      -0.390816       -10.6346
  66   2.0000      -0.380173       -10.3450
  67   2.0000      -0.376825       -10.2539
  68   2.0000      -0.375069       -10.2061
  69   2.0000      -0.371145       -10.0994
  70   2.0000      -0.363183        -9.8827
  71   2.0000      -0.360531        -9.8105
  72   2.0000      -0.351123        -9.5545
  73   2.0000      -0.342567        -9.3217
  74   2.0000      -0.334366        -9.0986
  75   2.0000      -0.330004        -8.9799
  76   2.0000      -0.320471        -8.7205
  77   2.0000      -0.305382        -8.3099
  78   2.0000      -0.301007        -8.1908
  79   2.0000      -0.297058        -8.0833
  80   2.0000      -0.290016        -7.8917
  81   2.0000      -0.279119        -7.5952
  82   2.0000      -0.271484        -7.3875
  83   2.0000      -0.261238        -7.1087
  84   2.0000      -0.261127        -7.1056
  85   2.0000      -0.236800        -6.4437
  86   2.0000      -0.227553        -6.1920
  87   2.0000      -0.224125        -6.0988
  88   2.0000      -0.221942        -6.0394
  89   2.0000      -0.202292        -5.5046
  90   2.0000      -0.194877        -5.3029
  91   2.0000      -0.187582        -5.1044
  92   2.0000      -0.180301        -4.9062
  93   2.0000      -0.176443        -4.8012
  94   2.0000      -0.175594        -4.7782
  95   2.0000      -0.166078        -4.5192
  96   2.0000      -0.155373        -4.2279
  97   2.0000      -0.154318        -4.1992
  98   2.0000      -0.136948        -3.7265
  99   2.0000      -0.108135        -2.9425
 100   0.0000      -0.032345        -0.8802
 101   0.0000       0.043821         1.1924
 102   0.0000       0.113461         3.0874
 103   0.0000       0.124879         3.3981
 104   0.0000       0.129369         3.5203

MULLIKEN ATOMIC CHARGES
-----------------------
   0 C :   -0.099109
   1 C :    0.032582
   2 C :   -0.332833
   3 C :   -0.221317
   4 C :   -0.219795
   5 C :   -0.252830
   6 H :    0.268264
   7 H :    0.217479
   8 H :    0.179161
   9 H :    0.179673
  10 H :    0.176175
  11 C :   -0.464100
  12 C :   -0.533480
  13 H :    0.213992
  14 H :    0.245069
  15 C :    0.139231
  16 H :    0.280198
  17 H :    0.203537
  18 C :   -0.124654
  19 C :   -0.280670
  20 C :   -0.241537
  21 C :   -0.291608
  22 C :   -0.215841
  23 H :    0.280542
  24 H :    0.195567
  25 H :    0.183100
  26 H :    0.190305
  27 Pd:    0.116818
  28 Br:   -0.375836
  29 P :   -0.162564
  30 H :    0.119203
  31 C :    0.634318
  32 O :   -0.634190
  33 O :   -0.396290
  34 O :   -0.662613
  35 H :    0.096404
  36 H :    0.144590
  37 H :    0.413063
Sum of atomic charges:   -1.0000000

LOEWDIN ATOMIC CHARGES
----------------------
   0 C :   -0.098959
   1 C :   -0.065935
   2 C :   -0.150025
   3 C :   -0.169793
   4 C :   -0.169354
   5 C :   -0.153750
   6 H :    0.306112
   7 H :    0.131573
   8 H :    0.119536
   9 H :    0.117082
  10 H :    0.116001
  11 C :   -0.219866
  12 C :   -0.211542
  13 H :    0.124372
  14 H :    0.144693
  15 C :   -0.037228
  16 H :    0.161586
  17 H :    0.118671
  18 C :    0.014156
  19 C :   -0.123076
  20 C :   -0.148919
  21 C :   -0.144603
  22 C :   -0.157999
  23 H :    0.167834
  24 H :    0.126380
  25 H :    0.122174
  26 H :    0.123757
  27 Pd:   -0.743880
  28 Br:   -0.209833
  29 P :    0.382812
  30 H :    0.054629
  31 C :    0.092456
  32 O :   -0.472586
  33 O :   -0.166643
  34 O :   -0.388871
  35 H :    0.034685
  36 H :    0.068121
  37 H :    0.306233

  Mayer bond orders larger than 0.100000
B(  0-C ,  1-C ) :   1.4977 B(  0-C ,  2-C ) :   1.3592 B(  0-C ,  6-H ) :   0.1053
B(  0-C , 27-Pd) :   0.4977 B(  1-C ,  5-C ) :   1.2981 B(  1-C , 11-C ) :   0.9544
B(  2-C ,  3-C ) :   1.4634 B(  2-C ,  5-C ) :   0.1033 B(  2-C ,  7-H ) :   0.9139
B(  3-C ,  4-C ) :   1.3867 B(  3-C ,  9-H ) :   0.9271 B(  4-C ,  5-C ) :   1.4980
B(  4-C , 10-H ) :   0.9284 B(  5-C ,  8-H ) :   0.9262 B(  6-H , 27-Pd) :   0.1202
B(  6-H , 28-Br) :   0.4161 B(  6-H , 33-O ) :   0.1599 B( 11-C , 12-C ) :   0.9403
B( 11-C , 13-H ) :   0.9265 B( 11-C , 14-H ) :   0.9092 B( 12-C , 15-C ) :   0.9653
B( 12-C , 16-H ) :   0.8813 B( 12-C , 17-H ) :   0.9311 B( 15-C , 18-C ) :   1.3347
B( 15-C , 21-C ) :   1.4194 B( 18-C , 19-C ) :   1.4153 B( 18-C , 27-Pd) :   0.8403
B( 19-C , 20-C ) :   1.3935 B( 19-C , 23-H ) :   0.8640 B( 20-C , 22-C ) :   1.4441
B( 20-C , 24-H ) :   0.9255 B( 21-C , 22-C ) :   1.4089 B( 21-C , 25-H ) :   0.9259
B( 22-C , 26-H ) :   0.9273 B( 27-Pd, 28-Br) :   0.2694 B( 27-Pd, 29-P ) :   0.5876
B( 27-Pd, 33-O ) :   0.1156 B( 29-P , 30-H ) :   0.9325 B( 29-P , 35-H ) :   0.9191
B( 29-P , 36-H ) :   0.9287 B( 31-C , 32-O ) :   1.6024 B( 31-C , 33-O ) :   1.7582
B( 31-C , 34-O ) :   0.9611 B( 34-O , 37-H ) :   0.7809

Dispersion correction           -0.031389009
FINAL SINGLE POINT ENERGY     -3847.426462214258
Dispersion correction            ... done

DIPOLE MOMENT
-------------
                                X             Y             Z
Electronic contribution:      0.42734     -61.25982     -21.15352
Nuclear contribution   :      0.59238      61.65523      23.65654
                        -----------------------------------------
Total Dipole Moment    :      1.01972       0.39541       2.50302
                        -----------------------------------------
Magnitude (a.u.)       :      2.73153
Magnitude (Debye)      :      6.94301

Rotational constants in cm-1:     0.006563     0.006392     0.004325
Rotational constants in MHz :   196.750568   191.615655   129.663117

                             ****ORCA TERMINATED NORMALLY****
TOTAL RUN TIME: 0 days 0 hours 14 minutes 44 seconds 173 msec
