                         Program Version 5.0.3 -  RELEASE  -
|  1> ! EnGrad PBEh-3c
|  2> %output
|  3> xyzfile=True
|  4> end
|  5> %scf
|  6> maxiter 250
|  7> end
|  8> %output
|  9> Print[P_Hirshfeld] = 1
| 10> end
| 11> % maxcore
| 12> 4000
| 13> *xyz -1 1
| 14> C   -2.05420239  -0.09506799   0.72556696
| 15> C   -1.81222485   1.09680007   1.36176434
| 16> C   -3.48581274  -0.37839612   0.50788050
| 17> C   -4.50659662   0.44736842   1.00785587
| 18> C   -4.18390137   1.70283673   1.54695044
| 19> C   -2.87084365   1.94446783   1.84482491
| 20> H   -2.33880053  -1.91120520  -2.16848404
| 21> H   -3.78351192  -1.38630253   0.24984660
| 22> H   -2.59077437   2.94418374   2.17738965
| 23> H   -5.54226236   0.23606829   0.76542587
| 24> H   -4.94823874   2.33260072   1.96838183
| 25> C   -0.43894817   1.54691567   1.95563968
| 26> C    0.77077494   0.44184097   2.00382434
| 27> H   -0.51650134   1.92592630   2.93539640
| 28> H   -0.16072363   2.33685249   1.26298913
| 29> C    1.76337481   0.61609035   0.92543519
| 30> H    0.36046612  -0.54611261   2.02009511
| 31> H    1.27081960   0.61124175   2.95023511
| 32> C    1.58235951   0.05640437  -0.33907305
| 33> C    2.53062154   0.24227665  -1.34513516
| 34> C    3.56025191   1.17788418  -1.12564814
| 35> C    2.84094736   1.47759329   1.11641792
| 36> C    3.74191653   1.77864662   0.10218790
| 37> H    2.54010143  -0.33018014  -2.24182697
| 38> H    4.30849319   1.33175929  -1.91044592
| 39> H    3.08527738   1.77724976   2.13482018
| 40> H    4.45736636   2.58336498   0.24120617
| 41> Pd  -0.10135766  -1.26253946  -0.55946162
| 42> Br  -1.62195609  -3.61782554  -0.63688682
| 43> P    1.49355695  -2.99385753  -0.07286946
| 44> H    1.17290065  -3.62080024   1.16413260
| 45> C    0.16644417  -1.59203585  -3.90591414
| 46> O    1.42474822  -1.77480500  -4.14085936
| 47> O   -0.70000923  -2.24789784  -3.19640372
| 48> O   -0.26638032  -0.21815253  -4.10997775
| 49> H    2.81968711  -2.78827038   0.16566514
| 50> H    1.56878232  -4.12160798  -0.88401442
| 51> H    0.45982964   0.27818831  -4.49666511
| 52> *
| 53>
| 54>                          ****END OF INPUT****

CARTESIAN COORDINATES (ANGSTROEM)
---------------------------------
  C     -2.054202   -0.095068    0.725567
  C     -1.812225    1.096800    1.361764
  C     -3.485813   -0.378396    0.507880
  C     -4.506597    0.447368    1.007856
  C     -4.183901    1.702837    1.546950
  C     -2.870844    1.944468    1.844825
  H     -2.338801   -1.911205   -2.168484
  H     -3.783512   -1.386303    0.249847
  H     -2.590774    2.944184    2.177390
  H     -5.542262    0.236068    0.765426
  H     -4.948239    2.332601    1.968382
  C     -0.438948    1.546916    1.955640
  C      0.770775    0.441841    2.003824
  H     -0.516501    1.925926    2.935396
  H     -0.160724    2.336852    1.262989
  C      1.763375    0.616090    0.925435
  H      0.360466   -0.546113    2.020095
  H      1.270820    0.611242    2.950235
  C      1.582360    0.056404   -0.339073
  C      2.530622    0.242277   -1.345135
  C      3.560252    1.177884   -1.125648
  C      2.840947    1.477593    1.116418
  C      3.741917    1.778647    0.102188
  H      2.540101   -0.330180   -2.241827
  H      4.308493    1.331759   -1.910446
  H      3.085277    1.777250    2.134820
  H      4.457366    2.583365    0.241206
  Pd    -0.101358   -1.262539   -0.559462
  Br    -1.621956   -3.617826   -0.636887
  P      1.493557   -2.993858   -0.072869
  H      1.172901   -3.620800    1.164133
  C      0.166444   -1.592036   -3.905914
  O      1.424748   -1.774805   -4.140859
  O     -0.700009   -2.247898   -3.196404
  O     -0.266380   -0.218153   -4.109978
  H      2.819687   -2.788270    0.165665
  H      1.568782   -4.121608   -0.884014
  H      0.459830    0.278188   -4.496665

 Total Charge           Charge          ....   -1
 Multiplicity           Mult            ....    1
 Number of Electrons    NEL             ....  200
 Basis Dimension        Dim             ....  385

ORBITAL ENERGIES
----------------

  NO   OCC          E(Eh)            E(eV)
   0   2.0000    -484.385303    -13180.7942
   1   2.0000     -77.670156     -2113.5124
   2   2.0000     -63.046064     -1715.5706
   3   2.0000     -56.749641     -1544.2362
   4   2.0000     -56.748934     -1544.2170
   5   2.0000     -56.748457     -1544.2040
   6   2.0000     -19.373980      -527.1928
   7   2.0000     -19.363239      -526.9005
   8   2.0000     -19.327717      -525.9339
   9   2.0000     -10.473522      -284.9990
  10   2.0000     -10.353830      -281.7420
  11   2.0000     -10.344547      -281.4894
  12   2.0000     -10.343547      -281.4622
  13   2.0000     -10.343053      -281.4488
  14   2.0000     -10.341640      -281.4103
  15   2.0000     -10.336222      -281.2629
  16   2.0000     -10.328446      -281.0513
  17   2.0000     -10.327522      -281.0262
  18   2.0000     -10.324677      -280.9487
  19   2.0000     -10.322218      -280.8818
  20   2.0000     -10.321513      -280.8627
  21   2.0000     -10.320274      -280.8289
  22   2.0000     -10.320173      -280.8262
  23   2.0000     -10.309817      -280.5444
  24   2.0000      -8.872753      -241.4399
  25   2.0000      -6.746207      -183.5736
  26   2.0000      -6.643335      -180.7743
  27   2.0000      -6.638079      -180.6313
  28   2.0000      -6.634942      -180.5459
  29   2.0000      -4.837287      -131.6293
  30   2.0000      -4.836894      -131.6186
  31   2.0000      -4.835131      -131.5706
  32   2.0000      -3.511663       -95.5572
  33   2.0000      -2.657428       -72.3123
  34   2.0000      -2.656570       -72.2889
  35   2.0000      -2.653910       -72.2166
  36   2.0000      -2.649419       -72.0944
  37   2.0000      -2.649123       -72.0863
  38   2.0000      -2.160001       -58.7766
  39   2.0000      -2.149237       -58.4837
  40   2.0000      -2.129291       -57.9410
  41   2.0000      -1.044802       -28.4305
  42   2.0000      -0.950182       -25.8558
  43   2.0000      -0.922614       -25.1056
  44   2.0000      -0.850856       -23.1530
  45   2.0000      -0.816096       -22.2071
  46   2.0000      -0.769266       -20.9328
  47   2.0000      -0.725196       -19.7336
  48   2.0000      -0.722863       -19.6701
  49   2.0000      -0.690843       -18.7988
  50   2.0000      -0.685432       -18.6516
  51   2.0000      -0.668530       -18.1916
  52   2.0000      -0.647339       -17.6150
  53   2.0000      -0.606482       -16.5032
  54   2.0000      -0.569232       -15.4896
  55   2.0000      -0.544943       -14.8286
  56   2.0000      -0.539954       -14.6929
  57   2.0000      -0.517003       -14.0684
  58   2.0000      -0.506963       -13.7952
  59   2.0000      -0.462029       -12.5724
  60   2.0000      -0.440642       -11.9905
  61   2.0000      -0.420437       -11.4407
  62   2.0000      -0.413652       -11.2560
  63   2.0000      -0.407100       -11.0777
  64   2.0000      -0.386057       -10.5052
  65   2.0000      -0.380830       -10.3629
  66   2.0000      -0.379628       -10.3302
  67   2.0000      -0.375324       -10.2131
  68   2.0000      -0.372380       -10.1330
  69   2.0000      -0.367598       -10.0029
  70   2.0000      -0.360729        -9.8159
  71   2.0000      -0.353245        -9.6123
  72   2.0000      -0.338464        -9.2101
  73   2.0000      -0.335265        -9.1230
  74   2.0000      -0.327417        -8.9095
  75   2.0000      -0.322473        -8.7749
  76   2.0000      -0.317536        -8.6406
  77   2.0000      -0.300836        -8.1862
  78   2.0000      -0.293341        -7.9822
  79   2.0000      -0.285829        -7.7778
  80   2.0000      -0.279965        -7.6182
  81   2.0000      -0.272587        -7.4175
  82   2.0000      -0.255802        -6.9607
  83   2.0000      -0.251340        -6.8393
  84   2.0000      -0.249696        -6.7946
  85   2.0000      -0.235090        -6.3971
  86   2.0000      -0.229449        -6.2436
  87   2.0000      -0.215671        -5.8687
  88   2.0000      -0.209460        -5.6997
  89   2.0000      -0.201242        -5.4761
  90   2.0000      -0.199102        -5.4178
  91   2.0000      -0.188004        -5.1158
  92   2.0000      -0.185791        -5.0556
  93   2.0000      -0.175872        -4.7857
  94   2.0000      -0.175168        -4.7666
  95   2.0000      -0.167419        -4.5557
  96   2.0000      -0.164968        -4.4890
  97   2.0000      -0.151648        -4.1266
  98   2.0000      -0.148518        -4.0414
  99   2.0000      -0.109696        -2.9850
 100   0.0000      -0.009763        -0.2657
 101   0.0000       0.054680         1.4879
 102   0.0000       0.116545         3.1713
 103   0.0000       0.126822         3.4510
 104   0.0000       0.137590         3.7440

MULLIKEN ATOMIC CHARGES
-----------------------
   0 C :   -0.131522
   1 C :    0.030296
   2 C :   -0.324996
   3 C :   -0.234393
   4 C :   -0.223593
   5 C :   -0.239471
   6 H :    0.316914
   7 H :    0.204557
   8 H :    0.174903
   9 H :    0.174856
  10 H :    0.172268
  11 C :   -0.464904
  12 C :   -0.521047
  13 H :    0.210099
  14 H :    0.238270
  15 C :    0.132492
  16 H :    0.281643
  17 H :    0.194074
  18 C :   -0.117513
  19 C :   -0.284482
  20 C :   -0.245020
  21 C :   -0.277502
  22 C :   -0.222807
  23 H :    0.273014
  24 H :    0.188571
  25 H :    0.177469
  26 H :    0.187441
  27 Pd:    0.130562
  28 Br:   -0.361213
  29 P :   -0.178693
  30 H :    0.113005
  31 C :    0.702052
  32 O :   -0.558766
  33 O :   -0.508198
  34 O :   -0.655357
  35 H :    0.102474
  36 H :    0.133132
  37 H :    0.411381
Sum of atomic charges:   -1.0000000

LOEWDIN ATOMIC CHARGES
----------------------
   0 C :   -0.118662
   1 C :   -0.062787
   2 C :   -0.149761
   3 C :   -0.172523
   4 C :   -0.171773
   5 C :   -0.156940
   6 H :    0.353772
   7 H :    0.126989
   8 H :    0.115653
   9 H :    0.115125
  10 H :    0.115424
  11 C :   -0.220928
  12 C :   -0.212328
  13 H :    0.123175
  14 H :    0.142230
  15 C :   -0.045742
  16 H :    0.163385
  17 H :    0.116426
  18 C :    0.012394
  19 C :   -0.131769
  20 C :   -0.147821
  21 C :   -0.142075
  22 C :   -0.164937
  23 H :    0.162736
  24 H :    0.122655
  25 H :    0.120941
  26 H :    0.123674
  27 Pd:   -0.771783
  28 Br:   -0.159463
  29 P :    0.348819
  30 H :    0.052696
  31 C :    0.195413
  32 O :   -0.392322
  33 O :   -0.297623
  34 O :   -0.400590
  35 H :    0.038791
  36 H :    0.061318
  37 H :    0.308212

  Mayer bond orders larger than 0.100000
B(  0-C ,  1-C ) :   1.4717 B(  0-C ,  2-C ) :   1.3287 B(  0-C , 27-Pd) :   0.5840
B(  1-C ,  5-C ) :   1.2890 B(  1-C , 11-C ) :   0.9574 B(  2-C ,  3-C ) :   1.4783
B(  2-C ,  7-H ) :   0.9147 B(  3-C ,  4-C ) :   1.3614 B(  3-C ,  9-H ) :   0.9276
B(  4-C ,  5-C ) :   1.5004 B(  4-C , 10-H ) :   0.9289 B(  5-C ,  8-H ) :   0.9246
B(  6-H , 28-Br) :   0.4744 B(  6-H , 33-O ) :   0.2799 B( 11-C , 12-C ) :   0.9446
B( 11-C , 13-H ) :   0.9274 B( 11-C , 14-H ) :   0.9091 B( 12-C , 15-C ) :   0.9830
B( 12-C , 16-H ) :   0.8787 B( 12-C , 17-H ) :   0.9261 B( 15-C , 18-C ) :   1.3418
B( 15-C , 21-C ) :   1.4066 B( 18-C , 19-C ) :   1.4197 B( 18-C , 27-Pd) :   0.8016
B( 19-C , 20-C ) :   1.3999 B( 19-C , 23-H ) :   0.8725 B( 20-C , 22-C ) :   1.4369
B( 20-C , 24-H ) :   0.9263 B( 21-C , 22-C ) :   1.4107 B( 21-C , 25-H ) :   0.9252
B( 22-C , 26-H ) :   0.9276 B( 27-Pd, 28-Br) :   0.2887 B( 27-Pd, 29-P ) :   0.4803
B( 27-Pd, 33-O ) :   0.1156 B( 29-P , 30-H ) :   0.9381 B( 29-P , 35-H ) :   0.9241
B( 29-P , 36-H ) :   0.9326 B( 31-C , 32-O ) :   1.7416 B( 31-C , 33-O ) :   1.4885
B( 31-C , 34-O ) :   0.9594 B( 34-O , 37-H ) :   0.7820

Dispersion correction           -0.031456749
FINAL SINGLE POINT ENERGY     -3847.448833475244
Dispersion correction            ... done

DIPOLE MOMENT
-------------
                                X             Y             Z
Electronic contribution:     -6.39265     -61.89785     -19.40756
Nuclear contribution   :      7.63781      61.78691      21.03535
                        -----------------------------------------
Total Dipole Moment    :      1.24516      -0.11095       1.62779
                        -----------------------------------------
Magnitude (a.u.)       :      2.05242
Magnitude (Debye)      :      5.21684

Rotational constants in cm-1:     0.006596     0.006482     0.004362
Rotational constants in MHz :   197.737176   194.311799   130.761311

                             ****ORCA TERMINATED NORMALLY****
TOTAL RUN TIME: 0 days 0 hours 10 minutes 45 seconds 526 msec
