                         Program Version 5.0.3 -  RELEASE  -
|  1> ! EnGrad PBEh-3c
|  2> %output
|  3> xyzfile=True
|  4> end
|  5> %scf
|  6> maxiter 250
|  7> end
|  8> %output
|  9> Print[P_Hirshfeld] = 1
| 10> end
| 11> % maxcore
| 12> 4000
| 13> *xyz -1 1
| 14> C   -2.09836596  -0.06761636   0.69897368
| 15> C   -1.82700413   1.04565154   1.42726277
| 16> C   -3.50832370  -0.38436369   0.54621643
| 17> C   -4.52047841   0.47444675   0.99089222
| 18> C   -4.18820561   1.67033966   1.60438097
| 19> C   -2.86459579   1.93980290   1.84287666
| 20> H   -2.42808023  -1.82952056  -2.13341615
| 21> H   -3.80929661  -1.39229879   0.33269653
| 22> H   -2.60821451   2.94783199   2.15758804
| 23> H   -5.55815789   0.24582224   0.78720502
| 24> H   -4.95416948   2.31957914   1.99699178
| 25> C   -0.44042368   1.51839387   1.91040408
| 26> C    0.75677220   0.45756094   1.98436143
| 27> H   -0.49130404   1.95658510   2.86703452
| 28> H   -0.19949297   2.31579259   1.20617131
| 29> C    1.75531665   0.63169413   0.90161688
| 30> H    0.36263953  -0.53886864   2.00631578
| 31> H    1.25833323   0.60112094   2.94077256
| 32> C    1.57153484   0.06782733  -0.36196294
| 33> C    2.55099045   0.24512760  -1.34012476
| 34> C    3.58991724   1.16884674  -1.12017470
| 35> C    2.87262629   1.43228257   1.12334472
| 36> C    3.73919310   1.78440231   0.09784543
| 37> H    2.57860213  -0.33489807  -2.22934073
| 38> H    4.33287770   1.33298641  -1.90681123
| 39> H    3.08763955   1.77230205   2.13413980
| 40> H    4.44783582   2.59532202   0.23733795
| 41> Pd  -0.01016794  -1.26115276  -0.59399846
| 42> Br  -1.59389591  -3.66931943  -0.64488145
| 43> P    1.46142970  -2.99558455  -0.05383517
| 44> H    1.15249204  -3.61617514   1.18156260
| 45> C    0.17208234  -1.55454503  -3.85235258
| 46> O    1.43338893  -1.79150434  -4.15670983
| 47> O   -0.62657672  -2.21362064  -3.25202676
| 48> O   -0.24590621  -0.22562649  -4.14962996
| 49> H    2.80216724  -2.79663080   0.19884768
| 50> H    1.58574039  -4.12769053  -0.85628981
| 51> H    0.45870943   0.27664427  -4.52329206
| 52> *
| 53>
| 54>                          ****END OF INPUT****

CARTESIAN COORDINATES (ANGSTROEM)
---------------------------------
  C     -2.098366   -0.067616    0.698974
  C     -1.827004    1.045652    1.427263
  C     -3.508324   -0.384364    0.546216
  C     -4.520478    0.474447    0.990892
  C     -4.188206    1.670340    1.604381
  C     -2.864596    1.939803    1.842877
  H     -2.428080   -1.829521   -2.133416
  H     -3.809297   -1.392299    0.332697
  H     -2.608215    2.947832    2.157588
  H     -5.558158    0.245822    0.787205
  H     -4.954169    2.319579    1.996992
  C     -0.440424    1.518394    1.910404
  C      0.756772    0.457561    1.984361
  H     -0.491304    1.956585    2.867035
  H     -0.199493    2.315793    1.206171
  C      1.755317    0.631694    0.901617
  H      0.362640   -0.538869    2.006316
  H      1.258333    0.601121    2.940773
  C      1.571535    0.067827   -0.361963
  C      2.550990    0.245128   -1.340125
  C      3.589917    1.168847   -1.120175
  C      2.872626    1.432283    1.123345
  C      3.739193    1.784402    0.097845
  H      2.578602   -0.334898   -2.229341
  H      4.332878    1.332986   -1.906811
  H      3.087640    1.772302    2.134140
  H      4.447836    2.595322    0.237338
  Pd    -0.010168   -1.261153   -0.593998
  Br    -1.593896   -3.669319   -0.644881
  P      1.461430   -2.995585   -0.053835
  H      1.152492   -3.616175    1.181563
  C      0.172082   -1.554545   -3.852353
  O      1.433389   -1.791504   -4.156710
  O     -0.626577   -2.213621   -3.252027
  O     -0.245906   -0.225626   -4.149630
  H      2.802167   -2.796631    0.198848
  H      1.585740   -4.127691   -0.856290
  H      0.458709    0.276644   -4.523292

 Total Charge           Charge          ....   -1
 Multiplicity           Mult            ....    1
 Number of Electrons    NEL             ....  200
 Basis Dimension        Dim             ....  385

ORBITAL ENERGIES
----------------

  NO   OCC          E(Eh)            E(eV)
   0   2.0000    -484.383819    -13180.7538
   1   2.0000     -77.676469     -2113.6842
   2   2.0000     -63.044663     -1715.5325
   3   2.0000     -56.748163     -1544.1960
   4   2.0000     -56.747530     -1544.1788
   5   2.0000     -56.747116     -1544.1675
   6   2.0000     -19.362458      -526.8793
   7   2.0000     -19.347642      -526.4761
   8   2.0000     -19.294678      -525.0349
   9   2.0000     -10.447101      -284.2801
  10   2.0000     -10.357438      -281.8402
  11   2.0000     -10.347719      -281.5757
  12   2.0000     -10.345867      -281.5254
  13   2.0000     -10.345186      -281.5068
  14   2.0000     -10.344663      -281.4926
  15   2.0000     -10.336891      -281.2811
  16   2.0000     -10.333037      -281.1762
  17   2.0000     -10.329572      -281.0819
  18   2.0000     -10.328748      -281.0595
  19   2.0000     -10.324783      -280.9516
  20   2.0000     -10.323923      -280.9282
  21   2.0000     -10.323308      -280.9115
  22   2.0000     -10.322104      -280.8787
  23   2.0000     -10.314993      -280.6852
  24   2.0000      -8.871345      -241.4016
  25   2.0000      -6.752104      -183.7341
  26   2.0000      -6.641755      -180.7313
  27   2.0000      -6.636755      -180.5953
  28   2.0000      -6.633589      -180.5091
  29   2.0000      -4.843193      -131.7900
  30   2.0000      -4.842790      -131.7790
  31   2.0000      -4.841178      -131.7352
  32   2.0000      -3.524606       -95.9094
  33   2.0000      -2.655877       -72.2701
  34   2.0000      -2.655083       -72.2485
  35   2.0000      -2.652409       -72.1757
  36   2.0000      -2.648149       -72.0598
  37   2.0000      -2.647824       -72.0510
  38   2.0000      -2.173069       -59.1322
  39   2.0000      -2.163234       -58.8646
  40   2.0000      -2.141932       -58.2849
  41   2.0000      -1.061342       -28.8806
  42   2.0000      -0.969871       -26.3915
  43   2.0000      -0.890596       -24.2344
  44   2.0000      -0.855033       -23.2666
  45   2.0000      -0.826127       -22.4801
  46   2.0000      -0.776030       -21.1169
  47   2.0000      -0.732635       -19.9360
  48   2.0000      -0.726864       -19.7790
  49   2.0000      -0.697432       -18.9781
  50   2.0000      -0.684004       -18.6127
  51   2.0000      -0.677132       -18.4257
  52   2.0000      -0.650428       -17.6990
  53   2.0000      -0.612108       -16.6563
  54   2.0000      -0.573162       -15.5965
  55   2.0000      -0.551693       -15.0123
  56   2.0000      -0.545327       -14.8391
  57   2.0000      -0.518137       -14.0992
  58   2.0000      -0.512368       -13.9422
  59   2.0000      -0.466565       -12.6959
  60   2.0000      -0.448166       -12.1952
  61   2.0000      -0.425271       -11.5722
  62   2.0000      -0.411237       -11.1903
  63   2.0000      -0.408211       -11.1080
  64   2.0000      -0.391522       -10.6538
  65   2.0000      -0.386260       -10.5107
  66   2.0000      -0.377964       -10.2849
  67   2.0000      -0.376846       -10.2545
  68   2.0000      -0.372991       -10.1496
  69   2.0000      -0.368294       -10.0218
  70   2.0000      -0.365229        -9.9384
  71   2.0000      -0.358853        -9.7649
  72   2.0000      -0.346621        -9.4320
  73   2.0000      -0.339853        -9.2479
  74   2.0000      -0.331853        -9.0302
  75   2.0000      -0.326963        -8.8971
  76   2.0000      -0.314569        -8.5599
  77   2.0000      -0.304373        -8.2824
  78   2.0000      -0.301123        -8.1940
  79   2.0000      -0.292885        -7.9698
  80   2.0000      -0.286992        -7.8094
  81   2.0000      -0.276239        -7.5168
  82   2.0000      -0.266197        -7.2436
  83   2.0000      -0.257512        -7.0073
  84   2.0000      -0.257112        -6.9964
  85   2.0000      -0.236409        -6.4330
  86   2.0000      -0.230585        -6.2745
  87   2.0000      -0.220590        -6.0026
  88   2.0000      -0.217157        -5.9091
  89   2.0000      -0.201055        -5.4710
  90   2.0000      -0.198999        -5.4151
  91   2.0000      -0.188938        -5.1413
  92   2.0000      -0.178931        -4.8690
  93   2.0000      -0.176167        -4.7937
  94   2.0000      -0.173162        -4.7120
  95   2.0000      -0.164489        -4.4760
  96   2.0000      -0.160322        -4.3626
  97   2.0000      -0.152308        -4.1445
  98   2.0000      -0.149304        -4.0628
  99   2.0000      -0.108352        -2.9484
 100   0.0000      -0.028082        -0.7642
 101   0.0000       0.047628         1.2960
 102   0.0000       0.115024         3.1300
 103   0.0000       0.125765         3.4222
 104   0.0000       0.133391         3.6298

MULLIKEN ATOMIC CHARGES
-----------------------
   0 C :   -0.111537
   1 C :    0.035809
   2 C :   -0.335763
   3 C :   -0.225889
   4 C :   -0.220642
   5 C :   -0.249496
   6 H :    0.289101
   7 H :    0.211808
   8 H :    0.176829
   9 H :    0.177700
  10 H :    0.174497
  11 C :   -0.463471
  12 C :   -0.530247
  13 H :    0.212681
  14 H :    0.242493
  15 C :    0.142054
  16 H :    0.280659
  17 H :    0.200388
  18 C :   -0.122141
  19 C :   -0.281498
  20 C :   -0.244554
  21 C :   -0.290696
  22 C :   -0.215535
  23 H :    0.278525
  24 H :    0.193302
  25 H :    0.181801
  26 H :    0.188951
  27 Pd:    0.118214
  28 Br:   -0.364338
  29 P :   -0.167908
  30 H :    0.116950
  31 C :    0.661082
  32 O :   -0.613001
  33 O :   -0.437644
  34 O :   -0.661057
  35 H :    0.098800
  36 H :    0.140596
  37 H :    0.413175
Sum of atomic charges:   -1.0000000

LOEWDIN ATOMIC CHARGES
----------------------
   0 C :   -0.110473
   1 C :   -0.065625
   2 C :   -0.151425
   3 C :   -0.171036
   4 C :   -0.170558
   5 C :   -0.155098
   6 H :    0.327315
   7 H :    0.129407
   8 H :    0.118023
   9 H :    0.116278
  10 H :    0.115760
  11 C :   -0.219798
  12 C :   -0.211447
  13 H :    0.123838
  14 H :    0.143733
  15 C :   -0.039952
  16 H :    0.162160
  17 H :    0.117825
  18 C :    0.015138
  19 C :   -0.126139
  20 C :   -0.148496
  21 C :   -0.143677
  22 C :   -0.160461
  23 H :    0.166378
  24 H :    0.125246
  25 H :    0.121844
  26 H :    0.123718
  27 Pd:   -0.753984
  28 Br:   -0.187314
  29 P :    0.372530
  30 H :    0.053785
  31 C :    0.126725
  32 O :   -0.449779
  33 O :   -0.211459
  34 O :   -0.392409
  35 H :    0.036394
  36 H :    0.065705
  37 H :    0.307329

  Mayer bond orders larger than 0.100000
B(  0-C ,  1-C ) :   1.4928 B(  0-C ,  2-C ) :   1.3516 B(  0-C , 27-Pd) :   0.5330
B(  1-C ,  5-C ) :   1.2966 B(  1-C , 11-C ) :   0.9529 B(  2-C ,  3-C ) :   1.4672
B(  2-C ,  5-C ) :   0.1010 B(  2-C ,  7-H ) :   0.9150 B(  3-C ,  4-C ) :   1.3821
B(  3-C ,  9-H ) :   0.9276 B(  4-C ,  5-C ) :   1.4975 B(  4-C , 10-H ) :   0.9288
B(  5-C ,  8-H ) :   0.9263 B(  6-H , 28-Br) :   0.4512 B(  6-H , 33-O ) :   0.1975
B( 11-C , 12-C ) :   0.9426 B( 11-C , 13-H ) :   0.9275 B( 11-C , 14-H ) :   0.9095
B( 12-C , 15-C ) :   0.9696 B( 12-C , 16-H ) :   0.8806 B( 12-C , 17-H ) :   0.9297
B( 15-C , 18-C ) :   1.3371 B( 15-C , 21-C ) :   1.4167 B( 18-C , 19-C ) :   1.4171
B( 18-C , 27-Pd) :   0.8310 B( 19-C , 20-C ) :   1.3951 B( 19-C , 23-H ) :   0.8666
B( 20-C , 22-C ) :   1.4416 B( 20-C , 24-H ) :   0.9259 B( 21-C , 22-C ) :   1.4095
B( 21-C , 25-H ) :   0.9257 B( 22-C , 26-H ) :   0.9276 B( 27-Pd, 28-Br) :   0.2710
B( 27-Pd, 29-P ) :   0.5534 B( 27-Pd, 33-O ) :   0.1164 B( 29-P , 30-H ) :   0.9342
B( 29-P , 35-H ) :   0.9212 B( 29-P , 36-H ) :   0.9300 B( 31-C , 32-O ) :   1.6498
B( 31-C , 33-O ) :   1.6699 B( 31-C , 34-O ) :   0.9616 B( 34-O , 37-H ) :   0.7807

Dispersion correction           -0.031417861
FINAL SINGLE POINT ENERGY     -3847.445629236722
Dispersion correction            ... done

DIPOLE MOMENT
-------------
                                X             Y             Z
Electronic contribution:     -1.69352     -61.50611     -20.63286
Nuclear contribution   :      2.77718      61.69606      22.84370
                        -----------------------------------------
Total Dipole Moment    :      1.08366       0.18995       2.21084
                        -----------------------------------------
Magnitude (a.u.)       :      2.46946
Magnitude (Debye)      :      6.27686

Rotational constants in cm-1:     0.006574     0.006421     0.004337
Rotational constants in MHz :   197.076325   192.483981   130.021605

                             ****ORCA TERMINATED NORMALLY****
TOTAL RUN TIME: 0 days 0 hours 13 minutes 45 seconds 625 msec
