                         Program Version 5.0.3 -  RELEASE  -
|  1> ! EnGrad PBEh-3c
|  2> %output
|  3> xyzfile=True
|  4> end
|  5> %scf
|  6> maxiter 250
|  7> end
|  8> %output
|  9> Print[P_Hirshfeld] = 1
| 10> end
| 11> % maxcore
| 12> 4000
| 13> *xyz -1 1
| 14> C   -2.02878264  -0.13331873   0.73034631
| 15> C   -1.80029296   1.15655053   1.33339365
| 16> C   -3.45234882  -0.37146919   0.49810592
| 17> C   -4.48705107   0.42405978   1.01676443
| 18> C   -4.18324526   1.71775289   1.50610224
| 19> C   -2.86316978   1.95076495   1.83145237
| 20> H   -2.22801694  -1.99441312  -2.18054998
| 21> H   -3.76216820  -1.38364578   0.17035963
| 22> H   -2.57418946   2.93504449   2.20671382
| 23> H   -5.53150759   0.22266406   0.75524631
| 24> H   -4.94685101   2.34914609   1.94299128
| 25> C   -0.42820062   1.54576121   1.95408031
| 26> C    0.76395711   0.44963482   2.02214021
| 27> H   -0.54407306   1.91284915   3.00030872
| 28> H   -0.11922101   2.35352689   1.30384494
| 29> C    1.77142648   0.60583654   0.93584381
| 30> H    0.35149682  -0.56008012   2.02918851
| 31> H    1.27914913   0.62168022   2.96006930
| 32> C    1.57663580   0.02678786  -0.32097589
| 33> C    2.51852050   0.24701650  -1.33669450
| 34> C    3.53975311   1.17669085  -1.13914724
| 35> C    2.81804053   1.51572195   1.11487484
| 36> C    3.73711170   1.77755456   0.10641532
| 37> H    2.50481226  -0.33070022  -2.26391886
| 38> H    4.28458506   1.33119786  -1.91123940
| 39> H    3.07730776   1.78673508   2.13342353
| 40> H    4.47134578   2.56607941   0.24696537
| 41> Pd  -0.17480157  -1.26379271  -0.51593506
| 42> Br  -1.65845588  -3.55146302  -0.64593284
| 43> P    1.50382611  -2.98327341  -0.08888913
| 44> H    1.18659491  -3.62162479   1.14560012
| 45> C    0.16642982  -1.61839833  -3.91379728
| 46> O    1.35984186  -1.76271565  -4.12253607
| 47> O   -0.72087930  -2.23554393  -3.18247363
| 48> O   -0.28326315  -0.23608549  -4.07975454
| 49> H    2.84768120  -2.77834615   0.14496912
| 50> H    1.55512155  -4.12068638  -0.90570460
| 51> H    0.46657604   0.27503782  -4.47995005
| 52> *
| 53>
| 54>                          ****END OF INPUT****

CARTESIAN COORDINATES (ANGSTROEM)
---------------------------------
  C     -2.028783   -0.133319    0.730346
  C     -1.800293    1.156551    1.333394
  C     -3.452349   -0.371469    0.498106
  C     -4.487051    0.424060    1.016764
  C     -4.183245    1.717753    1.506102
  C     -2.863170    1.950765    1.831452
  H     -2.228017   -1.994413   -2.180550
  H     -3.762168   -1.383646    0.170360
  H     -2.574189    2.935044    2.206714
  H     -5.531508    0.222664    0.755246
  H     -4.946851    2.349146    1.942991
  C     -0.428201    1.545761    1.954080
  C      0.763957    0.449635    2.022140
  H     -0.544073    1.912849    3.000309
  H     -0.119221    2.353527    1.303845
  C      1.771426    0.605837    0.935844
  H      0.351497   -0.560080    2.029189
  H      1.279149    0.621680    2.960069
  C      1.576636    0.026788   -0.320976
  C      2.518521    0.247016   -1.336694
  C      3.539753    1.176691   -1.139147
  C      2.818041    1.515722    1.114875
  C      3.737112    1.777555    0.106415
  H      2.504812   -0.330700   -2.263919
  H      4.284585    1.331198   -1.911239
  H      3.077308    1.786735    2.133424
  H      4.471346    2.566079    0.246965
  Pd    -0.174802   -1.263793   -0.515935
  Br    -1.658456   -3.551463   -0.645933
  P      1.503826   -2.983273   -0.088889
  H      1.186595   -3.621625    1.145600
  C      0.166430   -1.618398   -3.913797
  O      1.359842   -1.762716   -4.122536
  O     -0.720879   -2.235544   -3.182474
  O     -0.283263   -0.236085   -4.079755
  H      2.847681   -2.778346    0.144969
  H      1.555122   -4.120686   -0.905705
  H      0.466576    0.275038   -4.479950

 Total Charge           Charge          ....   -1
 Multiplicity           Mult            ....    1
 Number of Electrons    NEL             ....  200
 Basis Dimension        Dim             ....  385

ORBITAL ENERGIES
----------------

  NO   OCC          E(Eh)            E(eV)
   0   2.0000    -484.389390    -13180.9054
   1   2.0000     -77.671212     -2113.5411
   2   2.0000     -63.050146     -1715.6817
   3   2.0000     -56.753801     -1544.3494
   4   2.0000     -56.753023     -1544.3283
   5   2.0000     -56.752460     -1544.3130
   6   2.0000     -19.364608      -526.9378
   7   2.0000     -19.356803      -526.7254
   8   2.0000     -19.337142      -526.1904
   9   2.0000     -10.468476      -284.8617
  10   2.0000     -10.351588      -281.6810
  11   2.0000     -10.344196      -281.4799
  12   2.0000     -10.342984      -281.4469
  13   2.0000     -10.341354      -281.4025
  14   2.0000     -10.339985      -281.3653
  15   2.0000     -10.337804      -281.3059
  16   2.0000     -10.331035      -281.1218
  17   2.0000     -10.328999      -281.0663
  18   2.0000     -10.327871      -281.0357
  19   2.0000     -10.324157      -280.9346
  20   2.0000     -10.323603      -280.9195
  21   2.0000     -10.319535      -280.8088
  22   2.0000     -10.319163      -280.7987
  23   2.0000     -10.316289      -280.7205
  24   2.0000      -8.876923      -241.5533
  25   2.0000      -6.746548      -183.5829
  26   2.0000      -6.647451      -180.8863
  27   2.0000      -6.642397      -180.7488
  28   2.0000      -6.639060      -180.6580
  29   2.0000      -4.837565      -131.6368
  30   2.0000      -4.837302      -131.6297
  31   2.0000      -4.835481      -131.5801
  32   2.0000      -3.509181       -95.4897
  33   2.0000      -2.661623       -72.4264
  34   2.0000      -2.660820       -72.4046
  35   2.0000      -2.657980       -72.3273
  36   2.0000      -2.653648       -72.2094
  37   2.0000      -2.653320       -72.2005
  38   2.0000      -2.157274       -58.7024
  39   2.0000      -2.146506       -58.4094
  40   2.0000      -2.126601       -57.8678
  41   2.0000      -1.056811       -28.7573
  42   2.0000      -0.949552       -25.8386
  43   2.0000      -0.936454       -25.4822
  44   2.0000      -0.846770       -23.0418
  45   2.0000      -0.812096       -22.0983
  46   2.0000      -0.765890       -20.8409
  47   2.0000      -0.722835       -19.6694
  48   2.0000      -0.718953       -19.5637
  49   2.0000      -0.692078       -18.8324
  50   2.0000      -0.687135       -18.6979
  51   2.0000      -0.663884       -18.0652
  52   2.0000      -0.644879       -17.5480
  53   2.0000      -0.600261       -16.3339
  54   2.0000      -0.565694       -15.3933
  55   2.0000      -0.541083       -14.7236
  56   2.0000      -0.531618       -14.4661
  57   2.0000      -0.507082       -13.7984
  58   2.0000      -0.504174       -13.7193
  59   2.0000      -0.458792       -12.4844
  60   2.0000      -0.435667       -11.8551
  61   2.0000      -0.417872       -11.3709
  62   2.0000      -0.416718       -11.3395
  63   2.0000      -0.403627       -10.9833
  64   2.0000      -0.390298       -10.6206
  65   2.0000      -0.380176       -10.3451
  66   2.0000      -0.376992       -10.2585
  67   2.0000      -0.372554       -10.1377
  68   2.0000      -0.369165       -10.0455
  69   2.0000      -0.365267        -9.9394
  70   2.0000      -0.364379        -9.9152
  71   2.0000      -0.352808        -9.6004
  72   2.0000      -0.337818        -9.1925
  73   2.0000      -0.327986        -8.9249
  74   2.0000      -0.325954        -8.8697
  75   2.0000      -0.325565        -8.8591
  76   2.0000      -0.319897        -8.7048
  77   2.0000      -0.297095        -8.0844
  78   2.0000      -0.288159        -7.8412
  79   2.0000      -0.282853        -7.6968
  80   2.0000      -0.279127        -7.5954
  81   2.0000      -0.267619        -7.2823
  82   2.0000      -0.258459        -7.0330
  83   2.0000      -0.253027        -6.8852
  84   2.0000      -0.241156        -6.5622
  85   2.0000      -0.231604        -6.3023
  86   2.0000      -0.226882        -6.1738
  87   2.0000      -0.215494        -5.8639
  88   2.0000      -0.210555        -5.7295
  89   2.0000      -0.207514        -5.6468
  90   2.0000      -0.198995        -5.4149
  91   2.0000      -0.189232        -5.1493
  92   2.0000      -0.186949        -5.0871
  93   2.0000      -0.182126        -4.9559
  94   2.0000      -0.175750        -4.7824
  95   2.0000      -0.165312        -4.4984
  96   2.0000      -0.165007        -4.4901
  97   2.0000      -0.152868        -4.1597
  98   2.0000      -0.141167        -3.8413
  99   2.0000      -0.115679        -3.1478
 100   0.0000       0.015009         0.4084
 101   0.0000       0.056591         1.5399
 102   0.0000       0.117015         3.1841
 103   0.0000       0.125534         3.4160
 104   0.0000       0.142835         3.8867

MULLIKEN ATOMIC CHARGES
-----------------------
   0 C :   -0.132442
   1 C :    0.025940
   2 C :   -0.309537
   3 C :   -0.231776
   4 C :   -0.227990
   5 C :   -0.236572
   6 H :    0.336464
   7 H :    0.195101
   8 H :    0.174330
   9 H :    0.173296
  10 H :    0.171662
  11 C :   -0.461394
  12 C :   -0.506139
  13 H :    0.192883
  14 H :    0.239138
  15 C :    0.097324
  16 H :    0.276866
  17 H :    0.192232
  18 C :   -0.104308
  19 C :   -0.296512
  20 C :   -0.232243
  21 C :   -0.254175
  22 C :   -0.239490
  23 H :    0.264666
  24 H :    0.189338
  25 H :    0.176483
  26 H :    0.186497
  27 Pd:    0.143787
  28 Br:   -0.354141
  29 P :   -0.178237
  30 H :    0.111061
  31 C :    0.690564
  32 O :   -0.497743
  33 O :   -0.540890
  34 O :   -0.661335
  35 H :    0.103034
  36 H :    0.127659
  37 H :    0.396600
Sum of atomic charges:   -1.0000000

LOEWDIN ATOMIC CHARGES
----------------------
   0 C :   -0.109284
   1 C :   -0.055949
   2 C :   -0.150846
   3 C :   -0.170929
   4 C :   -0.171048
   5 C :   -0.159580
   6 H :    0.367529
   7 H :    0.123973
   8 H :    0.114299
   9 H :    0.115022
  10 H :    0.115413
  11 C :   -0.217593
  12 C :   -0.212625
  13 H :    0.119972
  14 H :    0.141216
  15 C :   -0.047789
  16 H :    0.164384
  17 H :    0.115823
  18 C :   -0.000269
  19 C :   -0.131671
  20 C :   -0.151865
  21 C :   -0.146056
  22 C :   -0.163195
  23 H :    0.160000
  24 H :    0.122880
  25 H :    0.121603
  26 H :    0.122301
  27 Pd:   -0.784746
  28 Br:   -0.128840
  29 P :    0.338706
  30 H :    0.052092
  31 C :    0.158752
  32 O :   -0.312619
  33 O :   -0.326756
  34 O :   -0.414759
  35 H :    0.040563
  36 H :    0.058468
  37 H :    0.303423

  Mayer bond orders larger than 0.100000
B(  0-C ,  1-C ) :   1.3906 B(  0-C ,  2-C ) :   1.3637 B(  0-C , 27-Pd) :   0.6078
B(  1-C ,  5-C ) :   1.3426 B(  1-C , 11-C ) :   0.9613 B(  2-C ,  3-C ) :   1.4418
B(  2-C ,  7-H ) :   0.9147 B(  3-C ,  4-C ) :   1.3802 B(  3-C ,  9-H ) :   0.9275
B(  4-C ,  5-C ) :   1.4597 B(  4-C , 10-H ) :   0.9285 B(  5-C ,  8-H ) :   0.9237
B(  6-H , 28-Br) :   0.4861 B(  6-H , 33-O ) :   0.2952 B( 11-C , 12-C ) :   0.9426
B( 11-C , 13-H ) :   0.9331 B( 11-C , 14-H ) :   0.9049 B( 12-C , 15-C ) :   0.9855
B( 12-C , 16-H ) :   0.8800 B( 12-C , 17-H ) :   0.9248 B( 15-C , 18-C ) :   1.3572
B( 15-C , 21-C ) :   1.3876 B( 18-C , 19-C ) :   1.4027 B( 18-C , 27-Pd) :   0.7746
B( 19-C , 20-C ) :   1.4203 B( 19-C , 23-H ) :   0.8784 B( 20-C , 22-C ) :   1.4184
B( 20-C , 24-H ) :   0.9261 B( 21-C , 22-C ) :   1.4294 B( 21-C , 25-H ) :   0.9244
B( 22-C , 26-H ) :   0.9273 B( 27-Pd, 28-Br) :   0.3145 B( 27-Pd, 29-P ) :   0.4429
B( 27-Pd, 33-O ) :   0.1125 B( 29-P , 30-H ) :   0.9388 B( 29-P , 35-H ) :   0.9262
B( 29-P , 36-H ) :   0.9323 B( 31-C , 32-O ) :   1.8474 B( 31-C , 33-O ) :   1.4409
B( 31-C , 34-O ) :   0.9386 B( 34-O , 37-H ) :   0.7936

Dispersion correction           -0.031526430
FINAL SINGLE POINT ENERGY     -3847.468558160607
Dispersion correction            ... done

DIPOLE MOMENT
-------------
                                X             Y             Z
Electronic contribution:    -10.13748     -62.27361     -17.24888
Nuclear contribution   :     11.50192      61.89534      18.71428
                        -----------------------------------------
Total Dipole Moment    :      1.36445      -0.37827       1.46540
                        -----------------------------------------
Magnitude (a.u.)       :      2.03769
Magnitude (Debye)      :      5.17940

Rotational constants in cm-1:     0.006648     0.006566     0.004397
Rotational constants in MHz :   199.316144   196.835530   131.826444

                             ****ORCA TERMINATED NORMALLY****
TOTAL RUN TIME: 0 days 0 hours 13 minutes 40 seconds 869 msec
