                         Program Version 5.0.3 -  RELEASE  -
|  1> ! EnGrad PBEh-3c
|  2> %output
|  3> xyzfile=True
|  4> end
|  5> %scf
|  6> maxiter 250
|  7> end
|  8> %output
|  9> Print[P_Hirshfeld] = 1
| 10> end
| 11> % maxcore
| 12> 4000
| 13> *xyz -1 1
| 14> C   -2.07557647  -0.08913479   0.70924865
| 15> C   -1.81825586   1.08197249   1.39651934
| 16> C   -3.48999116  -0.38014057   0.53045958
| 17> C   -4.50953049   0.45794433   0.99936572
| 18> C   -4.18658103   1.68586815   1.57219333
| 19> C   -2.86412875   1.94339312   1.83913504
| 20> H   -2.36255675  -1.88352514  -2.14885313
| 21> H   -3.79386141  -1.38946481   0.27952896
| 22> H   -2.59707084   2.94364391   2.17367741
| 23> H   -5.54942955   0.23823762   0.77673810
| 24> H   -4.95177258   2.32926272   1.97930587
| 25> C   -0.43642046   1.52735705   1.92470865
| 26> C    0.75912536   0.45496503   1.99673450
| 27> H   -0.50858662   1.94226098   2.91068366
| 28> H   -0.17320280   2.32815109   1.23816077
| 29> C    1.76059284   0.62322541   0.91282667
| 30> H    0.35899014  -0.54581569   2.01380691
| 31> H    1.26515072   0.60785439   2.94709251
| 32> C    1.57320548   0.05438634  -0.34853912
| 33> C    2.54035610   0.24574624  -1.33900130
| 34> C    3.57348780   1.17141580  -1.12638847
| 35> C    2.85474871   1.45961012   1.12057072
| 36> C    3.73851141   1.78215958   0.10065219
| 37> H    2.55443493  -0.33352321  -2.24066554
| 38> H    4.31706120   1.33240064  -1.90826152
| 39> H    3.08425575   1.77702906   2.13390521
| 40> H    4.45553566   2.58574466   0.24049107
| 41> Pd  -0.06408772  -1.26201738  -0.56843162
| 42> Br  -1.61504019  -3.63071984  -0.64522579
| 43> P    1.47531511  -2.99155248  -0.06531582
| 44> H    1.16366120  -3.61795997   1.16978439
| 45> C    0.17023106  -1.57545786  -3.87247656
| 46> O    1.40930125  -1.78207565  -4.14551745
| 47> O   -0.65746211  -2.22080082  -3.22924715
| 48> O   -0.25814112  -0.22905196  -4.12674480
| 49> H    2.81707369  -2.79064232   0.18120171
| 50> H    1.57571230  -4.12539657  -0.87247383
| 51> H    0.46128585   0.27611814  -4.50909695
| 52> *
| 53>
| 54>                          ****END OF INPUT****

CARTESIAN COORDINATES (ANGSTROEM)
---------------------------------
  C     -2.075576   -0.089135    0.709249
  C     -1.818256    1.081972    1.396519
  C     -3.489991   -0.380141    0.530460
  C     -4.509530    0.457944    0.999366
  C     -4.186581    1.685868    1.572193
  C     -2.864129    1.943393    1.839135
  H     -2.362557   -1.883525   -2.148853
  H     -3.793861   -1.389465    0.279529
  H     -2.597071    2.943644    2.173677
  H     -5.549430    0.238238    0.776738
  H     -4.951773    2.329263    1.979306
  C     -0.436420    1.527357    1.924709
  C      0.759125    0.454965    1.996735
  H     -0.508587    1.942261    2.910684
  H     -0.173203    2.328151    1.238161
  C      1.760593    0.623225    0.912827
  H      0.358990   -0.545816    2.013807
  H      1.265151    0.607854    2.947093
  C      1.573205    0.054386   -0.348539
  C      2.540356    0.245746   -1.339001
  C      3.573488    1.171416   -1.126388
  C      2.854749    1.459610    1.120571
  C      3.738511    1.782160    0.100652
  H      2.554435   -0.333523   -2.240666
  H      4.317061    1.332401   -1.908262
  H      3.084256    1.777029    2.133905
  H      4.455536    2.585745    0.240491
  Pd    -0.064088   -1.262017   -0.568432
  Br    -1.615040   -3.630720   -0.645226
  P      1.475315   -2.991552   -0.065316
  H      1.163661   -3.617960    1.169784
  C      0.170231   -1.575458   -3.872477
  O      1.409301   -1.782076   -4.145517
  O     -0.657462   -2.220801   -3.229247
  O     -0.258141   -0.229052   -4.126745
  H      2.817074   -2.790642    0.181202
  H      1.575712   -4.125397   -0.872474
  H      0.461286    0.276118   -4.509097

 Total Charge           Charge          ....   -1
 Multiplicity           Mult            ....    1
 Number of Electrons    NEL             ....  200
 Basis Dimension        Dim             ....  385

ORBITAL ENERGIES
----------------

  NO   OCC          E(Eh)            E(eV)
   0   2.0000    -484.389121    -13180.8981
   1   2.0000     -77.674583     -2113.6328
   2   2.0000     -63.049888     -1715.6747
   3   2.0000     -56.753457     -1544.3401
   4   2.0000     -56.752747     -1544.3208
   5   2.0000     -56.752287     -1544.3082
   6   2.0000     -19.364341      -526.9305
   7   2.0000     -19.352811      -526.6168
   8   2.0000     -19.308696      -525.4163
   9   2.0000     -10.455044      -284.4962
  10   2.0000     -10.355548      -281.7888
  11   2.0000     -10.344986      -281.5014
  12   2.0000     -10.344799      -281.4963
  13   2.0000     -10.344131      -281.4781
  14   2.0000     -10.342586      -281.4361
  15   2.0000     -10.336818      -281.2791
  16   2.0000     -10.330818      -281.1158
  17   2.0000     -10.328396      -281.0499
  18   2.0000     -10.325770      -280.9785
  19   2.0000     -10.322135      -280.8796
  20   2.0000     -10.321451      -280.8610
  21   2.0000     -10.320498      -280.8350
  22   2.0000     -10.318984      -280.7938
  23   2.0000     -10.310976      -280.5759
  24   2.0000      -8.876560      -241.5435
  25   2.0000      -6.750131      -183.6804
  26   2.0000      -6.647255      -180.8810
  27   2.0000      -6.641823      -180.7332
  28   2.0000      -6.638662      -180.6472
  29   2.0000      -4.841203      -131.7358
  30   2.0000      -4.840853      -131.7263
  31   2.0000      -4.839136      -131.6796
  32   2.0000      -3.518616       -95.7464
  33   2.0000      -2.661318       -72.4181
  34   2.0000      -2.660426       -72.3939
  35   2.0000      -2.657749       -72.3210
  36   2.0000      -2.653111       -72.1948
  37   2.0000      -2.652813       -72.1867
  38   2.0000      -2.167095       -58.9696
  39   2.0000      -2.156622       -58.6847
  40   2.0000      -2.135935       -58.1217
  41   2.0000      -1.056013       -28.7356
  42   2.0000      -0.960762       -26.1437
  43   2.0000      -0.914155       -24.8754
  44   2.0000      -0.852091       -23.1866
  45   2.0000      -0.819848       -22.3092
  46   2.0000      -0.771937       -21.0055
  47   2.0000      -0.728045       -19.8111
  48   2.0000      -0.724413       -19.7123
  49   2.0000      -0.692829       -18.8528
  50   2.0000      -0.688425       -18.7330
  51   2.0000      -0.671804       -18.2807
  52   2.0000      -0.648939       -17.6585
  53   2.0000      -0.607320       -16.5260
  54   2.0000      -0.570391       -15.5211
  55   2.0000      -0.545990       -14.8572
  56   2.0000      -0.541392       -14.7320
  57   2.0000      -0.513571       -13.9750
  58   2.0000      -0.509377       -13.8609
  59   2.0000      -0.463675       -12.6172
  60   2.0000      -0.442757       -12.0480
  61   2.0000      -0.422060       -11.4848
  62   2.0000      -0.412147       -11.2151
  63   2.0000      -0.408270       -11.1096
  64   2.0000      -0.386921       -10.5287
  65   2.0000      -0.380781       -10.3616
  66   2.0000      -0.375914       -10.2291
  67   2.0000      -0.374849       -10.2002
  68   2.0000      -0.374115       -10.1802
  69   2.0000      -0.370192       -10.0734
  70   2.0000      -0.364805        -9.9268
  71   2.0000      -0.356436        -9.6991
  72   2.0000      -0.342191        -9.3115
  73   2.0000      -0.335812        -9.1379
  74   2.0000      -0.329243        -8.9592
  75   2.0000      -0.323868        -8.8129
  76   2.0000      -0.311972        -8.4892
  77   2.0000      -0.307389        -8.3645
  78   2.0000      -0.295735        -8.0473
  79   2.0000      -0.288889        -7.8611
  80   2.0000      -0.283470        -7.7136
  81   2.0000      -0.272526        -7.4158
  82   2.0000      -0.260274        -7.0824
  83   2.0000      -0.255274        -6.9464
  84   2.0000      -0.253496        -6.8980
  85   2.0000      -0.235561        -6.4099
  86   2.0000      -0.231940        -6.3114
  87   2.0000      -0.218126        -5.9355
  88   2.0000      -0.213168        -5.8006
  89   2.0000      -0.202124        -5.5001
  90   2.0000      -0.200301        -5.4505
  91   2.0000      -0.190137        -5.1739
  92   2.0000      -0.183636        -4.9970
  93   2.0000      -0.177700        -4.8354
  94   2.0000      -0.170472        -4.6388
  95   2.0000      -0.167830        -4.5669
  96   2.0000      -0.162780        -4.4295
  97   2.0000      -0.153708        -4.1826
  98   2.0000      -0.149611        -4.0711
  99   2.0000      -0.110069        -2.9951
 100   0.0000      -0.018496        -0.5033
 101   0.0000       0.051437         1.3997
 102   0.0000       0.116538         3.1712
 103   0.0000       0.126163         3.4331
 104   0.0000       0.139077         3.7845

MULLIKEN ATOMIC CHARGES
-----------------------
   0 C :   -0.120195
   1 C :    0.032522
   2 C :   -0.333439
   3 C :   -0.228537
   4 C :   -0.223942
   5 C :   -0.244216
   6 H :    0.311183
   7 H :    0.203469
   8 H :    0.174573
   9 H :    0.174882
  10 H :    0.172489
  11 C :   -0.463032
  12 C :   -0.522699
  13 H :    0.206123
  14 H :    0.241099
  15 C :    0.130526
  16 H :    0.279655
  17 H :    0.197115
  18 C :   -0.113273
  19 C :   -0.287681
  20 C :   -0.241226
  21 C :   -0.279877
  22 C :   -0.222674
  23 H :    0.274269
  24 H :    0.191778
  25 H :    0.180199
  26 H :    0.187512
  27 Pd:    0.124089
  28 Br:   -0.351528
  29 P :   -0.172768
  30 H :    0.114543
  31 C :    0.676662
  32 O :   -0.578855
  33 O :   -0.472680
  34 O :   -0.661848
  35 H :    0.100894
  36 H :    0.135360
  37 H :    0.409530
Sum of atomic charges:   -1.0000000

LOEWDIN ATOMIC CHARGES
----------------------
   0 C :   -0.119726
   1 C :   -0.063271
   2 C :   -0.153760
   3 C :   -0.171816
   4 C :   -0.171384
   5 C :   -0.157517
   6 H :    0.348469
   7 H :    0.126323
   8 H :    0.116094
   9 H :    0.115303
  10 H :    0.115400
  11 C :   -0.219119
  12 C :   -0.211600
  13 H :    0.122669
  14 H :    0.142730
  15 C :   -0.042408
  16 H :    0.162984
  17 H :    0.116880
  18 C :    0.012401
  19 C :   -0.128711
  20 C :   -0.149539
  21 C :   -0.144093
  22 C :   -0.161813
  23 H :    0.164416
  24 H :    0.124411
  25 H :    0.121800
  26 H :    0.123224
  27 Pd:   -0.766136
  28 Br:   -0.158704
  29 P :    0.361209
  30 H :    0.052887
  31 C :    0.139092
  32 O :   -0.407405
  33 O :   -0.248384
  34 O :   -0.399221
  35 H :    0.038316
  36 H :    0.062609
  37 H :    0.307392

  Mayer bond orders larger than 0.100000
B(  0-C ,  1-C ) :   1.4602 B(  0-C ,  2-C ) :   1.3582 B(  0-C , 27-Pd) :   0.5694
B(  1-C ,  5-C ) :   1.3143 B(  1-C , 11-C ) :   0.9549 B(  2-C ,  3-C ) :   1.4582
B(  2-C ,  7-H ) :   0.9158 B(  3-C ,  4-C ) :   1.3848 B(  3-C ,  9-H ) :   0.9281
B(  4-C ,  5-C ) :   1.4829 B(  4-C , 10-H ) :   0.9292 B(  5-C ,  8-H ) :   0.9260
B(  6-H , 28-Br) :   0.4872 B(  6-H , 33-O ) :   0.2377 B( 11-C , 12-C ) :   0.9432
B( 11-C , 13-H ) :   0.9304 B( 11-C , 14-H ) :   0.9079 B( 12-C , 15-C ) :   0.9748
B( 12-C , 16-H ) :   0.8804 B( 12-C , 17-H ) :   0.9279 B( 15-C , 18-C ) :   1.3436
B( 15-C , 21-C ) :   1.4086 B( 18-C , 19-C ) :   1.4126 B( 18-C , 27-Pd) :   0.8171
B( 19-C , 20-C ) :   1.4030 B( 19-C , 23-H ) :   0.8706 B( 20-C , 22-C ) :   1.4339
B( 20-C , 24-H ) :   0.9261 B( 21-C , 22-C ) :   1.4158 B( 21-C , 25-H ) :   0.9255
B( 22-C , 26-H ) :   0.9277 B( 27-Pd, 28-Br) :   0.2775 B( 27-Pd, 29-P ) :   0.5153
B( 27-Pd, 33-O ) :   0.1147 B( 29-P , 30-H ) :   0.9357 B( 29-P , 35-H ) :   0.9236
B( 29-P , 36-H ) :   0.9309 B( 31-C , 32-O ) :   1.7167 B( 31-C , 33-O ) :   1.5897
B( 31-C , 34-O ) :   0.9565 B( 34-O , 37-H ) :   0.7836

Dispersion correction           -0.031472510
FINAL SINGLE POINT ENERGY     -3847.466296689347
Dispersion correction            ... done

DIPOLE MOMENT
-------------
                                X             Y             Z
Electronic contribution:     -4.45420     -61.84042     -19.59259
Nuclear contribution   :      5.63465      61.76133      21.49126
                        -----------------------------------------
Total Dipole Moment    :      1.18045      -0.07909       1.89867
                        -----------------------------------------
Magnitude (a.u.)       :      2.23711
Magnitude (Debye)      :      5.68629

Rotational constants in cm-1:     0.006599     0.006470     0.004358
Rotational constants in MHz :   197.821017   193.970009   130.639976

                             ****ORCA TERMINATED NORMALLY****
TOTAL RUN TIME: 0 days 0 hours 13 minutes 45 seconds 25 msec
