                         Program Version 5.0.3 -  RELEASE  -
|  1> ! EnGrad PBEh-3c
|  2> %output
|  3> xyzfile=True
|  4> end
|  5> %scf
|  6> maxiter 250
|  7> end
|  8> %output
|  9> Print[P_Hirshfeld] = 1
| 10> end
| 11> % maxcore
| 12> 4000
| 13> *xyz -1 1
| 14> C   -2.04389945  -0.09295734   0.74130275
| 15> C   -1.81517691   1.09544637   1.33626339
| 16> C   -3.44131871  -0.42634015   0.55331946
| 17> C   -4.49276006   0.44479916   1.03736111
| 18> C   -4.19398120   1.67385359   1.53388759
| 19> C   -2.84471919   1.97230557   1.80407611
| 20> H   -2.10661872  -2.01744780  -2.09273401
| 21> H   -3.76621759  -1.37347134   0.16122745
| 22> H   -2.56655359   2.91039515   2.25757060
| 23> H   -5.53321365   0.20452597   0.79647596
| 24> H   -4.95181050   2.36058161   1.94723824
| 25> C   -0.42498582   1.54390403   1.92035121
| 26> C    0.72826203   0.45910300   2.00142565
| 27> H   -0.55106975   1.93726286   2.91063584
| 28> H   -0.09527620   2.33086860   1.24040821
| 29> C    1.76236048   0.60293757   0.91411080
| 30> H    0.33410788  -0.55758900   2.01098347
| 31> H    1.25539799   0.63539593   2.95558954
| 32> C    1.56361875  -0.01636588  -0.31526111
| 33> C    2.52620989   0.21892011  -1.34948749
| 34> C    3.55899756   1.17104785  -1.12145744
| 35> C    2.82250421   1.51360850   1.11063707
| 36> C    3.72137588   1.77688055   0.09117954
| 37> H    2.50721834  -0.32732346  -2.26924967
| 38> H    4.29035084   1.33185022  -1.91398705
| 39> H    3.05420964   1.80633666   2.13057275
| 40> H    4.49391185   2.54052923   0.25848297
| 41> Pd  -0.17150671  -1.28026643  -0.49593652
| 42> Br  -1.69190787  -3.47380695  -0.70732163
| 43> P    1.47587430  -2.96638285  -0.08111620
| 44> H    1.15980661  -3.60819314   1.14123504
| 45> C    0.08272512  -1.56017937  -3.80512649
| 46> O    1.34657850  -1.78431832  -4.14302597
| 47> O   -0.64572800  -2.15419965  -3.22094112
| 48> O   -0.22347835  -0.23275316  -4.13763244
| 49> H    2.86369621  -2.76997931   0.18314283
| 50> H    1.55738599  -4.12679088  -0.88329138
| 51> H    0.44848827   0.24229064  -4.49689456
| 52> *
| 53>
| 54>                          ****END OF INPUT****

CARTESIAN COORDINATES (ANGSTROEM)
---------------------------------
  C     -2.043899   -0.092957    0.741303
  C     -1.815177    1.095446    1.336263
  C     -3.441319   -0.426340    0.553319
  C     -4.492760    0.444799    1.037361
  C     -4.193981    1.673854    1.533888
  C     -2.844719    1.972306    1.804076
  H     -2.106619   -2.017448   -2.092734
  H     -3.766218   -1.373471    0.161227
  H     -2.566554    2.910395    2.257571
  H     -5.533214    0.204526    0.796476
  H     -4.951810    2.360582    1.947238
  C     -0.424986    1.543904    1.920351
  C      0.728262    0.459103    2.001426
  H     -0.551070    1.937263    2.910636
  H     -0.095276    2.330869    1.240408
  C      1.762360    0.602938    0.914111
  H      0.334108   -0.557589    2.010983
  H      1.255398    0.635396    2.955590
  C      1.563619   -0.016366   -0.315261
  C      2.526210    0.218920   -1.349487
  C      3.558998    1.171048   -1.121457
  C      2.822504    1.513608    1.110637
  C      3.721376    1.776881    0.091180
  H      2.507218   -0.327323   -2.269250
  H      4.290351    1.331850   -1.913987
  H      3.054210    1.806337    2.130573
  H      4.493912    2.540529    0.258483
  Pd    -0.171507   -1.280266   -0.495937
  Br    -1.691908   -3.473807   -0.707322
  P      1.475874   -2.966383   -0.081116
  H      1.159807   -3.608193    1.141235
  C      0.082725   -1.560179   -3.805126
  O      1.346578   -1.784318   -4.143026
  O     -0.645728   -2.154200   -3.220941
  O     -0.223478   -0.232753   -4.137632
  H      2.863696   -2.769979    0.183143
  H      1.557386   -4.126791   -0.883291
  H      0.448488    0.242291   -4.496895

 Total Charge           Charge          ....   -1
 Multiplicity           Mult            ....    1
 Number of Electrons    NEL             ....  200
 Basis Dimension        Dim             ....  385

ORBITAL ENERGIES
----------------

  NO   OCC          E(Eh)            E(eV)
   0   2.0000    -484.417368    -13181.6667
   1   2.0000     -77.679916     -2113.7780
   2   2.0000     -63.078150     -1716.4437
   3   2.0000     -56.782065     -1545.1185
   4   2.0000     -56.780895     -1545.0867
   5   2.0000     -56.780286     -1545.0701
   6   2.0000     -19.351967      -526.5938
   7   2.0000     -19.338425      -526.2253
   8   2.0000     -19.262648      -524.1633
   9   2.0000     -10.430359      -283.8245
  10   2.0000     -10.355497      -281.7874
  11   2.0000     -10.343312      -281.4558
  12   2.0000     -10.343247      -281.4540
  13   2.0000     -10.342205      -281.4257
  14   2.0000     -10.341363      -281.4028
  15   2.0000     -10.339323      -281.3473
  16   2.0000     -10.330573      -281.1092
  17   2.0000     -10.328612      -281.0558
  18   2.0000     -10.327531      -281.0264
  19   2.0000     -10.327461      -281.0245
  20   2.0000     -10.327045      -281.0132
  21   2.0000     -10.326512      -280.9987
  22   2.0000     -10.325238      -280.9640
  23   2.0000     -10.310809      -280.5714
  24   2.0000      -8.905090      -242.3198
  25   2.0000      -6.754072      -183.7876
  26   2.0000      -6.676530      -181.6776
  27   2.0000      -6.670107      -181.5028
  28   2.0000      -6.666705      -181.4103
  29   2.0000      -4.845030      -131.8400
  30   2.0000      -4.844938      -131.8375
  31   2.0000      -4.843092      -131.7872
  32   2.0000      -3.519102       -95.7596
  33   2.0000      -2.690558       -73.2138
  34   2.0000      -2.689408       -73.1825
  35   2.0000      -2.686508       -73.1036
  36   2.0000      -2.680979       -72.9531
  37   2.0000      -2.680697       -72.9455
  38   2.0000      -2.167259       -58.9741
  39   2.0000      -2.156847       -58.6908
  40   2.0000      -2.136747       -58.1438
  41   2.0000      -1.104259       -30.0484
  42   2.0000      -0.986871       -26.8541
  43   2.0000      -0.864661       -23.5286
  44   2.0000      -0.845079       -22.9958
  45   2.0000      -0.820533       -22.3278
  46   2.0000      -0.768110       -20.9013
  47   2.0000      -0.726092       -19.7580
  48   2.0000      -0.721366       -19.6294
  49   2.0000      -0.717671       -19.5288
  50   2.0000      -0.691949       -18.8289
  51   2.0000      -0.671799       -18.2806
  52   2.0000      -0.647274       -17.6132
  53   2.0000      -0.601249       -16.3608
  54   2.0000      -0.567422       -15.4403
  55   2.0000      -0.552571       -15.0362
  56   2.0000      -0.535935       -14.5835
  57   2.0000      -0.530236       -14.4284
  58   2.0000      -0.506743       -13.7892
  59   2.0000      -0.458738       -12.4829
  60   2.0000      -0.444822       -12.1042
  61   2.0000      -0.442755       -12.0480
  62   2.0000      -0.416069       -11.3218
  63   2.0000      -0.406291       -11.0557
  64   2.0000      -0.387664       -10.5489
  65   2.0000      -0.385880       -10.5003
  66   2.0000      -0.383011       -10.4223
  67   2.0000      -0.373891       -10.1741
  68   2.0000      -0.371077       -10.0975
  69   2.0000      -0.368418       -10.0252
  70   2.0000      -0.357155        -9.7187
  71   2.0000      -0.355637        -9.6774
  72   2.0000      -0.340417        -9.2632
  73   2.0000      -0.333966        -9.0877
  74   2.0000      -0.324489        -8.8298
  75   2.0000      -0.319476        -8.6934
  76   2.0000      -0.309305        -8.4166
  77   2.0000      -0.303758        -8.2657
  78   2.0000      -0.300662        -8.1814
  79   2.0000      -0.292028        -7.9465
  80   2.0000      -0.286497        -7.7960
  81   2.0000      -0.282811        -7.6957
  82   2.0000      -0.273227        -7.4349
  83   2.0000      -0.269031        -7.3207
  84   2.0000      -0.255646        -6.9565
  85   2.0000      -0.243957        -6.6384
  86   2.0000      -0.232786        -6.3344
  87   2.0000      -0.225673        -6.1409
  88   2.0000      -0.215029        -5.8512
  89   2.0000      -0.204107        -5.5540
  90   2.0000      -0.201232        -5.4758
  91   2.0000      -0.199351        -5.4246
  92   2.0000      -0.177044        -4.8176
  93   2.0000      -0.172926        -4.7056
  94   2.0000      -0.171698        -4.6721
  95   2.0000      -0.159730        -4.3465
  96   2.0000      -0.149451        -4.0668
  97   2.0000      -0.146123        -3.9762
  98   2.0000      -0.125563        -3.4167
  99   2.0000      -0.115627        -3.1464
 100   0.0000       0.022311         0.6071
 101   0.0000       0.053589         1.4582
 102   0.0000       0.112544         3.0625
 103   0.0000       0.128956         3.5091
 104   0.0000       0.131767         3.5856

MULLIKEN ATOMIC CHARGES
-----------------------
   0 C :   -0.126421
   1 C :    0.059291
   2 C :   -0.324839
   3 C :   -0.230111
   4 C :   -0.218264
   5 C :   -0.258526
   6 H :    0.334453
   7 H :    0.200696
   8 H :    0.183575
   9 H :    0.172954
  10 H :    0.168157
  11 C :   -0.464296
  12 C :   -0.506419
  13 H :    0.203852
  14 H :    0.241181
  15 C :    0.097608
  16 H :    0.272697
  17 H :    0.186758
  18 C :   -0.110239
  19 C :   -0.303389
  20 C :   -0.230713
  21 C :   -0.257630
  22 C :   -0.224236
  23 H :    0.283341
  24 H :    0.192225
  25 H :    0.179645
  26 H :    0.183228
  27 Pd:    0.094889
  28 Br:   -0.289439
  29 P :   -0.163705
  30 H :    0.108522
  31 C :    0.615955
  32 O :   -0.659922
  33 O :   -0.387474
  34 O :   -0.670076
  35 H :    0.106130
  36 H :    0.127870
  37 H :    0.412671
Sum of atomic charges:   -1.0000000

LOEWDIN ATOMIC CHARGES
----------------------
   0 C :   -0.119840
   1 C :   -0.051670
   2 C :   -0.140639
   3 C :   -0.171225
   4 C :   -0.166345
   5 C :   -0.158049
   6 H :    0.357136
   7 H :    0.124265
   8 H :    0.117506
   9 H :    0.115517
  10 H :    0.114475
  11 C :   -0.220929
  12 C :   -0.211496
  13 H :    0.122289
  14 H :    0.142271
  15 C :   -0.044894
  16 H :    0.162245
  17 H :    0.113353
  18 C :   -0.005448
  19 C :   -0.122120
  20 C :   -0.153235
  21 C :   -0.150083
  22 C :   -0.158566
  23 H :    0.166352
  24 H :    0.125235
  25 H :    0.122994
  26 H :    0.121225
  27 Pd:   -0.816108
  28 Br:   -0.046974
  29 P :    0.358402
  30 H :    0.049446
  31 C :    0.053753
  32 O :   -0.497185
  33 O :   -0.144044
  34 O :   -0.389901
  35 H :    0.045388
  36 H :    0.058411
  37 H :    0.298489

  Mayer bond orders larger than 0.100000
B(  0-C ,  1-C ) :   1.4312 B(  0-C ,  2-C ) :   1.3866 B(  0-C , 27-Pd) :   0.6072
B(  1-C ,  5-C ) :   1.3471 B(  1-C , 11-C ) :   0.9484 B(  2-C ,  3-C ) :   1.4148
B(  2-C ,  5-C ) :   0.1134 B(  2-C ,  7-H ) :   0.9137 B(  3-C ,  4-C ) :   1.4205
B(  3-C ,  9-H ) :   0.9289 B(  4-C ,  5-C ) :   1.4422 B(  4-C , 10-H ) :   0.9301
B(  5-C ,  8-H ) :   0.9224 B(  6-H , 28-Br) :   0.5971 B(  6-H , 33-O ) :   0.1684
B( 11-C , 12-C ) :   0.9432 B( 11-C , 13-H ) :   0.9309 B( 11-C , 14-H ) :   0.9078
B( 12-C , 15-C ) :   0.9774 B( 12-C , 16-H ) :   0.8814 B( 12-C , 17-H ) :   0.9290
B( 15-C , 18-C ) :   1.3627 B( 15-C , 21-C ) :   1.3858 B( 18-C , 19-C ) :   1.3997
B( 18-C , 27-Pd) :   0.7705 B( 19-C , 20-C ) :   1.4091 B( 19-C , 21-C ) :   0.1020
B( 19-C , 23-H ) :   0.8592 B( 20-C , 22-C ) :   1.4266 B( 20-C , 24-H ) :   0.9261
B( 21-C , 22-C ) :   1.4249 B( 21-C , 25-H ) :   0.9240 B( 22-C , 26-H ) :   0.9284
B( 27-Pd, 28-Br) :   0.3098 B( 27-Pd, 29-P ) :   0.4757 B( 29-P , 30-H ) :   0.9342
B( 29-P , 35-H ) :   0.9294 B( 29-P , 36-H ) :   0.9286 B( 31-C , 32-O ) :   1.6111
B( 31-C , 33-O ) :   1.8008 B( 31-C , 34-O ) :   0.9608 B( 34-O , 37-H ) :   0.7821

Dispersion correction           -0.031663966
FINAL SINGLE POINT ENERGY     -3847.464502160499
Dispersion correction            ... done

DIPOLE MOMENT
-------------
                                X             Y             Z
Electronic contribution:    -10.68320     -63.36123     -15.19168
Nuclear contribution   :     11.31856      62.84224      17.59064
                        -----------------------------------------
Total Dipole Moment    :      0.63537      -0.51900       2.39896
                        -----------------------------------------
Magnitude (a.u.)       :      2.53536
Magnitude (Debye)      :      6.44438

Rotational constants in cm-1:     0.006756     0.006597     0.004422
Rotational constants in MHz :   202.534307   197.782027   132.581512

                             ****ORCA TERMINATED NORMALLY****
TOTAL RUN TIME: 0 days 0 hours 10 minutes 10 seconds 167 msec
