                         Program Version 5.0.3 -  RELEASE  -
|  1> ! EnGrad PBEh-3c
|  2> %output
|  3> xyzfile=True
|  4> end
|  5> %scf
|  6> maxiter 250
|  7> end
|  8> %output
|  9> Print[P_Hirshfeld] = 1
| 10> end
| 11> % maxcore
| 12> 4000
| 13> *xyz -1 1
| 14> C   -2.06612008  -0.09027592   0.71881760
| 15> C   -1.81733671   1.08599478   1.37853143
| 16> C   -3.47546121  -0.39393230   0.53728383
| 17> C   -4.50452410   0.45402016   1.01070830
| 18> C   -4.18879016   1.68228150   1.56075811
| 19> C   -2.85833451   1.95202421   1.82866907
| 20> H   -2.28615284  -1.92350441  -2.13210017
| 21> H   -3.78560904  -1.38469036   0.24421300
| 22> H   -2.58796067   2.93371832   2.19872163
| 23> H   -5.54458870   0.22817385   0.78263034
| 24> H   -4.95178390   2.33861219   1.96973288
| 25> C   -0.43300693   1.53229674   1.92340784
| 26> C    0.74991188   0.45620032   1.99813493
| 27> H   -0.52126890   1.94076891   2.91066938
| 28> H   -0.14993976   2.32896234   1.23883168
| 29> C    1.76112053   0.61716898   0.91321001
| 30> H    0.35156216  -0.54933032   2.01296404
| 31> H    1.26223929   0.61607623   2.94962909
| 32> C    1.57034360   0.03326503  -0.33860480
| 33> C    2.53613310   0.23773797  -1.34213169
| 34> C    3.56916210   1.17130595  -1.12491643
| 35> C    2.84512292   1.47572998   1.11760528
| 36> C    3.73339603   1.78058365   0.09782437
| 37> H    2.54033960  -0.33167243  -2.24919862
| 38> H    4.30908749   1.33223632  -1.90997073
| 39> H    3.07528623   1.78577812   2.13291039
| 40> H    4.46699191   2.57224673   0.24586210
| 41> Pd  -0.09615498  -1.26746518  -0.54679002
| 42> Br  -1.63798712  -3.58387741  -0.66376295
| 43> P    1.47548204  -2.98403872  -0.07003263
| 44> H    1.16251051  -3.61504433   1.16126170
| 45> C    0.14410835  -1.57089685  -3.85237088
| 46> O    1.39057694  -1.78274514  -4.14477368
| 47> O   -0.65395919  -2.20091870  -3.22676759
| 48> O   -0.24779342  -0.23015686  -4.12999503
| 49> H    2.83099168  -2.78447390   0.18178118
| 50> H    1.57024144  -4.12581281  -0.87570314
| 51> H    0.45746546   0.26601978  -4.50545423
| 52> *
| 53>
| 54>                          ****END OF INPUT****

CARTESIAN COORDINATES (ANGSTROEM)
---------------------------------
  C     -2.066120   -0.090276    0.718818
  C     -1.817337    1.085995    1.378531
  C     -3.475461   -0.393932    0.537284
  C     -4.504524    0.454020    1.010708
  C     -4.188790    1.682281    1.560758
  C     -2.858335    1.952024    1.828669
  H     -2.286153   -1.923504   -2.132100
  H     -3.785609   -1.384690    0.244213
  H     -2.587961    2.933718    2.198722
  H     -5.544589    0.228174    0.782630
  H     -4.951784    2.338612    1.969733
  C     -0.433007    1.532297    1.923408
  C      0.749912    0.456200    1.998135
  H     -0.521269    1.940769    2.910669
  H     -0.149940    2.328962    1.238832
  C      1.761121    0.617169    0.913210
  H      0.351562   -0.549330    2.012964
  H      1.262239    0.616076    2.949629
  C      1.570344    0.033265   -0.338605
  C      2.536133    0.237738   -1.342132
  C      3.569162    1.171306   -1.124916
  C      2.845123    1.475730    1.117605
  C      3.733396    1.780584    0.097824
  H      2.540340   -0.331672   -2.249199
  H      4.309087    1.332236   -1.909971
  H      3.075286    1.785778    2.132910
  H      4.466992    2.572247    0.245862
  Pd    -0.096155   -1.267465   -0.546790
  Br    -1.637987   -3.583877   -0.663763
  P      1.475482   -2.984039   -0.070033
  H      1.162511   -3.615044    1.161262
  C      0.144108   -1.570897   -3.852371
  O      1.390577   -1.782745   -4.144774
  O     -0.653959   -2.200919   -3.226768
  O     -0.247793   -0.230157   -4.129995
  H      2.830992   -2.784474    0.181781
  H      1.570241   -4.125813   -0.875703
  H      0.457465    0.266020   -4.505454

 Total Charge           Charge          ....   -1
 Multiplicity           Mult            ....    1
 Number of Electrons    NEL             ....  200
 Basis Dimension        Dim             ....  385

ORBITAL ENERGIES
----------------

  NO   OCC          E(Eh)            E(eV)
   0   2.0000    -484.398101    -13181.1425
   1   2.0000     -77.676108     -2113.6744
   2   2.0000     -63.058832     -1715.9180
   3   2.0000     -56.762501     -1544.5862
   4   2.0000     -56.761664     -1544.5634
   5   2.0000     -56.761154     -1544.5495
   6   2.0000     -19.357255      -526.7377
   7   2.0000     -19.352404      -526.6057
   8   2.0000     -19.295816      -525.0659
   9   2.0000     -10.447944      -284.3030
  10   2.0000     -10.355411      -281.7851
  11   2.0000     -10.344201      -281.4800
  12   2.0000     -10.344143      -281.4784
  13   2.0000     -10.343458      -281.4598
  14   2.0000     -10.342039      -281.4212
  15   2.0000     -10.337399      -281.2949
  16   2.0000     -10.330462      -281.1062
  17   2.0000     -10.327697      -281.0309
  18   2.0000     -10.325348      -280.9670
  19   2.0000     -10.323591      -280.9192
  20   2.0000     -10.322738      -280.8960
  21   2.0000     -10.321260      -280.8558
  22   2.0000     -10.320786      -280.8429
  23   2.0000     -10.309928      -280.5474
  24   2.0000      -8.885533      -241.7876
  25   2.0000      -6.751239      -183.7106
  26   2.0000      -6.656517      -181.1330
  27   2.0000      -6.650677      -180.9741
  28   2.0000      -6.647451      -180.8863
  29   2.0000      -4.842269      -131.7648
  30   2.0000      -4.842015      -131.7579
  31   2.0000      -4.840248      -131.7098
  32   2.0000      -3.518464       -95.7423
  33   2.0000      -2.670543       -72.6692
  34   2.0000      -2.669552       -72.6422
  35   2.0000      -2.666819       -72.5678
  36   2.0000      -2.661817       -72.4317
  37   2.0000      -2.661535       -72.4240
  38   2.0000      -2.166849       -58.9630
  39   2.0000      -2.156362       -58.6776
  40   2.0000      -2.135833       -58.1190
  41   2.0000      -1.066817       -29.0296
  42   2.0000      -0.970999       -26.4222
  43   2.0000      -0.900625       -24.5073
  44   2.0000      -0.849871       -23.1262
  45   2.0000      -0.819564       -22.3015
  46   2.0000      -0.770484       -20.9659
  47   2.0000      -0.726844       -19.7784
  48   2.0000      -0.722676       -19.6650
  49   2.0000      -0.698223       -18.9996
  50   2.0000      -0.691357       -18.8128
  51   2.0000      -0.671715       -18.2783
  52   2.0000      -0.648570       -17.6485
  53   2.0000      -0.605356       -16.4726
  54   2.0000      -0.569449       -15.4955
  55   2.0000      -0.546954       -14.8834
  56   2.0000      -0.540500       -14.7077
  57   2.0000      -0.518555       -14.1106
  58   2.0000      -0.508303       -13.8316
  59   2.0000      -0.462080       -12.5738
  60   2.0000      -0.442595       -12.0436
  61   2.0000      -0.420421       -11.4402
  62   2.0000      -0.419569       -11.4170
  63   2.0000      -0.407473       -11.0879
  64   2.0000      -0.386191       -10.5088
  65   2.0000      -0.381078       -10.3697
  66   2.0000      -0.375401       -10.2152
  67   2.0000      -0.374071       -10.1790
  68   2.0000      -0.371447       -10.1076
  69   2.0000      -0.369171       -10.0457
  70   2.0000      -0.367148        -9.9906
  71   2.0000      -0.356319        -9.6959
  72   2.0000      -0.341315        -9.2877
  73   2.0000      -0.335091        -9.1183
  74   2.0000      -0.327865        -8.9217
  75   2.0000      -0.322125        -8.7655
  76   2.0000      -0.309845        -8.4313
  77   2.0000      -0.306051        -8.3281
  78   2.0000      -0.296726        -8.0743
  79   2.0000      -0.288642        -7.8544
  80   2.0000      -0.283040        -7.7019
  81   2.0000      -0.272537        -7.4161
  82   2.0000      -0.266005        -7.2384
  83   2.0000      -0.259490        -7.0611
  84   2.0000      -0.254335        -6.9208
  85   2.0000      -0.238518        -6.4904
  86   2.0000      -0.233039        -6.3413
  87   2.0000      -0.220036        -5.9875
  88   2.0000      -0.214116        -5.8264
  89   2.0000      -0.203507        -5.5377
  90   2.0000      -0.200846        -5.4653
  91   2.0000      -0.194450        -5.2913
  92   2.0000      -0.178168        -4.8482
  93   2.0000      -0.176311        -4.7977
  94   2.0000      -0.171179        -4.6580
  95   2.0000      -0.166476        -4.5301
  96   2.0000      -0.154851        -4.2137
  97   2.0000      -0.152504        -4.1498
  98   2.0000      -0.150266        -4.0889
  99   2.0000      -0.111619        -3.0373
 100   0.0000      -0.008709        -0.2370
 101   0.0000       0.052348         1.4245
 102   0.0000       0.115649         3.1470
 103   0.0000       0.127319         3.4645
 104   0.0000       0.137684         3.7466

MULLIKEN ATOMIC CHARGES
-----------------------
   0 C :   -0.123942
   1 C :    0.040989
   2 C :   -0.331260
   3 C :   -0.229524
   4 C :   -0.222686
   5 C :   -0.248106
   6 H :    0.319565
   7 H :    0.202295
   8 H :    0.177139
   9 H :    0.173929
  10 H :    0.170929
  11 C :   -0.463380
  12 C :   -0.517709
  13 H :    0.205384
  14 H :    0.241047
  15 C :    0.120688
  16 H :    0.277604
  17 H :    0.193844
  18 C :   -0.110697
  19 C :   -0.293008
  20 C :   -0.238215
  21 C :   -0.273113
  22 C :   -0.223012
  23 H :    0.276770
  24 H :    0.191753
  25 H :    0.179949
  26 H :    0.186063
  27 Pd:    0.116177
  28 Br:   -0.331276
  29 P :   -0.170620
  30 H :    0.112677
  31 C :    0.663300
  32 O :   -0.602387
  33 O :   -0.453175
  34 O :   -0.665330
  35 H :    0.102505
  36 H :    0.132948
  37 H :    0.411887
Sum of atomic charges:   -1.0000000

LOEWDIN ATOMIC CHARGES
----------------------
   0 C :   -0.121517
   1 C :   -0.059844
   2 C :   -0.150007
   3 C :   -0.171793
   4 C :   -0.170025
   5 C :   -0.157802
   6 H :    0.354563
   7 H :    0.125150
   8 H :    0.116261
   9 H :    0.115216
  10 H :    0.115024
  11 C :   -0.219648
  12 C :   -0.211524
  13 H :    0.122496
  14 H :    0.142428
  15 C :   -0.043289
  16 H :    0.162768
  17 H :    0.115759
  18 C :    0.007791
  19 C :   -0.127112
  20 C :   -0.150501
  21 C :   -0.145611
  22 C :   -0.161057
  23 H :    0.164830
  24 H :    0.124591
  25 H :    0.122129
  26 H :    0.122606
  27 Pd:   -0.781586
  28 Br:   -0.124667
  29 P :    0.360273
  30 H :    0.051785
  31 C :    0.115941
  32 O :   -0.433131
  33 O :   -0.221667
  34 O :   -0.396306
  35 H :    0.040515
  36 H :    0.061274
  37 H :    0.305688

  Mayer bond orders larger than 0.100000
B(  0-C ,  1-C ) :   1.4521 B(  0-C ,  2-C ) :   1.3674 B(  0-C , 27-Pd) :   0.5839
B(  1-C ,  5-C ) :   1.3249 B(  1-C , 11-C ) :   0.9530 B(  2-C ,  3-C ) :   1.4461
B(  2-C ,  5-C ) :   0.1005 B(  2-C ,  7-H ) :   0.9151 B(  3-C ,  4-C ) :   1.3954
B(  3-C ,  9-H ) :   0.9285 B(  4-C ,  5-C ) :   1.4713 B(  4-C , 10-H ) :   0.9297
B(  5-C ,  8-H ) :   0.9249 B(  6-H , 28-Br) :   0.5246 B(  6-H , 33-O ) :   0.2159
B( 11-C , 12-C ) :   0.9433 B( 11-C , 13-H ) :   0.9307 B( 11-C , 14-H ) :   0.9079
B( 12-C , 15-C ) :   0.9758 B( 12-C , 16-H ) :   0.8807 B( 12-C , 17-H ) :   0.9282
B( 15-C , 18-C ) :   1.3495 B( 15-C , 21-C ) :   1.4023 B( 18-C , 19-C ) :   1.4092
B( 18-C , 27-Pd) :   0.8049 B( 19-C , 20-C ) :   1.4051 B( 19-C , 23-H ) :   0.8677
B( 20-C , 22-C ) :   1.4316 B( 20-C , 24-H ) :   0.9262 B( 21-C , 22-C ) :   1.4186
B( 21-C , 25-H ) :   0.9251 B( 22-C , 26-H ) :   0.9280 B( 27-Pd, 28-Br) :   0.2845
B( 27-Pd, 29-P ) :   0.5035 B( 27-Pd, 33-O ) :   0.1071 B( 29-P , 30-H ) :   0.9353
B( 29-P , 35-H ) :   0.9257 B( 29-P , 36-H ) :   0.9304 B( 31-C , 32-O ) :   1.6845
B( 31-C , 33-O ) :   1.6499 B( 31-C , 34-O ) :   0.9592 B( 34-O , 37-H ) :   0.7819

Dispersion correction           -0.031564767
FINAL SINGLE POINT ENERGY     -3847.477134378949
Dispersion correction            ... done

DIPOLE MOMENT
-------------
                                X             Y             Z
Electronic contribution:     -6.30635     -62.31097     -18.30114
Nuclear contribution   :      7.33144      62.08401      20.32683
                        -----------------------------------------
Total Dipole Moment    :      1.02510      -0.22697       2.02569
                        -----------------------------------------
Magnitude (a.u.)       :      2.28161
Magnitude (Debye)      :      5.79940

Rotational constants in cm-1:     0.006645     0.006511     0.004378
Rotational constants in MHz :   199.205388   195.180715   131.235974

                             ****ORCA TERMINATED NORMALLY****
TOTAL RUN TIME: 0 days 0 hours 12 minutes 37 seconds 400 msec
