                         Program Version 5.0.3 -  RELEASE  -
|  1> ! EnGrad PBEh-3c
|  2> %output
|  3> xyzfile=True
|  4> end
|  5> %scf
|  6> maxiter 250
|  7> end
|  8> %output
|  9> Print[P_Hirshfeld] = 1
| 10> end
| 11> % maxcore
| 12> 4000
| 13> *xyz -1 1
| 14> C   -2.05305172  -0.11718250   0.73780649
| 15> C   -1.81134321   1.12221808   1.34067023
| 16> C   -3.43121239  -0.43232758   0.59088967
| 17> C   -4.48419072   0.41326811   1.04830093
| 18> C   -4.18662677   1.68275770   1.54803298
| 19> C   -2.84517495   1.96851791   1.77787766
| 20> H   -1.97314288  -2.07074097  -2.02232379
| 21> H   -3.76244204  -1.37697701   0.11964779
| 22> H   -2.55134413   2.89292564   2.30744313
| 23> H   -5.52951934   0.18651742   0.82358642
| 24> H   -4.95012848   2.37008399   1.93733276
| 25> C   -0.42209837   1.53851606   1.88287730
| 26> C    0.71257071   0.46646109   1.99757506
| 27> H   -0.56810920   1.95472848   2.88074035
| 28> H   -0.06308803   2.31772386   1.20976729
| 29> C    1.75904593   0.59686397   0.91259931
| 30> H    0.31697047  -0.56031126   2.00142606
| 31> H    1.23750334   0.64878870   2.95026339
| 32> C    1.56663842  -0.05335843  -0.31516436
| 33> C    2.52459641   0.20740951  -1.33880626
| 34> C    3.55272418   1.15327986  -1.13063583
| 35> C    2.80574007   1.52401647   1.10397865
| 36> C    3.71732826   1.78402715   0.09570648
| 37> H    2.49441039  -0.32951347  -2.28928419
| 38> H    4.28426666   1.33182781  -1.91438825
| 39> H    3.03355548   1.82496715   2.12645353
| 40> H    4.51351750   2.51156049   0.26830543
| 41> Pd  -0.20169446  -1.29405224  -0.46624161
| 42> Br  -1.73294770  -3.38528551  -0.75877542
| 43> P    1.47692075  -2.95220974  -0.08258955
| 44> H    1.14441673  -3.59924909   1.13280801
| 45> C    0.19052061  -1.46126988  -3.85407622
| 46> O    1.29307019  -1.78579444  -4.13442092
| 47> O   -0.72508451  -2.17899244  -3.14600106
| 48> O   -0.24846649  -0.24377722  -4.13844714
| 49> H    2.87341392  -2.76041528   0.20072411
| 50> H    1.55196165  -4.12715053  -0.87450335
| 51> H    0.48184096   0.23755861  -4.52309556
| 52> *
| 53>
| 54>                          ****END OF INPUT****

CARTESIAN COORDINATES (ANGSTROEM)
---------------------------------
  C     -2.053052   -0.117182    0.737806
  C     -1.811343    1.122218    1.340670
  C     -3.431212   -0.432328    0.590890
  C     -4.484191    0.413268    1.048301
  C     -4.186627    1.682758    1.548033
  C     -2.845175    1.968518    1.777878
  H     -1.973143   -2.070741   -2.022324
  H     -3.762442   -1.376977    0.119648
  H     -2.551344    2.892926    2.307443
  H     -5.529519    0.186517    0.823586
  H     -4.950128    2.370084    1.937333
  C     -0.422098    1.538516    1.882877
  C      0.712571    0.466461    1.997575
  H     -0.568109    1.954728    2.880740
  H     -0.063088    2.317724    1.209767
  C      1.759046    0.596864    0.912599
  H      0.316970   -0.560311    2.001426
  H      1.237503    0.648789    2.950263
  C      1.566638   -0.053358   -0.315164
  C      2.524596    0.207410   -1.338806
  C      3.552724    1.153280   -1.130636
  C      2.805740    1.524016    1.103979
  C      3.717328    1.784027    0.095706
  H      2.494410   -0.329513   -2.289284
  H      4.284267    1.331828   -1.914388
  H      3.033555    1.824967    2.126454
  H      4.513517    2.511560    0.268305
  Pd    -0.201694   -1.294052   -0.466242
  Br    -1.732948   -3.385286   -0.758775
  P      1.476921   -2.952210   -0.082590
  H      1.144417   -3.599249    1.132808
  C      0.190521   -1.461270   -3.854076
  O      1.293070   -1.785794   -4.134421
  O     -0.725085   -2.178992   -3.146001
  O     -0.248466   -0.243777   -4.138447
  H      2.873414   -2.760415    0.200724
  H      1.551962   -4.127151   -0.874503
  H      0.481841    0.237559   -4.523096

 Total Charge           Charge          ....   -1
 Multiplicity           Mult            ....    1
 Number of Electrons    NEL             ....  200
 Basis Dimension        Dim             ....  385

ORBITAL ENERGIES
----------------

  NO   OCC          E(Eh)            E(eV)
   0   2.0000    -484.398844    -13181.1627
   1   2.0000     -77.676292     -2113.6793
   2   2.0000     -63.060083     -1715.9521
   3   2.0000     -56.763966     -1544.6261
   4   2.0000     -56.762866     -1544.5961
   5   2.0000     -56.762180     -1544.5774
   6   2.0000     -19.389994      -527.6286
   7   2.0000     -19.322106      -525.7812
   8   2.0000     -19.319588      -525.7127
   9   2.0000     -10.451940      -284.4117
  10   2.0000     -10.350640      -281.6552
  11   2.0000     -10.344132      -281.4782
  12   2.0000     -10.343547      -281.4622
  13   2.0000     -10.341335      -281.4020
  14   2.0000     -10.341179      -281.3978
  15   2.0000     -10.340320      -281.3744
  16   2.0000     -10.327003      -281.0120
  17   2.0000     -10.324757      -280.9509
  18   2.0000     -10.323672      -280.9214
  19   2.0000     -10.322969      -280.9023
  20   2.0000     -10.322031      -280.8767
  21   2.0000     -10.319212      -280.8000
  22   2.0000     -10.317732      -280.7598
  23   2.0000     -10.306598      -280.4568
  24   2.0000      -8.887553      -241.8426
  25   2.0000      -6.749955      -183.6756
  26   2.0000      -6.658133      -181.1770
  27   2.0000      -6.653420      -181.0488
  28   2.0000      -6.649434      -180.9403
  29   2.0000      -4.840913      -131.7279
  30   2.0000      -4.840830      -131.7257
  31   2.0000      -4.838985      -131.6755
  32   2.0000      -3.512323       -95.5752
  33   2.0000      -2.672610       -72.7254
  34   2.0000      -2.671802       -72.7034
  35   2.0000      -2.668408       -72.6111
  36   2.0000      -2.664327       -72.5000
  37   2.0000      -2.663865       -72.4875
  38   2.0000      -2.160634       -58.7938
  39   2.0000      -2.150181       -58.5094
  40   2.0000      -2.129098       -57.9357
  41   2.0000      -1.095279       -29.8041
  42   2.0000      -0.982230       -26.7278
  43   2.0000      -0.900866       -24.5138
  44   2.0000      -0.841703       -22.9039
  45   2.0000      -0.815519       -22.1914
  46   2.0000      -0.765501       -20.8303
  47   2.0000      -0.720579       -19.6080
  48   2.0000      -0.718113       -19.5408
  49   2.0000      -0.712440       -19.3865
  50   2.0000      -0.688226       -18.7276
  51   2.0000      -0.666686       -18.1415
  52   2.0000      -0.641528       -17.4569
  53   2.0000      -0.597234       -16.2516
  54   2.0000      -0.563818       -15.3423
  55   2.0000      -0.549284       -14.9468
  56   2.0000      -0.538854       -14.6630
  57   2.0000      -0.533083       -14.5059
  58   2.0000      -0.507112       -13.7992
  59   2.0000      -0.457042       -12.4367
  60   2.0000      -0.436469       -11.8769
  61   2.0000      -0.415337       -11.3019
  62   2.0000      -0.413664       -11.2564
  63   2.0000      -0.407527       -11.0894
  64   2.0000      -0.404071       -10.9953
  65   2.0000      -0.384284       -10.4569
  66   2.0000      -0.382516       -10.4088
  67   2.0000      -0.373002       -10.1499
  68   2.0000      -0.368610       -10.0304
  69   2.0000      -0.366858        -9.9827
  70   2.0000      -0.361724        -9.8430
  71   2.0000      -0.352777        -9.5996
  72   2.0000      -0.340758        -9.2725
  73   2.0000      -0.335488        -9.1291
  74   2.0000      -0.328290        -8.9332
  75   2.0000      -0.321405        -8.7459
  76   2.0000      -0.318187        -8.6583
  77   2.0000      -0.303093        -8.2476
  78   2.0000      -0.290994        -7.9184
  79   2.0000      -0.287413        -7.8209
  80   2.0000      -0.278088        -7.5672
  81   2.0000      -0.276849        -7.5334
  82   2.0000      -0.267209        -7.2711
  83   2.0000      -0.262410        -7.1405
  84   2.0000      -0.248694        -6.7673
  85   2.0000      -0.242199        -6.5906
  86   2.0000      -0.237763        -6.4699
  87   2.0000      -0.221161        -6.0181
  88   2.0000      -0.210997        -5.7415
  89   2.0000      -0.204291        -5.5590
  90   2.0000      -0.200171        -5.4469
  91   2.0000      -0.189726        -5.1627
  92   2.0000      -0.181013        -4.9256
  93   2.0000      -0.174205        -4.7403
  94   2.0000      -0.168034        -4.5724
  95   2.0000      -0.164834        -4.4854
  96   2.0000      -0.158248        -4.3062
  97   2.0000      -0.149511        -4.0684
  98   2.0000      -0.145297        -3.9537
  99   2.0000      -0.111831        -3.0431
 100   0.0000       0.060060         1.6343
 101   0.0000       0.099396         2.7047
 102   0.0000       0.116417         3.1679
 103   0.0000       0.128012         3.4834
 104   0.0000       0.146784         3.9942

MULLIKEN ATOMIC CHARGES
-----------------------
   0 C :   -0.118661
   1 C :    0.058135
   2 C :   -0.318643
   3 C :   -0.229654
   4 C :   -0.230919
   5 C :   -0.251469
   6 H :    0.341038
   7 H :    0.197050
   8 H :    0.171107
   9 H :    0.172504
  10 H :    0.169482
  11 C :   -0.463632
  12 C :   -0.500762
  13 H :    0.197110
  14 H :    0.240731
  15 C :    0.084905
  16 H :    0.273133
  17 H :    0.186546
  18 C :   -0.107630
  19 C :   -0.312532
  20 C :   -0.226912
  21 C :   -0.252140
  22 C :   -0.231709
  23 H :    0.254841
  24 H :    0.187991
  25 H :    0.177673
  26 H :    0.184635
  27 Pd:    0.112284
  28 Br:   -0.308275
  29 P :   -0.160660
  30 H :    0.108513
  31 C :    0.661170
  32 O :   -0.486598
  33 O :   -0.631360
  34 O :   -0.581961
  35 H :    0.100387
  36 H :    0.121620
  37 H :    0.412663
Sum of atomic charges:   -1.0000000

LOEWDIN ATOMIC CHARGES
----------------------
   0 C :   -0.116753
   1 C :   -0.052887
   2 C :   -0.143127
   3 C :   -0.170454
   4 C :   -0.169860
   5 C :   -0.158407
   6 H :    0.343063
   7 H :    0.124500
   8 H :    0.112565
   9 H :    0.114977
  10 H :    0.114657
  11 C :   -0.217953
  12 C :   -0.212042
  13 H :    0.121130
  14 H :    0.141717
  15 C :   -0.043387
  16 H :    0.164684
  17 H :    0.113181
  18 C :   -0.020717
  19 C :   -0.132327
  20 C :   -0.156205
  21 C :   -0.150640
  22 C :   -0.160638
  23 H :    0.154501
  24 H :    0.122668
  25 H :    0.122256
  26 H :    0.120770
  27 Pd:   -0.827016
  28 Br:   -0.038209
  29 P :    0.361132
  30 H :    0.049903
  31 C :    0.095681
  32 O :   -0.291274
  33 O :   -0.427952
  34 O :   -0.299703
  35 H :    0.042500
  36 H :    0.054646
  37 H :    0.315018

  Mayer bond orders larger than 0.100000
B(  0-C ,  1-C ) :   1.3951 B(  0-C ,  2-C ) :   1.4129 B(  0-C , 27-Pd) :   0.6122
B(  1-C ,  5-C ) :   1.3709 B(  1-C , 11-C ) :   0.9536 B(  2-C ,  3-C ) :   1.4112
B(  2-C ,  7-H ) :   0.9127 B(  3-C ,  4-C ) :   1.4142 B(  3-C ,  9-H ) :   0.9294
B(  4-C ,  5-C ) :   1.4414 B(  4-C , 10-H ) :   0.9304 B(  5-C ,  8-H ) :   0.9256
B(  6-H , 28-Br) :   0.5330 B(  6-H , 33-O ) :   0.2746 B( 11-C , 12-C ) :   0.9404
B( 11-C , 13-H ) :   0.9337 B( 11-C , 14-H ) :   0.9062 B( 12-C , 15-C ) :   0.9777
B( 12-C , 16-H ) :   0.8803 B( 12-C , 17-H ) :   0.9288 B( 15-C , 18-C ) :   1.3643
B( 15-C , 21-C ) :   1.3796 B( 18-C , 19-C ) :   1.3916 B( 18-C , 27-Pd) :   0.7456
B( 19-C , 20-C ) :   1.4208 B( 19-C , 23-H ) :   0.8828 B( 20-C , 22-C ) :   1.4189
B( 20-C , 24-H ) :   0.9267 B( 21-C , 22-C ) :   1.4353 B( 21-C , 25-H ) :   0.9245
B( 22-C , 26-H ) :   0.9278 B( 27-Pd, 28-Br) :   0.3535 B( 27-Pd, 29-P ) :   0.4734
B( 27-Pd, 33-O ) :   0.1384 B( 29-P , 30-H ) :   0.9343 B( 29-P , 35-H ) :   0.9281
B( 29-P , 36-H ) :   0.9267 B( 31-C , 32-O ) :   1.8938 B( 31-C , 33-O ) :   1.3360
B( 31-C , 34-O ) :   1.0859 B( 34-O , 37-H ) :   0.7775

Dispersion correction           -0.031459869
FINAL SINGLE POINT ENERGY     -3847.547800245820
Dispersion correction            ... done

DIPOLE MOMENT
-------------
                                X             Y             Z
Electronic contribution:    -11.44196     -63.82704     -14.49291
Nuclear contribution   :     12.81028      63.59068      16.05201
                        -----------------------------------------
Total Dipole Moment    :      1.36832      -0.23636       1.55910
                        -----------------------------------------
Magnitude (a.u.)       :      2.08781
Magnitude (Debye)      :      5.30680

Rotational constants in cm-1:     0.006848     0.006649     0.004450
Rotational constants in MHz :   205.309400   199.317449   133.408663

                             ****ORCA TERMINATED NORMALLY****
TOTAL RUN TIME: 0 days 0 hours 12 minutes 56 seconds 195 msec
