                         Program Version 5.0.3 -  RELEASE  -
|  1> ! EnGrad PBEh-3c
|  2> %output
|  3> xyzfile=True
|  4> end
|  5> %scf
|  6> maxiter 250
|  7> end
|  8> %output
|  9> Print[P_Hirshfeld] = 1
| 10> end
| 11> % maxcore
| 12> 4000
| 13> *xyz -1 1
| 14> C   -2.08891350  -0.14479681   0.72607048
| 15> C   -1.80664797   1.13981022   1.37177414
| 16> C   -3.45737035  -0.44575587   0.63996875
| 17> C   -4.47548452   0.39627119   1.06876642
| 18> C   -4.18159873   1.67431067   1.58390364
| 19> C   -2.83864973   1.98058825   1.75933678
| 20> H   -1.84839111  -2.10703254  -1.88858258
| 21> H   -3.76658918  -1.37177900   0.10636333
| 22> H   -2.54657933   2.84964036   2.36498212
| 23> H   -5.53301175   0.16682576   0.87291201
| 24> H   -4.94385936   2.37542216   1.93388832
| 25> C   -0.42271531   1.50885978   1.79429195
| 26> C    0.69521136   0.47805300   1.98370816
| 27> H   -0.57748300   1.99859471   2.80601069
| 28> H   -0.04056234   2.27737103   1.14039803
| 29> C    1.74500202   0.59591681   0.89707385
| 30> H    0.29413560  -0.55677167   1.98168832
| 31> H    1.20088386   0.65834420   2.93291752
| 32> C    1.56965885  -0.08416881  -0.32517125
| 33> C    2.53156371   0.19637065  -1.31927345
| 34> C    3.55145884   1.12274705  -1.14130847
| 35> C    2.79215037   1.50622423   1.10097243
| 36> C    3.70891718   1.79347048   0.09786642
| 37> H    2.49720418  -0.33285399  -2.30504176
| 38> H    4.28539774   1.33085169  -1.91099800
| 39> H    3.00302136   1.84907469   2.11346934
| 40> H    4.53225097   2.47712993   0.27961754
| 41> Pd  -0.16785248  -1.32352218  -0.46417081
| 42> Br  -1.77373220  -3.29270400  -0.80626993
| 43> P    1.47195196  -2.93866176  -0.07241978
| 44> H    1.11572942  -3.58655268   1.13327425
| 45> C    0.16409941  -1.41507404  -3.80835082
| 46> O    1.34395704  -1.79774021  -4.16072246
| 47> O   -0.70949943  -2.13115374  -3.12175331
| 48> O   -0.26603797  -0.20980068  -4.17442692
| 49> H    2.85848980  -2.75000934   0.23998010
| 50> H    1.55047217  -4.12222304  -0.84583418
| 51> H    0.52291080   0.24200119  -4.57734383
| 52> *
| 53>
| 54>                          ****END OF INPUT****

CARTESIAN COORDINATES (ANGSTROEM)
---------------------------------
  C     -2.088913   -0.144797    0.726070
  C     -1.806648    1.139810    1.371774
  C     -3.457370   -0.445756    0.639969
  C     -4.475485    0.396271    1.068766
  C     -4.181599    1.674311    1.583904
  C     -2.838650    1.980588    1.759337
  H     -1.848391   -2.107033   -1.888583
  H     -3.766589   -1.371779    0.106363
  H     -2.546579    2.849640    2.364982
  H     -5.533012    0.166826    0.872912
  H     -4.943859    2.375422    1.933888
  C     -0.422715    1.508860    1.794292
  C      0.695211    0.478053    1.983708
  H     -0.577483    1.998595    2.806011
  H     -0.040562    2.277371    1.140398
  C      1.745002    0.595917    0.897074
  H      0.294136   -0.556772    1.981688
  H      1.200884    0.658344    2.932918
  C      1.569659   -0.084169   -0.325171
  C      2.531564    0.196371   -1.319273
  C      3.551459    1.122747   -1.141308
  C      2.792150    1.506224    1.100972
  C      3.708917    1.793470    0.097866
  H      2.497204   -0.332854   -2.305042
  H      4.285398    1.330852   -1.910998
  H      3.003021    1.849075    2.113469
  H      4.532251    2.477130    0.279618
  Pd    -0.167852   -1.323522   -0.464171
  Br    -1.773732   -3.292704   -0.806270
  P      1.471952   -2.938662   -0.072420
  H      1.115729   -3.586553    1.133274
  C      0.164099   -1.415074   -3.808351
  O      1.343957   -1.797740   -4.160722
  O     -0.709499   -2.131154   -3.121753
  O     -0.266038   -0.209801   -4.174427
  H      2.858490   -2.750009    0.239980
  H      1.550472   -4.122223   -0.845834
  H      0.522911    0.242001   -4.577344

 Total Charge           Charge          ....   -1
 Multiplicity           Mult            ....    1
 Number of Electrons    NEL             ....  200
 Basis Dimension        Dim             ....  385

ORBITAL ENERGIES
----------------

  NO   OCC          E(Eh)            E(eV)
   0   2.0000    -484.416104    -13181.6323
   1   2.0000     -77.682513     -2113.8486
   2   2.0000     -63.078224     -1716.4457
   3   2.0000     -56.782064     -1545.1185
   4   2.0000     -56.780922     -1545.0874
   5   2.0000     -56.780277     -1545.0699
   6   2.0000     -19.393151      -527.7145
   7   2.0000     -19.314921      -525.5857
   8   2.0000     -19.298013      -525.1256
   9   2.0000     -10.449058      -284.3333
  10   2.0000     -10.353170      -281.7241
  11   2.0000     -10.346753      -281.5495
  12   2.0000     -10.344260      -281.4816
  13   2.0000     -10.343304      -281.4556
  14   2.0000     -10.341448      -281.4051
  15   2.0000     -10.339683      -281.3571
  16   2.0000     -10.327579      -281.0277
  17   2.0000     -10.325168      -280.9621
  18   2.0000     -10.323391      -280.9138
  19   2.0000     -10.323068      -280.9050
  20   2.0000     -10.322474      -280.8888
  21   2.0000     -10.317218      -280.7458
  22   2.0000     -10.312197      -280.6091
  23   2.0000     -10.309590      -280.5382
  24   2.0000      -8.906638      -242.3620
  25   2.0000      -6.756476      -183.8531
  26   2.0000      -6.677749      -181.7108
  27   2.0000      -6.672398      -181.5652
  28   2.0000      -6.668293      -181.4535
  29   2.0000      -4.847468      -131.9063
  30   2.0000      -4.847349      -131.9031
  31   2.0000      -4.845555      -131.8542
  32   2.0000      -3.521662       -95.8293
  33   2.0000      -2.692322       -73.2618
  34   2.0000      -2.691190       -73.2310
  35   2.0000      -2.687685       -73.1356
  36   2.0000      -2.683108       -73.0111
  37   2.0000      -2.682646       -72.9985
  38   2.0000      -2.170511       -59.0626
  39   2.0000      -2.160298       -58.7847
  40   2.0000      -2.137874       -58.1745
  41   2.0000      -1.068892       -29.0860
  42   2.0000      -0.936182       -25.4748
  43   2.0000      -0.892449       -24.2848
  44   2.0000      -0.843799       -22.9609
  45   2.0000      -0.817485       -22.2449
  46   2.0000      -0.771322       -20.9887
  47   2.0000      -0.744534       -20.2598
  48   2.0000      -0.725395       -19.7390
  49   2.0000      -0.719836       -19.5877
  50   2.0000      -0.691703       -18.8222
  51   2.0000      -0.666692       -18.1416
  52   2.0000      -0.649220       -17.6662
  53   2.0000      -0.598894       -16.2967
  54   2.0000      -0.564103       -15.3500
  55   2.0000      -0.541115       -14.7245
  56   2.0000      -0.534554       -14.5459
  57   2.0000      -0.529691       -14.4136
  58   2.0000      -0.510421       -13.8893
  59   2.0000      -0.458247       -12.4695
  60   2.0000      -0.439052       -11.9472
  61   2.0000      -0.418787       -11.3958
  62   2.0000      -0.417528       -11.3615
  63   2.0000      -0.404055       -10.9949
  64   2.0000      -0.394961       -10.7474
  65   2.0000      -0.385119       -10.4796
  66   2.0000      -0.377526       -10.2730
  67   2.0000      -0.374563       -10.1924
  68   2.0000      -0.368556       -10.0289
  69   2.0000      -0.366211        -9.9651
  70   2.0000      -0.362894        -9.8749
  71   2.0000      -0.353988        -9.6325
  72   2.0000      -0.345644        -9.4055
  73   2.0000      -0.333626        -9.0784
  74   2.0000      -0.331171        -9.0116
  75   2.0000      -0.326209        -8.8766
  76   2.0000      -0.318435        -8.6651
  77   2.0000      -0.308091        -8.3836
  78   2.0000      -0.298202        -8.1145
  79   2.0000      -0.288382        -7.8473
  80   2.0000      -0.285989        -7.7822
  81   2.0000      -0.282672        -7.6919
  82   2.0000      -0.275931        -7.5085
  83   2.0000      -0.260844        -7.0979
  84   2.0000      -0.253158        -6.8888
  85   2.0000      -0.244228        -6.6458
  86   2.0000      -0.232478        -6.3260
  87   2.0000      -0.225588        -6.1385
  88   2.0000      -0.217240        -5.9114
  89   2.0000      -0.207578        -5.6485
  90   2.0000      -0.198539        -5.4025
  91   2.0000      -0.190686        -5.1888
  92   2.0000      -0.181516        -4.9393
  93   2.0000      -0.179558        -4.8860
  94   2.0000      -0.168767        -4.5924
  95   2.0000      -0.158430        -4.3111
  96   2.0000      -0.153067        -4.1652
  97   2.0000      -0.150942        -4.1073
  98   2.0000      -0.139772        -3.8034
  99   2.0000      -0.112857        -3.0710
 100   0.0000       0.056788         1.5453
 101   0.0000       0.114763         3.1229
 102   0.0000       0.124314         3.3828
 103   0.0000       0.135606         3.6900
 104   0.0000       0.143854         3.9145

MULLIKEN ATOMIC CHARGES
-----------------------
   0 C :   -0.118168
   1 C :    0.050008
   2 C :   -0.314527
   3 C :   -0.218903
   4 C :   -0.242410
   5 C :   -0.244337
   6 H :    0.361080
   7 H :    0.189089
   8 H :    0.161920
   9 H :    0.169799
  10 H :    0.173910
  11 C :   -0.459211
  12 C :   -0.502699
  13 H :    0.179955
  14 H :    0.251170
  15 C :    0.084737
  16 H :    0.270788
  17 H :    0.197605
  18 C :   -0.091573
  19 C :   -0.316397
  20 C :   -0.225493
  21 C :   -0.257860
  22 C :   -0.236149
  23 H :    0.258887
  24 H :    0.192383
  25 H :    0.178850
  26 H :    0.187535
  27 Pd:    0.075035
  28 Br:   -0.251550
  29 P :   -0.149885
  30 H :    0.107441
  31 C :    0.685928
  32 O :   -0.595050
  33 O :   -0.619649
  34 O :   -0.579491
  35 H :    0.108483
  36 H :    0.123879
  37 H :    0.414867
Sum of atomic charges:   -1.0000000

LOEWDIN ATOMIC CHARGES
----------------------
   0 C :   -0.123284
   1 C :   -0.057064
   2 C :   -0.158636
   3 C :   -0.164830
   4 C :   -0.171047
   5 C :   -0.160520
   6 H :    0.322148
   7 H :    0.121121
   8 H :    0.111364
   9 H :    0.114038
  10 H :    0.116033
  11 C :   -0.212655
  12 C :   -0.212732
  13 H :    0.117406
  14 H :    0.143913
  15 C :   -0.040159
  16 H :    0.165083
  17 H :    0.116682
  18 C :   -0.022355
  19 C :   -0.131303
  20 C :   -0.156324
  21 C :   -0.152616
  22 C :   -0.158646
  23 H :    0.159766
  24 H :    0.124331
  25 H :    0.121802
  26 H :    0.120975
  27 Pd:   -0.843378
  28 Br:    0.048209
  29 P :    0.384381
  30 H :    0.049115
  31 C :    0.140491
  32 O :   -0.426195
  33 O :   -0.411077
  34 O :   -0.303113
  35 H :    0.048522
  36 H :    0.056261
  37 H :    0.324291

  Mayer bond orders larger than 0.100000
B(  0-C ,  1-C ) :   1.3681 B(  0-C ,  2-C ) :   1.4488 B(  0-C , 27-Pd) :   0.5951
B(  1-C ,  5-C ) :   1.4135 B(  1-C , 11-C ) :   0.9624 B(  2-C ,  3-C ) :   1.4000
B(  2-C ,  7-H ) :   0.9142 B(  3-C ,  4-C ) :   1.4321 B(  3-C ,  9-H ) :   0.9297
B(  4-C ,  5-C ) :   1.4193 B(  4-C , 10-H ) :   0.9300 B(  5-C ,  8-H ) :   0.9263
B(  6-H , 28-Br) :   0.6197 B(  6-H , 33-O ) :   0.1884 B( 11-C , 12-C ) :   0.9324
B( 11-C , 13-H ) :   0.9389 B( 11-C , 14-H ) :   0.8985 B( 12-C , 15-C ) :   0.9741
B( 12-C , 16-H ) :   0.8826 B( 12-C , 17-H ) :   0.9288 B( 15-C , 18-C ) :   1.3658
B( 15-C , 21-C ) :   1.3769 B( 18-C , 19-C ) :   1.3829 B( 18-C , 27-Pd) :   0.7453
B( 19-C , 20-C ) :   1.4271 B( 19-C , 23-H ) :   0.8731 B( 20-C , 22-C ) :   1.4061
B( 20-C , 24-H ) :   0.9263 B( 21-C , 22-C ) :   1.4481 B( 21-C , 25-H ) :   0.9258
B( 22-C , 26-H ) :   0.9267 B( 27-Pd, 28-Br) :   0.3616 B( 27-Pd, 29-P ) :   0.5325
B( 27-Pd, 33-O ) :   0.1412 B( 29-P , 30-H ) :   0.9322 B( 29-P , 35-H ) :   0.9286
B( 29-P , 36-H ) :   0.9245 B( 31-C , 32-O ) :   1.7331 B( 31-C , 33-O ) :   1.4403
B( 31-C , 34-O ) :   1.0924 B( 34-O , 37-H ) :   0.7747

Dispersion correction           -0.031602438
FINAL SINGLE POINT ENERGY     -3847.562095566123
Dispersion correction            ... done

DIPOLE MOMENT
-------------
                                X             Y             Z
Electronic contribution:     -9.77241     -65.68310     -13.85303
Nuclear contribution   :     10.97695      65.23711      15.93513
                        -----------------------------------------
Total Dipole Moment    :      1.20454      -0.44600       2.08209
                        -----------------------------------------
Magnitude (a.u.)       :      2.44641
Magnitude (Debye)      :      6.21829

Rotational constants in cm-1:     0.006963     0.006646     0.004473
Rotational constants in MHz :   208.741112   199.253006   134.097740

                             ****ORCA TERMINATED NORMALLY****
TOTAL RUN TIME: 0 days 0 hours 13 minutes 48 seconds 567 msec
