                         Program Version 5.0.4 -  RELEASE  -
|  1> %pal nprocs 8 end
|  2>
|  3>  *xyzfile -1 1 cineb-10-peak.xyz
|  4>
|  5>
|  6>                          ****END OF INPUT****
|  1>
|  2>
|  3>   ! PBEh-3c OptTS Freq pal8
|  4>
|  5>   %geom
|  6>    calc_hess true
|  7>    recalc_hess 20
|  8>    maxiter 600
|  9>   end
| 10>
| 11>
| 12>                          ****END OF INPUT****
 Total Charge           Charge          ....   -1
 Multiplicity           Mult            ....    1
 Number of Electrons    NEL             ....   80
Dispersion correction           -0.005271736
FINAL SINGLE POINT ENERGY     -1539.021788872804
Dispersion correction            ... done
Dispersion correction in the Hessian             ... done   (      0.3 sec)
Dispersion correction           -0.005322098
FINAL SINGLE POINT ENERGY     -1539.025828379832
Dispersion correction            ... done
Dispersion correction           -0.005349217
FINAL SINGLE POINT ENERGY     -1539.027102241271
FINAL SINGLE POINT ENERGY     -1539.027138241166
FINAL SINGLE POINT ENERGY     -1539.027125754539
Dispersion correction           -0.005348579
FINAL SINGLE POINT ENERGY     -1539.027132977033
Dispersion correction            ... done
                    ***********************HURRAY********************
Dispersion correction           -0.005348746
FINAL SINGLE POINT ENERGY     -1539.027135820867
Dispersion correction in the Hessian             ... done   (      0.3 sec)

VIBRATIONAL FREQUENCIES
-----------------------

Scaling factor for frequencies =  1.000000000  (already applied!)

   0:         0.00 cm**-1
   1:         0.00 cm**-1
   2:         0.00 cm**-1
   3:         0.00 cm**-1
   4:         0.00 cm**-1
   5:         0.00 cm**-1
   6:      -708.21 cm**-1 ***imaginary mode***
   7:       100.86 cm**-1
   8:       140.11 cm**-1
   9:       147.36 cm**-1
  10:       149.46 cm**-1
  11:       156.97 cm**-1
  12:       207.45 cm**-1
  13:       328.68 cm**-1
  14:       336.80 cm**-1
  15:       346.60 cm**-1
  16:       569.95 cm**-1
  17:       675.60 cm**-1
  18:       989.23 cm**-1
  19:      1048.96 cm**-1
  20:      1368.82 cm**-1
  21:      1522.61 cm**-1
  22:      1539.52 cm**-1
  23:      2436.59 cm**-1
  24:      3117.60 cm**-1
  25:      3206.92 cm**-1
  26:      3239.38 cm**-1

IR SPECTRUM
-----------

 Mode   freq       eps      Int      T**2         TX        TY        TZ
       cm**-1   L/(mol*cm) km/mol    a.u.
----------------------------------------------------------------------------
  7:    100.86   0.000728    3.68  0.002251  (-0.020152  0.042242 -0.007777)
  8:    140.11   0.000066    0.34  0.000148  ( 0.001643  0.004155  0.011315)
  9:    147.36   0.000069    0.35  0.000146  ( 0.011646  0.000785 -0.003082)
 10:    149.46   0.000041    0.21  0.000086  ( 0.000161 -0.002032 -0.009066)
 11:    156.97   0.000170    0.86  0.000338  ( 0.013325  0.011946 -0.004249)
 12:    207.45   0.000234    1.18  0.000351  ( 0.003913  0.003680  0.017959)
 13:    328.68   0.003707   18.73  0.003520  ( 0.045091  0.032788 -0.020279)
 14:    336.80   0.015695   79.32  0.014542  ( 0.025422  0.033393  0.113051)
 15:    346.60   0.006023   30.44  0.005423  ( 0.054570  0.042362 -0.025510)
 16:    569.95   0.001955    9.88  0.001070  ( 0.023385  0.019370 -0.012171)
 17:    675.60   0.003712   18.76  0.001715  ( 0.008471  0.012352  0.038607)
 18:    989.23   0.001969    9.95  0.000621  (-0.024579 -0.002533  0.003238)
 19:   1048.96   0.001870    9.45  0.000556  (-0.000795 -0.004813 -0.023076)
 20:   1368.82   0.002436   12.31  0.000555  ( 0.017930  0.013058 -0.007959)
 21:   1522.61   0.000851    4.30  0.000174  (-0.012793  0.003263 -0.000326)
 22:   1539.52   0.000804    4.06  0.000163  ( 0.002651  0.004670  0.011581)
 23:   2436.59   0.000469    2.37  0.000060  ( 0.006425 -0.004325 -0.000297)
 24:   3117.60   0.004229   21.37  0.000423  (-0.011976 -0.014714  0.007959)
 25:   3206.92   0.002374   12.00  0.000231  ( 0.013232  0.004023 -0.006306)
 26:   3239.38   0.001760    8.89  0.000170  ( 0.004114  0.004945  0.011319)

--------------------------
THERMOCHEMISTRY AT 298.15K
--------------------------

Temperature         ... 298.15 K
Pressure            ... 1.00 atm
Total Mass          ... 317.49 AMU

Throughout the following assumptions are being made:
  (1) The electronic state is orbitally nondegenerate
  (2) There are no thermally accessible electronically excited states
  (3) Hindered rotations indicated by low frequency modes are not
      treated as such but are treated as vibrations and this may
      cause some error
  (4) All equations used are the standard statistical mechanics
      equations for an ideal gas
  (5) All vibrations are strictly harmonic

freq.     100.86  E(vib)   ...       0.46
freq.     140.11  E(vib)   ...       0.41
freq.     147.36  E(vib)   ...       0.41
freq.     149.46  E(vib)   ...       0.40
freq.     156.97  E(vib)   ...       0.40
freq.     207.45  E(vib)   ...       0.34
freq.     328.68  E(vib)   ...       0.24
freq.     336.80  E(vib)   ...       0.24
freq.     346.60  E(vib)   ...       0.23
freq.     569.95  E(vib)   ...       0.11
freq.     675.60  E(vib)   ...       0.08
freq.     989.23  E(vib)   ...       0.02
freq.    1048.96  E(vib)   ...       0.02
freq.    1368.82  E(vib)   ...       0.01
freq.    1522.61  E(vib)   ...       0.00
freq.    1539.52  E(vib)   ...       0.00
freq.    2436.59  E(vib)   ...       0.00
freq.    3117.60  E(vib)   ...       0.00
freq.    3206.92  E(vib)   ...       0.00
freq.    3239.38  E(vib)   ...       0.00

------------
INNER ENERGY
------------

The inner energy is: U= E(el) + E(ZPE) + E(vib) + E(rot) + E(trans)
    E(el)   - is the total energy from the electronic structure calculation
              = E(kin-el) + E(nuc-el) + E(el-el) + E(nuc-nuc)
    E(ZPE)  - the the zero temperature vibrational energy from the frequency calculation
    E(vib)  - the the finite temperature correction to E(ZPE) due to population
              of excited vibrational states
    E(rot)  - is the rotational thermal energy
    E(trans)- is the translational thermal energy

Summary of contributions to the inner energy U:
Electronic energy                ...  -1539.02713582 Eh
Zero point energy                ...      0.04927559 Eh      30.92 kcal/mol
Thermal vibrational correction   ...      0.00537940 Eh       3.38 kcal/mol
Thermal rotational correction    ...      0.00141627 Eh       0.89 kcal/mol
Thermal translational correction ...      0.00141627 Eh       0.89 kcal/mol
-----------------------------------------------------------------------
Total thermal energy                  -1538.96964829 Eh

Summary of corrections to the electronic energy:
(perhaps to be used in another calculation)
Total thermal correction                  0.00821194 Eh       5.15 kcal/mol
Non-thermal (ZPE) correction              0.04927559 Eh      30.92 kcal/mol
-----------------------------------------------------------------------
Total correction                          0.05748753 Eh      36.07 kcal/mol

--------
ENTHALPY
--------

The enthalpy is H = U + kB*T
                kB is Boltzmann's constant
Total free energy                 ...  -1538.96964829 Eh
Thermal Enthalpy correction       ...      0.00094421 Eh       0.59 kcal/mol
-----------------------------------------------------------------------
Total Enthalpy                    ...  -1538.96870408 Eh

Note: Only C1 symmetry has been detected, increase convergence thresholds
      if your molecule has a higher symmetry. Symmetry factor of 1.0 is
      used for the rotational entropy correction.

Note: Rotational entropy computed according to Herzberg
Infrared and Raman Spectra, Chapter V,1, Van Nostrand Reinhold, 1945
Point Group:  C1, Symmetry Number:   1
Rotational constants in cm-1:     0.064161     0.042752     0.026272

Vibrational entropy computed according to the QRRHO of S. Grimme
Chem.Eur.J. 2012 18 9955

-------
ENTROPY
-------

The entropy contributions are T*S = T*(S(el)+S(vib)+S(rot)+S(trans))
     S(el)   - electronic entropy
     S(vib)  - vibrational entropy
     S(rot)  - rotational entropy
     S(trans)- translational entropy
The entropies will be listed as multiplied by the temperature to get
units of energy

Electronic entropy                ...      0.00000000 Eh      0.00 kcal/mol
Vibrational entropy               ...      0.00977382 Eh      6.13 kcal/mol
Rotational entropy                ...      0.01401359 Eh      8.79 kcal/mol
Translational entropy             ...      0.02050744 Eh     12.87 kcal/mol
-----------------------------------------------------------------------
Final entropy term                ...      0.04429485 Eh     27.80 kcal/mol

In case the symmetry of your molecule has not been determined correctly
or in case you have a reason to use a different symmetry number we print
out the resulting rotational entropy values for sn=1,12 :
 --------------------------------------------------------
|  sn= 1 | S(rot)=       0.01401359 Eh      8.79 kcal/mol|
|  sn= 2 | S(rot)=       0.01335914 Eh      8.38 kcal/mol|
|  sn= 3 | S(rot)=       0.01297630 Eh      8.14 kcal/mol|
|  sn= 4 | S(rot)=       0.01270468 Eh      7.97 kcal/mol|
|  sn= 5 | S(rot)=       0.01249399 Eh      7.84 kcal/mol|
|  sn= 6 | S(rot)=       0.01232185 Eh      7.73 kcal/mol|
|  sn= 7 | S(rot)=       0.01217630 Eh      7.64 kcal/mol|
|  sn= 8 | S(rot)=       0.01205022 Eh      7.56 kcal/mol|
|  sn= 9 | S(rot)=       0.01193902 Eh      7.49 kcal/mol|
|  sn=10 | S(rot)=       0.01183954 Eh      7.43 kcal/mol|
|  sn=11 | S(rot)=       0.01174955 Eh      7.37 kcal/mol|
|  sn=12 | S(rot)=       0.01166739 Eh      7.32 kcal/mol|
 --------------------------------------------------------

-------------------
GIBBS FREE ENERGY
-------------------

The Gibbs free energy is G = H - T*S

Total enthalpy                    ...  -1538.96870408 Eh
Total entropy correction          ...     -0.04429485 Eh    -27.80 kcal/mol
-----------------------------------------------------------------------
Final Gibbs free energy         ...  -1539.01299893 Eh

For completeness - the Gibbs free energy minus the electronic energy
G-E(el)                           ...      0.01413689 Eh      8.87 kcal/mol

|  1>
|  2>
|  3>   ! PBEh-3c IRC pal8
|  4>   %irc
|  5>     maxiter 600
|  6>     inithess read
|  7>     hess_filename "reaction-6-cineb10_optts_Compound_1.hess"
|  8>   end
|  9>
| 10>
| 11>                          ****END OF INPUT****

CARTESIAN COORDINATES (ANGSTROEM)
---------------------------------
  Pt    -0.561939   -0.686667    0.331769
  Cl    -0.031354   -0.025133    2.502401
  Cl    -2.454061   -1.819128    1.090763
  Cl    -1.007210   -1.316119   -1.867966
  C      0.677006    0.873312   -0.412627
  H      1.387253    1.267686    0.311763
  H      0.933680   -0.617302   -0.016109
  H      1.164286    0.703144   -1.371980
  H     -0.110449    1.614197   -0.566845

 Multiplicity           Mult            ....    1
 Number of Electrons    NEL             ....   80
 Basis Dimension        Dim             ....  109

ORBITAL ENERGIES
----------------

  NO   OCC          E(Eh)            E(eV)
   0   2.0000    -102.094232     -2778.1253
   1   2.0000    -102.094160     -2778.1233
   2   2.0000    -102.080993     -2777.7650
   3   2.0000     -10.339009      -281.3387
   4   2.0000      -9.558427      -260.0980
   5   2.0000      -9.558284      -260.0941
   6   2.0000      -9.545708      -259.7519
   7   2.0000      -7.244689      -197.1380
   8   2.0000      -7.244527      -197.1336
   9   2.0000      -7.239263      -196.9904
  10   2.0000      -7.239147      -196.9872
  11   2.0000      -7.238971      -196.9824
  12   2.0000      -7.238857      -196.9793
  13   2.0000      -7.231524      -196.7798
  14   2.0000      -7.227035      -196.6576
  15   2.0000      -7.226133      -196.6331
  16   2.0000      -3.982450      -108.3680
  17   2.0000      -2.199371       -59.8479
  18   2.0000      -2.186526       -59.4984
  19   2.0000      -2.163963       -58.8844
  20   2.0000      -0.701140       -19.0790
  21   2.0000      -0.681819       -18.5532
  22   2.0000      -0.676177       -18.3997
  23   2.0000      -0.660957       -17.9856
  24   2.0000      -0.405860       -11.0440
  25   2.0000      -0.360877        -9.8200
  26   2.0000      -0.340213        -9.2577
  27   2.0000      -0.298777        -8.1301
  28   2.0000      -0.271298        -7.3824
  29   2.0000      -0.251608        -6.8466
  30   2.0000      -0.248576        -6.7641
  31   2.0000      -0.224708        -6.1146
  32   2.0000      -0.201789        -5.4910
  33   2.0000      -0.190357        -5.1799
  34   2.0000      -0.179960        -4.8970
  35   2.0000      -0.165428        -4.5015
  36   2.0000      -0.150790        -4.1032
  37   2.0000      -0.146492        -3.9863
  38   2.0000      -0.141412        -3.8480
  39   2.0000      -0.133272        -3.6265
  40   0.0000       0.114903         3.1267
  41   0.0000       0.144272         3.9259
  42   0.0000       0.214769         5.8442
  43   0.0000       0.256311         6.9746
  44   0.0000       0.271251         7.3811

MULLIKEN ATOMIC CHARGES
-----------------------
   0 Pt:    0.105213
   1 Cl:   -0.408376
   2 Cl:   -0.390688
   3 Cl:   -0.409594
   4 C :   -0.881945
   5 H :    0.259802
   6 H :    0.205979
   7 H :    0.253357
   8 H :    0.266252
Sum of atomic charges:   -1.0000000

LOEWDIN ATOMIC CHARGES
----------------------
   0 Pt:   -0.873024
   1 Cl:   -0.123122
   2 Cl:   -0.142424
   3 Cl:   -0.123684
   4 C :   -0.402773
   5 H :    0.147585
   6 H :    0.201378
   7 H :    0.144258
   8 H :    0.171806

  Mayer bond orders larger than 0.100000
B(  0-Pt,  1-Cl) :   0.7805 B(  0-Pt,  2-Cl) :   0.7972 B(  0-Pt,  3-Cl) :   0.7772
B(  0-Pt,  4-C ) :   0.6478 B(  0-Pt,  6-H ) :   0.5909 B(  1-Cl,  3-Cl) :   0.1312
B(  2-Cl,  4-C ) :   0.1073 B(  4-C ,  5-H ) :   0.8800 B(  4-C ,  6-H ) :   0.2653
B(  4-C ,  7-H ) :   0.8860 B(  4-C ,  8-H ) :   0.8884

Dispersion correction           -0.005348746
FINAL SINGLE POINT ENERGY     -1539.027135975396
Dispersion correction            ... done

DIPOLE MOMENT
-------------
                                X             Y             Z
Electronic contribution:     14.16887       1.01384      -3.41104
Nuclear contribution   :    -12.91361      -0.03882       2.83918
                        -----------------------------------------
Total Dipole Moment    :      1.25526       0.97502      -0.57186
                        -----------------------------------------
Magnitude (a.u.)       :      1.68920
Magnitude (Debye)      :      4.29359

Rotational constants in cm-1:     0.064161     0.042752     0.026272
Rotational constants in MHz :  1923.504095  1281.662606   787.606703

                      ***********************HURRAY********************
                             ****ORCA TERMINATED NORMALLY****
TOTAL RUN TIME: 0 days 0 hours 19 minutes 6 seconds 328 msec
