                         Program Version 5.0.3 -  RELEASE  -
|  1> ! EnGrad PBEh-3c
|  2> %output
|  3> xyzfile=True
|  4> end
|  5> %scf
|  6> maxiter 250
|  7> end
|  8> %output
|  9> Print[P_Hirshfeld] = 1
| 10> end
| 11> % maxcore
| 12> 4000
| 13> *xyz 1 1
| 14> Sc   1.74286920  -1.45089663  -1.40925840
| 15> C    0.38408018  -0.64304521   0.20821934
| 16> N   -0.48392207  -1.38180696   0.91865030
| 17> C   -0.82891249  -0.74106907   2.07195575
| 18> C   -0.16740692   0.43637798   2.07503960
| 19> N    0.58737640   0.46915342   0.94014796
| 20> C    1.45551417   1.57309759   0.59180917
| 21> H    1.68180722   2.23332996   1.42566702
| 22> H    0.97946894   2.18392251  -0.17089915
| 23> H    2.41599187   1.22675784   0.21822249
| 24> C   -1.00342535  -2.69072380   0.56588276
| 25> H   -0.54850716  -3.03514760  -0.35866203
| 26> H   -2.08085879  -2.63226027   0.42549570
| 27> H   -0.78115749  -3.40619306   1.35393348
| 28> H   -1.50948503  -1.15608366   2.79552010
| 29> H   -0.19756889   1.22322786   2.80867472
| 30> C   -0.36722352   1.68520324  -2.81824083
| 31> H   -1.06592537   1.52843742  -3.64769074
| 32> H   -0.06976598   2.73257404  -2.88537409
| 33> H   -0.90310431   1.51332456  -1.88855936
| 34> H    0.76017861   0.33183343  -3.22054056
| 35> *
| 36>
| 37>                          ****END OF INPUT****

CARTESIAN COORDINATES (ANGSTROEM)
---------------------------------
  Sc     1.742869   -1.450897   -1.409258
  C      0.384080   -0.643045    0.208219
  N     -0.483922   -1.381807    0.918650
  C     -0.828912   -0.741069    2.071956
  C     -0.167407    0.436378    2.075040
  N      0.587376    0.469153    0.940148
  C      1.455514    1.573098    0.591809
  H      1.681807    2.233330    1.425667
  H      0.979469    2.183923   -0.170899
  H      2.415992    1.226758    0.218222
  C     -1.003425   -2.690724    0.565883
  H     -0.548507   -3.035148   -0.358662
  H     -2.080859   -2.632260    0.425496
  H     -0.781157   -3.406193    1.353933
  H     -1.509485   -1.156084    2.795520
  H     -0.197569    1.223228    2.808675
  C     -0.367224    1.685203   -2.818241
  H     -1.065925    1.528437   -3.647691
  H     -0.069766    2.732574   -2.885374
  H     -0.903104    1.513325   -1.888559
  H      0.760179    0.331833   -3.220541

 Total Charge           Charge          ....    1
 Multiplicity           Mult            ....    1
 Number of Electrons    NEL             ....   82
 Basis Dimension        Dim             ....  175

ORBITAL ENERGIES
----------------

  NO   OCC          E(Eh)            E(eV)
   0   2.0000    -162.912074     -4433.0629
   1   2.0000     -18.222199      -495.8512
   2   2.0000     -15.063131      -409.8886
   3   2.0000     -15.061085      -409.8330
   4   2.0000     -15.047002      -409.4498
   5   2.0000     -14.869123      -404.6094
   6   2.0000     -14.868763      -404.5996
   7   2.0000     -10.649297      -289.7821
   8   2.0000     -10.630846      -289.2800
   9   2.0000     -10.628384      -289.2130
  10   2.0000     -10.622456      -289.0517
  11   2.0000     -10.621454      -289.0245
  12   2.0000     -10.591379      -288.2061
  13   2.0000      -2.428824       -66.0917
  14   2.0000      -1.575459       -42.8704
  15   2.0000      -1.570410       -42.7330
  16   2.0000      -1.559391       -42.4332
  17   2.0000      -1.318325       -35.8735
  18   2.0000      -1.195225       -32.5237
  19   2.0000      -1.028600       -27.9896
  20   2.0000      -0.986417       -26.8418
  21   2.0000      -0.930408       -25.3177
  22   2.0000      -0.878894       -23.9159
  23   2.0000      -0.848587       -23.0912
  24   2.0000      -0.809390       -22.0246
  25   2.0000      -0.756307       -20.5802
  26   2.0000      -0.708610       -19.2823
  27   2.0000      -0.679377       -18.4868
  28   2.0000      -0.664329       -18.0773
  29   2.0000      -0.659844       -17.9553
  30   2.0000      -0.653228       -17.7752
  31   2.0000      -0.605184       -16.4679
  32   2.0000      -0.599344       -16.3090
  33   2.0000      -0.593558       -16.1515
  34   2.0000      -0.579511       -15.7693
  35   2.0000      -0.566786       -15.4230
  36   2.0000      -0.521277       -14.1847
  37   2.0000      -0.491015       -13.3612
  38   2.0000      -0.476496       -12.9661
  39   2.0000      -0.439264       -11.9530
  40   2.0000      -0.324738        -8.8366
  41   0.0000      -0.193022        -5.2524
  42   0.0000      -0.185111        -5.0371
  43   0.0000      -0.183081        -4.9819
  44   0.0000      -0.172872        -4.7041
  45   0.0000      -0.167682        -4.5629

MULLIKEN ATOMIC CHARGES
-----------------------
   0 Sc:    0.500385
   1 C :    0.215500
   2 N :   -0.407943
   3 C :   -0.064999
   4 C :   -0.065855
   5 N :   -0.418014
   6 C :   -0.531075
   7 H :    0.283282
   8 H :    0.280494
   9 H :    0.260658
  10 C :   -0.516634
  11 H :    0.251970
  12 H :    0.283057
  13 H :    0.277232
  14 H :    0.305134
  15 H :    0.306090
  16 C :   -0.756558
  17 H :    0.271835
  18 H :    0.258068
  19 H :    0.229326
  20 H :    0.038046
Sum of atomic charges:    1.0000000

LOEWDIN ATOMIC CHARGES
----------------------
   0 Sc:    0.340712
   1 C :   -0.045499
   2 N :    0.011948
   3 C :   -0.082595
   4 C :   -0.076553
   5 N :    0.009570
   6 C :   -0.241881
   7 H :    0.159403
   8 H :    0.153073
   9 H :    0.150826
  10 C :   -0.236385
  11 H :    0.149453
  12 H :    0.156990
  13 H :    0.155346
  14 H :    0.169357
  15 H :    0.169287
  16 C :   -0.446020
  17 H :    0.150864
  18 H :    0.149773
  19 H :    0.132672
  20 H :    0.069658

  Mayer bond orders larger than 0.100000
B(  0-Sc,  1-C ) :   0.7043 B(  0-Sc, 16-C ) :   0.1575 B(  0-Sc, 20-H ) :   0.1747
B(  1-C ,  2-N ) :   1.2264 B(  1-C ,  5-N ) :   1.2207 B(  2-N ,  3-C ) :   1.1601
B(  2-N , 10-C ) :   0.9093 B(  3-C ,  4-C ) :   1.6262 B(  3-C , 14-H ) :   0.8774
B(  4-C ,  5-N ) :   1.1552 B(  4-C , 15-H ) :   0.8771 B(  5-N ,  6-C ) :   0.9125
B(  6-C ,  7-H ) :   0.9001 B(  6-C ,  8-H ) :   0.8879 B(  6-C ,  9-H ) :   0.8945
B( 10-C , 11-H ) :   0.8935 B( 10-C , 12-H ) :   0.8919 B( 10-C , 13-H ) :   0.8954
B( 16-C , 17-H ) :   0.9042 B( 16-C , 18-H ) :   0.9083 B( 16-C , 19-H ) :   0.9102
B( 16-C , 20-H ) :   0.8090

Dispersion correction           -0.011227356
FINAL SINGLE POINT ENERGY     -1104.339789056316
Dispersion correction            ... done

DIPOLE MOMENT
-------------
                                X             Y             Z
Electronic contribution:     10.16714     -11.16917      -1.24472
Nuclear contribution   :     -9.95116      10.89372       1.38723
                        -----------------------------------------
Total Dipole Moment    :      0.21597      -0.27546       0.14251
                        -----------------------------------------
Magnitude (a.u.)       :      0.37793
Magnitude (Debye)      :      0.96062

Rotational constants in cm-1:     0.039273     0.030108     0.023048
Rotational constants in MHz :  1177.360968   902.600333   690.949923

                             ****ORCA TERMINATED NORMALLY****
TOTAL RUN TIME: 0 days 0 hours 4 minutes 19 seconds 303 msec
