                         Program Version 5.0.3 -  RELEASE  -
|  1> ! EnGrad PBEh-3c
|  2> %output
|  3> xyzfile=True
|  4> end
|  5> %scf
|  6> maxiter 250
|  7> end
|  8> %output
|  9> Print[P_Hirshfeld] = 1
| 10> end
| 11> % maxcore
| 12> 4000
| 13> *xyz 1 1
| 14> Sc   1.62595253  -1.19472746  -1.56853364
| 15> C    0.42282706  -0.63113516   0.24722009
| 16> N   -0.45331851  -1.37581176   0.94775479
| 17> C   -0.80435504  -0.75723424   2.11137150
| 18> C   -0.14291568   0.42385044   2.14118084
| 19> N    0.58973943   0.48301364   0.99164136
| 20> C    1.42338522   1.60998179   0.61365532
| 21> H    1.50211456   2.29433205   1.45751692
| 22> H    0.99550955   2.15046100  -0.22341217
| 23> H    2.42417186   1.27408934   0.35146966
| 24> C   -0.97715885  -2.66979086   0.55727160
| 25> H   -0.58765602  -2.95383653  -0.41572610
| 26> H   -2.06129148  -2.62775977   0.48931705
| 27> H   -0.68930418  -3.42403432   1.28690778
| 28> H   -1.47369681  -1.20219916   2.82837233
| 29> H   -0.12587507   1.19833230   2.89330395
| 30> C   -0.32543414   1.52889764  -2.92281122
| 31> H   -1.07111327   1.69006985  -3.79661765
| 32> H    0.55456090   2.16953623  -3.00565658
| 33> H   -0.87264191   1.57237215  -1.94095044
| 34> H    0.05658933   0.45605637  -3.04919222
| 35> *
| 36>
| 37>                          ****END OF INPUT****

CARTESIAN COORDINATES (ANGSTROEM)
---------------------------------
  Sc     1.625953   -1.194727   -1.568534
  C      0.422827   -0.631135    0.247220
  N     -0.453319   -1.375812    0.947755
  C     -0.804355   -0.757234    2.111372
  C     -0.142916    0.423850    2.141181
  N      0.589739    0.483014    0.991641
  C      1.423385    1.609982    0.613655
  H      1.502115    2.294332    1.457517
  H      0.995510    2.150461   -0.223412
  H      2.424172    1.274089    0.351470
  C     -0.977159   -2.669791    0.557272
  H     -0.587656   -2.953837   -0.415726
  H     -2.061291   -2.627760    0.489317
  H     -0.689304   -3.424034    1.286908
  H     -1.473697   -1.202199    2.828372
  H     -0.125875    1.198332    2.893304
  C     -0.325434    1.528898   -2.922811
  H     -1.071113    1.690070   -3.796618
  H      0.554561    2.169536   -3.005657
  H     -0.872642    1.572372   -1.940950
  H      0.056589    0.456056   -3.049192

 Total Charge           Charge          ....    1
 Multiplicity           Mult            ....    1
 Number of Electrons    NEL             ....   82
 Basis Dimension        Dim             ....  175

ORBITAL ENERGIES
----------------

  NO   OCC          E(Eh)            E(eV)
   0   2.0000    -162.905769     -4432.8913
   1   2.0000     -18.215926      -495.6805
   2   2.0000     -15.057203      -409.7273
   3   2.0000     -15.054535      -409.6547
   4   2.0000     -15.040502      -409.2729
   5   2.0000     -14.869942      -404.6317
   6   2.0000     -14.869269      -404.6134
   7   2.0000     -10.649903      -289.7986
   8   2.0000     -10.634034      -289.3668
   9   2.0000     -10.630863      -289.2805
  10   2.0000     -10.623784      -289.0879
  11   2.0000     -10.620865      -289.0084
  12   2.0000     -10.562566      -287.4220
  13   2.0000      -2.424940       -65.9860
  14   2.0000      -1.573521       -42.8177
  15   2.0000      -1.565325       -42.5947
  16   2.0000      -1.555786       -42.3351
  17   2.0000      -1.317982       -35.8641
  18   2.0000      -1.194859       -32.5138
  19   2.0000      -1.029593       -28.0167
  20   2.0000      -0.986552       -26.8455
  21   2.0000      -0.930641       -25.3240
  22   2.0000      -0.892493       -24.2860
  23   2.0000      -0.848909       -23.1000
  24   2.0000      -0.809132       -22.0176
  25   2.0000      -0.755271       -20.5520
  26   2.0000      -0.708574       -19.2813
  27   2.0000      -0.679134       -18.4802
  28   2.0000      -0.662642       -18.0314
  29   2.0000      -0.660447       -17.9717
  30   2.0000      -0.654324       -17.8051
  31   2.0000      -0.605834       -16.4856
  32   2.0000      -0.601746       -16.3743
  33   2.0000      -0.594976       -16.1901
  34   2.0000      -0.581096       -15.8124
  35   2.0000      -0.564005       -15.3474
  36   2.0000      -0.558898       -15.2084
  37   2.0000      -0.525206       -14.2916
  38   2.0000      -0.491737       -13.3809
  39   2.0000      -0.440018       -11.9735
  40   2.0000      -0.326544        -8.8857
  41   0.0000      -0.187708        -5.1078
  42   0.0000      -0.182440        -4.9644
  43   0.0000      -0.181983        -4.9520
  44   0.0000      -0.170187        -4.6310
  45   0.0000      -0.166623        -4.5341

MULLIKEN ATOMIC CHARGES
-----------------------
   0 Sc:    0.501371
   1 C :    0.206679
   2 N :   -0.410141
   3 C :   -0.063667
   4 C :   -0.066286
   5 N :   -0.414898
   6 C :   -0.526448
   7 H :    0.277379
   8 H :    0.276578
   9 H :    0.267281
  10 C :   -0.519516
  11 H :    0.255681
  12 H :    0.280350
  13 H :    0.277737
  14 H :    0.305846
  15 H :    0.306185
  16 C :   -0.868582
  17 H :    0.267965
  18 H :    0.247679
  19 H :    0.225168
  20 H :    0.173638
Sum of atomic charges:    1.0000000

LOEWDIN ATOMIC CHARGES
----------------------
   0 Sc:    0.349418
   1 C :   -0.048101
   2 N :    0.013995
   3 C :   -0.080175
   4 C :   -0.075095
   5 N :    0.007613
   6 C :   -0.240906
   7 H :    0.158313
   8 H :    0.151148
   9 H :    0.153094
  10 C :   -0.237714
  11 H :    0.150915
  12 H :    0.156213
  13 H :    0.155196
  14 H :    0.170153
  15 H :    0.169910
  16 C :   -0.506249
  17 H :    0.161305
  18 H :    0.141881
  19 H :    0.135416
  20 H :    0.113670

  Mayer bond orders larger than 0.100000
B(  0-Sc,  1-C ) :   0.6999 B(  1-C ,  2-N ) :   1.2310 B(  1-C ,  5-N ) :   1.2196
B(  2-N ,  3-C ) :   1.1691 B(  2-N , 10-C ) :   0.9107 B(  3-C ,  4-C ) :   1.6168
B(  3-C , 14-H ) :   0.8771 B(  4-C ,  5-N ) :   1.1611 B(  4-C , 15-H ) :   0.8767
B(  5-N ,  6-C ) :   0.9071 B(  6-C ,  7-H ) :   0.9037 B(  6-C ,  8-H ) :   0.8896
B(  6-C ,  9-H ) :   0.8924 B( 10-C , 11-H ) :   0.8962 B( 10-C , 12-H ) :   0.8936
B( 10-C , 13-H ) :   0.8948 B( 16-C , 17-H ) :   0.9135 B( 16-C , 18-H ) :   0.9146
B( 16-C , 19-H ) :   0.9233 B( 16-C , 20-H ) :   0.8897

Dispersion correction           -0.010911456
FINAL SINGLE POINT ENERGY     -1104.443651337345
Dispersion correction            ... done

DIPOLE MOMENT
-------------
                                X             Y             Z
Electronic contribution:      9.72662      -9.71111      -2.17696
Nuclear contribution   :     -9.47556       9.49416       2.13631
                        -----------------------------------------
Total Dipole Moment    :      0.25106      -0.21694      -0.04065
                        -----------------------------------------
Magnitude (a.u.)       :      0.33429
Magnitude (Debye)      :      0.84969

Rotational constants in cm-1:     0.043462     0.029130     0.022959
Rotational constants in MHz :  1302.944802   873.281525   688.287930

                             ****ORCA TERMINATED NORMALLY****
TOTAL RUN TIME: 0 days 0 hours 4 minutes 56 seconds 769 msec
