                         Program Version 5.0.3 -  RELEASE  -
|  1> ! EnGrad PBEh-3c
|  2> %output
|  3> xyzfile=True
|  4> end
|  5> %scf
|  6> maxiter 250
|  7> end
|  8> %output
|  9> Print[P_Hirshfeld] = 1
| 10> end
| 11> % maxcore
| 12> 4000
| 13> *xyz 1 1
| 14> Sc   1.72298583  -1.40283985  -1.43774029
| 15> C    0.42006590  -0.65544004   0.20196395
| 16> N   -0.48523117  -1.37515280   0.92519580
| 17> C   -0.83511802  -0.74224781   2.08316798
| 18> C   -0.16955403   0.42968719   2.10267983
| 19> N    0.57677974   0.47812211   0.96206861
| 20> C    1.45758919   1.60384418   0.56668824
| 21> H    1.64537134   2.23317900   1.44330785
| 22> H    0.98504177   2.17931390  -0.18320798
| 23> H    2.41690217   1.22550201   0.23652466
| 24> C   -1.00493042  -2.68343830   0.56357479
| 25> H   -0.55607114  -3.02532424  -0.36839579
| 26> H   -2.07869513  -2.63564066   0.43356245
| 27> H   -0.76575564  -3.40872981   1.34460494
| 28> H   -1.50077456  -1.16504708   2.80166382
| 29> H   -0.18132070   1.21861619   2.82023882
| 30> C   -0.33686575   1.57498955  -2.90930351
| 31> H   -1.02696735   1.53806337  -3.64767073
| 32> H    0.04267986   2.69118162  -2.89185643
| 33> H   -0.86763183   1.50635585  -1.89319099
| 34> H    0.54245630   0.41641453  -3.15448523
| 35> *
| 36>
| 37>                          ****END OF INPUT****

CARTESIAN COORDINATES (ANGSTROEM)
---------------------------------
  Sc     1.722986   -1.402840   -1.437740
  C      0.420066   -0.655440    0.201964
  N     -0.485231   -1.375153    0.925196
  C     -0.835118   -0.742248    2.083168
  C     -0.169554    0.429687    2.102680
  N      0.576780    0.478122    0.962069
  C      1.457589    1.603844    0.566688
  H      1.645371    2.233179    1.443308
  H      0.985042    2.179314   -0.183208
  H      2.416902    1.225502    0.236525
  C     -1.004930   -2.683438    0.563575
  H     -0.556071   -3.025324   -0.368396
  H     -2.078695   -2.635641    0.433562
  H     -0.765756   -3.408730    1.344605
  H     -1.500775   -1.165047    2.801664
  H     -0.181321    1.218616    2.820239
  C     -0.336866    1.574990   -2.909304
  H     -1.026967    1.538063   -3.647671
  H      0.042680    2.691182   -2.891856
  H     -0.867632    1.506356   -1.893191
  H      0.542456    0.416415   -3.154485

 Total Charge           Charge          ....    1
 Multiplicity           Mult            ....    1
 Number of Electrons    NEL             ....   82
 Basis Dimension        Dim             ....  175

ORBITAL ENERGIES
----------------

  NO   OCC          E(Eh)            E(eV)
   0   2.0000    -162.909133     -4432.9829
   1   2.0000     -18.219727      -495.7840
   2   2.0000     -15.060600      -409.8197
   3   2.0000     -15.058787      -409.7704
   4   2.0000     -15.044205      -409.3736
   5   2.0000     -14.870973      -404.6597
   6   2.0000     -14.869884      -404.6301
   7   2.0000     -10.653713      -289.9023
   8   2.0000     -10.633211      -289.3444
   9   2.0000     -10.630213      -289.2628
  10   2.0000     -10.623105      -289.0694
  11   2.0000     -10.621745      -289.0324
  12   2.0000     -10.580220      -287.9024
  13   2.0000      -2.427891       -66.0663
  14   2.0000      -1.574765       -42.8515
  15   2.0000      -1.569639       -42.7121
  16   2.0000      -1.558732       -42.4153
  17   2.0000      -1.310174       -35.6516
  18   2.0000      -1.187218       -32.3058
  19   2.0000      -1.028080       -27.9755
  20   2.0000      -0.982410       -26.7327
  21   2.0000      -0.930852       -25.3298
  22   2.0000      -0.877237       -23.8708
  23   2.0000      -0.843564       -22.9545
  24   2.0000      -0.810248       -22.0480
  25   2.0000      -0.755480       -20.5577
  26   2.0000      -0.705140       -19.1878
  27   2.0000      -0.677057       -18.4237
  28   2.0000      -0.661903       -18.0113
  29   2.0000      -0.659213       -17.9381
  30   2.0000      -0.652064       -17.7436
  31   2.0000      -0.606154       -16.4943
  32   2.0000      -0.599615       -16.3163
  33   2.0000      -0.597664       -16.2633
  34   2.0000      -0.577217       -15.7069
  35   2.0000      -0.546900       -14.8819
  36   2.0000      -0.530822       -14.4444
  37   2.0000      -0.520104       -14.1528
  38   2.0000      -0.491942       -13.3864
  39   2.0000      -0.440023       -11.9736
  40   2.0000      -0.327479        -8.9111
  41   0.0000      -0.189846        -5.1660
  42   0.0000      -0.185560        -5.0493
  43   0.0000      -0.183759        -5.0003
  44   0.0000      -0.173288        -4.7154
  45   0.0000      -0.168158        -4.5758

MULLIKEN ATOMIC CHARGES
-----------------------
   0 Sc:    0.511021
   1 C :    0.203073
   2 N :   -0.416090
   3 C :   -0.055336
   4 C :   -0.056348
   5 N :   -0.439022
   6 C :   -0.513065
   7 H :    0.274582
   8 H :    0.286126
   9 H :    0.261562
  10 C :   -0.518186
  11 H :    0.252321
  12 H :    0.283947
  13 H :    0.275601
  14 H :    0.307083
  15 H :    0.305859
  16 C :   -0.811577
  17 H :    0.298427
  18 H :    0.234707
  19 H :    0.209910
  20 H :    0.105403
Sum of atomic charges:    1.0000000

LOEWDIN ATOMIC CHARGES
----------------------
   0 Sc:    0.343650
   1 C :   -0.041157
   2 N :    0.011339
   3 C :   -0.079396
   4 C :   -0.072019
   5 N :    0.000980
   6 C :   -0.231635
   7 H :    0.157580
   8 H :    0.152729
   9 H :    0.151957
  10 C :   -0.238204
  11 H :    0.149685
  12 H :    0.156631
  13 H :    0.154830
  14 H :    0.169580
  15 H :    0.168225
  16 C :   -0.485232
  17 H :    0.144133
  18 H :    0.149252
  19 H :    0.128357
  20 H :    0.108713

  Mayer bond orders larger than 0.100000
B(  0-Sc,  1-C ) :   0.6979 B(  1-C ,  2-N ) :   1.2194 B(  1-C ,  5-N ) :   1.2080
B(  2-N ,  3-C ) :   1.1658 B(  2-N , 10-C ) :   0.9103 B(  3-C ,  4-C ) :   1.6066
B(  3-C , 14-H ) :   0.8765 B(  4-C ,  5-N ) :   1.1665 B(  4-C , 15-H ) :   0.8777
B(  5-N ,  6-C ) :   0.8986 B(  6-C ,  7-H ) :   0.9057 B(  6-C ,  8-H ) :   0.8860
B(  6-C ,  9-H ) :   0.8951 B( 10-C , 11-H ) :   0.8947 B( 10-C , 12-H ) :   0.8911
B( 10-C , 13-H ) :   0.8958 B( 16-C , 17-H ) :   0.8835 B( 16-C , 18-H ) :   0.9242
B( 16-C , 19-H ) :   0.9225 B( 16-C , 20-H ) :   0.8821

Dispersion correction           -0.011168910
FINAL SINGLE POINT ENERGY     -1104.380814680118
Dispersion correction            ... done

DIPOLE MOMENT
-------------
                                X             Y             Z
Electronic contribution:     10.15504     -10.97490      -1.51449
Nuclear contribution   :     -9.89987      10.71918       1.64496
                        -----------------------------------------
Total Dipole Moment    :      0.25518      -0.25572       0.13047
                        -----------------------------------------
Magnitude (a.u.)       :      0.38410
Magnitude (Debye)      :      0.97630

Rotational constants in cm-1:     0.040266     0.029651     0.022989
Rotational constants in MHz :  1207.146286   888.900430   689.199988

                             ****ORCA TERMINATED NORMALLY****
TOTAL RUN TIME: 0 days 0 hours 4 minutes 31 seconds 624 msec
