                         Program Version 5.0.3 -  RELEASE  -
|  1> ! EnGrad PBEh-3c
|  2> %output
|  3> xyzfile=True
|  4> end
|  5> %scf
|  6> maxiter 250
|  7> end
|  8> %output
|  9> Print[P_Hirshfeld] = 1
| 10> end
| 11> % maxcore
| 12> 4000
| 13> *xyz 1 1
| 14> Sc   1.71243845  -1.37486561  -1.45620915
| 15> C    0.42365232  -0.65029631   0.22057268
| 16> N   -0.47972015  -1.37194282   0.92235485
| 17> C   -0.83342905  -0.74502816   2.08495034
| 18> C   -0.16646300   0.42651762   2.11040190
| 19> N    0.58067609   0.48088241   0.95980233
| 20> C    1.45421380   1.60623391   0.57793901
| 21> H    1.62338981   2.23706536   1.44775707
| 22> H    0.98303538   2.18356423  -0.19997231
| 23> H    2.41936761   1.22720078   0.24925372
| 24> C   -1.00160640  -2.68159712   0.56365998
| 25> H   -0.56180991  -3.01716611  -0.37429847
| 26> H   -2.07952548  -2.63721346   0.43960300
| 27> H   -0.75581263  -3.40923239   1.33674476
| 28> H   -1.49725265  -1.17351150   2.80899741
| 29> H   -0.17199569   1.21737158   2.83271881
| 30> C   -0.28821517   1.53579458  -2.90256490
| 31> H   -1.03312805   1.54489105  -3.68044217
| 32> H    0.10637343   2.63751155  -2.90142980
| 33> H   -0.84199178   1.50442456  -1.91814682
| 34> H    0.40935295   0.46158374  -3.12275458
| 35> *
| 36>
| 37>                          ****END OF INPUT****

CARTESIAN COORDINATES (ANGSTROEM)
---------------------------------
  Sc     1.712438   -1.374866   -1.456209
  C      0.423652   -0.650296    0.220573
  N     -0.479720   -1.371943    0.922355
  C     -0.833429   -0.745028    2.084950
  C     -0.166463    0.426518    2.110402
  N      0.580676    0.480882    0.959802
  C      1.454214    1.606234    0.577939
  H      1.623390    2.237065    1.447757
  H      0.983035    2.183564   -0.199972
  H      2.419368    1.227201    0.249254
  C     -1.001606   -2.681597    0.563660
  H     -0.561810   -3.017166   -0.374298
  H     -2.079525   -2.637213    0.439603
  H     -0.755813   -3.409232    1.336745
  H     -1.497253   -1.173512    2.808997
  H     -0.171996    1.217372    2.832719
  C     -0.288215    1.535795   -2.902565
  H     -1.033128    1.544891   -3.680442
  H      0.106373    2.637512   -2.901430
  H     -0.841992    1.504425   -1.918147
  H      0.409353    0.461584   -3.122755

 Total Charge           Charge          ....    1
 Multiplicity           Mult            ....    1
 Number of Electrons    NEL             ....   82
 Basis Dimension        Dim             ....  175

ORBITAL ENERGIES
----------------

  NO   OCC          E(Eh)            E(eV)
   0   2.0000    -162.909197     -4432.9846
   1   2.0000     -18.219716      -495.7837
   2   2.0000     -15.060644      -409.8210
   3   2.0000     -15.058822      -409.7714
   4   2.0000     -15.044082      -409.3703
   5   2.0000     -14.870547      -404.6482
   6   2.0000     -14.869399      -404.6169
   7   2.0000     -10.652463      -289.8682
   8   2.0000     -10.633540      -289.3533
   9   2.0000     -10.630629      -289.2741
  10   2.0000     -10.624449      -289.1060
  11   2.0000     -10.622316      -289.0479
  12   2.0000     -10.569762      -287.6178
  13   2.0000      -2.428102       -66.0720
  14   2.0000      -1.575269       -42.8652
  15   2.0000      -1.569825       -42.7171
  16   2.0000      -1.558638       -42.4127
  17   2.0000      -1.312681       -35.7199
  18   2.0000      -1.188743       -32.3473
  19   2.0000      -1.027853       -27.9693
  20   2.0000      -0.984514       -26.7900
  21   2.0000      -0.929477       -25.2924
  22   2.0000      -0.877355       -23.8740
  23   2.0000      -0.846104       -23.0237
  24   2.0000      -0.808891       -22.0110
  25   2.0000      -0.754843       -20.5403
  26   2.0000      -0.705799       -19.2058
  27   2.0000      -0.677857       -18.4454
  28   2.0000      -0.660297       -17.9676
  29   2.0000      -0.659221       -17.9383
  30   2.0000      -0.653719       -17.7886
  31   2.0000      -0.606166       -16.4946
  32   2.0000      -0.601718       -16.3736
  33   2.0000      -0.596453       -16.2303
  34   2.0000      -0.569337       -15.4925
  35   2.0000      -0.558500       -15.1976
  36   2.0000      -0.530256       -14.4290
  37   2.0000      -0.527151       -14.3445
  38   2.0000      -0.491179       -13.3657
  39   2.0000      -0.441013       -12.0006
  40   2.0000      -0.328713        -8.9447
  41   0.0000      -0.189159        -5.1473
  42   0.0000      -0.184832        -5.0295
  43   0.0000      -0.184306        -5.0152
  44   0.0000      -0.173080        -4.7097
  45   0.0000      -0.168784        -4.5929

MULLIKEN ATOMIC CHARGES
-----------------------
   0 Sc:    0.510002
   1 C :    0.210350
   2 N :   -0.415572
   3 C :   -0.056740
   4 C :   -0.061860
   5 N :   -0.433677
   6 C :   -0.513114
   7 H :    0.276636
   8 H :    0.282123
   9 H :    0.260888
  10 C :   -0.518607
  11 H :    0.252884
  12 H :    0.283535
  13 H :    0.276761
  14 H :    0.306971
  15 H :    0.305180
  16 C :   -0.857354
  17 H :    0.282960
  18 H :    0.240766
  19 H :    0.216694
  20 H :    0.151174
Sum of atomic charges:    1.0000000

LOEWDIN ATOMIC CHARGES
----------------------
   0 Sc:    0.352219
   1 C :   -0.043844
   2 N :    0.011290
   3 C :   -0.079540
   4 C :   -0.071988
   5 N :    0.001295
   6 C :   -0.233043
   7 H :    0.157519
   8 H :    0.153631
   9 H :    0.151815
  10 C :   -0.237672
  11 H :    0.149626
  12 H :    0.157004
  13 H :    0.154947
  14 H :    0.170400
  15 H :    0.168401
  16 C :   -0.515384
  17 H :    0.150260
  18 H :    0.150737
  19 H :    0.128017
  20 H :    0.124311

  Mayer bond orders larger than 0.100000
B(  0-Sc,  1-C ) :   0.6990 B(  1-C ,  2-N ) :   1.2261 B(  1-C ,  5-N ) :   1.2170
B(  2-N ,  3-C ) :   1.1591 B(  2-N , 10-C ) :   0.9096 B(  3-C ,  4-C ) :   1.6208
B(  3-C , 14-H ) :   0.8764 B(  4-C ,  5-N ) :   1.1567 B(  4-C , 15-H ) :   0.8777
B(  5-N ,  6-C ) :   0.8995 B(  6-C ,  7-H ) :   0.9038 B(  6-C ,  8-H ) :   0.8877
B(  6-C ,  9-H ) :   0.8949 B( 10-C , 11-H ) :   0.8953 B( 10-C , 12-H ) :   0.8916
B( 10-C , 13-H ) :   0.8952 B( 16-C , 17-H ) :   0.8972 B( 16-C , 18-H ) :   0.9225
B( 16-C , 19-H ) :   0.9201 B( 16-C , 20-H ) :   0.8982

Dispersion correction           -0.010887469
FINAL SINGLE POINT ENERGY     -1104.415921000636
Dispersion correction            ... done

DIPOLE MOMENT
-------------
                                X             Y             Z
Electronic contribution:     10.20906     -10.87293      -1.60132
Nuclear contribution   :     -9.93804      10.59498       1.69429
                        -----------------------------------------
Total Dipole Moment    :      0.27102      -0.27795       0.09297
                        -----------------------------------------
Magnitude (a.u.)       :      0.39919
Magnitude (Debye)      :      1.01467

Rotational constants in cm-1:     0.040991     0.029664     0.023022
Rotational constants in MHz :  1228.867929   889.294504   690.182743

                             ****ORCA TERMINATED NORMALLY****
TOTAL RUN TIME: 0 days 0 hours 4 minutes 36 seconds 739 msec
