                         Program Version 5.0.3 -  RELEASE  -
|  1> ! EnGrad PBEh-3c
|  2> %output
|  3> xyzfile=True
|  4> end
|  5> %scf
|  6> maxiter 250
|  7> end
|  8> %output
|  9> Print[P_Hirshfeld] = 1
| 10> end
| 11> % maxcore
| 12> 4000
| 13> *xyz 1 1
| 14> Sc   1.70307337  -1.35147946  -1.47222433
| 15> C    0.42025721  -0.64056684   0.23882556
| 16> N   -0.47502685  -1.37208846   0.92123951
| 17> C   -0.82906610  -0.74783382   2.08540369
| 18> C   -0.16034644   0.42647219   2.11028131
| 19> N    0.58625947   0.48208778   0.95854559
| 20> C    1.44669129   1.60136061   0.59097049
| 21> H    1.60551556   2.24397682   1.45013493
| 22> H    0.98245073   2.18661795  -0.21284980
| 23> H    2.42104462   1.23133011   0.26216617
| 24> C   -0.99712518  -2.68050243   0.56251953
| 25> H   -0.56720832  -3.00914253  -0.37952844
| 26> H   -2.07997432  -2.63795877   0.44574242
| 27> H   -0.74672748  -3.40937833   1.32974361
| 28> H   -1.49425660  -1.18172693   2.81554011
| 29> H   -0.16466955   1.21581268   2.84520457
| 30> C   -0.26311516   1.51878738  -2.89196148
| 31> H   -1.03369690   1.55316337  -3.70255120
| 32> H    0.16009282   2.57166466  -2.91223669
| 33> H   -0.82125483   1.50229056  -1.94601487
| 34> H    0.30921053   0.49999438  -3.10058083
| 35> *
| 36>
| 37>                          ****END OF INPUT****

CARTESIAN COORDINATES (ANGSTROEM)
---------------------------------
  Sc     1.703073   -1.351479   -1.472224
  C      0.420257   -0.640567    0.238826
  N     -0.475027   -1.372088    0.921240
  C     -0.829066   -0.747834    2.085404
  C     -0.160346    0.426472    2.110281
  N      0.586259    0.482088    0.958546
  C      1.446691    1.601361    0.590970
  H      1.605516    2.243977    1.450135
  H      0.982451    2.186618   -0.212850
  H      2.421045    1.231330    0.262166
  C     -0.997125   -2.680502    0.562520
  H     -0.567208   -3.009143   -0.379528
  H     -2.079974   -2.637959    0.445742
  H     -0.746727   -3.409378    1.329744
  H     -1.494257   -1.181727    2.815540
  H     -0.164670    1.215813    2.845205
  C     -0.263115    1.518787   -2.891961
  H     -1.033697    1.553163   -3.702551
  H      0.160093    2.571665   -2.912237
  H     -0.821255    1.502291   -1.946015
  H      0.309211    0.499994   -3.100581

 Total Charge           Charge          ....    1
 Multiplicity           Mult            ....    1
 Number of Electrons    NEL             ....   82
 Basis Dimension        Dim             ....  175

ORBITAL ENERGIES
----------------

  NO   OCC          E(Eh)            E(eV)
   0   2.0000    -162.909479     -4432.9923
   1   2.0000     -18.219858      -495.7875
   2   2.0000     -15.060866      -409.8270
   3   2.0000     -15.058939      -409.7746
   4   2.0000     -15.044192      -409.3733
   5   2.0000     -14.870165      -404.6377
   6   2.0000     -14.869528      -404.6204
   7   2.0000     -10.650605      -289.8177
   8   2.0000     -10.633605      -289.3551
   9   2.0000     -10.631016      -289.2847
  10   2.0000     -10.625655      -289.1388
  11   2.0000     -10.622831      -289.0619
  12   2.0000     -10.556783      -287.2647
  13   2.0000      -2.428164       -66.0737
  14   2.0000      -1.575619       -42.8748
  15   2.0000      -1.569732       -42.7146
  16   2.0000      -1.558400       -42.4062
  17   2.0000      -1.317352       -35.8470
  18   2.0000      -1.193349       -32.4727
  19   2.0000      -1.028221       -27.9793
  20   2.0000      -0.986859       -26.8538
  21   2.0000      -0.929474       -25.2923
  22   2.0000      -0.885541       -24.0968
  23   2.0000      -0.849353       -23.1121
  24   2.0000      -0.808228       -21.9930
  25   2.0000      -0.754847       -20.5404
  26   2.0000      -0.707898       -19.2629
  27   2.0000      -0.679437       -18.4884
  28   2.0000      -0.661637       -18.0041
  29   2.0000      -0.659275       -17.9398
  30   2.0000      -0.654746       -17.8165
  31   2.0000      -0.605454       -16.4752
  32   2.0000      -0.603317       -16.4171
  33   2.0000      -0.595269       -16.1981
  34   2.0000      -0.585772       -15.9397
  35   2.0000      -0.557794       -15.1784
  36   2.0000      -0.533140       -14.5075
  37   2.0000      -0.522822       -14.2267
  38   2.0000      -0.491304       -13.3691
  39   2.0000      -0.440992       -12.0000
  40   2.0000      -0.329102        -8.9553
  41   0.0000      -0.188077        -5.1178
  42   0.0000      -0.184592        -5.0230
  43   0.0000      -0.184081        -5.0091
  44   0.0000      -0.172510        -4.6942
  45   0.0000      -0.169168        -4.6033

MULLIKEN ATOMIC CHARGES
-----------------------
   0 Sc:    0.505964
   1 C :    0.216775
   2 N :   -0.412935
   3 C :   -0.060889
   4 C :   -0.068635
   5 N :   -0.420580
   6 C :   -0.518317
   7 H :    0.279066
   8 H :    0.278089
   9 H :    0.261139
  10 C :   -0.519066
  11 H :    0.254133
  12 H :    0.282886
  13 H :    0.277800
  14 H :    0.306532
  15 H :    0.305034
  16 C :   -0.889132
  17 H :    0.269506
  18 H :    0.249623
  19 H :    0.225048
  20 H :    0.177959
Sum of atomic charges:    1.0000000

LOEWDIN ATOMIC CHARGES
----------------------
   0 Sc:    0.358056
   1 C :   -0.047601
   2 N :    0.011865
   3 C :   -0.080205
   4 C :   -0.074143
   5 N :    0.005860
   6 C :   -0.236565
   7 H :    0.157980
   8 H :    0.153972
   9 H :    0.151864
  10 C :   -0.237252
  11 H :    0.149781
  12 H :    0.157402
  13 H :    0.155201
  14 H :    0.171051
  15 H :    0.169052
  16 C :   -0.527755
  17 H :    0.153046
  18 H :    0.151723
  19 H :    0.129006
  20 H :    0.127660

  Mayer bond orders larger than 0.100000
B(  0-Sc,  1-C ) :   0.7012 B(  1-C ,  2-N ) :   1.2302 B(  1-C ,  5-N ) :   1.2265
B(  2-N ,  3-C ) :   1.1572 B(  2-N , 10-C ) :   0.9092 B(  3-C ,  4-C ) :   1.6301
B(  3-C , 14-H ) :   0.8766 B(  4-C ,  5-N ) :   1.1524 B(  4-C , 15-H ) :   0.8775
B(  5-N ,  6-C ) :   0.9038 B(  6-C ,  7-H ) :   0.9019 B(  6-C ,  8-H ) :   0.8891
B(  6-C ,  9-H ) :   0.8942 B( 10-C , 11-H ) :   0.8952 B( 10-C , 12-H ) :   0.8921
B( 10-C , 13-H ) :   0.8947 B( 16-C , 17-H ) :   0.9101 B( 16-C , 18-H ) :   0.9202
B( 16-C , 19-H ) :   0.9189 B( 16-C , 20-H ) :   0.9037

Dispersion correction           -0.010863013
FINAL SINGLE POINT ENERGY     -1104.433746363508
Dispersion correction            ... done

DIPOLE MOMENT
-------------
                                X             Y             Z
Electronic contribution:     10.22004     -10.76320      -1.66777
Nuclear contribution   :     -9.94215      10.47308       1.73196
                        -----------------------------------------
Total Dipole Moment    :      0.27789      -0.29012       0.06419
                        -----------------------------------------
Magnitude (a.u.)       :      0.40683
Magnitude (Debye)      :      1.03408

Rotational constants in cm-1:     0.041527     0.029698     0.023063
Rotational constants in MHz :  1244.941508   890.335348   691.410383

                             ****ORCA TERMINATED NORMALLY****
TOTAL RUN TIME: 0 days 0 hours 4 minutes 36 seconds 894 msec
