                         Program Version 5.0.3 -  RELEASE  -
|  1> ! EnGrad PBEh-3c
|  2> %output
|  3> xyzfile=True
|  4> end
|  5> %scf
|  6> maxiter 250
|  7> end
|  8> %output
|  9> Print[P_Hirshfeld] = 1
| 10> end
| 11> % maxcore
| 12> 4000
| 13> *xyz 1 1
| 14> Sc   1.68527073  -1.31295226  -1.49736303
| 15> C    0.42494349  -0.63461357   0.24753280
| 16> N   -0.47178200  -1.37164416   0.92579568
| 17> C   -0.82452552  -0.75030168   2.09083123
| 18> C   -0.15448107   0.42649858   2.11750566
| 19> N    0.58813329   0.48610400   0.96865921
| 20> C    1.43843441   1.60446065   0.59424670
| 21> H    1.57713537   2.25411669   1.45622162
| 22> H    0.98600013   2.18490023  -0.22454470
| 23> H    2.42146083   1.23818632   0.28375833
| 24> C   -0.99326726  -2.67736109   0.55959897
| 25> H   -0.57484980  -2.99738433  -0.38887816
| 26> H   -2.07823354  -2.63910795   0.45547714
| 27> H   -0.73206431  -3.41035026   1.31967409
| 28> H   -1.48707109  -1.19235480   2.82263452
| 29> H   -0.15295909   1.21051520   2.86095808
| 30> C   -0.24996509   1.49108926  -2.91042899
| 31> H   -1.01923029   1.56615271  -3.71940240
| 32> H    0.24703316   2.48341396  -2.92657645
| 33> H   -0.79894386   1.49985753  -1.97116157
| 34> H    0.17195059   0.54480092  -3.06702807
| 35> *
| 36>
| 37>                          ****END OF INPUT****

CARTESIAN COORDINATES (ANGSTROEM)
---------------------------------
  Sc     1.685271   -1.312952   -1.497363
  C      0.424943   -0.634614    0.247533
  N     -0.471782   -1.371644    0.925796
  C     -0.824526   -0.750302    2.090831
  C     -0.154481    0.426499    2.117506
  N      0.588133    0.486104    0.968659
  C      1.438434    1.604461    0.594247
  H      1.577135    2.254117    1.456222
  H      0.986000    2.184900   -0.224545
  H      2.421461    1.238186    0.283758
  C     -0.993267   -2.677361    0.559599
  H     -0.574850   -2.997384   -0.388878
  H     -2.078234   -2.639108    0.455477
  H     -0.732064   -3.410350    1.319674
  H     -1.487071   -1.192355    2.822635
  H     -0.152959    1.210515    2.860958
  C     -0.249965    1.491089   -2.910429
  H     -1.019230    1.566153   -3.719402
  H      0.247033    2.483414   -2.926576
  H     -0.798944    1.499858   -1.971162
  H      0.171951    0.544801   -3.067028

 Total Charge           Charge          ....    1
 Multiplicity           Mult            ....    1
 Number of Electrons    NEL             ....   82
 Basis Dimension        Dim             ....  175

ORBITAL ENERGIES
----------------

  NO   OCC          E(Eh)            E(eV)
   0   2.0000    -162.909278     -4432.9868
   1   2.0000     -18.219629      -495.7813
   2   2.0000     -15.060694      -409.8223
   3   2.0000     -15.058662      -409.7670
   4   2.0000     -15.043953      -409.3668
   5   2.0000     -14.870840      -404.6561
   6   2.0000     -14.870229      -404.6395
   7   2.0000     -10.650759      -289.8219
   8   2.0000     -10.634319      -289.3745
   9   2.0000     -10.631889      -289.3084
  10   2.0000     -10.626628      -289.1653
  11   2.0000     -10.623012      -289.0668
  12   2.0000     -10.538868      -286.7772
  13   2.0000      -2.428060       -66.0709
  14   2.0000      -1.575757       -42.8785
  15   2.0000      -1.569429       -42.7063
  16   2.0000      -1.558267       -42.4026
  17   2.0000      -1.318546       -35.8795
  18   2.0000      -1.195309       -32.5260
  19   2.0000      -1.028844       -27.9963
  20   2.0000      -0.987002       -26.8577
  21   2.0000      -0.930338       -25.3158
  22   2.0000      -0.900370       -24.5003
  23   2.0000      -0.849960       -23.1286
  24   2.0000      -0.808663       -22.0048
  25   2.0000      -0.754946       -20.5431
  26   2.0000      -0.708687       -19.2843
  27   2.0000      -0.680092       -18.5062
  28   2.0000      -0.662761       -18.0346
  29   2.0000      -0.659809       -17.9543
  30   2.0000      -0.654547       -17.8111
  31   2.0000      -0.608181       -16.5494
  32   2.0000      -0.605785       -16.4842
  33   2.0000      -0.603148       -16.4125
  34   2.0000      -0.594341       -16.1728
  35   2.0000      -0.558677       -15.2024
  36   2.0000      -0.537357       -14.6222
  37   2.0000      -0.523300       -14.2397
  38   2.0000      -0.492172       -13.3927
  39   2.0000      -0.440563       -11.9883
  40   2.0000      -0.329390        -8.9631
  41   0.0000      -0.187923        -5.1136
  42   0.0000      -0.184558        -5.0221
  43   0.0000      -0.184123        -5.0102
  44   0.0000      -0.172291        -4.6883
  45   0.0000      -0.169371        -4.6088

MULLIKEN ATOMIC CHARGES
-----------------------
   0 Sc:    0.506555
   1 C :    0.215354
   2 N :   -0.412387
   3 C :   -0.062112
   4 C :   -0.069417
   5 N :   -0.414948
   6 C :   -0.519653
   7 H :    0.277924
   8 H :    0.277139
   9 H :    0.262575
  10 C :   -0.519716
  11 H :    0.255377
  12 H :    0.282694
  13 H :    0.277914
  14 H :    0.306523
  15 H :    0.305325
  16 C :   -0.917129
  17 H :    0.266328
  18 H :    0.250650
  19 H :    0.222463
  20 H :    0.208542
Sum of atomic charges:    1.0000000

LOEWDIN ATOMIC CHARGES
----------------------
   0 Sc:    0.363143
   1 C :   -0.048619
   2 N :    0.012397
   3 C :   -0.080092
   4 C :   -0.074953
   5 N :    0.007932
   6 C :   -0.237648
   7 H :    0.158054
   8 H :    0.153867
   9 H :    0.152330
  10 C :   -0.237533
  11 H :    0.150129
  12 H :    0.157537
  13 H :    0.155303
  14 H :    0.171342
  15 H :    0.169370
  16 C :   -0.533338
  17 H :    0.155374
  18 H :    0.151812
  19 H :    0.129359
  20 H :    0.124232

  Mayer bond orders larger than 0.100000
B(  0-Sc,  1-C ) :   0.7008 B(  1-C ,  2-N ) :   1.2295 B(  1-C ,  5-N ) :   1.2270
B(  2-N ,  3-C ) :   1.1611 B(  2-N , 10-C ) :   0.9091 B(  3-C ,  4-C ) :   1.6255
B(  3-C , 14-H ) :   0.8766 B(  4-C ,  5-N ) :   1.1567 B(  4-C , 15-H ) :   0.8773
B(  5-N ,  6-C ) :   0.9049 B(  6-C ,  7-H ) :   0.9023 B(  6-C ,  8-H ) :   0.8892
B(  6-C ,  9-H ) :   0.8935 B( 10-C , 11-H ) :   0.8954 B( 10-C , 12-H ) :   0.8923
B( 10-C , 13-H ) :   0.8945 B( 16-C , 17-H ) :   0.9174 B( 16-C , 18-H ) :   0.9236
B( 16-C , 19-H ) :   0.9263 B( 16-C , 20-H ) :   0.9028

Dispersion correction           -0.010876208
FINAL SINGLE POINT ENERGY     -1104.439570818696
Dispersion correction            ... done

DIPOLE MOMENT
-------------
                                X             Y             Z
Electronic contribution:     10.16092     -10.55470      -1.79970
Nuclear contribution   :     -9.87816      10.26020       1.85497
                        -----------------------------------------
Total Dipole Moment    :      0.28275      -0.29450       0.05527
                        -----------------------------------------
Magnitude (a.u.)       :      0.41199
Magnitude (Debye)      :      1.04719

Rotational constants in cm-1:     0.042219     0.029566     0.023044
Rotational constants in MHz :  1265.691373   886.377359   690.843504

                             ****ORCA TERMINATED NORMALLY****
TOTAL RUN TIME: 0 days 0 hours 4 minutes 49 seconds 216 msec
