                         Program Version 5.0.3 -  RELEASE  -
|  1> ! EnGrad PBEh-3c
|  2> %output
|  3> xyzfile=True
|  4> end
|  5> %scf
|  6> maxiter 250
|  7> end
|  8> %output
|  9> Print[P_Hirshfeld] = 1
| 10> end
| 11> % maxcore
| 12> 4000
| 13> *xyz 1 1
| 14> Sc   1.67006464  -1.27487814  -1.51994021
| 15> C    0.42429456  -0.63240125   0.24885412
| 16> N   -0.46370393  -1.37222540   0.93718876
| 17> C   -0.81878467  -0.74845187   2.09952263
| 18> C   -0.15109589   0.43207520   2.12477474
| 19> N    0.59359390   0.48455935   0.98252889
| 20> C    1.42923894   1.60685117   0.59818752
| 21> H    1.54787904   2.26378278   1.45772882
| 22> H    0.99341685   2.17758917  -0.22840341
| 23> H    2.41682092   1.24889362   0.30662492
| 24> C   -0.98994808  -2.67595425   0.55699062
| 25> H   -0.58112889  -2.98481899  -0.40051321
| 26> H   -2.07374211  -2.63797182   0.46621685
| 27> H   -0.71691602  -3.41121115   1.30877037
| 28> H   -1.47951878  -1.20036660   2.82443212
| 29> H   -0.14157666   1.20307650   2.87433284
| 30> C   -0.32214211   1.56544187  -2.91762037
| 31> H   -1.00060296   1.57780500  -3.72442914
| 32> H    0.36280018   2.33721360  -2.95345096
| 33> H   -0.77882476   1.48587859  -2.00345372
| 34> H    0.08457749   0.56138791  -3.04230556
| 35> *
| 36>
| 37>                          ****END OF INPUT****

CARTESIAN COORDINATES (ANGSTROEM)
---------------------------------
  Sc     1.670065   -1.274878   -1.519940
  C      0.424295   -0.632401    0.248854
  N     -0.463704   -1.372225    0.937189
  C     -0.818785   -0.748452    2.099523
  C     -0.151096    0.432075    2.124775
  N      0.593594    0.484559    0.982529
  C      1.429239    1.606851    0.598188
  H      1.547879    2.263783    1.457729
  H      0.993417    2.177589   -0.228403
  H      2.416821    1.248894    0.306625
  C     -0.989948   -2.675954    0.556991
  H     -0.581129   -2.984819   -0.400513
  H     -2.073742   -2.637972    0.466217
  H     -0.716916   -3.411211    1.308770
  H     -1.479519   -1.200367    2.824432
  H     -0.141577    1.203077    2.874333
  C     -0.322142    1.565442   -2.917620
  H     -1.000603    1.577805   -3.724429
  H      0.362800    2.337214   -2.953451
  H     -0.778825    1.485879   -2.003454
  H      0.084577    0.561388   -3.042306

 Total Charge           Charge          ....    1
 Multiplicity           Mult            ....    1
 Number of Electrons    NEL             ....   82
 Basis Dimension        Dim             ....  175

ORBITAL ENERGIES
----------------

  NO   OCC          E(Eh)            E(eV)
   0   2.0000    -162.908814     -4432.9742
   1   2.0000     -18.219139      -495.7680
   2   2.0000     -15.060297      -409.8115
   3   2.0000     -15.057993      -409.7488
   4   2.0000     -15.043557      -409.3560
   5   2.0000     -14.871679      -404.6789
   6   2.0000     -14.870854      -404.6565
   7   2.0000     -10.651167      -289.8330
   8   2.0000     -10.634876      -289.3897
   9   2.0000     -10.632514      -289.3254
  10   2.0000     -10.625893      -289.1452
  11   2.0000     -10.623271      -289.0739
  12   2.0000     -10.523179      -286.3502
  13   2.0000      -2.427609       -66.0586
  14   2.0000      -1.575595       -42.8741
  15   2.0000      -1.568518       -42.6815
  16   2.0000      -1.558024       -42.3960
  17   2.0000      -1.319004       -35.8919
  18   2.0000      -1.195893       -32.5419
  19   2.0000      -1.029627       -28.0176
  20   2.0000      -0.987403       -26.8686
  21   2.0000      -0.931632       -25.3510
  22   2.0000      -0.914655       -24.8890
  23   2.0000      -0.850524       -23.1439
  24   2.0000      -0.809613       -22.0307
  25   2.0000      -0.756015       -20.5722
  26   2.0000      -0.709249       -19.2997
  27   2.0000      -0.680653       -18.5215
  28   2.0000      -0.664057       -18.0699
  29   2.0000      -0.660573       -17.9751
  30   2.0000      -0.654905       -17.8209
  31   2.0000      -0.607232       -16.5236
  32   2.0000      -0.603540       -16.4232
  33   2.0000      -0.598271       -16.2798
  34   2.0000      -0.594618       -16.1804
  35   2.0000      -0.584896       -15.9158
  36   2.0000      -0.551582       -15.0093
  37   2.0000      -0.525012       -14.2863
  38   2.0000      -0.493329       -13.4242
  39   2.0000      -0.440712       -11.9924
  40   2.0000      -0.328813        -8.9475
  41   0.0000      -0.187959        -5.1146
  42   0.0000      -0.184186        -5.0120
  43   0.0000      -0.183934        -5.0051
  44   0.0000      -0.171872        -4.6769
  45   0.0000      -0.169169        -4.6033

MULLIKEN ATOMIC CHARGES
-----------------------
   0 Sc:    0.503415
   1 C :    0.210616
   2 N :   -0.411419
   3 C :   -0.064573
   4 C :   -0.065927
   5 N :   -0.414364
   6 C :   -0.522862
   7 H :    0.277405
   8 H :    0.278199
   9 H :    0.264473
  10 C :   -0.519179
  11 H :    0.256331
  12 H :    0.282794
  13 H :    0.278276
  14 H :    0.306248
  15 H :    0.306608
  16 C :   -0.909687
  17 H :    0.277864
  18 H :    0.253230
  19 H :    0.234004
  20 H :    0.178546
Sum of atomic charges:    1.0000000

LOEWDIN ATOMIC CHARGES
----------------------
   0 Sc:    0.357890
   1 C :   -0.049798
   2 N :    0.013369
   3 C :   -0.079648
   4 C :   -0.074432
   5 N :    0.008630
   6 C :   -0.238955
   7 H :    0.158144
   8 H :    0.153094
   9 H :    0.152380
  10 C :   -0.236833
  11 H :    0.150926
  12 H :    0.157403
  13 H :    0.155447
  14 H :    0.170795
  15 H :    0.169485
  16 C :   -0.514361
  17 H :    0.155947
  18 H :    0.143275
  19 H :    0.129998
  20 H :    0.117245

  Mayer bond orders larger than 0.100000
B(  0-Sc,  1-C ) :   0.6976 B(  1-C ,  2-N ) :   1.2315 B(  1-C ,  5-N ) :   1.2217
B(  2-N ,  3-C ) :   1.1671 B(  2-N , 10-C ) :   0.9072 B(  3-C ,  4-C ) :   1.6185
B(  3-C , 14-H ) :   0.8769 B(  4-C ,  5-N ) :   1.1616 B(  4-C , 15-H ) :   0.8767
B(  5-N ,  6-C ) :   0.9068 B(  6-C ,  7-H ) :   0.9029 B(  6-C ,  8-H ) :   0.8890
B(  6-C ,  9-H ) :   0.8930 B( 10-C , 11-H ) :   0.8955 B( 10-C , 12-H ) :   0.8924
B( 10-C , 13-H ) :   0.8946 B( 16-C , 17-H ) :   0.9146 B( 16-C , 18-H ) :   0.9236
B( 16-C , 19-H ) :   0.9243 B( 16-C , 20-H ) :   0.9129

Dispersion correction           -0.010890197
FINAL SINGLE POINT ENERGY     -1104.440614146876
Dispersion correction            ... done

DIPOLE MOMENT
-------------
                                X             Y             Z
Electronic contribution:     10.00574     -10.23391      -1.89293
Nuclear contribution   :     -9.69967       9.89962       1.93199
                        -----------------------------------------
Total Dipole Moment    :      0.30607      -0.33428       0.03906
                        -----------------------------------------
Magnitude (a.u.)       :      0.45492
Magnitude (Debye)      :      1.15631

Rotational constants in cm-1:     0.042178     0.029313     0.022966
Rotational constants in MHz :  1264.474339   878.788096   688.496414

                             ****ORCA TERMINATED NORMALLY****
TOTAL RUN TIME: 0 days 0 hours 4 minutes 50 seconds 415 msec
