                         Program Version 5.0.3 -  RELEASE  -
|  1> ! EnGrad PBEh-3c
|  2> %output
|  3> xyzfile=True
|  4> end
|  5> %scf
|  6> maxiter 250
|  7> end
|  8> %output
|  9> Print[P_Hirshfeld] = 1
| 10> end
| 11> % maxcore
| 12> 4000
| 13> *xyz 1 1
| 14> Sc   1.65463884  -1.23643024  -1.54237931
| 15> C    0.42303985  -0.63085049   0.25271490
| 16> N   -0.45454981  -1.37291102   0.94574933
| 17> C   -0.81232383  -0.74546376   2.10888494
| 18> C   -0.15167764   0.42970062   2.13396476
| 19> N    0.59822434   0.47969584   0.98815548
| 20> C    1.42441169   1.61191503   0.60705564
| 21> H    1.51924615   2.27308072   1.45644201
| 22> H    0.99859504   2.16838072  -0.23076530
| 23> H    2.41306278   1.26004712   0.32891322
| 24> C   -0.98429078  -2.67252812   0.55674382
| 25> H   -0.58627648  -2.97149830  -0.41202236
| 26> H   -2.06981101  -2.63543825   0.47711699
| 27> H   -0.70207256  -3.41402545   1.29777749
| 28> H   -1.47267511  -1.20557613   2.82502912
| 29> H   -0.13055378   1.19946430   2.88840380
| 30> C   -0.36281575   1.54813675  -2.94856652
| 31> H   -1.02186494   1.60778393  -3.76077983
| 32> H    0.51856187   2.24374569  -2.98400449
| 33> H   -0.80211732   1.48606475  -1.97369694
| 34> H    0.00806855   0.58592401  -3.02021725
| 35> *
| 36>
| 37>                          ****END OF INPUT****

CARTESIAN COORDINATES (ANGSTROEM)
---------------------------------
  Sc     1.654639   -1.236430   -1.542379
  C      0.423040   -0.630850    0.252715
  N     -0.454550   -1.372911    0.945749
  C     -0.812324   -0.745464    2.108885
  C     -0.151678    0.429701    2.133965
  N      0.598224    0.479696    0.988155
  C      1.424412    1.611915    0.607056
  H      1.519246    2.273081    1.456442
  H      0.998595    2.168381   -0.230765
  H      2.413063    1.260047    0.328913
  C     -0.984291   -2.672528    0.556744
  H     -0.586276   -2.971498   -0.412022
  H     -2.069811   -2.635438    0.477117
  H     -0.702073   -3.414025    1.297777
  H     -1.472675   -1.205576    2.825029
  H     -0.130554    1.199464    2.888404
  C     -0.362816    1.548137   -2.948567
  H     -1.021865    1.607784   -3.760780
  H      0.518562    2.243746   -2.984004
  H     -0.802117    1.486065   -1.973697
  H      0.008069    0.585924   -3.020217

 Total Charge           Charge          ....    1
 Multiplicity           Mult            ....    1
 Number of Electrons    NEL             ....   82
 Basis Dimension        Dim             ....  175

ORBITAL ENERGIES
----------------

  NO   OCC          E(Eh)            E(eV)
   0   2.0000    -162.909906     -4433.0039
   1   2.0000     -18.220201      -495.7969
   2   2.0000     -15.061346      -409.8401
   3   2.0000     -15.059124      -409.7796
   4   2.0000     -15.044558      -409.3832
   5   2.0000     -14.871329      -404.6694
   6   2.0000     -14.870536      -404.6478
   7   2.0000     -10.651530      -289.8429
   8   2.0000     -10.634995      -289.3929
   9   2.0000     -10.632248      -289.3182
  10   2.0000     -10.624532      -289.1082
  11   2.0000     -10.623701      -289.0856
  12   2.0000     -10.530591      -286.5519
  13   2.0000      -2.428702       -66.0883
  14   2.0000      -1.576604       -42.9016
  15   2.0000      -1.569769       -42.7156
  16   2.0000      -1.559010       -42.4228
  17   2.0000      -1.319712       -35.9112
  18   2.0000      -1.195087       -32.5200
  19   2.0000      -1.030950       -28.0536
  20   2.0000      -0.988713       -26.9042
  21   2.0000      -0.931225       -25.3399
  22   2.0000      -0.910578       -24.7781
  23   2.0000      -0.851274       -23.1643
  24   2.0000      -0.809976       -22.0406
  25   2.0000      -0.756516       -20.5859
  26   2.0000      -0.709622       -19.3098
  27   2.0000      -0.680814       -18.5259
  28   2.0000      -0.663265       -18.0484
  29   2.0000      -0.660009       -17.9598
  30   2.0000      -0.656958       -17.8767
  31   2.0000      -0.608867       -16.5681
  32   2.0000      -0.604200       -16.4411
  33   2.0000      -0.596442       -16.2300
  34   2.0000      -0.586984       -15.9726
  35   2.0000      -0.571522       -15.5519
  36   2.0000      -0.558295       -15.1920
  37   2.0000      -0.525874       -14.3098
  38   2.0000      -0.492550       -13.4030
  39   2.0000      -0.443082       -12.0569
  40   2.0000      -0.330110        -8.9827
  41   0.0000      -0.188653        -5.1335
  42   0.0000      -0.185308        -5.0425
  43   0.0000      -0.184998        -5.0340
  44   0.0000      -0.172737        -4.7004
  45   0.0000      -0.170255        -4.6329

MULLIKEN ATOMIC CHARGES
-----------------------
   0 Sc:    0.505460
   1 C :    0.211548
   2 N :   -0.412052
   3 C :   -0.062688
   4 C :   -0.065669
   5 N :   -0.416508
   6 C :   -0.522840
   7 H :    0.278305
   8 H :    0.278153
   9 H :    0.264941
  10 C :   -0.519230
  11 H :    0.255705
  12 H :    0.282222
  13 H :    0.278584
  14 H :    0.305735
  15 H :    0.306439
  16 C :   -0.900434
  17 H :    0.282586
  18 H :    0.227805
  19 H :    0.222517
  20 H :    0.199423
Sum of atomic charges:    1.0000000

LOEWDIN ATOMIC CHARGES
----------------------
   0 Sc:    0.363359
   1 C :   -0.049845
   2 N :    0.012350
   3 C :   -0.078088
   4 C :   -0.073766
   5 N :    0.007489
   6 C :   -0.239176
   7 H :    0.157999
   8 H :    0.153057
   9 H :    0.151796
  10 C :   -0.236828
  11 H :    0.151116
  12 H :    0.157139
  13 H :    0.155273
  14 H :    0.170441
  15 H :    0.170164
  16 C :   -0.514726
  17 H :    0.156194
  18 H :    0.141699
  19 H :    0.131029
  20 H :    0.113327

  Mayer bond orders larger than 0.100000
B(  0-Sc,  1-C ) :   0.6956 B(  1-C ,  2-N ) :   1.2351 B(  1-C ,  5-N ) :   1.2260
B(  2-N ,  3-C ) :   1.1623 B(  2-N , 10-C ) :   0.9075 B(  3-C ,  4-C ) :   1.6278
B(  3-C , 14-H ) :   0.8771 B(  4-C ,  5-N ) :   1.1531 B(  4-C , 15-H ) :   0.8768
B(  5-N ,  6-C ) :   0.9058 B(  6-C ,  7-H ) :   0.9027 B(  6-C ,  8-H ) :   0.8892
B(  6-C ,  9-H ) :   0.8938 B( 10-C , 11-H ) :   0.8965 B( 10-C , 12-H ) :   0.8927
B( 10-C , 13-H ) :   0.8944 B( 16-C , 17-H ) :   0.9127 B( 16-C , 18-H ) :   0.9352
B( 16-C , 19-H ) :   0.9307 B( 16-C , 20-H ) :   0.8987

Dispersion correction           -0.010900679
FINAL SINGLE POINT ENERGY     -1104.440279593019
Dispersion correction            ... done

DIPOLE MOMENT
-------------
                                X             Y             Z
Electronic contribution:      9.90638     -10.07205      -2.01021
Nuclear contribution   :     -9.57259       9.68787       2.04365
                        -----------------------------------------
Total Dipole Moment    :      0.33379      -0.38418       0.03344
                        -----------------------------------------
Magnitude (a.u.)       :      0.51003
Magnitude (Debye)      :      1.29639

Rotational constants in cm-1:     0.042580     0.029043     0.022939
Rotational constants in MHz :  1276.530076   870.698178   687.682235

                             ****ORCA TERMINATED NORMALLY****
TOTAL RUN TIME: 0 days 0 hours 4 minutes 59 seconds 946 msec
