                         Program Version 5.0.3 -  RELEASE  -
|  1> ! EnGrad PBEh-3c
|  2> %output
|  3> xyzfile=True
|  4> end
|  5> %scf
|  6> maxiter 250
|  7> end
|  8> %output
|  9> Print[P_Hirshfeld] = 1
| 10> end
| 11> % maxcore
| 12> 4000
| 13> *xyz 1 1
| 14> Sc   1.64994467  -1.22608632  -1.54684225
| 15> C    0.42357684  -0.63217119   0.24890812
| 16> N   -0.45507681  -1.37565274   0.94884278
| 17> C   -0.81220499  -0.75406818   2.10979650
| 18> C   -0.14622866   0.43291424   2.13556593
| 19> N    0.59527632   0.48145853   0.99127383
| 20> C    1.42327405   1.60867662   0.60742830
| 21> H    1.51312561   2.28133306   1.45792710
| 22> H    0.99808405   2.16187486  -0.22662729
| 23> H    2.41561144   1.26581221   0.33639804
| 24> C   -0.98058219  -2.67013001   0.55629750
| 25> H   -0.58694280  -2.96538942  -0.41319424
| 26> H   -2.06705422  -2.63228255   0.48160584
| 27> H   -0.69752725  -3.41795146   1.29459939
| 28> H   -1.47202197  -1.20352539   2.82475917
| 29> H   -0.12879098   1.19898898   2.89019418
| 30> C   -0.32791430   1.58019160  -2.92387838
| 31> H   -1.06564430   1.64110115  -3.79963130
| 32> H    0.53431892   2.20000008  -2.99648381
| 33> H   -0.83620623   1.51174271  -1.94958497
| 34> H    0.03106479   0.52434096  -3.03319905
| 35> *
| 36>
| 37>                          ****END OF INPUT****

CARTESIAN COORDINATES (ANGSTROEM)
---------------------------------
  Sc     1.649945   -1.226086   -1.546842
  C      0.423577   -0.632171    0.248908
  N     -0.455077   -1.375653    0.948843
  C     -0.812205   -0.754068    2.109796
  C     -0.146229    0.432914    2.135566
  N      0.595276    0.481459    0.991274
  C      1.423274    1.608677    0.607428
  H      1.513126    2.281333    1.457927
  H      0.998084    2.161875   -0.226627
  H      2.415611    1.265812    0.336398
  C     -0.980582   -2.670130    0.556298
  H     -0.586943   -2.965389   -0.413194
  H     -2.067054   -2.632283    0.481606
  H     -0.697527   -3.417951    1.294599
  H     -1.472022   -1.203525    2.824759
  H     -0.128791    1.198989    2.890194
  C     -0.327914    1.580192   -2.923878
  H     -1.065644    1.641101   -3.799631
  H      0.534319    2.200000   -2.996484
  H     -0.836206    1.511743   -1.949585
  H      0.031065    0.524341   -3.033199

 Total Charge           Charge          ....    1
 Multiplicity           Mult            ....    1
 Number of Electrons    NEL             ....   82
 Basis Dimension        Dim             ....  175

ORBITAL ENERGIES
----------------

  NO   OCC          E(Eh)            E(eV)
   0   2.0000    -162.908062     -4432.9537
   1   2.0000     -18.218341      -495.7463
   2   2.0000     -15.059554      -409.7913
   3   2.0000     -15.057062      -409.7235
   4   2.0000     -15.042843      -409.3366
   5   2.0000     -14.871577      -404.6762
   6   2.0000     -14.870891      -404.6575
   7   2.0000     -10.651028      -289.8292
   8   2.0000     -10.635606      -289.4095
   9   2.0000     -10.632473      -289.3243
  10   2.0000     -10.624016      -289.0942
  11   2.0000     -10.622518      -289.0534
  12   2.0000     -10.550357      -287.0898
  13   2.0000      -2.426938       -66.0404
  14   2.0000      -1.575162       -42.8623
  15   2.0000      -1.567534       -42.6548
  16   2.0000      -1.557553       -42.3832
  17   2.0000      -1.318634       -35.8818
  18   2.0000      -1.196247       -32.5515
  19   2.0000      -1.029648       -28.0181
  20   2.0000      -0.987520       -26.8718
  21   2.0000      -0.931676       -25.3522
  22   2.0000      -0.898438       -24.4478
  23   2.0000      -0.850670       -23.1479
  24   2.0000      -0.809601       -22.0304
  25   2.0000      -0.756484       -20.5850
  26   2.0000      -0.709204       -19.2984
  27   2.0000      -0.681423       -18.5425
  28   2.0000      -0.664781       -18.0896
  29   2.0000      -0.660675       -17.9779
  30   2.0000      -0.654873       -17.8200
  31   2.0000      -0.606842       -16.5130
  32   2.0000      -0.602773       -16.4023
  33   2.0000      -0.595296       -16.1988
  34   2.0000      -0.589988       -16.0544
  35   2.0000      -0.565422       -15.3859
  36   2.0000      -0.549304       -14.9473
  37   2.0000      -0.525822       -14.3083
  38   2.0000      -0.492955       -13.4140
  39   2.0000      -0.440144       -11.9769
  40   2.0000      -0.328128        -8.9288
  41   0.0000      -0.188118        -5.1189
  42   0.0000      -0.183868        -5.0033
  43   0.0000      -0.183388        -4.9902
  44   0.0000      -0.171585        -4.6691
  45   0.0000      -0.168511        -4.5854

MULLIKEN ATOMIC CHARGES
-----------------------
   0 Sc:    0.500516
   1 C :    0.207261
   2 N :   -0.409196
   3 C :   -0.064206
   4 C :   -0.066381
   5 N :   -0.414044
   6 C :   -0.525815
   7 H :    0.277091
   8 H :    0.278858
   9 H :    0.266602
  10 C :   -0.520606
  11 H :    0.256625
  12 H :    0.281238
  13 H :    0.277905
  14 H :    0.306668
  15 H :    0.307339
  16 C :   -0.881611
  17 H :    0.267074
  18 H :    0.251692
  19 H :    0.225517
  20 H :    0.177471
Sum of atomic charges:    1.0000000

LOEWDIN ATOMIC CHARGES
----------------------
   0 Sc:    0.352924
   1 C :   -0.049985
   2 N :    0.014426
   3 C :   -0.078715
   4 C :   -0.074170
   5 N :    0.009171
   6 C :   -0.240538
   7 H :    0.158228
   8 H :    0.152511
   9 H :    0.152358
  10 C :   -0.238072
  11 H :    0.151314
  12 H :    0.156790
  13 H :    0.155289
  14 H :    0.169746
  15 H :    0.169909
  16 C :   -0.510129
  17 H :    0.161130
  18 H :    0.142555
  19 H :    0.133415
  20 H :    0.111842

  Mayer bond orders larger than 0.100000
B(  0-Sc,  1-C ) :   0.6969 B(  1-C ,  2-N ) :   1.2298 B(  1-C ,  5-N ) :   1.2196
B(  2-N ,  3-C ) :   1.1726 B(  2-N , 10-C ) :   0.9095 B(  3-C ,  4-C ) :   1.6129
B(  3-C , 14-H ) :   0.8767 B(  4-C ,  5-N ) :   1.1640 B(  4-C , 15-H ) :   0.8762
B(  5-N ,  6-C ) :   0.9073 B(  6-C ,  7-H ) :   0.9036 B(  6-C ,  8-H ) :   0.8885
B(  6-C ,  9-H ) :   0.8926 B( 10-C , 11-H ) :   0.8959 B( 10-C , 12-H ) :   0.8930
B( 10-C , 13-H ) :   0.8947 B( 16-C , 17-H ) :   0.9163 B( 16-C , 18-H ) :   0.9165
B( 16-C , 19-H ) :   0.9250 B( 16-C , 20-H ) :   0.8985

Dispersion correction           -0.010911160
FINAL SINGLE POINT ENERGY     -1104.442230674983
Dispersion correction            ... done

DIPOLE MOMENT
-------------
                                X             Y             Z
Electronic contribution:      9.89413      -9.90795      -2.02535
Nuclear contribution   :     -9.60411       9.59076       2.02451
                        -----------------------------------------
Total Dipole Moment    :      0.29002      -0.31720      -0.00084
                        -----------------------------------------
Magnitude (a.u.)       :      0.42980
Magnitude (Debye)      :      1.09246

Rotational constants in cm-1:     0.042763     0.029110     0.022908
Rotational constants in MHz :  1281.990069   872.688494   686.776276

                             ****ORCA TERMINATED NORMALLY****
TOTAL RUN TIME: 0 days 0 hours 4 minutes 47 seconds 300 msec
