                         Program Version 5.0.3 -  RELEASE  -
|  1> ! EnGrad PBEh-3c
|  2> %output
|  3> xyzfile=True
|  4> end
|  5> %scf
|  6> maxiter 250
|  7> end
|  8> %output
|  9> Print[P_Hirshfeld] = 1
| 10> end
| 11> % maxcore
| 12> 4000
| 13> *xyz 1 1
| 14> Sc   1.63983840  -1.21302167  -1.55555697
| 15> C    0.42335983  -0.63239336   0.24759750
| 16> N   -0.45461314  -1.37588525   0.94850000
| 17> C   -0.80734287  -0.75485175   2.10945004
| 18> C   -0.14505650   0.42702134   2.13761866
| 19> N    0.59184082   0.48239082   0.99140964
| 20> C    1.42353404   1.60902803   0.61017200
| 21> H    1.50859141   2.28787198   1.45775037
| 22> H    0.99653058   2.15593047  -0.22412665
| 23> H    2.42016683   1.26991959   0.34312737
| 24> C   -0.97888112  -2.66995553   0.55688955
| 25> H   -0.58703143  -2.95981977  -0.41398163
| 26> H   -2.06398206  -2.62973801   0.48528413
| 27> H   -0.69388961  -3.42120341   1.29108986
| 28> H   -1.47361562  -1.20257425   2.82670848
| 29> H   -0.12766306   1.19946541   2.89154351
| 30> C   -0.32384770   1.55684070  -2.92103355
| 31> H   -1.07456701   1.66891252  -3.80219344
| 32> H    0.54379347   2.18679157  -3.00192459
| 33> H   -0.85881702   1.54426440  -1.94045785
| 34> H    0.05077615   0.48387864  -3.04376761
| 35> *
| 36>
| 37>                          ****END OF INPUT****

CARTESIAN COORDINATES (ANGSTROEM)
---------------------------------
  Sc     1.639838   -1.213022   -1.555557
  C      0.423360   -0.632393    0.247597
  N     -0.454613   -1.375885    0.948500
  C     -0.807343   -0.754852    2.109450
  C     -0.145057    0.427021    2.137619
  N      0.591841    0.482391    0.991410
  C      1.423534    1.609028    0.610172
  H      1.508591    2.287872    1.457750
  H      0.996531    2.155930   -0.224127
  H      2.420167    1.269920    0.343127
  C     -0.978881   -2.669956    0.556890
  H     -0.587031   -2.959820   -0.413982
  H     -2.063982   -2.629738    0.485284
  H     -0.693890   -3.421203    1.291090
  H     -1.473616   -1.202574    2.826708
  H     -0.127663    1.199465    2.891544
  C     -0.323848    1.556841   -2.921034
  H     -1.074567    1.668913   -3.802193
  H      0.543793    2.186792   -3.001925
  H     -0.858817    1.544264   -1.940458
  H      0.050776    0.483879   -3.043768

 Total Charge           Charge          ....    1
 Multiplicity           Mult            ....    1
 Number of Electrons    NEL             ....   82
 Basis Dimension        Dim             ....  175

ORBITAL ENERGIES
----------------

  NO   OCC          E(Eh)            E(eV)
   0   2.0000    -162.906843     -4432.9206
   1   2.0000     -18.217072      -495.7117
   2   2.0000     -15.058315      -409.7576
   3   2.0000     -15.055726      -409.6871
   4   2.0000     -15.041621      -409.3033
   5   2.0000     -14.870655      -404.6511
   6   2.0000     -14.869951      -404.6319
   7   2.0000     -10.650452      -289.8135
   8   2.0000     -10.634593      -289.3820
   9   2.0000     -10.631416      -289.2955
  10   2.0000     -10.623847      -289.0896
  11   2.0000     -10.621607      -289.0286
  12   2.0000     -10.558737      -287.3178
  13   2.0000      -2.425859       -66.0110
  14   2.0000      -1.574258       -42.8377
  15   2.0000      -1.566325       -42.6219
  16   2.0000      -1.556609       -42.3575
  17   2.0000      -1.318448       -35.8768
  18   2.0000      -1.195522       -32.5318
  19   2.0000      -1.029938       -28.0260
  20   2.0000      -0.986820       -26.8527
  21   2.0000      -0.931231       -25.3401
  22   2.0000      -0.893626       -24.3168
  23   2.0000      -0.849370       -23.1125
  24   2.0000      -0.809622       -22.0309
  25   2.0000      -0.755734       -20.5646
  26   2.0000      -0.708933       -19.2911
  27   2.0000      -0.679713       -18.4959
  28   2.0000      -0.663492       -18.0545
  29   2.0000      -0.660547       -17.9744
  30   2.0000      -0.654538       -17.8109
  31   2.0000      -0.606407       -16.5012
  32   2.0000      -0.602041       -16.3824
  33   2.0000      -0.595192       -16.1960
  34   2.0000      -0.585934       -15.9441
  35   2.0000      -0.561471       -15.2784
  36   2.0000      -0.554700       -15.0941
  37   2.0000      -0.525506       -14.2998
  38   2.0000      -0.492338       -13.3972
  39   2.0000      -0.440200       -11.9784
  40   2.0000      -0.327195        -8.9034
  41   0.0000      -0.187875        -5.1123
  42   0.0000      -0.183053        -4.9811
  43   0.0000      -0.182583        -4.9683
  44   0.0000      -0.170842        -4.6489
  45   0.0000      -0.167460        -4.5568

MULLIKEN ATOMIC CHARGES
-----------------------
   0 Sc:    0.500627
   1 C :    0.206544
   2 N :   -0.409287
   3 C :   -0.063662
   4 C :   -0.066036
   5 N :   -0.414693
   6 C :   -0.526136
   7 H :    0.277086
   8 H :    0.277830
   9 H :    0.266946
  10 C :   -0.520122
  11 H :    0.256221
  12 H :    0.280782
  13 H :    0.277746
  14 H :    0.306030
  15 H :    0.306525
  16 C :   -0.871540
  17 H :    0.265585
  18 H :    0.251388
  19 H :    0.225188
  20 H :    0.172979
Sum of atomic charges:    1.0000000

LOEWDIN ATOMIC CHARGES
----------------------
   0 Sc:    0.350344
   1 C :   -0.048694
   2 N :    0.014353
   3 C :   -0.079858
   4 C :   -0.074908
   5 N :    0.008277
   6 C :   -0.240731
   7 H :    0.158255
   8 H :    0.151761
   9 H :    0.152765
  10 C :   -0.237910
  11 H :    0.151148
  12 H :    0.156475
  13 H :    0.155233
  14 H :    0.170131
  15 H :    0.170089
  16 C :   -0.506817
  17 H :    0.161232
  18 H :    0.142283
  19 H :    0.134469
  20 H :    0.112101

  Mayer bond orders larger than 0.100000
B(  0-Sc,  1-C ) :   0.6984 B(  1-C ,  2-N ) :   1.2305 B(  1-C ,  5-N ) :   1.2194
B(  2-N ,  3-C ) :   1.1709 B(  2-N , 10-C ) :   0.9102 B(  3-C ,  4-C ) :   1.6147
B(  3-C , 14-H ) :   0.8770 B(  4-C ,  5-N ) :   1.1624 B(  4-C , 15-H ) :   0.8766
B(  5-N ,  6-C ) :   0.9072 B(  6-C ,  7-H ) :   0.9037 B(  6-C ,  8-H ) :   0.8890
B(  6-C ,  9-H ) :   0.8925 B( 10-C , 11-H ) :   0.8960 B( 10-C , 12-H ) :   0.8933
B( 10-C , 13-H ) :   0.8948 B( 16-C , 17-H ) :   0.9155 B( 16-C , 18-H ) :   0.9139
B( 16-C , 19-H ) :   0.9237 B( 16-C , 20-H ) :   0.8942

Dispersion correction           -0.010908648
FINAL SINGLE POINT ENERGY     -1104.442591208561
Dispersion correction            ... done

DIPOLE MOMENT
-------------
                                X             Y             Z
Electronic contribution:      9.82231      -9.81796      -2.08968
Nuclear contribution   :     -9.55509       9.55732       2.06766
                        -----------------------------------------
Total Dipole Moment    :      0.26722      -0.26063      -0.02202
                        -----------------------------------------
Magnitude (a.u.)       :      0.37393
Magnitude (Debye)      :      0.95045

Rotational constants in cm-1:     0.043079     0.029135     0.022939
Rotational constants in MHz :  1291.484015   873.432067   687.685491

                             ****ORCA TERMINATED NORMALLY****
TOTAL RUN TIME: 0 days 0 hours 4 minutes 58 seconds 694 msec
