                         Program Version 5.0.3 -  RELEASE  -
|  1> ! EnGrad PBEh-3c
|  2> %output
|  3> xyzfile=True
|  4> end
|  5> %scf
|  6> maxiter 250
|  7> end
|  8> %output
|  9> Print[P_Hirshfeld] = 1
| 10> end
| 11> % maxcore
| 12> 4000
| 13> *xyz 1 1
| 14> Sc   1.59259552  -1.15078063  -1.59970653
| 15> C    0.42154724  -0.62811270   0.24631348
| 16> N   -0.45020853  -1.37563520   0.94596464
| 17> C   -0.79717761  -0.76295750   2.11598729
| 18> C   -0.13777294   0.41623325   2.14973800
| 19> N    0.58469143   0.48450978   0.99219801
| 20> C    1.42302773   1.61227296   0.62202303
| 21> H    1.48655572   2.30985058   1.45695613
| 22> H    0.99305680   2.13732211  -0.22169584
| 23> H    2.43379287   1.28410601   0.37150973
| 24> C   -0.97302157  -2.66939527   0.55818938
| 25> H   -0.58915645  -2.93946343  -0.41991673
| 26> H   -2.05482810  -2.62300760   0.49900505
| 27> H   -0.67828894  -3.43083483   1.27686149
| 28> H   -1.47389185  -1.20129809   2.83236927
| 29> H   -0.12157989   1.19561031   2.89753291
| 30> C   -0.32924513   1.46177208  -2.92708159
| 31> H   -1.06281659   1.74089453  -3.78322335
| 32> H    0.58042671   2.12808500  -3.01462168
| 33> H   -0.90585241   1.63989332  -1.94213375
| 34> H    0.07055391   0.38922100  -3.06222336
| 35> *
| 36>
| 37>                          ****END OF INPUT****

CARTESIAN COORDINATES (ANGSTROEM)
---------------------------------
  Sc     1.592596   -1.150781   -1.599707
  C      0.421547   -0.628113    0.246313
  N     -0.450209   -1.375635    0.945965
  C     -0.797178   -0.762957    2.115987
  C     -0.137773    0.416233    2.149738
  N      0.584691    0.484510    0.992198
  C      1.423028    1.612273    0.622023
  H      1.486556    2.309851    1.456956
  H      0.993057    2.137322   -0.221696
  H      2.433793    1.284106    0.371510
  C     -0.973022   -2.669395    0.558189
  H     -0.589156   -2.939463   -0.419917
  H     -2.054828   -2.623008    0.499005
  H     -0.678289   -3.430835    1.276861
  H     -1.473892   -1.201298    2.832369
  H     -0.121580    1.195610    2.897533
  C     -0.329245    1.461772   -2.927082
  H     -1.062817    1.740895   -3.783223
  H      0.580427    2.128085   -3.014622
  H     -0.905852    1.639893   -1.942134
  H      0.070554    0.389221   -3.062223

 Total Charge           Charge          ....    1
 Multiplicity           Mult            ....    1
 Number of Electrons    NEL             ....   82
 Basis Dimension        Dim             ....  175

ORBITAL ENERGIES
----------------

  NO   OCC          E(Eh)            E(eV)
   0   2.0000    -162.902855     -4432.8121
   1   2.0000     -18.212769      -495.5946
   2   2.0000     -15.054138      -409.6439
   3   2.0000     -15.051297      -409.5666
   4   2.0000     -15.037388      -409.1881
   5   2.0000     -14.868019      -404.5794
   6   2.0000     -14.867393      -404.5623
   7   2.0000     -10.648459      -289.7593
   8   2.0000     -10.632506      -289.3252
   9   2.0000     -10.629362      -289.2396
  10   2.0000     -10.623579      -289.0823
  11   2.0000     -10.619099      -288.9604
  12   2.0000     -10.573980      -287.7326
  13   2.0000      -2.422477       -65.9189
  14   2.0000      -1.571522       -42.7633
  15   2.0000      -1.562787       -42.5256
  16   2.0000      -1.553545       -42.2741
  17   2.0000      -1.316653       -35.8279
  18   2.0000      -1.193081       -32.4654
  19   2.0000      -1.028597       -27.9895
  20   2.0000      -0.985739       -26.8233
  21   2.0000      -0.929070       -25.2813
  22   2.0000      -0.889659       -24.2088
  23   2.0000      -0.847607       -23.0646
  24   2.0000      -0.807775       -21.9807
  25   2.0000      -0.753968       -20.5165
  26   2.0000      -0.707534       -19.2530
  27   2.0000      -0.677600       -18.4384
  28   2.0000      -0.660518       -17.9736
  29   2.0000      -0.660009       -17.9598
  30   2.0000      -0.653602       -17.7854
  31   2.0000      -0.604330       -16.4447
  32   2.0000      -0.600901       -16.3513
  33   2.0000      -0.594372       -16.1737
  34   2.0000      -0.585446       -15.9308
  35   2.0000      -0.565322       -15.3832
  36   2.0000      -0.554051       -15.0765
  37   2.0000      -0.523979       -14.2582
  38   2.0000      -0.490123       -13.3369
  39   2.0000      -0.439429       -11.9575
  40   2.0000      -0.325036        -8.8447
  41   0.0000      -0.187449        -5.1007
  42   0.0000      -0.181100        -4.9280
  43   0.0000      -0.180500        -4.9117
  44   0.0000      -0.168353        -4.5811
  45   0.0000      -0.164477        -4.4756

MULLIKEN ATOMIC CHARGES
-----------------------
   0 Sc:    0.503713
   1 C :    0.207294
   2 N :   -0.412313
   3 C :   -0.063750
   4 C :   -0.066908
   5 N :   -0.415430
   6 C :   -0.526995
   7 H :    0.277995
   8 H :    0.273523
   9 H :    0.267748
  10 C :   -0.517935
  11 H :    0.254086
  12 H :    0.279345
  13 H :    0.277622
  14 H :    0.305248
  15 H :    0.305215
  16 C :   -0.863070
  17 H :    0.273571
  18 H :    0.239176
  19 H :    0.224357
  20 H :    0.177508
Sum of atomic charges:    1.0000000

LOEWDIN ATOMIC CHARGES
----------------------
   0 Sc:    0.347291
   1 C :   -0.046475
   2 N :    0.012825
   3 C :   -0.081065
   4 C :   -0.075603
   5 N :    0.005758
   6 C :   -0.241316
   7 H :    0.158437
   8 H :    0.149706
   9 H :    0.153726
  10 C :   -0.237219
  11 H :    0.150235
  12 H :    0.155590
  13 H :    0.155060
  14 H :    0.170163
  15 H :    0.169433
  16 C :   -0.509048
  17 H :    0.162798
  18 H :    0.140516
  19 H :    0.139258
  20 H :    0.119930

  Mayer bond orders larger than 0.100000
B(  0-Sc,  1-C ) :   0.7045 B(  1-C ,  2-N ) :   1.2321 B(  1-C ,  5-N ) :   1.2197
B(  2-N ,  3-C ) :   1.1642 B(  2-N , 10-C ) :   0.9121 B(  3-C ,  4-C ) :   1.6222
B(  3-C , 14-H ) :   0.8774 B(  4-C ,  5-N ) :   1.1576 B(  4-C , 15-H ) :   0.8771
B(  5-N ,  6-C ) :   0.9070 B(  6-C ,  7-H ) :   0.9037 B(  6-C ,  8-H ) :   0.8911
B(  6-C ,  9-H ) :   0.8922 B( 10-C , 11-H ) :   0.8969 B( 10-C , 12-H ) :   0.8942
B( 10-C , 13-H ) :   0.8950 B( 16-C , 17-H ) :   0.9083 B( 16-C , 18-H ) :   0.9161
B( 16-C , 19-H ) :   0.9223 B( 16-C , 20-H ) :   0.8768

Dispersion correction           -0.010917541
FINAL SINGLE POINT ENERGY     -1104.438890172613
Dispersion correction            ... done

DIPOLE MOMENT
-------------
                                X             Y             Z
Electronic contribution:      9.50817      -9.46444      -2.39029
Nuclear contribution   :     -9.28453       9.34244       2.30121
                        -----------------------------------------
Total Dipole Moment    :      0.22364      -0.12200      -0.08908
                        -----------------------------------------
Magnitude (a.u.)       :      0.26988
Magnitude (Debye)      :      0.68598

Rotational constants in cm-1:     0.044380     0.029119     0.022994
Rotational constants in MHz :  1330.477071   872.963881   689.330245

                             ****ORCA TERMINATED NORMALLY****
TOTAL RUN TIME: 0 days 0 hours 4 minutes 40 seconds 491 msec
