                         Program Version 5.0.3 -  RELEASE  -
|  1> ! EnGrad PBEh-3c
|  2> %output
|  3> xyzfile=True
|  4> end
|  5> %scf
|  6> maxiter 250
|  7> end
|  8> %output
|  9> Print[P_Hirshfeld] = 1
| 10> end
| 11> % maxcore
| 12> 4000
| 13> *xyz 0 1
| 14> Lu   0.10585949  -0.22874384   0.19634884
| 15> C    0.49279316   0.57704241   2.60659349
| 16> C    1.60429071  -0.22597763   2.26866251
| 17> C    2.34440866   0.45223737   1.27814149
| 18> C    1.65617211   1.63741433   0.94744022
| 19> C    0.53682298   1.72843522   1.80418182
| 20> H    1.97834980   2.39045621   0.24131535
| 21> H   -0.07159893   2.61266379   1.92568639
| 22> H   -0.18441886   0.40765248   3.42981307
| 23> H    1.85677247  -1.17571225   2.72141497
| 24> H    3.26996722   0.11022807   0.83902046
| 25> C    0.72451943  -0.11676291  -2.28121657
| 26> C   -0.48130944  -0.84754477  -2.23238415
| 27> C    1.14938177  -2.10767649  -1.25883184
| 28> C    1.73737888  -0.90748578  -1.70469940
| 29> H    0.86347207   0.83543821  -2.77260550
| 30> C   -0.22078136  -2.06767724  -1.59621332
| 31> H   -1.38674281  -0.59931053  -2.76290275
| 32> H    2.78221005  -0.65179310  -1.61264390
| 33> H    1.65786294  -2.92247632  -0.76134345
| 34> H   -0.91971550  -2.88411732  -1.49936791
| 35> C   -2.01907397  -1.44867492   1.16536909
| 36> H   -2.34341013  -1.12035388   2.15441052
| 37> H   -1.96721434  -2.54920051   1.22398315
| 38> H   -2.84388142  -1.31321742   0.45966543
| 39> C   -1.92892058   2.16900886  -1.02285718
| 40> H   -2.50822387   0.86005061   0.15754197
| 41> H   -0.97387515   2.62517357  -1.28540888
| 42> H   -2.55515202   2.99724775  -0.68870040
| 43> H   -2.35595338   1.76369099  -1.94042222
| 44> *
| 45>
| 46>                          ****END OF INPUT****

CARTESIAN COORDINATES (ANGSTROEM)
---------------------------------
  Lu     0.105859   -0.228744    0.196349
  C      0.492793    0.577042    2.606593
  C      1.604291   -0.225978    2.268663
  C      2.344409    0.452237    1.278141
  C      1.656172    1.637414    0.947440
  C      0.536823    1.728435    1.804182
  H      1.978350    2.390456    0.241315
  H     -0.071599    2.612664    1.925686
  H     -0.184419    0.407652    3.429813
  H      1.856772   -1.175712    2.721415
  H      3.269967    0.110228    0.839020
  C      0.724519   -0.116763   -2.281217
  C     -0.481309   -0.847545   -2.232384
  C      1.149382   -2.107676   -1.258832
  C      1.737379   -0.907486   -1.704699
  H      0.863472    0.835438   -2.772606
  C     -0.220781   -2.067677   -1.596213
  H     -1.386743   -0.599311   -2.762903
  H      2.782210   -0.651793   -1.612644
  H      1.657863   -2.922476   -0.761343
  H     -0.919716   -2.884117   -1.499368
  C     -2.019074   -1.448675    1.165369
  H     -2.343410   -1.120354    2.154411
  H     -1.967214   -2.549201    1.223983
  H     -2.843881   -1.313217    0.459665
  C     -1.928921    2.169009   -1.022857
  H     -2.508224    0.860051    0.157542
  H     -0.973875    2.625174   -1.285409
  H     -2.555152    2.997248   -0.688700
  H     -2.355953    1.763691   -1.940422

 Total Charge           Charge          ....    0
 Multiplicity           Mult            ....    1
 Number of Electrons    NEL             ....  132
 Basis Dimension        Dim             ....  295

ORBITAL ENERGIES
----------------

  NO   OCC          E(Eh)            E(eV)
   0   2.0000     -19.248277      -523.7723
   1   2.0000     -12.620553      -343.4227
   2   2.0000     -12.618311      -343.3617
   3   2.0000     -12.618046      -343.3545
   4   2.0000     -10.489310      -285.4286
   5   2.0000     -10.449189      -284.3369
   6   2.0000     -10.447146      -284.2813
   7   2.0000     -10.445928      -284.2481
   8   2.0000     -10.445064      -284.2247
   9   2.0000     -10.444764      -284.2165
  10   2.0000     -10.444044      -284.1969
  11   2.0000     -10.443022      -284.1691
  12   2.0000     -10.442978      -284.1679
  13   2.0000     -10.441237      -284.1205
  14   2.0000     -10.440373      -284.0970
  15   2.0000     -10.362699      -281.9834
  16   2.0000      -5.889693      -160.2667
  17   2.0000      -5.889355      -160.2575
  18   2.0000      -5.888963      -160.2468
  19   2.0000      -5.887661      -160.2114
  20   2.0000      -5.887602      -160.2098
  21   2.0000      -2.431658       -66.1688
  22   2.0000      -1.272062       -34.6146
  23   2.0000      -1.268726       -34.5238
  24   2.0000      -1.258284       -34.2396
  25   2.0000      -0.981782       -26.7156
  26   2.0000      -0.971137       -26.4260
  27   2.0000      -0.795733       -21.6530
  28   2.0000      -0.794665       -21.6239
  29   2.0000      -0.792867       -21.5750
  30   2.0000      -0.791322       -21.5330
  31   2.0000      -0.781316       -21.2607
  32   2.0000      -0.689127       -18.7521
  33   2.0000      -0.616009       -16.7625
  34   2.0000      -0.611770       -16.6471
  35   2.0000      -0.610299       -16.6071
  36   2.0000      -0.608548       -16.5594
  37   2.0000      -0.597441       -16.2572
  38   2.0000      -0.591909       -16.1067
  39   2.0000      -0.557200       -15.1622
  40   2.0000      -0.556168       -15.1341
  41   2.0000      -0.555890       -15.1265
  42   2.0000      -0.554896       -15.0995
  43   2.0000      -0.554545       -15.0899
  44   2.0000      -0.553379       -15.0582
  45   2.0000      -0.552017       -15.0212
  46   2.0000      -0.478874       -13.0308
  47   2.0000      -0.474377       -12.9085
  48   2.0000      -0.469310       -12.7706
  49   2.0000      -0.453149       -12.3308
  50   2.0000      -0.451886       -12.2964
  51   2.0000      -0.449749       -12.2383
  52   2.0000      -0.449093       -12.2205
  53   2.0000      -0.434121       -11.8130
  54   2.0000      -0.432494       -11.7688
  55   2.0000      -0.431674       -11.7464
  56   2.0000      -0.430326       -11.7098
  57   2.0000      -0.427207       -11.6249
  58   2.0000      -0.393383       -10.7045
  59   2.0000      -0.385659       -10.4943
  60   2.0000      -0.349528        -9.5111
  61   2.0000      -0.289650        -7.8818
  62   2.0000      -0.287407        -7.8207
  63   2.0000      -0.278542        -7.5795
  64   2.0000      -0.269522        -7.3341
  65   2.0000      -0.234124        -6.3708
  66   0.0000      -0.048001        -1.3062
  67   0.0000      -0.006416        -0.1746
  68   0.0000       0.013488         0.3670
  69   0.0000       0.047302         1.2872
  70   0.0000       0.055597         1.5129

MULLIKEN ATOMIC CHARGES
-----------------------
   0 Lu:    0.768579
   1 C :   -0.256521
   2 C :   -0.309494
   3 C :   -0.244930
   4 C :   -0.323935
   5 C :   -0.277891
   6 H :    0.238160
   7 H :    0.234362
   8 H :    0.239245
   9 H :    0.246170
  10 H :    0.236012
  11 C :   -0.321892
  12 C :   -0.280834
  13 C :   -0.298338
  14 C :   -0.254398
  15 H :    0.233490
  16 C :   -0.248775
  17 H :    0.228918
  18 H :    0.233594
  19 H :    0.241395
  20 H :    0.239062
  21 C :   -1.011276
  22 H :    0.202566
  23 H :    0.206332
  24 H :    0.186664
  25 C :   -0.846241
  26 H :    0.177990
  27 H :    0.250162
  28 H :    0.255363
  29 H :    0.256460
Sum of atomic charges:   -0.0000000

LOEWDIN ATOMIC CHARGES
----------------------
   0 Lu:   -0.111857
   1 C :   -0.118422
   2 C :   -0.140706
   3 C :   -0.123188
   4 C :   -0.151122
   5 C :   -0.135667
   6 H :    0.154963
   7 H :    0.155499
   8 H :    0.160032
   9 H :    0.158655
  10 H :    0.153207
  11 C :   -0.153607
  12 C :   -0.137692
  13 C :   -0.145150
  14 C :   -0.125974
  15 H :    0.152062
  16 C :   -0.114201
  17 H :    0.154013
  18 H :    0.152126
  19 H :    0.155693
  20 H :    0.158939
  21 C :   -0.651613
  22 H :    0.118404
  23 H :    0.126874
  24 H :    0.114986
  25 C :   -0.461772
  26 H :    0.218182
  27 H :    0.155583
  28 H :    0.140640
  29 H :    0.141112

  Mayer bond orders larger than 0.100000
B(  0-Lu,  1-C ) :   0.2401 B(  0-Lu,  2-C ) :   0.2765 B(  0-Lu,  3-C ) :   0.2653
B(  0-Lu,  4-C ) :   0.2865 B(  0-Lu,  5-C ) :   0.2700 B(  0-Lu, 11-C ) :   0.2838
B(  0-Lu, 12-C ) :   0.2629 B(  0-Lu, 13-C ) :   0.2722 B(  0-Lu, 14-C ) :   0.2640
B(  0-Lu, 16-C ) :   0.2347 B(  0-Lu, 21-C ) :   0.7500 B(  0-Lu, 25-C ) :   0.1562
B(  0-Lu, 26-H ) :   0.1226 B(  1-C ,  2-C ) :   1.2827 B(  1-C ,  5-C ) :   1.3029
B(  1-C ,  8-H ) :   0.9246 B(  2-C ,  3-C ) :   1.2897 B(  2-C ,  9-H ) :   0.9123
B(  3-C ,  4-C ) :   1.2826 B(  3-C , 10-H ) :   0.9154 B(  4-C ,  5-C ) :   1.2634
B(  4-C ,  6-H ) :   0.9159 B(  5-C ,  7-H ) :   0.9247 B( 11-C , 12-C ) :   1.2586
B( 11-C , 14-C ) :   1.2923 B( 11-C , 15-H ) :   0.9183 B( 12-C , 16-C ) :   1.3138
B( 12-C , 17-H ) :   0.9270 B( 13-C , 14-C ) :   1.2857 B( 13-C , 16-C ) :   1.2906
B( 13-C , 19-H ) :   0.9127 B( 14-C , 18-H ) :   0.9165 B( 16-C , 20-H ) :   0.9227
B( 21-C , 22-H ) :   0.9197 B( 21-C , 23-H ) :   0.9163 B( 21-C , 24-H ) :   0.9125
B( 25-C , 26-H ) :   0.7950 B( 25-C , 27-H ) :   0.8992 B( 25-C , 28-H ) :   0.9058
B( 25-C , 29-H ) :   0.8990

Dispersion correction           -0.018008967
FINAL SINGLE POINT ENERGY     -1702.255700214320
Dispersion correction            ... done

DIPOLE MOMENT
-------------
                                X             Y             Z
Electronic contribution:     -1.59627      -8.93018       9.19962
Nuclear contribution   :      1.93505       9.87711      -9.78920
                        -----------------------------------------
Total Dipole Moment    :      0.33878       0.94693      -0.58959
                        -----------------------------------------
Magnitude (a.u.)       :      1.16579
Magnitude (Debye)      :      2.96320

Rotational constants in cm-1:     0.028261     0.019686     0.017929
Rotational constants in MHz :   847.255649   590.162289   537.487473

                             ****ORCA TERMINATED NORMALLY****
TOTAL RUN TIME: 0 days 0 hours 9 minutes 17 seconds 975 msec
