                         Program Version 5.0.3 -  RELEASE  -
|  1> ! EnGrad PBEh-3c
|  2> %output
|  3> xyzfile=True
|  4> end
|  5> %scf
|  6> maxiter 250
|  7> end
|  8> %output
|  9> Print[P_Hirshfeld] = 1
| 10> end
| 11> % maxcore
| 12> 4000
| 13> *xyz 0 1
| 14> Lu  -0.05394761  -0.20932489   0.17736599
| 15> C    0.44472518   0.78764953   2.52579365
| 16> C    1.44688056  -0.16470358   2.22665688
| 17> C    2.29966955   0.39438816   1.25134940
| 18> C    1.80490730   1.66697252   0.91119060
| 19> C    0.66211223   1.91273438   1.70692716
| 20> H    2.29367136   2.37573809   0.25273832
| 21> H    0.08445738   2.83043962   1.71484719
| 22> H   -0.32547086   0.68218975   3.27498501
| 23> H    1.56846217  -1.13033752   2.69947142
| 24> H    3.20777421  -0.05586095   0.87435547
| 25> C    0.88610617  -0.07495155  -2.38203113
| 26> C   -0.37194978  -0.72129962  -2.42229230
| 27> C    1.05748347  -2.02325677  -1.21222121
| 28> C    1.76889274  -0.88872595  -1.65534237
| 29> H    1.15920835   0.83185308  -2.90980808
| 30> C   -0.26340044  -1.92742981  -1.70926196
| 31> H   -1.24732339  -0.36789249  -2.95135127
| 32> H    2.82852131  -0.71712610  -1.52813725
| 33> H    1.47205761  -2.85349767  -0.65636498
| 34> H   -1.05686007  -2.63794915  -1.53717946
| 35> C   -2.09862520  -1.48015904   1.16907929
| 36> H   -2.19583116  -1.32508248   2.25588896
| 37> H   -1.82230650  -2.54922079   1.08957062
| 38> H   -3.15029540  -1.45144848   0.81039527
| 39> C   -2.06615344   1.83607411  -0.79771988
| 40> H   -2.01614544   0.91963769  -0.11526083
| 41> H   -1.07373798   2.20402125  -1.01929647
| 42> H   -2.63344267   2.59033983  -0.25054710
| 43> H   -2.59715278   1.52508777  -1.69689747
| 44> *
| 45>
| 46>                          ****END OF INPUT****

CARTESIAN COORDINATES (ANGSTROEM)
---------------------------------
  Lu    -0.053948   -0.209325    0.177366
  C      0.444725    0.787650    2.525794
  C      1.446881   -0.164704    2.226657
  C      2.299670    0.394388    1.251349
  C      1.804907    1.666973    0.911191
  C      0.662112    1.912734    1.706927
  H      2.293671    2.375738    0.252738
  H      0.084457    2.830440    1.714847
  H     -0.325471    0.682190    3.274985
  H      1.568462   -1.130338    2.699471
  H      3.207774   -0.055861    0.874355
  C      0.886106   -0.074952   -2.382031
  C     -0.371950   -0.721300   -2.422292
  C      1.057483   -2.023257   -1.212221
  C      1.768893   -0.888726   -1.655342
  H      1.159208    0.831853   -2.909808
  C     -0.263400   -1.927430   -1.709262
  H     -1.247323   -0.367892   -2.951351
  H      2.828521   -0.717126   -1.528137
  H      1.472058   -2.853498   -0.656365
  H     -1.056860   -2.637949   -1.537179
  C     -2.098625   -1.480159    1.169079
  H     -2.195831   -1.325082    2.255889
  H     -1.822307   -2.549221    1.089571
  H     -3.150295   -1.451448    0.810395
  C     -2.066153    1.836074   -0.797720
  H     -2.016145    0.919638   -0.115261
  H     -1.073738    2.204021   -1.019296
  H     -2.633443    2.590340   -0.250547
  H     -2.597153    1.525088   -1.696897

 Total Charge           Charge          ....    0
 Multiplicity           Mult            ....    1
 Number of Electrons    NEL             ....  132
 Basis Dimension        Dim             ....  295

ORBITAL ENERGIES
----------------

  NO   OCC          E(Eh)            E(eV)
   0   2.0000     -19.263463      -524.1855
   1   2.0000     -12.635747      -343.8362
   2   2.0000     -12.633577      -343.7771
   3   2.0000     -12.633290      -343.7693
   4   2.0000     -10.461994      -284.6853
   5   2.0000     -10.449409      -284.3429
   6   2.0000     -10.447710      -284.2966
   7   2.0000     -10.447672      -284.2956
   8   2.0000     -10.447080      -284.2795
   9   2.0000     -10.447031      -284.2782
  10   2.0000     -10.446380      -284.2605
  11   2.0000     -10.444026      -284.1964
  12   2.0000     -10.443319      -284.1772
  13   2.0000     -10.442890      -284.1655
  14   2.0000     -10.441441      -284.1260
  15   2.0000     -10.365538      -282.0606
  16   2.0000      -5.904950      -160.6819
  17   2.0000      -5.904641      -160.6735
  18   2.0000      -5.904282      -160.6637
  19   2.0000      -5.903005      -160.6289
  20   2.0000      -5.902903      -160.6262
  21   2.0000      -2.446467       -66.5717
  22   2.0000      -1.284288       -34.9472
  23   2.0000      -1.282323       -34.8938
  24   2.0000      -1.271472       -34.5985
  25   2.0000      -0.979568       -26.6554
  26   2.0000      -0.971958       -26.4483
  27   2.0000      -0.815696       -22.1962
  28   2.0000      -0.795597       -21.6493
  29   2.0000      -0.792765       -21.5722
  30   2.0000      -0.791887       -21.5483
  31   2.0000      -0.790309       -21.5054
  32   2.0000      -0.688513       -18.7354
  33   2.0000      -0.614955       -16.7338
  34   2.0000      -0.613006       -16.6807
  35   2.0000      -0.610660       -16.6169
  36   2.0000      -0.608505       -16.5583
  37   2.0000      -0.596567       -16.2334
  38   2.0000      -0.591430       -16.0936
  39   2.0000      -0.572450       -15.5772
  40   2.0000      -0.571549       -15.5526
  41   2.0000      -0.570832       -15.5331
  42   2.0000      -0.570292       -15.5184
  43   2.0000      -0.569627       -15.5003
  44   2.0000      -0.568923       -15.4812
  45   2.0000      -0.566973       -15.4281
  46   2.0000      -0.495838       -13.4924
  47   2.0000      -0.488018       -13.2796
  48   2.0000      -0.484652       -13.1880
  49   2.0000      -0.460569       -12.5327
  50   2.0000      -0.454875       -12.3778
  51   2.0000      -0.451271       -12.2797
  52   2.0000      -0.450236       -12.2515
  53   2.0000      -0.449858       -12.2412
  54   2.0000      -0.434253       -11.8166
  55   2.0000      -0.432973       -11.7818
  56   2.0000      -0.430834       -11.7236
  57   2.0000      -0.430444       -11.7130
  58   2.0000      -0.428955       -11.6725
  59   2.0000      -0.378658       -10.3038
  60   2.0000      -0.376600       -10.2478
  61   2.0000      -0.294444        -8.0122
  62   2.0000      -0.284045        -7.7293
  63   2.0000      -0.280780        -7.6404
  64   2.0000      -0.261675        -7.1206
  65   2.0000      -0.244083        -6.6418
  66   0.0000      -0.014234        -0.3873
  67   0.0000       0.015592         0.4243
  68   0.0000       0.039693         1.0801
  69   0.0000       0.051994         1.4148
  70   0.0000       0.056811         1.5459

MULLIKEN ATOMIC CHARGES
-----------------------
   0 Lu:    0.753365
   1 C :   -0.274329
   2 C :   -0.338261
   3 C :   -0.252260
   4 C :   -0.286285
   5 C :   -0.281699
   6 H :    0.228482
   7 H :    0.232739
   8 H :    0.249606
   9 H :    0.251776
  10 H :    0.232780
  11 C :   -0.290969
  12 C :   -0.287571
  13 C :   -0.348249
  14 C :   -0.239902
  15 H :    0.229374
  16 C :   -0.250342
  17 H :    0.229848
  18 H :    0.229054
  19 H :    0.246864
  20 H :    0.260288
  21 C :   -1.019511
  22 H :    0.200111
  23 H :    0.193762
  24 H :    0.198413
  25 C :   -0.927838
  26 H :    0.266691
  27 H :    0.254451
  28 H :    0.269727
  29 H :    0.269887
Sum of atomic charges:   -0.0000000

LOEWDIN ATOMIC CHARGES
----------------------
   0 Lu:   -0.028329
   1 C :   -0.139408
   2 C :   -0.153993
   3 C :   -0.129802
   4 C :   -0.148603
   5 C :   -0.146988
   6 H :    0.150165
   7 H :    0.150260
   8 H :    0.161459
   9 H :    0.160995
  10 H :    0.150871
  11 C :   -0.151177
  12 C :   -0.144788
  13 C :   -0.156475
  14 C :   -0.124019
  15 H :    0.149408
  16 C :   -0.130468
  17 H :    0.150812
  18 H :    0.149787
  19 H :    0.159110
  20 H :    0.165558
  21 C :   -0.657628
  22 H :    0.119130
  23 H :    0.122174
  24 H :    0.120923
  25 C :   -0.454362
  26 H :    0.189664
  27 H :    0.159985
  28 H :    0.152857
  29 H :    0.152882

  Mayer bond orders larger than 0.100000
B(  0-Lu,  1-C ) :   0.2472 B(  0-Lu,  2-C ) :   0.3017 B(  0-Lu,  3-C ) :   0.2487
B(  0-Lu,  4-C ) :   0.2382 B(  0-Lu,  5-C ) :   0.2570 B(  0-Lu, 11-C ) :   0.2502
B(  0-Lu, 12-C ) :   0.2598 B(  0-Lu, 13-C ) :   0.3113 B(  0-Lu, 14-C ) :   0.2460
B(  0-Lu, 16-C ) :   0.2487 B(  0-Lu, 21-C ) :   0.7959 B(  0-Lu, 25-C ) :   0.1861
B(  1-C ,  2-C ) :   1.2713 B(  1-C ,  5-C ) :   1.3045 B(  1-C ,  8-H ) :   0.9134
B(  2-C ,  3-C ) :   1.2791 B(  2-C ,  9-H ) :   0.9080 B(  3-C ,  4-C ) :   1.3153
B(  3-C , 10-H ) :   0.9187 B(  4-C ,  5-C ) :   1.2877 B(  4-C ,  6-H ) :   0.9235
B(  5-C ,  7-H ) :   0.9180 B( 11-C , 12-C ) :   1.2720 B( 11-C , 14-C ) :   1.3240
B( 11-C , 15-H ) :   0.9217 B( 12-C , 16-C ) :   1.3154 B( 12-C , 17-H ) :   0.9192
B( 13-C , 14-C ) :   1.2740 B( 13-C , 16-C ) :   1.2634 B( 13-C , 19-H ) :   0.9114
B( 14-C , 18-H ) :   0.9219 B( 16-C , 20-H ) :   0.9040 B( 21-C , 22-H ) :   0.9158
B( 21-C , 23-H ) :   0.9108 B( 21-C , 24-H ) :   0.9236 B( 25-C , 26-H ) :   0.7973
B( 25-C , 27-H ) :   0.8778 B( 25-C , 28-H ) :   0.9016 B( 25-C , 29-H ) :   0.9006

Dispersion correction           -0.017631631
FINAL SINGLE POINT ENERGY     -1702.370324710971
Dispersion correction            ... done

DIPOLE MOMENT
-------------
                                X             Y             Z
Electronic contribution:     -9.59991      -8.53865       8.65381
Nuclear contribution   :      9.85725       9.49878      -9.20087
                        -----------------------------------------
Total Dipole Moment    :      0.25733       0.96012      -0.54706
                        -----------------------------------------
Magnitude (a.u.)       :      1.13461
Magnitude (Debye)      :      2.88394

Rotational constants in cm-1:     0.028433     0.020035     0.017651
Rotational constants in MHz :   852.385145   600.638130   529.159806

                             ****ORCA TERMINATED NORMALLY****
TOTAL RUN TIME: 0 days 0 hours 9 minutes 45 seconds 299 msec
