                         Program Version 5.0.3 -  RELEASE  -
|  1> ! EnGrad PBEh-3c
|  2> %output
|  3> xyzfile=True
|  4> end
|  5> %scf
|  6> maxiter 250
|  7> end
|  8> %output
|  9> Print[P_Hirshfeld] = 1
| 10> end
| 11> % maxcore
| 12> 4000
| 13> *xyz 0 1
| 14> Lu   0.03361709  -0.24133503   0.20845779
| 15> C    0.49600952   0.61021444   2.60805694
| 16> C    1.58738951  -0.21481339   2.26235643
| 17> C    2.33931792   0.43670546   1.27053612
| 18> C    1.69084179   1.64746946   0.95904927
| 19> C    0.55639377   1.76383779   1.79463656
| 20> H    2.01586091   2.38793205   0.23972853
| 21> H   -0.05919656   2.63457469   1.89532291
| 22> H   -0.20051747   0.43918840   3.40914822
| 23> H    1.82122070  -1.16939048   2.71716513
| 24> H    3.26560814   0.09033818   0.84585033
| 25> C    0.75478874  -0.10897046  -2.30850617
| 26> C   -0.46228455  -0.83460298  -2.26807534
| 27> C    1.13371905  -2.09307966  -1.24905832
| 28> C    1.74438513  -0.90612611  -1.69571257
| 29> H    0.89847506   0.83944529  -2.78631222
| 30> C   -0.22622890  -2.06411696  -1.61244127
| 31> H   -1.37341141  -0.56831105  -2.78045722
| 32> H    2.79023583  -0.66029397  -1.60600264
| 33> H    1.63538707  -2.91497948  -0.75251458
| 34> H   -0.93845999  -2.85071138  -1.49854557
| 35> C   -1.98976236  -1.45818336   1.14843091
| 36> H   -2.33465632  -1.14711713   2.16997158
| 37> H   -1.94546345  -2.56071685   1.21971672
| 38> H   -2.89113794  -1.33590761   0.50038292
| 39> C   -2.02955621   2.08963100  -0.96600083
| 40> H   -2.42317793   0.91614657   0.08687744
| 41> H   -0.95928112   2.58062302  -1.25332759
| 42> H   -2.55772678   2.95218633  -0.64035299
| 43> H   -2.37271080   1.73994433  -1.90285632
| 44> *
| 45>
| 46>                          ****END OF INPUT****

CARTESIAN COORDINATES (ANGSTROEM)
---------------------------------
  Lu     0.033617   -0.241335    0.208458
  C      0.496010    0.610214    2.608057
  C      1.587390   -0.214813    2.262356
  C      2.339318    0.436705    1.270536
  C      1.690842    1.647469    0.959049
  C      0.556394    1.763838    1.794637
  H      2.015861    2.387932    0.239729
  H     -0.059197    2.634575    1.895323
  H     -0.200517    0.439188    3.409148
  H      1.821221   -1.169390    2.717165
  H      3.265608    0.090338    0.845850
  C      0.754789   -0.108970   -2.308506
  C     -0.462285   -0.834603   -2.268075
  C      1.133719   -2.093080   -1.249058
  C      1.744385   -0.906126   -1.695713
  H      0.898475    0.839445   -2.786312
  C     -0.226229   -2.064117   -1.612441
  H     -1.373411   -0.568311   -2.780457
  H      2.790236   -0.660294   -1.606003
  H      1.635387   -2.914979   -0.752515
  H     -0.938460   -2.850711   -1.498546
  C     -1.989762   -1.458183    1.148431
  H     -2.334656   -1.147117    2.169972
  H     -1.945463   -2.560717    1.219717
  H     -2.891138   -1.335908    0.500383
  C     -2.029556    2.089631   -0.966001
  H     -2.423178    0.916147    0.086877
  H     -0.959281    2.580623   -1.253328
  H     -2.557727    2.952186   -0.640353
  H     -2.372711    1.739944   -1.902856

 Total Charge           Charge          ....    0
 Multiplicity           Mult            ....    1
 Number of Electrons    NEL             ....  132
 Basis Dimension        Dim             ....  295

ORBITAL ENERGIES
----------------

  NO   OCC          E(Eh)            E(eV)
   0   2.0000     -19.251901      -523.8709
   1   2.0000     -12.624240      -343.5230
   2   2.0000     -12.621961      -343.4610
   3   2.0000     -12.621651      -343.4526
   4   2.0000     -10.494059      -285.5579
   5   2.0000     -10.446083      -284.2524
   6   2.0000     -10.445844      -284.2459
   7   2.0000     -10.444960      -284.2218
   8   2.0000     -10.444329      -284.2047
   9   2.0000     -10.443368      -284.1785
  10   2.0000     -10.442612      -284.1579
  11   2.0000     -10.441841      -284.1369
  12   2.0000     -10.441780      -284.1353
  13   2.0000     -10.440953      -284.1128
  14   2.0000     -10.439234      -284.0660
  15   2.0000     -10.368132      -282.1312
  16   2.0000      -5.893403      -160.3676
  17   2.0000      -5.893062      -160.3584
  18   2.0000      -5.892651      -160.3472
  19   2.0000      -5.891325      -160.3111
  20   2.0000      -5.891234      -160.3086
  21   2.0000      -2.435101       -66.2625
  22   2.0000      -1.273124       -34.6435
  23   2.0000      -1.272132       -34.6165
  24   2.0000      -1.261068       -34.3154
  25   2.0000      -0.978187       -26.6178
  26   2.0000      -0.969079       -26.3700
  27   2.0000      -0.793959       -21.6047
  28   2.0000      -0.791887       -21.5483
  29   2.0000      -0.791749       -21.5446
  30   2.0000      -0.789204       -21.4753
  31   2.0000      -0.784790       -21.3552
  32   2.0000      -0.689303       -18.7569
  33   2.0000      -0.614429       -16.7195
  34   2.0000      -0.611433       -16.6379
  35   2.0000      -0.609329       -16.5807
  36   2.0000      -0.608040       -16.5456
  37   2.0000      -0.595978       -16.2174
  38   2.0000      -0.591020       -16.0825
  39   2.0000      -0.560858       -15.2617
  40   2.0000      -0.559839       -15.2340
  41   2.0000      -0.559632       -15.2283
  42   2.0000      -0.558648       -15.2016
  43   2.0000      -0.558147       -15.1880
  44   2.0000      -0.557091       -15.1592
  45   2.0000      -0.555559       -15.1175
  46   2.0000      -0.493015       -13.4156
  47   2.0000      -0.467515       -12.7217
  48   2.0000      -0.454463       -12.3666
  49   2.0000      -0.452602       -12.3159
  50   2.0000      -0.449810       -12.2399
  51   2.0000      -0.449239       -12.2244
  52   2.0000      -0.447356       -12.1732
  53   2.0000      -0.433310       -11.7910
  54   2.0000      -0.432400       -11.7662
  55   2.0000      -0.429757       -11.6943
  56   2.0000      -0.428677       -11.6649
  57   2.0000      -0.425674       -11.5832
  58   2.0000      -0.411159       -11.1882
  59   2.0000      -0.379582       -10.3289
  60   2.0000      -0.367468        -9.9993
  61   2.0000      -0.289288        -7.8719
  62   2.0000      -0.284353        -7.7376
  63   2.0000      -0.277708        -7.5568
  64   2.0000      -0.263689        -7.1753
  65   2.0000      -0.249126        -6.7791
  66   0.0000      -0.018671        -0.5081
  67   0.0000      -0.004463        -0.1214
  68   0.0000       0.017473         0.4755
  69   0.0000       0.049161         1.3377
  70   0.0000       0.057632         1.5682

MULLIKEN ATOMIC CHARGES
-----------------------
   0 Lu:    0.804977
   1 C :   -0.261744
   2 C :   -0.310284
   3 C :   -0.260765
   4 C :   -0.289094
   5 C :   -0.302085
   6 H :    0.234162
   7 H :    0.233552
   8 H :    0.242061
   9 H :    0.245190
  10 H :    0.233169
  11 C :   -0.302084
  12 C :   -0.301248
  13 C :   -0.309762
  14 C :   -0.251822
  15 H :    0.231972
  16 C :   -0.245453
  17 H :    0.228220
  18 H :    0.230767
  19 H :    0.240006
  20 H :    0.243809
  21 C :   -1.028985
  22 H :    0.198747
  23 H :    0.212081
  24 H :    0.188301
  25 C :   -0.866923
  26 H :    0.198961
  27 H :    0.222827
  28 H :    0.268043
  29 H :    0.273404
Sum of atomic charges:    0.0000000

LOEWDIN ATOMIC CHARGES
----------------------
   0 Lu:   -0.068164
   1 C :   -0.127618
   2 C :   -0.144308
   3 C :   -0.129621
   4 C :   -0.147704
   5 C :   -0.145886
   6 H :    0.151486
   7 H :    0.153261
   8 H :    0.159347
   9 H :    0.157744
  10 H :    0.151854
  11 C :   -0.152519
  12 C :   -0.144977
  13 C :   -0.147234
  14 C :   -0.127212
  15 H :    0.150217
  16 C :   -0.120061
  17 H :    0.151679
  18 H :    0.150580
  19 H :    0.155119
  20 H :    0.159992
  21 C :   -0.649267
  22 H :    0.119567
  23 H :    0.129252
  24 H :    0.117822
  25 C :   -0.467047
  26 H :    0.220056
  27 H :    0.159830
  28 H :    0.141915
  29 H :    0.141897

  Mayer bond orders larger than 0.100000
B(  0-Lu,  1-C ) :   0.2417 B(  0-Lu,  2-C ) :   0.2761 B(  0-Lu,  3-C ) :   0.2540
B(  0-Lu,  4-C ) :   0.2628 B(  0-Lu,  5-C ) :   0.2708 B(  0-Lu, 11-C ) :   0.2692
B(  0-Lu, 12-C ) :   0.2680 B(  0-Lu, 13-C ) :   0.2755 B(  0-Lu, 14-C ) :   0.2524
B(  0-Lu, 16-C ) :   0.2377 B(  0-Lu, 21-C ) :   0.7719 B(  0-Lu, 25-C ) :   0.1413
B(  1-C ,  2-C ) :   1.2867 B(  1-C ,  5-C ) :   1.2969 B(  1-C ,  8-H ) :   0.9207
B(  2-C ,  3-C ) :   1.2893 B(  2-C ,  9-H ) :   0.9123 B(  3-C ,  4-C ) :   1.3003
B(  3-C , 10-H ) :   0.9188 B(  4-C ,  5-C ) :   1.2753 B(  4-C ,  6-H ) :   0.9160
B(  5-C ,  7-H ) :   0.9236 B( 11-C , 12-C ) :   1.2652 B( 11-C , 14-C ) :   1.3044
B( 11-C , 15-H ) :   0.9187 B( 12-C , 16-C ) :   1.3075 B( 12-C , 17-H ) :   0.9245
B( 13-C , 14-C ) :   1.2878 B( 13-C , 16-C ) :   1.2885 B( 13-C , 19-H ) :   0.9146
B( 14-C , 18-H ) :   0.9191 B( 16-C , 20-H ) :   0.9194 B( 21-C , 22-H ) :   0.9180
B( 21-C , 23-H ) :   0.9122 B( 21-C , 24-H ) :   0.9104 B( 25-C , 26-H ) :   0.8313
B( 25-C , 27-H ) :   0.9098 B( 25-C , 28-H ) :   0.8956 B( 25-C , 29-H ) :   0.8860

Dispersion correction           -0.017980022
FINAL SINGLE POINT ENERGY     -1702.290871971460
Dispersion correction            ... done

DIPOLE MOMENT
-------------
                                X             Y             Z
Electronic contribution:     -5.33866      -9.56258       9.82382
Nuclear contribution   :      5.52334      10.53519     -10.41287
                        -----------------------------------------
Total Dipole Moment    :      0.18468       0.97261      -0.58906
                        -----------------------------------------
Magnitude (a.u.)       :      1.15198
Magnitude (Debye)      :      2.92810

Rotational constants in cm-1:     0.028136     0.019656     0.017771
Rotational constants in MHz :   843.494820   589.275527   532.767003

                             ****ORCA TERMINATED NORMALLY****
TOTAL RUN TIME: 0 days 0 hours 9 minutes 25 seconds 100 msec
