                         Program Version 5.0.3 -  RELEASE  -
|  1> ! EnGrad PBEh-3c
|  2> %output
|  3> xyzfile=True
|  4> end
|  5> %scf
|  6> maxiter 250
|  7> end
|  8> %output
|  9> Print[P_Hirshfeld] = 1
| 10> end
| 11> % maxcore
| 12> 4000
| 13> *xyz 0 1
| 14> Lu  -0.02523046  -0.24673462   0.21439879
| 15> C    0.49804369   0.64915604   2.59982434
| 16> C    1.56643115  -0.20766836   2.26069375
| 17> C    2.33237457   0.42673397   1.26211020
| 18> C    1.72164577   1.65758437   0.96484641
| 19> C    0.58317710   1.78899810   1.78650393
| 20> H    2.05896779   2.38488839   0.23910741
| 21> H   -0.04626488   2.66632789   1.86294277
| 22> H   -0.21956711   0.47508430   3.38935066
| 23> H    1.78092199  -1.16177153   2.71219719
| 24> H    3.26216955   0.06673821   0.85235224
| 25> C    0.78116120  -0.11332161  -2.32838981
| 26> C   -0.44011196  -0.82257621  -2.30154639
| 27> C    1.12124410  -2.08356600  -1.23681802
| 28> C    1.74785198  -0.90059998  -1.68882346
| 29> H    0.93934773   0.84850978  -2.80559822
| 30> C   -0.22821764  -2.03893998  -1.63610720
| 31> H   -1.35715249  -0.53449555  -2.80265333
| 32> H    2.80014927  -0.67069486  -1.59727054
| 33> H    1.60957871  -2.90512657  -0.74195495
| 34> H   -0.96382986  -2.82079017  -1.49833807
| 35> C   -1.98851063  -1.46504342   1.14490216
| 36> H   -2.31635901  -1.18157093   2.17395807
| 37> H   -1.92207954  -2.57289157   1.21221717
| 38> H   -2.93075496  -1.36199049   0.55137355
| 39> C   -2.05185961   2.01020652  -0.89464260
| 40> H   -2.33702624   0.97892729   0.00644874
| 41> H   -0.99352610   2.51190659  -1.20779300
| 42> H   -2.57616713   2.91581746  -0.58146871
| 43> H   -2.40656181   1.70533102  -1.88116379
| 44> *
| 45>
| 46>                          ****END OF INPUT****

CARTESIAN COORDINATES (ANGSTROEM)
---------------------------------
  Lu    -0.025230   -0.246735    0.214399
  C      0.498044    0.649156    2.599824
  C      1.566431   -0.207668    2.260694
  C      2.332375    0.426734    1.262110
  C      1.721646    1.657584    0.964846
  C      0.583177    1.788998    1.786504
  H      2.058968    2.384888    0.239107
  H     -0.046265    2.666328    1.862943
  H     -0.219567    0.475084    3.389351
  H      1.780922   -1.161772    2.712197
  H      3.262170    0.066738    0.852352
  C      0.781161   -0.113322   -2.328390
  C     -0.440112   -0.822576   -2.301546
  C      1.121244   -2.083566   -1.236818
  C      1.747852   -0.900600   -1.688823
  H      0.939348    0.848510   -2.805598
  C     -0.228218   -2.038940   -1.636107
  H     -1.357152   -0.534496   -2.802653
  H      2.800149   -0.670695   -1.597271
  H      1.609579   -2.905127   -0.741955
  H     -0.963830   -2.820790   -1.498338
  C     -1.988511   -1.465043    1.144902
  H     -2.316359   -1.181571    2.173958
  H     -1.922080   -2.572892    1.212217
  H     -2.930755   -1.361990    0.551374
  C     -2.051860    2.010207   -0.894643
  H     -2.337026    0.978927    0.006449
  H     -0.993526    2.511907   -1.207793
  H     -2.576167    2.915817   -0.581469
  H     -2.406562    1.705331   -1.881164

 Total Charge           Charge          ....    0
 Multiplicity           Mult            ....    1
 Number of Electrons    NEL             ....  132
 Basis Dimension        Dim             ....  295

ORBITAL ENERGIES
----------------

  NO   OCC          E(Eh)            E(eV)
   0   2.0000     -19.256168      -523.9870
   1   2.0000     -12.628516      -343.6394
   2   2.0000     -12.626253      -343.5778
   3   2.0000     -12.625933      -343.5691
   4   2.0000     -10.491982      -285.5013
   5   2.0000     -10.444895      -284.2200
   6   2.0000     -10.444039      -284.1968
   7   2.0000     -10.444015      -284.1961
   8   2.0000     -10.443410      -284.1796
   9   2.0000     -10.442634      -284.1585
  10   2.0000     -10.440795      -284.1085
  11   2.0000     -10.440553      -284.1019
  12   2.0000     -10.439962      -284.0858
  13   2.0000     -10.439348      -284.0691
  14   2.0000     -10.438644      -284.0499
  15   2.0000     -10.369102      -282.1576
  16   2.0000      -5.897710      -160.4848
  17   2.0000      -5.897370      -160.4756
  18   2.0000      -5.896957      -160.4644
  19   2.0000      -5.895648      -160.4287
  20   2.0000      -5.895532      -160.4256
  21   2.0000      -2.439253       -66.3755
  22   2.0000      -1.276230       -34.7280
  23   2.0000      -1.275723       -34.7142
  24   2.0000      -1.264808       -34.4172
  25   2.0000      -0.978167       -26.6173
  26   2.0000      -0.970338       -26.4042
  27   2.0000      -0.793073       -21.5806
  28   2.0000      -0.791143       -21.5281
  29   2.0000      -0.790332       -21.5060
  30   2.0000      -0.788446       -21.4547
  31   2.0000      -0.786564       -21.4035
  32   2.0000      -0.693227       -18.8637
  33   2.0000      -0.612782       -16.6746
  34   2.0000      -0.609130       -16.5753
  35   2.0000      -0.607317       -16.5259
  36   2.0000      -0.606523       -16.5043
  37   2.0000      -0.594324       -16.1724
  38   2.0000      -0.589406       -16.0385
  39   2.0000      -0.565099       -15.3771
  40   2.0000      -0.564146       -15.3512
  41   2.0000      -0.563952       -15.3459
  42   2.0000      -0.562958       -15.3189
  43   2.0000      -0.562391       -15.3034
  44   2.0000      -0.561425       -15.2771
  45   2.0000      -0.559775       -15.2322
  46   2.0000      -0.483464       -13.1557
  47   2.0000      -0.467274       -12.7152
  48   2.0000      -0.464626       -12.6431
  49   2.0000      -0.451593       -12.2885
  50   2.0000      -0.449042       -12.2190
  51   2.0000      -0.447878       -12.1874
  52   2.0000      -0.445880       -12.1330
  53   2.0000      -0.434265       -11.8169
  54   2.0000      -0.431750       -11.7485
  55   2.0000      -0.430009       -11.7012
  56   2.0000      -0.429502       -11.6874
  57   2.0000      -0.428347       -11.6559
  58   2.0000      -0.425531       -11.5793
  59   2.0000      -0.380329       -10.3493
  60   2.0000      -0.374590       -10.1931
  61   2.0000      -0.290426        -7.9029
  62   2.0000      -0.281432        -7.6582
  63   2.0000      -0.276715        -7.5298
  64   2.0000      -0.262069        -7.1313
  65   2.0000      -0.257003        -6.9934
  66   0.0000      -0.008012        -0.2180
  67   0.0000       0.006335         0.1724
  68   0.0000       0.025728         0.7001
  69   0.0000       0.052118         1.4182
  70   0.0000       0.058410         1.5894

MULLIKEN ATOMIC CHARGES
-----------------------
   0 Lu:    0.831855
   1 C :   -0.265638
   2 C :   -0.312873
   3 C :   -0.275562
   4 C :   -0.264227
   5 C :   -0.315615
   6 H :    0.231564
   7 H :    0.232882
   8 H :    0.243811
   9 H :    0.245080
  10 H :    0.230113
  11 C :   -0.290046
  12 C :   -0.305813
  13 C :   -0.322096
  14 C :   -0.249338
  15 H :    0.229460
  16 C :   -0.248212
  17 H :    0.228820
  18 H :    0.228177
  19 H :    0.239761
  20 H :    0.247218
  21 C :   -1.047785
  22 H :    0.204923
  23 H :    0.213020
  24 H :    0.194999
  25 C :   -0.911870
  26 H :    0.235631
  27 H :    0.233134
  28 H :    0.268121
  29 H :    0.270510
Sum of atomic charges:    0.0000000

LOEWDIN ATOMIC CHARGES
----------------------
   0 Lu:   -0.025850
   1 C :   -0.135440
   2 C :   -0.148838
   3 C :   -0.132901
   4 C :   -0.147615
   5 C :   -0.152751
   6 H :    0.149518
   7 H :    0.152087
   8 H :    0.159226
   9 H :    0.157085
  10 H :    0.150353
  11 C :   -0.152353
  12 C :   -0.151534
  13 C :   -0.151762
  14 C :   -0.127197
  15 H :    0.149123
  16 C :   -0.124825
  17 H :    0.151271
  18 H :    0.149419
  19 H :    0.155048
  20 H :    0.161328
  21 C :   -0.650508
  22 H :    0.122865
  23 H :    0.131333
  24 H :    0.121681
  25 C :   -0.484557
  26 H :    0.219549
  27 H :    0.165195
  28 H :    0.145979
  29 H :    0.145068

  Mayer bond orders larger than 0.100000
B(  0-Lu,  1-C ) :   0.2417 B(  0-Lu,  2-C ) :   0.2788 B(  0-Lu,  3-C ) :   0.2452
B(  0-Lu,  4-C ) :   0.2445 B(  0-Lu,  5-C ) :   0.2675 B(  0-Lu, 11-C ) :   0.2573
B(  0-Lu, 12-C ) :   0.2679 B(  0-Lu, 13-C ) :   0.2825 B(  0-Lu, 14-C ) :   0.2420
B(  0-Lu, 16-C ) :   0.2400 B(  0-Lu, 21-C ) :   0.7879 B(  0-Lu, 25-C ) :   0.1347
B(  1-C ,  2-C ) :   1.2855 B(  1-C ,  5-C ) :   1.2985 B(  1-C ,  8-H ) :   0.9172
B(  2-C ,  3-C ) :   1.2895 B(  2-C ,  9-H ) :   0.9122 B(  3-C ,  4-C ) :   1.3154
B(  3-C , 10-H ) :   0.9212 B(  4-C ,  5-C ) :   1.2807 B(  4-C ,  6-H ) :   0.9162
B(  5-C ,  7-H ) :   0.9207 B( 11-C , 12-C ) :   1.2649 B( 11-C , 14-C ) :   1.3212
B( 11-C , 15-H ) :   0.9181 B( 12-C , 16-C ) :   1.3089 B( 12-C , 17-H ) :   0.9213
B( 13-C , 14-C ) :   1.2858 B( 13-C , 16-C ) :   1.2840 B( 13-C , 19-H ) :   0.9162
B( 14-C , 18-H ) :   0.9210 B( 16-C , 20-H ) :   0.9147 B( 21-C , 22-H ) :   0.9142
B( 21-C , 23-H ) :   0.9114 B( 21-C , 24-H ) :   0.9096 B( 25-C , 26-H ) :   0.8425
B( 25-C , 27-H ) :   0.9008 B( 25-C , 28-H ) :   0.8966 B( 25-C , 29-H ) :   0.8891

Dispersion correction           -0.017489220
FINAL SINGLE POINT ENERGY     -1702.331139341212
Dispersion correction            ... done

DIPOLE MOMENT
-------------
                                X             Y             Z
Electronic contribution:     -8.44683      -9.87093      10.13254
Nuclear contribution   :      8.50949      10.84459     -10.70456
                        -----------------------------------------
Total Dipole Moment    :      0.06267       0.97366      -0.57202
                        -----------------------------------------
Magnitude (a.u.)       :      1.13099
Magnitude (Debye)      :      2.87476

Rotational constants in cm-1:     0.028175     0.019673     0.017684
Rotational constants in MHz :   844.655298   589.778264   530.166545

                             ****ORCA TERMINATED NORMALLY****
TOTAL RUN TIME: 0 days 0 hours 9 minutes 34 seconds 772 msec
