                         Program Version 5.0.3 -  RELEASE  -
|  1> ! EnGrad PBEh-3c
|  2> %output
|  3> xyzfile=True
|  4> end
|  5> %scf
|  6> maxiter 250
|  7> end
|  8> %output
|  9> Print[P_Hirshfeld] = 1
| 10> end
| 11> % maxcore
| 12> 4000
| 13> *xyz 0 1
| 14> Lu  -0.02630747  -0.24233297   0.21074255
| 15> C    0.49540286   0.65714749   2.59517549
| 16> C    1.55981972  -0.20608761   2.26067619
| 17> C    2.33015332   0.42684897   1.26107300
| 18> C    1.72590644   1.65885221   0.96057770
| 19> C    0.59029173   1.79417131   1.78461009
| 20> H    2.07236012   2.38419422   0.23991070
| 21> H   -0.04061332   2.67718065   1.85440322
| 22> H   -0.22465600   0.48674515   3.38391749
| 23> H    1.76899648  -1.16059911   2.71147060
| 24> H    3.26124956   0.05930336   0.85356751
| 25> C    0.78532300  -0.11447445  -2.33070329
| 26> C   -0.43684092  -0.81802273  -2.30900708
| 27> C    1.11983085  -2.08093709  -1.23453963
| 28> C    1.74899688  -0.89951074  -1.68682601
| 29> H    0.95182105   0.84963965  -2.81198154
| 30> C   -0.22975706  -2.02799306  -1.64315660
| 31> H   -1.35028460  -0.52555427  -2.81036263
| 32> H    2.80246487  -0.67408369  -1.59401284
| 33> H    1.60236323  -2.90297358  -0.73722525
| 34> H   -0.97045185  -2.81256519  -1.49974139
| 35> C   -2.00716913  -1.46745990   1.15225683
| 36> H   -2.30676540  -1.19305328   2.17032104
| 37> H   -1.91588326  -2.57408013   1.20747859
| 38> H   -2.93574056  -1.36917346   0.56873683
| 39> C   -2.01779975   1.99626040  -0.87850507
| 40> H   -2.31677140   0.99562939  -0.01643233
| 41> H   -1.02831941   2.48185537  -1.18889393
| 42> H   -2.58563900   2.90530149  -0.56305010
| 43> H   -2.42163045   1.69333326  -1.87684612
| 44> *
| 45>
| 46>                          ****END OF INPUT****

CARTESIAN COORDINATES (ANGSTROEM)
---------------------------------
  Lu    -0.026307   -0.242333    0.210743
  C      0.495403    0.657147    2.595175
  C      1.559820   -0.206088    2.260676
  C      2.330153    0.426849    1.261073
  C      1.725906    1.658852    0.960578
  C      0.590292    1.794171    1.784610
  H      2.072360    2.384194    0.239911
  H     -0.040613    2.677181    1.854403
  H     -0.224656    0.486745    3.383917
  H      1.768996   -1.160599    2.711471
  H      3.261250    0.059303    0.853568
  C      0.785323   -0.114474   -2.330703
  C     -0.436841   -0.818023   -2.309007
  C      1.119831   -2.080937   -1.234540
  C      1.748997   -0.899511   -1.686826
  H      0.951821    0.849640   -2.811982
  C     -0.229757   -2.027993   -1.643157
  H     -1.350285   -0.525554   -2.810363
  H      2.802465   -0.674084   -1.594013
  H      1.602363   -2.902974   -0.737225
  H     -0.970452   -2.812565   -1.499741
  C     -2.007169   -1.467460    1.152257
  H     -2.306765   -1.193053    2.170321
  H     -1.915883   -2.574080    1.207479
  H     -2.935741   -1.369173    0.568737
  C     -2.017800    1.996260   -0.878505
  H     -2.316771    0.995629   -0.016432
  H     -1.028319    2.481855   -1.188894
  H     -2.585639    2.905301   -0.563050
  H     -2.421630    1.693333   -1.876846

 Total Charge           Charge          ....    0
 Multiplicity           Mult            ....    1
 Number of Electrons    NEL             ....  132
 Basis Dimension        Dim             ....  295

ORBITAL ENERGIES
----------------

  NO   OCC          E(Eh)            E(eV)
   0   2.0000     -19.256999      -524.0096
   1   2.0000     -12.629345      -343.6619
   2   2.0000     -12.627084      -343.6004
   3   2.0000     -12.626775      -343.5920
   4   2.0000     -10.487492      -285.3792
   5   2.0000     -10.445082      -284.2251
   6   2.0000     -10.444550      -284.2107
   7   2.0000     -10.444200      -284.2011
   8   2.0000     -10.443740      -284.1886
   9   2.0000     -10.443166      -284.1730
  10   2.0000     -10.440804      -284.1087
  11   2.0000     -10.440574      -284.1025
  12   2.0000     -10.440045      -284.0881
  13   2.0000     -10.439537      -284.0742
  14   2.0000     -10.438956      -284.0584
  15   2.0000     -10.364789      -282.0403
  16   2.0000      -5.898542      -160.5075
  17   2.0000      -5.898201      -160.4982
  18   2.0000      -5.897798      -160.4872
  19   2.0000      -5.896489      -160.4516
  20   2.0000      -5.896375      -160.4485
  21   2.0000      -2.440056       -66.3973
  22   2.0000      -1.277035       -34.7499
  23   2.0000      -1.276493       -34.7351
  24   2.0000      -1.265419       -34.4338
  25   2.0000      -0.979039       -26.6410
  26   2.0000      -0.971221       -26.4283
  27   2.0000      -0.794063       -21.6075
  28   2.0000      -0.791923       -21.5493
  29   2.0000      -0.790639       -21.5144
  30   2.0000      -0.788840       -21.4654
  31   2.0000      -0.788114       -21.4457
  32   2.0000      -0.695074       -18.9139
  33   2.0000      -0.613000       -16.6806
  34   2.0000      -0.609135       -16.5754
  35   2.0000      -0.607508       -16.5311
  36   2.0000      -0.606404       -16.5011
  37   2.0000      -0.594349       -16.1731
  38   2.0000      -0.589414       -16.0388
  39   2.0000      -0.565925       -15.3996
  40   2.0000      -0.564984       -15.3740
  41   2.0000      -0.564770       -15.3682
  42   2.0000      -0.563781       -15.3413
  43   2.0000      -0.563216       -15.3259
  44   2.0000      -0.562269       -15.3001
  45   2.0000      -0.560589       -15.2544
  46   2.0000      -0.481425       -13.1002
  47   2.0000      -0.472444       -12.8559
  48   2.0000      -0.466266       -12.6877
  49   2.0000      -0.451872       -12.2961
  50   2.0000      -0.449080       -12.2201
  51   2.0000      -0.447803       -12.1853
  52   2.0000      -0.446672       -12.1546
  53   2.0000      -0.437604       -11.9078
  54   2.0000      -0.432788       -11.7768
  55   2.0000      -0.430746       -11.7212
  56   2.0000      -0.429463       -11.6863
  57   2.0000      -0.428276       -11.6540
  58   2.0000      -0.425523       -11.5791
  59   2.0000      -0.384398       -10.4600
  60   2.0000      -0.375798       -10.2260
  61   2.0000      -0.291204        -7.9241
  62   2.0000      -0.281441        -7.6584
  63   2.0000      -0.276862        -7.5338
  64   2.0000      -0.261919        -7.1272
  65   2.0000      -0.254293        -6.9197
  66   0.0000      -0.008813        -0.2398
  67   0.0000       0.009470         0.2577
  68   0.0000       0.029916         0.8141
  69   0.0000       0.052523         1.4292
  70   0.0000       0.058607         1.5948

MULLIKEN ATOMIC CHARGES
-----------------------
   0 Lu:    0.826463
   1 C :   -0.267353
   2 C :   -0.312976
   3 C :   -0.274800
   4 C :   -0.267230
   5 C :   -0.310959
   6 H :    0.231778
   7 H :    0.232845
   8 H :    0.244013
   9 H :    0.245540
  10 H :    0.230023
  11 C :   -0.292383
  12 C :   -0.300862
  13 C :   -0.323922
  14 C :   -0.248221
  15 H :    0.229022
  16 C :   -0.249734
  17 H :    0.229665
  18 H :    0.228251
  19 H :    0.240238
  20 H :    0.247644
  21 C :   -1.047806
  22 H :    0.209216
  23 H :    0.208904
  24 H :    0.198632
  25 C :   -0.937525
  26 H :    0.248745
  27 H :    0.256355
  28 H :    0.263517
  29 H :    0.262918
Sum of atomic charges:   -0.0000000

LOEWDIN ATOMIC CHARGES
----------------------
   0 Lu:   -0.019525
   1 C :   -0.135798
   2 C :   -0.149188
   3 C :   -0.132194
   4 C :   -0.148468
   5 C :   -0.151917
   6 H :    0.149806
   7 H :    0.152033
   8 H :    0.159430
   9 H :    0.157302
  10 H :    0.150305
  11 C :   -0.152812
  12 C :   -0.151122
  13 C :   -0.152565
  14 C :   -0.126462
  15 H :    0.149045
  16 C :   -0.124892
  17 H :    0.151733
  18 H :    0.149526
  19 H :    0.155367
  20 H :    0.161569
  21 C :   -0.654395
  22 H :    0.123316
  23 H :    0.130086
  24 H :    0.121900
  25 C :   -0.493867
  26 H :    0.221120
  27 H :    0.167949
  28 H :    0.147217
  29 H :    0.145502

  Mayer bond orders larger than 0.100000
B(  0-Lu,  1-C ) :   0.2417 B(  0-Lu,  2-C ) :   0.2801 B(  0-Lu,  3-C ) :   0.2460
B(  0-Lu,  4-C ) :   0.2453 B(  0-Lu,  5-C ) :   0.2665 B(  0-Lu, 11-C ) :   0.2587
B(  0-Lu, 12-C ) :   0.2661 B(  0-Lu, 13-C ) :   0.2847 B(  0-Lu, 14-C ) :   0.2423
B(  0-Lu, 16-C ) :   0.2407 B(  0-Lu, 21-C ) :   0.7934 B(  0-Lu, 25-C ) :   0.1341
B(  1-C ,  2-C ) :   1.2843 B(  1-C ,  5-C ) :   1.3003 B(  1-C ,  8-H ) :   0.9172
B(  2-C ,  3-C ) :   1.2892 B(  2-C ,  9-H ) :   0.9120 B(  3-C ,  4-C ) :   1.3152
B(  3-C , 10-H ) :   0.9211 B(  4-C ,  5-C ) :   1.2800 B(  4-C ,  6-H ) :   0.9168
B(  5-C ,  7-H ) :   0.9199 B( 11-C , 12-C ) :   1.2636 B( 11-C , 14-C ) :   1.3216
B( 11-C , 15-H ) :   0.9181 B( 12-C , 16-C ) :   1.3118 B( 12-C , 17-H ) :   0.9209
B( 13-C , 14-C ) :   1.2854 B( 13-C , 16-C ) :   1.2816 B( 13-C , 19-H ) :   0.9161
B( 14-C , 18-H ) :   0.9211 B( 16-C , 20-H ) :   0.9139 B( 21-C , 22-H ) :   0.9137
B( 21-C , 23-H ) :   0.9143 B( 21-C , 24-H ) :   0.9106 B( 25-C , 26-H ) :   0.8389
B( 25-C , 27-H ) :   0.8891 B( 25-C , 28-H ) :   0.9015 B( 25-C , 29-H ) :   0.8960

Dispersion correction           -0.017447164
FINAL SINGLE POINT ENERGY     -1702.342709583613
Dispersion correction            ... done

DIPOLE MOMENT
-------------
                                X             Y             Z
Electronic contribution:     -8.50699      -9.66436       9.94591
Nuclear contribution   :      8.59049      10.64782     -10.52068
                        -----------------------------------------
Total Dipole Moment    :      0.08350       0.98346      -0.57477
                        -----------------------------------------
Magnitude (a.u.)       :      1.14216
Magnitude (Debye)      :      2.90314

Rotational constants in cm-1:     0.028272     0.019691     0.017712
Rotational constants in MHz :   847.570034   590.332784   530.985177

                             ****ORCA TERMINATED NORMALLY****
TOTAL RUN TIME: 0 days 0 hours 8 minutes 24 seconds 739 msec
