                         Program Version 5.0.3 -  RELEASE  -
|  1> ! EnGrad PBEh-3c
|  2> %output
|  3> xyzfile=True
|  4> end
|  5> %scf
|  6> maxiter 250
|  7> end
|  8> %output
|  9> Print[P_Hirshfeld] = 1
| 10> end
| 11> % maxcore
| 12> 4000
| 13> *xyz 0 1
| 14> Lu  -0.03742998  -0.24009453   0.20929917
| 15> C    0.49242348   0.66614229   2.59410057
| 16> C    1.55236915  -0.20101299   2.25732240
| 17> C    2.32855789   0.42263003   1.26000716
| 18> C    1.73493707   1.66068798   0.95863646
| 19> C    0.59620484   1.80915260   1.78020947
| 20> H    2.08939774   2.38377421   0.24021851
| 21> H   -0.03193304   2.68725341   1.84271849
| 22> H   -0.23076733   0.50184211   3.37521761
| 23> H    1.75366146  -1.15948769   2.71068122
| 24> H    3.25880593   0.05054442   0.85590443
| 25> C    0.79492014  -0.10794111  -2.33926518
| 26> C   -0.43284421  -0.81024020  -2.32176034
| 27> C    1.11466119  -2.07382219  -1.23283608
| 28> C    1.75285000  -0.90031905  -1.68281585
| 29> H    0.96712239   0.84792879  -2.81816347
| 30> C   -0.23410609  -2.02625997  -1.64822491
| 31> H   -1.34224049  -0.51345334  -2.81972103
| 32> H    2.80501747  -0.67800138  -1.59039459
| 33> H    1.59329122  -2.90099864  -0.73115994
| 34> H   -0.97608487  -2.79733077  -1.50175545
| 35> C   -2.01173105  -1.47362066   1.15247065
| 36> H   -2.29984280  -1.20495123   2.17611737
| 37> H   -1.90815633  -2.57565836   1.20237475
| 38> H   -2.95230679  -1.37780931   0.58729673
| 39> C   -2.02913224   1.97450411  -0.86435421
| 40> H   -2.28584307   1.01354040  -0.04239019
| 41> H   -1.04212180   2.45540375  -1.17126156
| 42> H   -2.58733613   2.88154829  -0.54238435
| 43> H   -2.43156107   1.68281621  -1.85775174
| 44> *
| 45>
| 46>                          ****END OF INPUT****

CARTESIAN COORDINATES (ANGSTROEM)
---------------------------------
  Lu    -0.037430   -0.240095    0.209299
  C      0.492423    0.666142    2.594101
  C      1.552369   -0.201013    2.257322
  C      2.328558    0.422630    1.260007
  C      1.734937    1.660688    0.958636
  C      0.596205    1.809153    1.780209
  H      2.089398    2.383774    0.240219
  H     -0.031933    2.687253    1.842718
  H     -0.230767    0.501842    3.375218
  H      1.753661   -1.159488    2.710681
  H      3.258806    0.050544    0.855904
  C      0.794920   -0.107941   -2.339265
  C     -0.432844   -0.810240   -2.321760
  C      1.114661   -2.073822   -1.232836
  C      1.752850   -0.900319   -1.682816
  H      0.967122    0.847929   -2.818163
  C     -0.234106   -2.026260   -1.648225
  H     -1.342240   -0.513453   -2.819721
  H      2.805017   -0.678001   -1.590395
  H      1.593291   -2.900999   -0.731160
  H     -0.976085   -2.797331   -1.501755
  C     -2.011731   -1.473621    1.152471
  H     -2.299843   -1.204951    2.176117
  H     -1.908156   -2.575658    1.202375
  H     -2.952307   -1.377809    0.587297
  C     -2.029132    1.974504   -0.864354
  H     -2.285843    1.013540   -0.042390
  H     -1.042122    2.455404   -1.171262
  H     -2.587336    2.881548   -0.542384
  H     -2.431561    1.682816   -1.857752

 Total Charge           Charge          ....    0
 Multiplicity           Mult            ....    1
 Number of Electrons    NEL             ....  132
 Basis Dimension        Dim             ....  295

ORBITAL ENERGIES
----------------

  NO   OCC          E(Eh)            E(eV)
   0   2.0000     -19.258243      -524.0434
   1   2.0000     -12.630607      -343.6963
   2   2.0000     -12.628324      -343.6342
   3   2.0000     -12.628018      -343.6258
   4   2.0000     -10.481787      -285.2239
   5   2.0000     -10.445418      -284.2343
   6   2.0000     -10.444656      -284.2135
   7   2.0000     -10.444507      -284.2095
   8   2.0000     -10.444076      -284.1978
   9   2.0000     -10.443563      -284.1838
  10   2.0000     -10.441551      -284.1290
  11   2.0000     -10.441060      -284.1157
  12   2.0000     -10.440665      -284.1049
  13   2.0000     -10.439693      -284.0785
  14   2.0000     -10.439156      -284.0639
  15   2.0000     -10.364527      -282.0331
  16   2.0000      -5.899806      -160.5419
  17   2.0000      -5.899457      -160.5324
  18   2.0000      -5.899060      -160.5216
  19   2.0000      -5.897736      -160.4856
  20   2.0000      -5.897617      -160.4823
  21   2.0000      -2.441264       -66.4302
  22   2.0000      -1.278308       -34.7845
  23   2.0000      -1.277281       -34.7566
  24   2.0000      -1.266449       -34.4618
  25   2.0000      -0.977545       -26.6003
  26   2.0000      -0.969931       -26.3932
  27   2.0000      -0.797254       -21.6944
  28   2.0000      -0.792666       -21.5695
  29   2.0000      -0.790548       -21.5119
  30   2.0000      -0.789039       -21.4709
  31   2.0000      -0.788326       -21.4514
  32   2.0000      -0.695352       -18.9215
  33   2.0000      -0.613035       -16.6815
  34   2.0000      -0.609959       -16.5978
  35   2.0000      -0.607615       -16.5340
  36   2.0000      -0.607278       -16.5249
  37   2.0000      -0.594606       -16.1801
  38   2.0000      -0.589762       -16.0482
  39   2.0000      -0.567191       -15.4341
  40   2.0000      -0.566251       -15.4085
  41   2.0000      -0.566008       -15.4019
  42   2.0000      -0.565040       -15.3755
  43   2.0000      -0.564467       -15.3599
  44   2.0000      -0.563504       -15.3337
  45   2.0000      -0.561824       -15.2880
  46   2.0000      -0.488798       -13.3009
  47   2.0000      -0.474091       -12.9007
  48   2.0000      -0.466205       -12.6861
  49   2.0000      -0.452782       -12.3208
  50   2.0000      -0.449075       -12.2200
  51   2.0000      -0.448229       -12.1969
  52   2.0000      -0.446906       -12.1609
  53   2.0000      -0.442067       -12.0292
  54   2.0000      -0.431918       -11.7531
  55   2.0000      -0.430843       -11.7238
  56   2.0000      -0.429643       -11.6912
  57   2.0000      -0.428657       -11.6643
  58   2.0000      -0.425853       -11.5881
  59   2.0000      -0.383727       -10.4417
  60   2.0000      -0.377292       -10.2666
  61   2.0000      -0.290915        -7.9162
  62   2.0000      -0.281310        -7.6548
  63   2.0000      -0.277047        -7.5388
  64   2.0000      -0.261122        -7.1055
  65   2.0000      -0.254513        -6.9256
  66   0.0000      -0.008719        -0.2373
  67   0.0000       0.010936         0.2976
  68   0.0000       0.032698         0.8898
  69   0.0000       0.053209         1.4479
  70   0.0000       0.057927         1.5763

MULLIKEN ATOMIC CHARGES
-----------------------
   0 Lu:    0.827894
   1 C :   -0.270461
   2 C :   -0.313149
   3 C :   -0.274182
   4 C :   -0.266670
   5 C :   -0.311145
   6 H :    0.231184
   7 H :    0.233163
   8 H :    0.244667
   9 H :    0.245658
  10 H :    0.229959
  11 C :   -0.291164
  12 C :   -0.304153
  13 C :   -0.327035
  14 C :   -0.246703
  15 H :    0.229629
  16 C :   -0.248520
  17 H :    0.229814
  18 H :    0.228181
  19 H :    0.240235
  20 H :    0.249508
  21 C :   -1.048935
  22 H :    0.208805
  23 H :    0.209350
  24 H :    0.199485
  25 C :   -0.948386
  26 H :    0.255655
  27 H :    0.256496
  28 H :    0.265264
  29 H :    0.265558
Sum of atomic charges:   -0.0000000

LOEWDIN ATOMIC CHARGES
----------------------
   0 Lu:   -0.008938
   1 C :   -0.137568
   2 C :   -0.149237
   3 C :   -0.133343
   4 C :   -0.148089
   5 C :   -0.152797
   6 H :    0.149331
   7 H :    0.151476
   8 H :    0.159242
   9 H :    0.157403
  10 H :    0.150372
  11 C :   -0.152984
  12 C :   -0.151042
  13 C :   -0.152265
  14 C :   -0.126743
  15 H :    0.148843
  16 C :   -0.126447
  17 H :    0.151061
  18 H :    0.149447
  19 H :    0.155504
  20 H :    0.161854
  21 C :   -0.654827
  22 H :    0.123425
  23 H :    0.129932
  24 H :    0.122303
  25 C :   -0.493467
  26 H :    0.215082
  27 H :    0.167855
  28 H :    0.148212
  29 H :    0.146403

  Mayer bond orders larger than 0.100000
B(  0-Lu,  1-C ) :   0.2429 B(  0-Lu,  2-C ) :   0.2801 B(  0-Lu,  3-C ) :   0.2446
B(  0-Lu,  4-C ) :   0.2425 B(  0-Lu,  5-C ) :   0.2660 B(  0-Lu, 11-C ) :   0.2573
B(  0-Lu, 12-C ) :   0.2665 B(  0-Lu, 13-C ) :   0.2855 B(  0-Lu, 14-C ) :   0.2413
B(  0-Lu, 16-C ) :   0.2419 B(  0-Lu, 21-C ) :   0.7971 B(  0-Lu, 25-C ) :   0.1340
B(  1-C ,  2-C ) :   1.2848 B(  1-C ,  5-C ) :   1.2985 B(  1-C ,  8-H ) :   0.9168
B(  2-C ,  3-C ) :   1.2890 B(  2-C ,  9-H ) :   0.9117 B(  3-C ,  4-C ) :   1.3159
B(  3-C , 10-H ) :   0.9213 B(  4-C ,  5-C ) :   1.2832 B(  4-C ,  6-H ) :   0.9172
B(  5-C ,  7-H ) :   0.9196 B( 11-C , 12-C ) :   1.2667 B( 11-C , 14-C ) :   1.3199
B( 11-C , 15-H ) :   0.9183 B( 12-C , 16-C ) :   1.3101 B( 12-C , 17-H ) :   0.9206
B( 13-C , 14-C ) :   1.2868 B( 13-C , 16-C ) :   1.2796 B( 13-C , 19-H ) :   0.9161
B( 14-C , 18-H ) :   0.9216 B( 16-C , 20-H ) :   0.9130 B( 21-C , 22-H ) :   0.9138
B( 21-C , 23-H ) :   0.9139 B( 21-C , 24-H ) :   0.9114 B( 25-C , 26-H ) :   0.8411
B( 25-C , 27-H ) :   0.8886 B( 25-C , 28-H ) :   0.9018 B( 25-C , 29-H ) :   0.8959

Dispersion correction           -0.017435944
FINAL SINGLE POINT ENERGY     -1702.354235947263
Dispersion correction            ... done

DIPOLE MOMENT
-------------
                                X             Y             Z
Electronic contribution:     -9.05823      -9.57718       9.89356
Nuclear contribution   :      9.13714      10.56283     -10.46692
                        -----------------------------------------
Total Dipole Moment    :      0.07891       0.98566      -0.57336
                        -----------------------------------------
Magnitude (a.u.)       :      1.14302
Magnitude (Debye)      :      2.90532

Rotational constants in cm-1:     0.028245     0.019693     0.017677
Rotational constants in MHz :   846.774950   590.383643   529.952429

                             ****ORCA TERMINATED NORMALLY****
TOTAL RUN TIME: 0 days 0 hours 8 minutes 26 seconds 105 msec
