                         Program Version 5.0.3 -  RELEASE  -
|  1> ! EnGrad PBEh-3c
|  2> %output
|  3> xyzfile=True
|  4> end
|  5> %scf
|  6> maxiter 250
|  7> end
|  8> %output
|  9> Print[P_Hirshfeld] = 1
| 10> end
| 11> % maxcore
| 12> 4000
| 13> *xyz 0 1
| 14> Lu  -0.07977107  -0.22582166   0.19902473
| 15> C    0.48142838   0.71893584   2.57381933
| 16> C    1.51518105  -0.18499404   2.24767956
| 17> C    2.32050104   0.40868292   1.25340141
| 18> C    1.77092805   1.66793526   0.94933767
| 19> C    0.63051470   1.86115565   1.76156261
| 20> H    2.17172328   2.38279425   0.24175253
| 21> H    0.00707635   2.74244404   1.78860682
| 22> H   -0.26417929   0.57235827   3.33869535
| 23> H    1.68009147  -1.15046703   2.70500791
| 24> H    3.24653747   0.00842321   0.86641540
| 25> C    0.83650326  -0.09648147  -2.36702144
| 26> C   -0.40372602  -0.77970851  -2.37307227
| 27> C    1.09134469  -2.05238726  -1.22132574
| 28> C    1.76078404  -0.89451920  -1.67154635
| 29> H    1.04193054   0.84689624  -2.85296333
| 30> C   -0.24567077  -1.99336090  -1.67861530
| 31> H   -1.30795721  -0.45471988  -2.86831170
| 32> H    2.82007309  -0.69659290  -1.57148697
| 33> H    1.54768928  -2.88638665  -0.70369771
| 34> H   -1.00865634  -2.73334505  -1.51105841
| 35> C   -2.03979652  -1.49721829   1.15596414
| 36> H   -2.26573578  -1.26080746   2.20596926
| 37> H   -1.87298823  -2.58353137   1.17479957
| 38> H   -3.03297345  -1.41689125   0.67584029
| 39> C   -2.06892491   1.88148187  -0.80364789
| 40> H   -2.14486809   1.08101414  -0.15262154
| 41> H   -1.10551174   2.33108770  -1.08945627
| 42> H   -2.59643509   2.76614325  -0.44285094
| 43> H   -2.48187263   1.63047816  -1.77039223
| 44> *
| 45>
| 46>                          ****END OF INPUT****

CARTESIAN COORDINATES (ANGSTROEM)
---------------------------------
  Lu    -0.079771   -0.225822    0.199025
  C      0.481428    0.718936    2.573819
  C      1.515181   -0.184994    2.247680
  C      2.320501    0.408683    1.253401
  C      1.770928    1.667935    0.949338
  C      0.630515    1.861156    1.761563
  H      2.171723    2.382794    0.241753
  H      0.007076    2.742444    1.788607
  H     -0.264179    0.572358    3.338695
  H      1.680091   -1.150467    2.705008
  H      3.246537    0.008423    0.866415
  C      0.836503   -0.096481   -2.367021
  C     -0.403726   -0.779709   -2.373072
  C      1.091345   -2.052387   -1.221326
  C      1.760784   -0.894519   -1.671546
  H      1.041931    0.846896   -2.852963
  C     -0.245671   -1.993361   -1.678615
  H     -1.307957   -0.454720   -2.868312
  H      2.820073   -0.696593   -1.571487
  H      1.547689   -2.886387   -0.703698
  H     -1.008656   -2.733345   -1.511058
  C     -2.039797   -1.497218    1.155964
  H     -2.265736   -1.260807    2.205969
  H     -1.872988   -2.583531    1.174800
  H     -3.032973   -1.416891    0.675840
  C     -2.068925    1.881482   -0.803648
  H     -2.144868    1.081014   -0.152622
  H     -1.105512    2.331088   -1.089456
  H     -2.596435    2.766143   -0.442851
  H     -2.481873    1.630478   -1.770392

 Total Charge           Charge          ....    0
 Multiplicity           Mult            ....    1
 Number of Electrons    NEL             ....  132
 Basis Dimension        Dim             ....  295

ORBITAL ENERGIES
----------------

  NO   OCC          E(Eh)            E(eV)
   0   2.0000     -19.264373      -524.2102
   1   2.0000     -12.636776      -343.8642
   2   2.0000     -12.634442      -343.8007
   3   2.0000     -12.634176      -343.7934
   4   2.0000     -10.452826      -284.4359
   5   2.0000     -10.446311      -284.2586
   6   2.0000     -10.445827      -284.2454
   7   2.0000     -10.445631      -284.2401
   8   2.0000     -10.444996      -284.2228
   9   2.0000     -10.444371      -284.2058
  10   2.0000     -10.443707      -284.1877
  11   2.0000     -10.441699      -284.1331
  12   2.0000     -10.441569      -284.1295
  13   2.0000     -10.440496      -284.1004
  14   2.0000     -10.439914      -284.0845
  15   2.0000     -10.365012      -282.0463
  16   2.0000      -5.905990      -160.7102
  17   2.0000      -5.905621      -160.7001
  18   2.0000      -5.905261      -160.6903
  19   2.0000      -5.903901      -160.6533
  20   2.0000      -5.903768      -160.6497
  21   2.0000      -2.447264       -66.5934
  22   2.0000      -1.284494       -34.9528
  23   2.0000      -1.281995       -34.8848
  24   2.0000      -1.271767       -34.6065
  25   2.0000      -0.976670       -26.5765
  26   2.0000      -0.969758       -26.3885
  27   2.0000      -0.826360       -22.4864
  28   2.0000      -0.793075       -21.5807
  29   2.0000      -0.790209       -21.5027
  30   2.0000      -0.789737       -21.4898
  31   2.0000      -0.787807       -21.4373
  32   2.0000      -0.695155       -18.9161
  33   2.0000      -0.612956       -16.6794
  34   2.0000      -0.610601       -16.6153
  35   2.0000      -0.608489       -16.5578
  36   2.0000      -0.606918       -16.5151
  37   2.0000      -0.594497       -16.1771
  38   2.0000      -0.589653       -16.0453
  39   2.0000      -0.573377       -15.6024
  40   2.0000      -0.572544       -15.5797
  41   2.0000      -0.572074       -15.5669
  42   2.0000      -0.571155       -15.5419
  43   2.0000      -0.570587       -15.5265
  44   2.0000      -0.569632       -15.5005
  45   2.0000      -0.567844       -15.4518
  46   2.0000      -0.529534       -14.4094
  47   2.0000      -0.481790       -13.1102
  48   2.0000      -0.472786       -12.8652
  49   2.0000      -0.456546       -12.4233
  50   2.0000      -0.452850       -12.3227
  51   2.0000      -0.449199       -12.2233
  52   2.0000      -0.447845       -12.1865
  53   2.0000      -0.447112       -12.1665
  54   2.0000      -0.431855       -11.7514
  55   2.0000      -0.431065       -11.7299
  56   2.0000      -0.429336       -11.6828
  57   2.0000      -0.429118       -11.6769
  58   2.0000      -0.426187       -11.5971
  59   2.0000      -0.382360       -10.4045
  60   2.0000      -0.380023       -10.3409
  61   2.0000      -0.292004        -7.9458
  62   2.0000      -0.280646        -7.6368
  63   2.0000      -0.277862        -7.5610
  64   2.0000      -0.260053        -7.0764
  65   2.0000      -0.254397        -6.9225
  66   0.0000      -0.010571        -0.2876
  67   0.0000       0.013808         0.3757
  68   0.0000       0.037950         1.0327
  69   0.0000       0.052748         1.4353
  70   0.0000       0.055237         1.5031

MULLIKEN ATOMIC CHARGES
-----------------------
   0 Lu:    0.823453
   1 C :   -0.282178
   2 C :   -0.317162
   3 C :   -0.271959
   4 C :   -0.269041
   5 C :   -0.301611
   6 H :    0.228916
   7 H :    0.233347
   8 H :    0.246910
   9 H :    0.247139
  10 H :    0.229390
  11 C :   -0.285220
  12 C :   -0.307494
  13 C :   -0.341185
  14 C :   -0.242702
  15 H :    0.229904
  16 C :   -0.246635
  17 H :    0.230503
  18 H :    0.227106
  19 H :    0.241453
  20 H :    0.255710
  21 C :   -1.046981
  22 H :    0.206575
  23 H :    0.208549
  24 H :    0.201687
  25 C :   -0.982486
  26 H :    0.285578
  27 H :    0.255907
  28 H :    0.270927
  29 H :    0.271599
Sum of atomic charges:    0.0000000

LOEWDIN ATOMIC CHARGES
----------------------
   0 Lu:    0.033716
   1 C :   -0.143856
   2 C :   -0.151882
   3 C :   -0.134904
   4 C :   -0.149133
   5 C :   -0.155069
   6 H :    0.148362
   7 H :    0.150253
   8 H :    0.159477
   9 H :    0.157999
  10 H :    0.150056
  11 C :   -0.153225
  12 C :   -0.153076
  13 C :   -0.154893
  14 C :   -0.126471
  15 H :    0.148677
  16 C :   -0.130380
  17 H :    0.150277
  18 H :    0.149083
  19 H :    0.156402
  20 H :    0.163568
  21 C :   -0.656191
  22 H :    0.123276
  23 H :    0.128650
  24 H :    0.123378
  25 C :   -0.483638
  26 H :    0.179398
  27 H :    0.165275
  28 H :    0.153599
  29 H :    0.151272

  Mayer bond orders larger than 0.100000
B(  0-Lu,  1-C ) :   0.2459 B(  0-Lu,  2-C ) :   0.2851 B(  0-Lu,  3-C ) :   0.2397
B(  0-Lu,  4-C ) :   0.2329 B(  0-Lu,  5-C ) :   0.2609 B(  0-Lu, 11-C ) :   0.2498
B(  0-Lu, 12-C ) :   0.2660 B(  0-Lu, 13-C ) :   0.2951 B(  0-Lu, 14-C ) :   0.2372
B(  0-Lu, 16-C ) :   0.2449 B(  0-Lu, 21-C ) :   0.8109 B(  0-Lu, 25-C ) :   0.1413
B(  1-C ,  2-C ) :   1.2815 B(  1-C ,  5-C ) :   1.2992 B(  1-C ,  8-H ) :   0.9143
B(  2-C ,  3-C ) :   1.2874 B(  2-C ,  9-H ) :   0.9104 B(  3-C ,  4-C ) :   1.3218
B(  3-C , 10-H ) :   0.9219 B(  4-C ,  5-C ) :   1.2890 B(  4-C ,  6-H ) :   0.9192
B(  5-C ,  7-H ) :   0.9171 B( 11-C , 12-C ) :   1.2693 B( 11-C , 14-C ) :   1.3263
B( 11-C , 15-H ) :   0.9188 B( 12-C , 16-C ) :   1.3110 B( 12-C , 17-H ) :   0.9180
B( 13-C , 14-C ) :   1.2834 B( 13-C , 16-C ) :   1.2726 B( 13-C , 19-H ) :   0.9160
B( 14-C , 18-H ) :   0.9228 B( 16-C , 20-H ) :   0.9076 B( 21-C , 22-H ) :   0.9141
B( 21-C , 23-H ) :   0.9122 B( 21-C , 24-H ) :   0.9155 B( 25-C , 26-H ) :   0.8337
B( 25-C , 27-H ) :   0.8876 B( 25-C , 28-H ) :   0.9058 B( 25-C , 29-H ) :   0.9009

Dispersion correction           -0.017473187
FINAL SINGLE POINT ENERGY     -1702.371811417743
Dispersion correction            ... done

DIPOLE MOMENT
-------------
                                X             Y             Z
Electronic contribution:    -11.15475      -8.97881       9.47375
Nuclear contribution   :     11.23084       9.97699     -10.04370
                        -----------------------------------------
Total Dipole Moment    :      0.07609       0.99818      -0.56995
                        -----------------------------------------
Magnitude (a.u.)       :      1.15195
Magnitude (Debye)      :      2.92803

Rotational constants in cm-1:     0.028209     0.019769     0.017545
Rotational constants in MHz :   845.680562   592.657367   525.998346

                             ****ORCA TERMINATED NORMALLY****
TOTAL RUN TIME: 0 days 0 hours 8 minutes 31 seconds 531 msec
