                         Program Version 5.0.3 -  RELEASE  -
|  1> ! EnGrad PBEh-3c
|  2> %output
|  3> xyzfile=True
|  4> end
|  5> %scf
|  6> maxiter 250
|  7> end
|  8> %output
|  9> Print[P_Hirshfeld] = 1
| 10> end
| 11> % maxcore
| 12> 4000
| 13> *xyz 0 1
| 14> Lu  -0.07486327  -0.22789976   0.19854497
| 15> C    0.47579148   0.72288229   2.57207968
| 16> C    1.50877275  -0.18190739   2.24375216
| 17> C    2.31806267   0.40686849   1.25451847
| 18> C    1.77384986   1.66757908   0.94277757
| 19> C    0.63215921   1.86918923   1.75602668
| 20> H    2.18415614   2.38182689   0.24305023
| 21> H    0.01532024   2.75022948   1.78079564
| 22> H   -0.26942246   0.58379445   3.33176026
| 23> H    1.66912006  -1.14970882   2.70551495
| 24> H    3.24244262   0.00152787   0.86676388
| 25> C    0.84094992  -0.08993858  -2.36933786
| 26> C   -0.40431282  -0.77261798  -2.37942176
| 27> C    1.08711968  -2.04747798  -1.22135462
| 28> C    1.76400136  -0.89558010  -1.66803967
| 29> H    1.05356087   0.84350392  -2.85745324
| 30> C   -0.24820398  -1.99093226  -1.68035892
| 31> H   -1.30092139  -0.44616110  -2.87592032
| 32> H    2.81953470  -0.69861900  -1.56688726
| 33> H    1.54063679  -2.88433285  -0.69820584
| 34> H   -1.01239834  -2.72228761  -1.51376202
| 35> C   -2.04508891  -1.49664292   1.15666574
| 36> H   -2.25769201  -1.26727557   2.21163076
| 37> H   -1.86554861  -2.58226446   1.16752660
| 38> H   -3.04189065  -1.42013148   0.68760456
| 39> C   -2.06774918   1.91443401  -0.83367574
| 40> H   -2.12851647   1.05748814  -0.13936525
| 41> H   -1.11090219   2.30539780  -1.07171979
| 42> H   -2.59965043   2.74048362  -0.42363013
| 43> H   -2.49393205   1.61901092  -1.75509592
| 44> *
| 45>
| 46>                          ****END OF INPUT****

CARTESIAN COORDINATES (ANGSTROEM)
---------------------------------
  Lu    -0.074863   -0.227900    0.198545
  C      0.475791    0.722882    2.572080
  C      1.508773   -0.181907    2.243752
  C      2.318063    0.406868    1.254518
  C      1.773850    1.667579    0.942778
  C      0.632159    1.869189    1.756027
  H      2.184156    2.381827    0.243050
  H      0.015320    2.750229    1.780796
  H     -0.269422    0.583794    3.331760
  H      1.669120   -1.149709    2.705515
  H      3.242443    0.001528    0.866764
  C      0.840950   -0.089939   -2.369338
  C     -0.404313   -0.772618   -2.379422
  C      1.087120   -2.047478   -1.221355
  C      1.764001   -0.895580   -1.668040
  H      1.053561    0.843504   -2.857453
  C     -0.248204   -1.990932   -1.680359
  H     -1.300921   -0.446161   -2.875920
  H      2.819535   -0.698619   -1.566887
  H      1.540637   -2.884333   -0.698206
  H     -1.012398   -2.722288   -1.513762
  C     -2.045089   -1.496643    1.156666
  H     -2.257692   -1.267276    2.211631
  H     -1.865549   -2.582264    1.167527
  H     -3.041891   -1.420131    0.687605
  C     -2.067749    1.914434   -0.833676
  H     -2.128516    1.057488   -0.139365
  H     -1.110902    2.305398   -1.071720
  H     -2.599650    2.740484   -0.423630
  H     -2.493932    1.619011   -1.755096

 Total Charge           Charge          ....    0
 Multiplicity           Mult            ....    1
 Number of Electrons    NEL             ....  132
 Basis Dimension        Dim             ....  295

ORBITAL ENERGIES
----------------

  NO   OCC          E(Eh)            E(eV)
   0   2.0000     -19.263909      -524.1976
   1   2.0000     -12.636305      -343.8513
   2   2.0000     -12.633985      -343.7882
   3   2.0000     -12.633702      -343.7805
   4   2.0000     -10.449999      -284.3589
   5   2.0000     -10.446869      -284.2737
   6   2.0000     -10.446732      -284.2700
   7   2.0000     -10.446272      -284.2575
   8   2.0000     -10.445616      -284.2397
   9   2.0000     -10.444923      -284.2208
  10   2.0000     -10.444706      -284.2149
  11   2.0000     -10.442365      -284.1512
  12   2.0000     -10.442350      -284.1508
  13   2.0000     -10.441022      -284.1147
  14   2.0000     -10.440293      -284.0948
  15   2.0000     -10.364880      -282.0427
  16   2.0000      -5.905513      -160.6972
  17   2.0000      -5.905153      -160.6874
  18   2.0000      -5.904786      -160.6774
  19   2.0000      -5.903430      -160.6405
  20   2.0000      -5.903301      -160.6370
  21   2.0000      -2.446816       -66.5813
  22   2.0000      -1.284115       -34.9426
  23   2.0000      -1.281680       -34.8763
  24   2.0000      -1.271366       -34.5956
  25   2.0000      -0.976009       -26.5586
  26   2.0000      -0.968963       -26.3668
  27   2.0000      -0.826260       -22.4837
  28   2.0000      -0.793250       -21.5854
  29   2.0000      -0.790640       -21.5144
  30   2.0000      -0.790154       -21.5012
  31   2.0000      -0.788057       -21.4441
  32   2.0000      -0.694489       -18.8980
  33   2.0000      -0.614062       -16.7095
  34   2.0000      -0.611771       -16.6471
  35   2.0000      -0.609730       -16.5916
  36   2.0000      -0.607075       -16.5193
  37   2.0000      -0.595093       -16.1933
  38   2.0000      -0.590333       -16.0638
  39   2.0000      -0.572930       -15.5902
  40   2.0000      -0.572001       -15.5649
  41   2.0000      -0.571558       -15.5529
  42   2.0000      -0.570720       -15.5301
  43   2.0000      -0.570115       -15.5136
  44   2.0000      -0.569191       -15.4885
  45   2.0000      -0.567401       -15.4398
  46   2.0000      -0.509021       -13.8512
  47   2.0000      -0.491494       -13.3742
  48   2.0000      -0.483471       -13.1559
  49   2.0000      -0.458334       -12.4719
  50   2.0000      -0.453790       -12.3482
  51   2.0000      -0.449950       -12.2437
  52   2.0000      -0.448618       -12.2075
  53   2.0000      -0.448135       -12.1944
  54   2.0000      -0.432838       -11.7781
  55   2.0000      -0.431673       -11.7464
  56   2.0000      -0.430004       -11.7010
  57   2.0000      -0.428500       -11.6601
  58   2.0000      -0.426201       -11.5975
  59   2.0000      -0.381836       -10.3903
  60   2.0000      -0.380085       -10.3426
  61   2.0000      -0.291875        -7.9423
  62   2.0000      -0.281409        -7.6575
  63   2.0000      -0.278571        -7.5803
  64   2.0000      -0.259720        -7.0673
  65   2.0000      -0.253303        -6.8927
  66   0.0000      -0.011409        -0.3104
  67   0.0000       0.012893         0.3508
  68   0.0000       0.039069         1.0631
  69   0.0000       0.052675         1.4334
  70   0.0000       0.055208         1.5023

MULLIKEN ATOMIC CHARGES
-----------------------
   0 Lu:    0.814341
   1 C :   -0.281995
   2 C :   -0.320592
   3 C :   -0.266423
   4 C :   -0.274322
   5 C :   -0.298293
   6 H :    0.229116
   7 H :    0.233350
   8 H :    0.247362
   9 H :    0.247647
  10 H :    0.230047
  11 C :   -0.288286
  12 C :   -0.305890
  13 C :   -0.342719
  14 C :   -0.241197
  15 H :    0.230551
  16 C :   -0.246059
  17 H :    0.230461
  18 H :    0.227771
  19 H :    0.242140
  20 H :    0.256684
  21 C :   -1.043405
  22 H :    0.205725
  23 H :    0.206561
  24 H :    0.202265
  25 C :   -0.964504
  26 H :    0.263196
  27 H :    0.259455
  28 H :    0.272722
  29 H :    0.274292
Sum of atomic charges:    0.0000000

LOEWDIN ATOMIC CHARGES
----------------------
   0 Lu:    0.024737
   1 C :   -0.143524
   2 C :   -0.151741
   3 C :   -0.134385
   4 C :   -0.149142
   5 C :   -0.153569
   6 H :    0.148592
   7 H :    0.149912
   8 H :    0.159531
   9 H :    0.158472
  10 H :    0.150351
  11 C :   -0.152906
  12 C :   -0.151422
  13 C :   -0.154271
  14 C :   -0.126422
  15 H :    0.148630
  16 C :   -0.130703
  17 H :    0.149955
  18 H :    0.149272
  19 H :    0.156808
  20 H :    0.163679
  21 C :   -0.655988
  22 H :    0.122899
  23 H :    0.127895
  24 H :    0.123326
  25 C :   -0.474538
  26 H :    0.183815
  27 H :    0.159327
  28 H :    0.151444
  29 H :    0.149966

  Mayer bond orders larger than 0.100000
B(  0-Lu,  1-C ) :   0.2465 B(  0-Lu,  2-C ) :   0.2866 B(  0-Lu,  3-C ) :   0.2405
B(  0-Lu,  4-C ) :   0.2339 B(  0-Lu,  5-C ) :   0.2606 B(  0-Lu, 11-C ) :   0.2506
B(  0-Lu, 12-C ) :   0.2654 B(  0-Lu, 13-C ) :   0.2958 B(  0-Lu, 14-C ) :   0.2388
B(  0-Lu, 16-C ) :   0.2454 B(  0-Lu, 21-C ) :   0.8091 B(  0-Lu, 25-C ) :   0.1458
B(  1-C ,  2-C ) :   1.2804 B(  1-C ,  5-C ) :   1.2988 B(  1-C ,  8-H ) :   0.9146
B(  2-C ,  3-C ) :   1.2870 B(  2-C ,  9-H ) :   0.9100 B(  3-C ,  4-C ) :   1.3194
B(  3-C , 10-H ) :   0.9213 B(  4-C ,  5-C ) :   1.2904 B(  4-C ,  6-H ) :   0.9199
B(  5-C ,  7-H ) :   0.9174 B( 11-C , 12-C ) :   1.2720 B( 11-C , 14-C ) :   1.3229
B( 11-C , 15-H ) :   0.9194 B( 12-C , 16-C ) :   1.3095 B( 12-C , 17-H ) :   0.9186
B( 13-C , 14-C ) :   1.2833 B( 13-C , 16-C ) :   1.2720 B( 13-C , 19-H ) :   0.9152
B( 14-C , 18-H ) :   0.9228 B( 16-C , 20-H ) :   0.9072 B( 21-C , 22-H ) :   0.9144
B( 21-C , 23-H ) :   0.9120 B( 21-C , 24-H ) :   0.9162 B( 25-C , 26-H ) :   0.8377
B( 25-C , 27-H ) :   0.8854 B( 25-C , 28-H ) :   0.9046 B( 25-C , 29-H ) :   0.8996

Dispersion correction           -0.017481454
FINAL SINGLE POINT ENERGY     -1702.375563464912
Dispersion correction            ... done

DIPOLE MOMENT
-------------
                                X             Y             Z
Electronic contribution:    -10.86818      -9.18965       9.52818
Nuclear contribution   :     10.97066      10.16307     -10.08221
                        -----------------------------------------
Total Dipole Moment    :      0.10248       0.97342      -0.55403
                        -----------------------------------------
Magnitude (a.u.)       :      1.12472
Magnitude (Debye)      :      2.85881

Rotational constants in cm-1:     0.028118     0.019731     0.017561
Rotational constants in MHz :   842.954353   591.534470   526.460367

                             ****ORCA TERMINATED NORMALLY****
TOTAL RUN TIME: 0 days 0 hours 8 minutes 38 seconds 963 msec
