                         Program Version 5.0.3 -  RELEASE  -
|  1> ! EnGrad PBEh-3c
|  2> %output
|  3> xyzfile=True
|  4> end
|  5> %scf
|  6> maxiter 250
|  7> end
|  8> %output
|  9> Print[P_Hirshfeld] = 1
| 10> end
| 11> % maxcore
| 12> 4000
| 13> *xyz 0 1
| 14> Lu  -0.07177818  -0.22600659   0.19529880
| 15> C    0.47005566   0.73638910   2.56273689
| 16> C    1.49644754  -0.17900641   2.24062017
| 17> C    2.31488290   0.40488218   1.25396698
| 18> C    1.77932166   1.66744424   0.93580552
| 19> C    0.63943405   1.87798780   1.74763353
| 20> H    2.20730467   2.38106341   0.24469538
| 21> H    0.02848765   2.76710842   1.76679514
| 22> H   -0.28062478   0.60390582   3.32127820
| 23> H    1.64857060  -1.14619576   2.70444350
| 24> H    3.23589368  -0.01051953   0.86840738
| 25> C    0.84949768  -0.08775179  -2.37126472
| 26> C   -0.39733867  -0.76301581  -2.38872060
| 27> C    1.08111826  -2.04309997  -1.21910988
| 28> C    1.76454908  -0.89357095  -1.66567928
| 29> H    1.07544758   0.84188464  -2.86829115
| 30> C   -0.25044326  -1.97764481  -1.68738240
| 31> H   -1.29076215  -0.42978007  -2.89138125
| 32> H    2.82188370  -0.70277534  -1.55920473
| 33> H    1.52677062  -2.87839175  -0.68969524
| 34> H   -1.02174888  -2.70522415  -1.51794690
| 35> C   -2.05588577  -1.49606861   1.15901702
| 36> H   -2.24505447  -1.28020363   2.22178598
| 37> H   -1.85522645  -2.58003365   1.15424888
| 38> H   -3.06302586  -1.42737418   0.71138427
| 39> C   -2.07108290   1.91245164  -0.83717482
| 40> H   -2.09914721   1.03542844  -0.13647719
| 41> H   -1.10681232   2.27733942  -1.05410962
| 42> H   -2.60827432   2.70908464  -0.38867954
| 43> H   -2.51656236   1.59944773  -1.74107693
| 44> *
| 45>
| 46>                          ****END OF INPUT****

CARTESIAN COORDINATES (ANGSTROEM)
---------------------------------
  Lu    -0.071778   -0.226007    0.195299
  C      0.470056    0.736389    2.562737
  C      1.496448   -0.179006    2.240620
  C      2.314883    0.404882    1.253967
  C      1.779322    1.667444    0.935806
  C      0.639434    1.877988    1.747634
  H      2.207305    2.381063    0.244695
  H      0.028488    2.767108    1.766795
  H     -0.280625    0.603906    3.321278
  H      1.648571   -1.146196    2.704444
  H      3.235894   -0.010520    0.868407
  C      0.849498   -0.087752   -2.371265
  C     -0.397339   -0.763016   -2.388721
  C      1.081118   -2.043100   -1.219110
  C      1.764549   -0.893571   -1.665679
  H      1.075448    0.841885   -2.868291
  C     -0.250443   -1.977645   -1.687382
  H     -1.290762   -0.429780   -2.891381
  H      2.821884   -0.702775   -1.559205
  H      1.526771   -2.878392   -0.689695
  H     -1.021749   -2.705224   -1.517947
  C     -2.055886   -1.496069    1.159017
  H     -2.245054   -1.280204    2.221786
  H     -1.855226   -2.580034    1.154249
  H     -3.063026   -1.427374    0.711384
  C     -2.071083    1.912452   -0.837175
  H     -2.099147    1.035428   -0.136477
  H     -1.106812    2.277339   -1.054110
  H     -2.608274    2.709085   -0.388680
  H     -2.516562    1.599448   -1.741077

 Total Charge           Charge          ....    0
 Multiplicity           Mult            ....    1
 Number of Electrons    NEL             ....  132
 Basis Dimension        Dim             ....  295

ORBITAL ENERGIES
----------------

  NO   OCC          E(Eh)            E(eV)
   0   2.0000     -19.264030      -524.2009
   1   2.0000     -12.636410      -343.8542
   2   2.0000     -12.634113      -343.7917
   3   2.0000     -12.633828      -343.7839
   4   2.0000     -10.450741      -284.3791
   5   2.0000     -10.447415      -284.2886
   6   2.0000     -10.447012      -284.2777
   7   2.0000     -10.446392      -284.2608
   8   2.0000     -10.446049      -284.2514
   9   2.0000     -10.445426      -284.2345
  10   2.0000     -10.445027      -284.2236
  11   2.0000     -10.442710      -284.1606
  12   2.0000     -10.442375      -284.1515
  13   2.0000     -10.441517      -284.1281
  14   2.0000     -10.440499      -284.1004
  15   2.0000     -10.364993      -282.0458
  16   2.0000      -5.905616      -160.7000
  17   2.0000      -5.905266      -160.6905
  18   2.0000      -5.904899      -160.6805
  19   2.0000      -5.903554      -160.6439
  20   2.0000      -5.903431      -160.6405
  21   2.0000      -2.446950       -66.5849
  22   2.0000      -1.284327       -34.9483
  23   2.0000      -1.281977       -34.8844
  24   2.0000      -1.271530       -34.6001
  25   2.0000      -0.977001       -26.5856
  26   2.0000      -0.969902       -26.3924
  27   2.0000      -0.825713       -22.4688
  28   2.0000      -0.793791       -21.6001
  29   2.0000      -0.791099       -21.5269
  30   2.0000      -0.790570       -21.5125
  31   2.0000      -0.788583       -21.4584
  32   2.0000      -0.693270       -18.8648
  33   2.0000      -0.614031       -16.7086
  34   2.0000      -0.611899       -16.6506
  35   2.0000      -0.609763       -16.5925
  36   2.0000      -0.607473       -16.5302
  37   2.0000      -0.595378       -16.2010
  38   2.0000      -0.590530       -16.0691
  39   2.0000      -0.573053       -15.5936
  40   2.0000      -0.572105       -15.5678
  41   2.0000      -0.571625       -15.5547
  42   2.0000      -0.570845       -15.5335
  43   2.0000      -0.570220       -15.5165
  44   2.0000      -0.569347       -15.4927
  45   2.0000      -0.567515       -15.4429
  46   2.0000      -0.501746       -13.6532
  47   2.0000      -0.494029       -13.4432
  48   2.0000      -0.488503       -13.2928
  49   2.0000      -0.459211       -12.4958
  50   2.0000      -0.453959       -12.3529
  51   2.0000      -0.449956       -12.2439
  52   2.0000      -0.449041       -12.2190
  53   2.0000      -0.448630       -12.2078
  54   2.0000      -0.432694       -11.7742
  55   2.0000      -0.431990       -11.7550
  56   2.0000      -0.430406       -11.7119
  57   2.0000      -0.429152       -11.6778
  58   2.0000      -0.427123       -11.6226
  59   2.0000      -0.381145       -10.3715
  60   2.0000      -0.379687       -10.3318
  61   2.0000      -0.292485        -7.9589
  62   2.0000      -0.281965        -7.6727
  63   2.0000      -0.279157        -7.5962
  64   2.0000      -0.259978        -7.0744
  65   2.0000      -0.251710        -6.8494
  66   0.0000      -0.012288        -0.3344
  67   0.0000       0.012984         0.3533
  68   0.0000       0.039455         1.0736
  69   0.0000       0.052521         1.4292
  70   0.0000       0.055694         1.5155

MULLIKEN ATOMIC CHARGES
-----------------------
   0 Lu:    0.801968
   1 C :   -0.281747
   2 C :   -0.325046
   3 C :   -0.261872
   4 C :   -0.279397
   5 C :   -0.292183
   6 H :    0.228940
   7 H :    0.233116
   8 H :    0.247796
   9 H :    0.248566
  10 H :    0.230567
  11 C :   -0.289547
  12 C :   -0.301434
  13 C :   -0.345006
  14 C :   -0.240348
  15 H :    0.230328
  16 C :   -0.246827
  17 H :    0.230221
  18 H :    0.227933
  19 H :    0.243210
  20 H :    0.257600
  21 C :   -1.038199
  22 H :    0.204519
  23 H :    0.203658
  24 H :    0.202205
  25 C :   -0.953157
  26 H :    0.257314
  27 H :    0.259300
  28 H :    0.273065
  29 H :    0.274456
Sum of atomic charges:   -0.0000000

LOEWDIN ATOMIC CHARGES
----------------------
   0 Lu:    0.016307
   1 C :   -0.143107
   2 C :   -0.152520
   3 C :   -0.133171
   4 C :   -0.149596
   5 C :   -0.152068
   6 H :    0.148952
   7 H :    0.149936
   8 H :    0.159955
   9 H :    0.158998
  10 H :    0.150394
  11 C :   -0.152679
  12 C :   -0.150379
  13 C :   -0.155053
  14 C :   -0.125882
  15 H :    0.148851
  16 C :   -0.130676
  17 H :    0.150157
  18 H :    0.149365
  19 H :    0.157311
  20 H :    0.164135
  21 C :   -0.656122
  22 H :    0.122226
  23 H :    0.126718
  24 H :    0.122993
  25 C :   -0.467251
  26 H :    0.183383
  27 H :    0.157352
  28 H :    0.151217
  29 H :    0.150254

  Mayer bond orders larger than 0.100000
B(  0-Lu,  1-C ) :   0.2466 B(  0-Lu,  2-C ) :   0.2900 B(  0-Lu,  3-C ) :   0.2417
B(  0-Lu,  4-C ) :   0.2347 B(  0-Lu,  5-C ) :   0.2592 B(  0-Lu, 11-C ) :   0.2503
B(  0-Lu, 12-C ) :   0.2640 B(  0-Lu, 13-C ) :   0.2994 B(  0-Lu, 14-C ) :   0.2401
B(  0-Lu, 16-C ) :   0.2458 B(  0-Lu, 21-C ) :   0.8079 B(  0-Lu, 25-C ) :   0.1533
B(  1-C ,  2-C ) :   1.2781 B(  1-C ,  5-C ) :   1.3006 B(  1-C ,  8-H ) :   0.9143
B(  2-C ,  3-C ) :   1.2857 B(  2-C ,  9-H ) :   0.9096 B(  3-C ,  4-C ) :   1.3189
B(  3-C , 10-H ) :   0.9208 B(  4-C ,  5-C ) :   1.2897 B(  4-C ,  6-H ) :   0.9208
B(  5-C ,  7-H ) :   0.9173 B( 11-C , 12-C ) :   1.2716 B( 11-C , 14-C ) :   1.3240
B( 11-C , 15-H ) :   0.9198 B( 12-C , 16-C ) :   1.3112 B( 12-C , 17-H ) :   0.9187
B( 13-C , 14-C ) :   1.2808 B( 13-C , 16-C ) :   1.2704 B( 13-C , 19-H ) :   0.9145
B( 14-C , 18-H ) :   0.9226 B( 16-C , 20-H ) :   0.9063 B( 21-C , 22-H ) :   0.9148
B( 21-C , 23-H ) :   0.9119 B( 21-C , 24-H ) :   0.9176 B( 25-C , 26-H ) :   0.8327
B( 25-C , 27-H ) :   0.8837 B( 25-C , 28-H ) :   0.9038 B( 25-C , 29-H ) :   0.8997

Dispersion correction           -0.017503375
FINAL SINGLE POINT ENERGY     -1702.374911527797
Dispersion correction            ... done

DIPOLE MOMENT
-------------
                                X             Y             Z
Electronic contribution:    -10.66800      -9.16741       9.42033
Nuclear contribution   :     10.80007      10.13427      -9.96829
                        -----------------------------------------
Total Dipole Moment    :      0.13208       0.96685      -0.54796
                        -----------------------------------------
Magnitude (a.u.)       :      1.11915
Magnitude (Debye)      :      2.84466

Rotational constants in cm-1:     0.028127     0.019763     0.017574
Rotational constants in MHz :   843.223827   592.466825   526.845625

                             ****ORCA TERMINATED NORMALLY****
TOTAL RUN TIME: 0 days 0 hours 8 minutes 25 seconds 67 msec
