                         Program Version 5.0.3 -  RELEASE  -
|  1> ! EnGrad PBEh-3c
|  2> %output
|  3> xyzfile=True
|  4> end
|  5> %scf
|  6> maxiter 250
|  7> end
|  8> %output
|  9> Print[P_Hirshfeld] = 1
| 10> end
| 11> % maxcore
| 12> 4000
| 13> *xyz 0 1
| 14> Lu  -0.06013753  -0.21471490   0.18189911
| 15> C    0.44944311   0.77989586   2.53276568
| 16> C    1.45574443  -0.16801660   2.22923712
| 17> C    2.30260684   0.39663546   1.25210646
| 18> C    1.80096130   1.66729808   0.91436237
| 19> C    0.65926717   1.90818228   1.71563800
| 20> H    2.28084952   2.37733993   0.25124601
| 21> H    0.07446207   2.82046479   1.72253869
| 22> H   -0.31750570   0.66970756   3.28380543
| 23> H    1.58129258  -1.13335355   2.70030579
| 24> H    3.21337312  -0.04891736   0.87356898
| 25> C    0.88014546  -0.07640633  -2.38061403
| 26> C   -0.37690684  -0.72942289  -2.41834418
| 27> C    1.06188766  -2.02768632  -1.21253399
| 28> C    1.76898353  -0.88921187  -1.65681037
| 29> H    1.14599162   0.83384484  -2.90314929
| 30> C   -0.26040500  -1.93526957  -1.70731029
| 31> H   -1.25480446  -0.37750586  -2.94156401
| 32> H    2.82766715  -0.71546749  -1.53378794
| 33> H    1.48091887  -2.85763917  -0.66204273
| 34> H   -1.05155651  -2.64900505  -1.53328930
| 35> C   -2.09070240  -1.48666158   1.16795297
| 36> H   -2.20395215  -1.32012015   2.25217291
| 37> H   -1.82598047  -2.56169340   1.10409080
| 38> H   -3.13676494  -1.44912425   0.79264726
| 39> C   -2.07249573   1.84788693  -0.80334660
| 40> H   -2.02016681   0.95260662  -0.12659043
| 41> H   -1.07321311   2.21273721  -1.02039735
| 42> H   -2.63728758   2.61806094  -0.27004951
| 43> H   -2.59084127   1.53542917  -1.71087261
| 44> *
| 45>
| 46>                          ****END OF INPUT****

CARTESIAN COORDINATES (ANGSTROEM)
---------------------------------
  Lu    -0.060138   -0.214715    0.181899
  C      0.449443    0.779896    2.532766
  C      1.455744   -0.168017    2.229237
  C      2.302607    0.396635    1.252106
  C      1.800961    1.667298    0.914362
  C      0.659267    1.908182    1.715638
  H      2.280850    2.377340    0.251246
  H      0.074462    2.820465    1.722539
  H     -0.317506    0.669708    3.283805
  H      1.581293   -1.133354    2.700306
  H      3.213373   -0.048917    0.873569
  C      0.880145   -0.076406   -2.380614
  C     -0.376907   -0.729423   -2.418344
  C      1.061888   -2.027686   -1.212534
  C      1.768984   -0.889212   -1.656810
  H      1.145992    0.833845   -2.903149
  C     -0.260405   -1.935270   -1.707310
  H     -1.254804   -0.377506   -2.941564
  H      2.827667   -0.715467   -1.533788
  H      1.480919   -2.857639   -0.662043
  H     -1.051557   -2.649005   -1.533289
  C     -2.090702   -1.486662    1.167953
  H     -2.203952   -1.320120    2.252173
  H     -1.825980   -2.561693    1.104091
  H     -3.136765   -1.449124    0.792647
  C     -2.072496    1.847887   -0.803347
  H     -2.020167    0.952607   -0.126590
  H     -1.073213    2.212737   -1.020397
  H     -2.637288    2.618061   -0.270050
  H     -2.590841    1.535429   -1.710873

 Total Charge           Charge          ....    0
 Multiplicity           Mult            ....    1
 Number of Electrons    NEL             ....  132
 Basis Dimension        Dim             ....  295

ORBITAL ENERGIES
----------------

  NO   OCC          E(Eh)            E(eV)
   0   2.0000     -19.264072      -524.2021
   1   2.0000     -12.636387      -343.8536
   2   2.0000     -12.634173      -343.7933
   3   2.0000     -12.633893      -343.7857
   4   2.0000     -10.461440      -284.6703
   5   2.0000     -10.449315      -284.3403
   6   2.0000     -10.447744      -284.2976
   7   2.0000     -10.447564      -284.2927
   8   2.0000     -10.447064      -284.2791
   9   2.0000     -10.446929      -284.2754
  10   2.0000     -10.446293      -284.2581
  11   2.0000     -10.443860      -284.1919
  12   2.0000     -10.443153      -284.1726
  13   2.0000     -10.442817      -284.1635
  14   2.0000     -10.441438      -284.1260
  15   2.0000     -10.366092      -282.0757
  16   2.0000      -5.905590      -160.6993
  17   2.0000      -5.905268      -160.6905
  18   2.0000      -5.904910      -160.6808
  19   2.0000      -5.903608      -160.6453
  20   2.0000      -5.903499      -160.6424
  21   2.0000      -2.447051       -66.5876
  22   2.0000      -1.284814       -34.9616
  23   2.0000      -1.282628       -34.9021
  24   2.0000      -1.271877       -34.6095
  25   2.0000      -0.978780       -26.6340
  26   2.0000      -0.971329       -26.4312
  27   2.0000      -0.816974       -22.2310
  28   2.0000      -0.795291       -21.6410
  29   2.0000      -0.792333       -21.5605
  30   2.0000      -0.791475       -21.5371
  31   2.0000      -0.789936       -21.4952
  32   2.0000      -0.688859       -18.7448
  33   2.0000      -0.614834       -16.7305
  34   2.0000      -0.612823       -16.6758
  35   2.0000      -0.610471       -16.6118
  36   2.0000      -0.608466       -16.5572
  37   2.0000      -0.596276       -16.2255
  38   2.0000      -0.591173       -16.0866
  39   2.0000      -0.573080       -15.5943
  40   2.0000      -0.572167       -15.5694
  41   2.0000      -0.571492       -15.5511
  42   2.0000      -0.570897       -15.5349
  43   2.0000      -0.570237       -15.5169
  44   2.0000      -0.569493       -15.4967
  45   2.0000      -0.567549       -15.4438
  46   2.0000      -0.493931       -13.4406
  47   2.0000      -0.490863       -13.3571
  48   2.0000      -0.485217       -13.2034
  49   2.0000      -0.460500       -12.5308
  50   2.0000      -0.454770       -12.3749
  51   2.0000      -0.450953       -12.2711
  52   2.0000      -0.450165       -12.2496
  53   2.0000      -0.449747       -12.2382
  54   2.0000      -0.433985       -11.8093
  55   2.0000      -0.432850       -11.7784
  56   2.0000      -0.430713       -11.7203
  57   2.0000      -0.429951       -11.6996
  58   2.0000      -0.428553       -11.6615
  59   2.0000      -0.378888       -10.3101
  60   2.0000      -0.377022       -10.2593
  61   2.0000      -0.294217        -8.0060
  62   2.0000      -0.283443        -7.7129
  63   2.0000      -0.280387        -7.6297
  64   2.0000      -0.261263        -7.1093
  65   2.0000      -0.245872        -6.6905
  66   0.0000      -0.014190        -0.3861
  67   0.0000       0.014820         0.4033
  68   0.0000       0.039483         1.0744
  69   0.0000       0.051796         1.4094
  70   0.0000       0.056417         1.5352

MULLIKEN ATOMIC CHARGES
-----------------------
   0 Lu:    0.762803
   1 C :   -0.277178
   2 C :   -0.337097
   3 C :   -0.251950
   4 C :   -0.287414
   5 C :   -0.281222
   6 H :    0.228407
   7 H :    0.232925
   8 H :    0.249340
   9 H :    0.251412
  10 H :    0.232267
  11 C :   -0.291811
  12 C :   -0.288923
  13 C :   -0.348813
  14 C :   -0.239265
  15 H :    0.229516
  16 C :   -0.249897
  17 H :    0.229977
  18 H :    0.228780
  19 H :    0.246483
  20 H :    0.260161
  21 C :   -1.021899
  22 H :    0.200821
  23 H :    0.194720
  24 H :    0.198961
  25 C :   -0.929226
  26 H :    0.267370
  27 H :    0.252983
  28 H :    0.268714
  29 H :    0.269055
Sum of atomic charges:   -0.0000000

LOEWDIN ATOMIC CHARGES
----------------------
   0 Lu:   -0.016576
   1 C :   -0.140567
   2 C :   -0.154392
   3 C :   -0.129960
   4 C :   -0.149453
   5 C :   -0.147801
   6 H :    0.149959
   7 H :    0.150129
   8 H :    0.161159
   9 H :    0.160698
  10 H :    0.150698
  11 C :   -0.151695
  12 C :   -0.145974
  13 C :   -0.156802
  14 C :   -0.123986
  15 H :    0.149246
  16 C :   -0.130621
  17 H :    0.150723
  18 H :    0.149590
  19 H :    0.158853
  20 H :    0.165437
  21 C :   -0.656890
  22 H :    0.119735
  23 H :    0.122870
  24 H :    0.121394
  25 C :   -0.455763
  26 H :    0.184806
  27 H :    0.159358
  28 H :    0.152983
  29 H :    0.152841

  Mayer bond orders larger than 0.100000
B(  0-Lu,  1-C ) :   0.2472 B(  0-Lu,  2-C ) :   0.3004 B(  0-Lu,  3-C ) :   0.2465
B(  0-Lu,  4-C ) :   0.2370 B(  0-Lu,  5-C ) :   0.2568 B(  0-Lu, 11-C ) :   0.2500
B(  0-Lu, 12-C ) :   0.2602 B(  0-Lu, 13-C ) :   0.3101 B(  0-Lu, 14-C ) :   0.2444
B(  0-Lu, 16-C ) :   0.2481 B(  0-Lu, 21-C ) :   0.8005 B(  0-Lu, 25-C ) :   0.1790
B(  1-C ,  2-C ) :   1.2713 B(  1-C ,  5-C ) :   1.3049 B(  1-C ,  8-H ) :   0.9135
B(  2-C ,  3-C ) :   1.2804 B(  2-C ,  9-H ) :   0.9082 B(  3-C ,  4-C ) :   1.3168
B(  3-C , 10-H ) :   0.9190 B(  4-C ,  5-C ) :   1.2874 B(  4-C ,  6-H ) :   0.9233
B(  5-C ,  7-H ) :   0.9176 B( 11-C , 12-C ) :   1.2710 B( 11-C , 14-C ) :   1.3253
B( 11-C , 15-H ) :   0.9215 B( 12-C , 16-C ) :   1.3157 B( 12-C , 17-H ) :   0.9190
B( 13-C , 14-C ) :   1.2747 B( 13-C , 16-C ) :   1.2639 B( 13-C , 19-H ) :   0.9120
B( 14-C , 18-H ) :   0.9221 B( 16-C , 20-H ) :   0.9039 B( 21-C , 22-H ) :   0.9154
B( 21-C , 23-H ) :   0.9111 B( 21-C , 24-H ) :   0.9225 B( 25-C , 26-H ) :   0.8029
B( 25-C , 27-H ) :   0.8796 B( 25-C , 28-H ) :   0.9030 B( 25-C , 29-H ) :   0.9016

Dispersion correction           -0.017600750
FINAL SINGLE POINT ENERGY     -1702.371991407383
Dispersion correction            ... done

DIPOLE MOMENT
-------------
                                X             Y             Z
Electronic contribution:     -9.94184      -8.76778       8.85753
Nuclear contribution   :     10.17333       9.72909      -9.40287
                        -----------------------------------------
Total Dipole Moment    :      0.23148       0.96131      -0.54534
                        -----------------------------------------
Magnitude (a.u.)       :      1.12920
Magnitude (Debye)      :      2.87021

Rotational constants in cm-1:     0.028337     0.019970     0.017621
Rotational constants in MHz :   849.526648   598.685980   528.265091

                             ****ORCA TERMINATED NORMALLY****
TOTAL RUN TIME: 0 days 0 hours 8 minutes 26 seconds 563 msec
