                         Program Version 5.0.3 -  RELEASE  -
|  1> ! EnGrad PBEh-3c
|  2> %output
|  3> xyzfile=True
|  4> end
|  5> %scf
|  6> maxiter 250
|  7> end
|  8> %output
|  9> Print[P_Hirshfeld] = 1
| 10> end
| 11> % maxcore
| 12> 4000
| 13> *xyz 0 1
| 14> Lu  -0.03855341  -0.19592006   0.16609223
| 15> C    0.43299178   0.80693277   2.50845437
| 16> C    1.42483632  -0.15646415   2.22023986
| 17> C    2.29236457   0.38879918   1.24946659
| 18> C    1.81472092   1.66616285   0.90330248
| 19> C    0.66918783   1.92405536   1.68526349
| 20> H    2.32555899   2.37175434   0.25644966
| 21> H    0.10931549   2.85524680   1.69571857
| 22> H   -0.34528003   0.71323269   3.25304882
| 23> H    1.53655321  -1.12283671   2.69739636
| 24> H    3.19384982  -0.07312950   0.87631145
| 25> C    0.90093032  -0.07133352  -2.38555544
| 26> C   -0.35962168  -0.70109723  -2.43211118
| 27> C    1.04653034  -2.01224057  -1.21144335
| 28> C    1.76866694  -0.88751746  -1.65169150
| 29> H    1.19207805   0.82689963  -2.92636835
| 30> C   -0.27085005  -1.90793247  -1.71411571
| 31> H   -1.22871812  -0.34398423  -2.97569196
| 32> H    2.83064559  -0.72125103  -1.51408413
| 33> H    1.45001985  -2.84319783  -0.64224454
| 34> H   -1.07004991  -2.61045335  -1.54685422
| 35> C   -2.11832903  -1.46398735   1.17188044
| 36> H   -2.17563446  -1.33742370   2.26513068
| 37> H   -1.81316941  -2.51820167   1.05345923
| 38> H   -3.18394536  -1.45722879   0.85453418
| 39> C   -2.05038030   1.80669588  -0.78372634
| 40> H   -2.00614436   0.83764468  -0.08708434
| 41> H   -1.07504335   2.18234483  -1.01655860
| 42> H   -2.62388048   2.52139800  -0.20204502
| 43> H   -2.61284937   1.49936892  -1.66214162
| 44> *
| 45>
| 46>                          ****END OF INPUT****

CARTESIAN COORDINATES (ANGSTROEM)
---------------------------------
  Lu    -0.038553   -0.195920    0.166092
  C      0.432992    0.806933    2.508454
  C      1.424836   -0.156464    2.220240
  C      2.292365    0.388799    1.249467
  C      1.814721    1.666163    0.903302
  C      0.669188    1.924055    1.685263
  H      2.325559    2.371754    0.256450
  H      0.109315    2.855247    1.695719
  H     -0.345280    0.713233    3.253049
  H      1.536553   -1.122837    2.697396
  H      3.193850   -0.073130    0.876311
  C      0.900930   -0.071334   -2.385555
  C     -0.359622   -0.701097   -2.432111
  C      1.046530   -2.012241   -1.211443
  C      1.768667   -0.887517   -1.651692
  H      1.192078    0.826900   -2.926368
  C     -0.270850   -1.907932   -1.714116
  H     -1.228718   -0.343984   -2.975692
  H      2.830646   -0.721251   -1.514084
  H      1.450020   -2.843198   -0.642245
  H     -1.070050   -2.610453   -1.546854
  C     -2.118329   -1.463987    1.171880
  H     -2.175634   -1.337424    2.265131
  H     -1.813169   -2.518202    1.053459
  H     -3.183945   -1.457229    0.854534
  C     -2.050380    1.806696   -0.783726
  H     -2.006144    0.837645   -0.087084
  H     -1.075043    2.182345   -1.016559
  H     -2.623880    2.521398   -0.202045
  H     -2.612849    1.499369   -1.662142

 Total Charge           Charge          ....    0
 Multiplicity           Mult            ....    1
 Number of Electrons    NEL             ....  132
 Basis Dimension        Dim             ....  295

ORBITAL ENERGIES
----------------

  NO   OCC          E(Eh)            E(eV)
   0   2.0000     -19.262003      -524.1458
   1   2.0000     -12.634201      -343.7941
   2   2.0000     -12.632153      -343.7384
   3   2.0000     -12.631851      -343.7301
   4   2.0000     -10.462919      -284.7105
   5   2.0000     -10.449731      -284.3516
   6   2.0000     -10.448148      -284.3086
   7   2.0000     -10.447618      -284.2942
   8   2.0000     -10.447509      -284.2912
   9   2.0000     -10.447121      -284.2806
  10   2.0000     -10.446593      -284.2662
  11   2.0000     -10.444528      -284.2101
  12   2.0000     -10.443836      -284.1912
  13   2.0000     -10.443164      -284.1729
  14   2.0000     -10.441532      -284.1285
  15   2.0000     -10.365086      -282.0483
  16   2.0000      -5.903407      -160.6399
  17   2.0000      -5.903133      -160.6324
  18   2.0000      -5.902770      -160.6225
  19   2.0000      -5.901562      -160.5897
  20   2.0000      -5.901478      -160.5874
  21   2.0000      -2.445074       -66.5339
  22   2.0000      -1.283027       -34.9129
  23   2.0000      -1.281650       -34.8755
  24   2.0000      -1.270608       -34.5750
  25   2.0000      -0.981482       -26.7075
  26   2.0000      -0.973445       -26.4888
  27   2.0000      -0.812353       -22.1053
  28   2.0000      -0.796345       -21.6697
  29   2.0000      -0.793840       -21.6015
  30   2.0000      -0.792908       -21.5761
  31   2.0000      -0.791187       -21.5293
  32   2.0000      -0.687626       -18.7112
  33   2.0000      -0.615365       -16.7449
  34   2.0000      -0.613470       -16.6934
  35   2.0000      -0.611121       -16.6295
  36   2.0000      -0.608491       -16.5579
  37   2.0000      -0.597244       -16.2518
  38   2.0000      -0.592006       -16.1093
  39   2.0000      -0.570930       -15.5358
  40   2.0000      -0.570053       -15.5119
  41   2.0000      -0.569234       -15.4896
  42   2.0000      -0.568839       -15.4789
  43   2.0000      -0.568172       -15.4607
  44   2.0000      -0.567563       -15.4442
  45   2.0000      -0.565597       -15.3907
  46   2.0000      -0.500758       -13.6263
  47   2.0000      -0.484681       -13.1888
  48   2.0000      -0.479172       -13.0389
  49   2.0000      -0.459715       -12.5095
  50   2.0000      -0.454941       -12.3796
  51   2.0000      -0.452097       -12.3022
  52   2.0000      -0.450459       -12.2576
  53   2.0000      -0.449884       -12.2420
  54   2.0000      -0.435142       -11.8408
  55   2.0000      -0.433101       -11.7853
  56   2.0000      -0.431768       -11.7490
  57   2.0000      -0.431077       -11.7302
  58   2.0000      -0.429695       -11.6926
  59   2.0000      -0.378435       -10.2977
  60   2.0000      -0.375495       -10.2177
  61   2.0000      -0.295014        -8.0277
  62   2.0000      -0.285549        -7.7702
  63   2.0000      -0.281758        -7.6670
  64   2.0000      -0.262761        -7.1501
  65   2.0000      -0.239852        -6.5267
  66   0.0000      -0.014610        -0.3976
  67   0.0000       0.017430         0.4743
  68   0.0000       0.040168         1.0930
  69   0.0000       0.052158         1.4193
  70   0.0000       0.057047         1.5523

MULLIKEN ATOMIC CHARGES
-----------------------
   0 Lu:    0.729511
   1 C :   -0.267330
   2 C :   -0.341159
   3 C :   -0.253066
   4 C :   -0.283460
   5 C :   -0.282904
   6 H :    0.228699
   7 H :    0.232348
   8 H :    0.250302
   9 H :    0.252702
  10 H :    0.234063
  11 C :   -0.288772
  12 C :   -0.284142
  13 C :   -0.346635
  14 C :   -0.241581
  15 H :    0.229049
  16 C :   -0.251656
  17 H :    0.229622
  18 H :    0.229767
  19 H :    0.247754
  20 H :    0.260566
  21 C :   -1.012816
  22 H :    0.198201
  23 H :    0.191454
  24 H :    0.197133
  25 C :   -0.925335
  26 H :    0.266501
  27 H :    0.257727
  28 H :    0.271932
  29 H :    0.271524
Sum of atomic charges:   -0.0000000

LOEWDIN ATOMIC CHARGES
----------------------
   0 Lu:   -0.058058
   1 C :   -0.136493
   2 C :   -0.153004
   3 C :   -0.129447
   4 C :   -0.146437
   5 C :   -0.144982
   6 H :    0.150728
   7 H :    0.150645
   8 H :    0.162224
   9 H :    0.161744
  10 H :    0.151318
  11 C :   -0.149843
  12 C :   -0.141763
  13 C :   -0.155622
  14 C :   -0.124118
  15 H :    0.149855
  16 C :   -0.130167
  17 H :    0.151095
  18 H :    0.150297
  19 H :    0.159764
  20 H :    0.165835
  21 C :   -0.659013
  22 H :    0.117681
  23 H :    0.120659
  24 H :    0.119970
  25 C :   -0.452034
  26 H :    0.202076
  27 H :    0.161440
  28 H :    0.152658
  29 H :    0.152994

  Mayer bond orders larger than 0.100000
B(  0-Lu,  1-C ) :   0.2472 B(  0-Lu,  2-C ) :   0.3049 B(  0-Lu,  3-C ) :   0.2541
B(  0-Lu,  4-C ) :   0.2411 B(  0-Lu,  5-C ) :   0.2575 B(  0-Lu, 11-C ) :   0.2506
B(  0-Lu, 12-C ) :   0.2587 B(  0-Lu, 13-C ) :   0.3143 B(  0-Lu, 14-C ) :   0.2502
B(  0-Lu, 16-C ) :   0.2505 B(  0-Lu, 21-C ) :   0.7819 B(  0-Lu, 25-C ) :   0.2052
B(  0-Lu, 26-H ) :   0.1067 B(  1-C ,  2-C ) :   1.2714 B(  1-C ,  5-C ) :   1.3032
B(  1-C ,  8-H ) :   0.9131 B(  2-C ,  3-C ) :   1.2759 B(  2-C ,  9-H ) :   0.9075
B(  3-C ,  4-C ) :   1.3115 B(  3-C , 10-H ) :   0.9178 B(  4-C ,  5-C ) :   1.2883
B(  4-C ,  6-H ) :   0.9240 B(  5-C ,  7-H ) :   0.9191 B( 11-C , 12-C ) :   1.2748
B( 11-C , 14-C ) :   1.3208 B( 11-C , 15-H ) :   0.9222 B( 12-C , 16-C ) :   1.3145
B( 12-C , 17-H ) :   0.9197 B( 13-C , 14-C ) :   1.2723 B( 13-C , 16-C ) :   1.2623
B( 13-C , 19-H ) :   0.9099 B( 14-C , 18-H ) :   0.9211 B( 16-C , 20-H ) :   0.9042
B( 21-C , 22-H ) :   0.9167 B( 21-C , 23-H ) :   0.9099 B( 21-C , 24-H ) :   0.9259
B( 25-C , 26-H ) :   0.7793 B( 25-C , 27-H ) :   0.8736 B( 25-C , 28-H ) :   0.8985
B( 25-C , 29-H ) :   0.8984

Dispersion correction           -0.017708923
FINAL SINGLE POINT ENERGY     -1702.363764855332
Dispersion correction            ... done

DIPOLE MOMENT
-------------
                                X             Y             Z
Electronic contribution:     -8.74881      -7.97744       8.15158
Nuclear contribution   :      9.07117       8.92600      -8.69850
                        -----------------------------------------
Total Dipole Moment    :      0.32236       0.94857      -0.54691
                        -----------------------------------------
Magnitude (a.u.)       :      1.14141
Magnitude (Debye)      :      2.90122

Rotational constants in cm-1:     0.028664     0.020198     0.017722
Rotational constants in MHz :   859.324968   605.522979   531.304951

                             ****ORCA TERMINATED NORMALLY****
TOTAL RUN TIME: 0 days 0 hours 8 minutes 29 seconds 339 msec
