                         Program Version 5.0.3 -  RELEASE  -
|  1> ! EnGrad PBEh-3c
|  2> %output
|  3> xyzfile=True
|  4> end
|  5> %scf
|  6> maxiter 250
|  7> end
|  8> %output
|  9> Print[P_Hirshfeld] = 1
| 10> end
| 11> % maxcore
| 12> 4000
| 13> *xyz -1 1
| 14> C   -2.09244284  -0.01675202   0.62360907
| 15> C   -1.77938343   1.02232041   1.49969857
| 16> C   -3.44209276  -0.25135208   0.36400114
| 17> C   -4.44228840   0.64964314   0.69863894
| 18> C   -4.11561488   1.74385420   1.47397761
| 19> C   -2.78614307   1.96349909   1.77201235
| 20> H   -2.51862800  -2.08091766  -2.13263509
| 21> H   -3.80957077  -1.25190058   0.17547381
| 22> H   -2.57590337   2.89845137   2.28667246
| 23> H   -5.48080833   0.44533496   0.46463888
| 24> H   -4.89223662   2.42970431   1.78985292
| 25> C   -0.42657014   1.35026773   2.07834779
| 26> C    0.76620868   0.41073465   2.05831335
| 27> H   -0.59636091   1.58545682   3.13912036
| 28> H   -0.13706731   2.30031222   1.61963516
| 29> C    1.71698256   0.65840765   0.91950778
| 30> H    0.41783595  -0.62447853   2.05767964
| 31> H    1.34350623   0.48432524   2.99116407
| 32> C    1.46522928   0.12297578  -0.35045557
| 33> C    2.44908333   0.34898139  -1.31644308
| 34> C    3.50201096   1.24145022  -1.13365274
| 35> C    2.88695619   1.38826607   1.15745022
| 36> C    3.65229287   1.85843192   0.09730842
| 37> H    2.49306338  -0.24777306  -2.21979627
| 38> H    4.21361256   1.43843307  -1.92761325
| 39> H    3.09787653   1.76461437   2.15457734
| 40> H    4.36837239   2.66059344   0.22838135
| 41> Pd   0.10032870  -1.29168789  -0.58912272
| 42> Br  -1.53504368  -3.74563949  -0.35737292
| 43> P    1.45965685  -2.99426029  -0.08889518
| 44> H    1.32280675  -3.64349442   1.15482940
| 45> C    0.23619683  -1.49754684  -3.80919885
| 46> O    1.35305898  -1.77482501  -4.17729758
| 47> O   -0.54751221  -2.37246293  -3.27282004
| 48> O   -0.37982729  -0.34347865  -4.12174230
| 49> H    2.84814416  -2.77635359   0.04576779
| 50> H    1.58443634  -4.12972885  -0.90974888
| 51> H    0.27981979   0.27659267  -4.44385071
| 52> *
| 53>
| 54>                          ****END OF INPUT****

CARTESIAN COORDINATES (ANGSTROEM)
---------------------------------
  C     -2.092443   -0.016752    0.623609
  C     -1.779383    1.022320    1.499699
  C     -3.442093   -0.251352    0.364001
  C     -4.442288    0.649643    0.698639
  C     -4.115615    1.743854    1.473978
  C     -2.786143    1.963499    1.772012
  H     -2.518628   -2.080918   -2.132635
  H     -3.809571   -1.251901    0.175474
  H     -2.575903    2.898451    2.286672
  H     -5.480808    0.445335    0.464639
  H     -4.892237    2.429704    1.789853
  C     -0.426570    1.350268    2.078348
  C      0.766209    0.410735    2.058313
  H     -0.596361    1.585457    3.139120
  H     -0.137067    2.300312    1.619635
  C      1.716983    0.658408    0.919508
  H      0.417836   -0.624479    2.057680
  H      1.343506    0.484325    2.991164
  C      1.465229    0.122976   -0.350456
  C      2.449083    0.348981   -1.316443
  C      3.502011    1.241450   -1.133653
  C      2.886956    1.388266    1.157450
  C      3.652293    1.858432    0.097308
  H      2.493063   -0.247773   -2.219796
  H      4.213613    1.438433   -1.927613
  H      3.097877    1.764614    2.154577
  H      4.368372    2.660593    0.228381
  Pd     0.100329   -1.291688   -0.589123
  Br    -1.535044   -3.745639   -0.357373
  P      1.459657   -2.994260   -0.088895
  H      1.322807   -3.643494    1.154829
  C      0.236197   -1.497547   -3.809199
  O      1.353059   -1.774825   -4.177298
  O     -0.547512   -2.372463   -3.272820
  O     -0.379827   -0.343479   -4.121742
  H      2.848144   -2.776354    0.045768
  H      1.584436   -4.129729   -0.909749
  H      0.279820    0.276593   -4.443851

 Total Charge           Charge          ....   -1
 Multiplicity           Mult            ....    1
 Number of Electrons    NEL             ....  200
 Basis Dimension        Dim             ....  385

ORBITAL ENERGIES
----------------

  NO   OCC          E(Eh)            E(eV)
   0   2.0000    -484.372397    -13180.4430
   1   2.0000     -77.670953     -2113.5341
   2   2.0000     -63.033350     -1715.2246
   3   2.0000     -56.736689     -1543.8838
   4   2.0000     -56.736308     -1543.8734
   5   2.0000     -56.735877     -1543.8617
   6   2.0000     -19.400617      -527.9176
   7   2.0000     -19.344227      -526.3832
   8   2.0000     -19.324488      -525.8461
   9   2.0000     -10.456175      -284.5270
  10   2.0000     -10.351316      -281.6736
  11   2.0000     -10.347744      -281.5764
  12   2.0000     -10.345579      -281.5175
  13   2.0000     -10.344530      -281.4890
  14   2.0000     -10.342603      -281.4365
  15   2.0000     -10.335475      -281.2426
  16   2.0000     -10.331416      -281.1321
  17   2.0000     -10.327836      -281.0347
  18   2.0000     -10.326875      -281.0085
  19   2.0000     -10.320332      -280.8305
  20   2.0000     -10.319504      -280.8080
  21   2.0000     -10.316454      -280.7250
  22   2.0000     -10.309517      -280.5362
  23   2.0000     -10.307290      -280.4756
  24   2.0000      -8.860071      -241.0948
  25   2.0000      -6.745732      -183.5607
  26   2.0000      -6.629674      -180.4026
  27   2.0000      -6.626047      -180.3039
  28   2.0000      -6.622606      -180.2103
  29   2.0000      -4.836776      -131.6154
  30   2.0000      -4.836319      -131.6029
  31   2.0000      -4.835070      -131.5690
  32   2.0000      -3.527413       -95.9858
  33   2.0000      -2.644053       -71.9483
  34   2.0000      -2.643560       -71.9349
  35   2.0000      -2.640689       -71.8568
  36   2.0000      -2.637580       -71.7722
  37   2.0000      -2.637141       -71.7602
  38   2.0000      -2.176624       -59.2289
  39   2.0000      -2.167282       -58.9748
  40   2.0000      -2.143902       -58.3385
  41   2.0000      -1.094579       -29.7850
  42   2.0000      -0.986358       -26.8402
  43   2.0000      -0.929701       -25.2984
  44   2.0000      -0.853118       -23.2145
  45   2.0000      -0.827543       -22.5186
  46   2.0000      -0.779359       -21.2074
  47   2.0000      -0.732553       -19.9338
  48   2.0000      -0.725633       -19.7455
  49   2.0000      -0.695827       -18.9344
  50   2.0000      -0.679989       -18.5034
  51   2.0000      -0.674225       -18.3466
  52   2.0000      -0.640047       -17.4166
  53   2.0000      -0.607839       -16.5401
  54   2.0000      -0.571282       -15.5454
  55   2.0000      -0.552842       -15.0436
  56   2.0000      -0.546215       -14.8633
  57   2.0000      -0.541290       -14.7292
  58   2.0000      -0.511049       -13.9064
  59   2.0000      -0.467092       -12.7102
  60   2.0000      -0.444864       -12.1054
  61   2.0000      -0.423258       -11.5174
  62   2.0000      -0.413901       -11.2628
  63   2.0000      -0.413014       -11.2387
  64   2.0000      -0.396817       -10.7979
  65   2.0000      -0.391593       -10.6558
  66   2.0000      -0.389457       -10.5977
  67   2.0000      -0.384542       -10.4639
  68   2.0000      -0.375887       -10.2284
  69   2.0000      -0.365794        -9.9538
  70   2.0000      -0.365010        -9.9324
  71   2.0000      -0.357715        -9.7339
  72   2.0000      -0.350430        -9.5357
  73   2.0000      -0.336749        -9.1634
  74   2.0000      -0.331245        -9.0136
  75   2.0000      -0.328053        -8.9268
  76   2.0000      -0.322076        -8.7641
  77   2.0000      -0.317544        -8.6408
  78   2.0000      -0.300010        -8.1637
  79   2.0000      -0.294283        -8.0079
  80   2.0000      -0.284045        -7.7293
  81   2.0000      -0.275396        -7.4939
  82   2.0000      -0.265683        -7.2296
  83   2.0000      -0.257176        -6.9981
  84   2.0000      -0.254732        -6.9316
  85   2.0000      -0.250667        -6.8210
  86   2.0000      -0.227976        -6.2035
  87   2.0000      -0.226185        -6.1548
  88   2.0000      -0.219064        -5.9610
  89   2.0000      -0.214516        -5.8373
  90   2.0000      -0.205334        -5.5874
  91   2.0000      -0.184838        -5.0297
  92   2.0000      -0.183687        -4.9984
  93   2.0000      -0.178928        -4.8689
  94   2.0000      -0.169995        -4.6258
  95   2.0000      -0.165948        -4.5157
  96   2.0000      -0.158434        -4.3112
  97   2.0000      -0.155454        -4.2301
  98   2.0000      -0.148340        -4.0365
  99   2.0000      -0.094827        -2.5804
 100   0.0000      -0.030035        -0.8173
 101   0.0000       0.050978         1.3872
 102   0.0000       0.117336         3.1929
 103   0.0000       0.128215         3.4889
 104   0.0000       0.140950         3.8355

MULLIKEN ATOMIC CHARGES
-----------------------
   0 C :   -0.091153
   1 C :    0.028429
   2 C :   -0.323141
   3 C :   -0.224525
   4 C :   -0.222596
   5 C :   -0.246483
   6 H :    0.260467
   7 H :    0.204666
   8 H :    0.164550
   9 H :    0.173319
  10 H :    0.171855
  11 C :   -0.451446
  12 C :   -0.523238
  13 H :    0.202615
  14 H :    0.233220
  15 C :    0.098592
  16 H :    0.277614
  17 H :    0.201650
  18 C :   -0.099948
  19 C :   -0.292231
  20 C :   -0.222704
  21 C :   -0.276105
  22 C :   -0.235534
  23 H :    0.253652
  24 H :    0.194779
  25 H :    0.182865
  26 H :    0.189592
  27 Pd:    0.124082
  28 Br:   -0.395515
  29 P :   -0.180752
  30 H :    0.115890
  31 C :    0.647912
  32 O :   -0.494312
  33 O :   -0.488578
  34 O :   -0.597964
  35 H :    0.081538
  36 H :    0.138827
  37 H :    0.420113
Sum of atomic charges:   -1.0000000

LOEWDIN ATOMIC CHARGES
----------------------
   0 C :   -0.109973
   1 C :   -0.065566
   2 C :   -0.164749
   3 C :   -0.168204
   4 C :   -0.173076
   5 C :   -0.150912
   6 H :    0.294130
   7 H :    0.128403
   8 H :    0.112953
   9 H :    0.113490
  10 H :    0.113481
  11 C :   -0.218506
  12 C :   -0.212380
  13 H :    0.125235
  14 H :    0.139146
  15 C :   -0.030146
  16 H :    0.161578
  17 H :    0.118185
  18 C :    0.006218
  19 C :   -0.126683
  20 C :   -0.156022
  21 C :   -0.147484
  22 C :   -0.155429
  23 H :    0.157695
  24 H :    0.125381
  25 H :    0.122309
  26 H :    0.121276
  27 Pd:   -0.752878
  28 Br:   -0.236831
  29 P :    0.380130
  30 H :    0.050844
  31 C :    0.078237
  32 O :   -0.303784
  33 O :   -0.273488
  34 O :   -0.311769
  35 H :    0.024992
  36 H :    0.063337
  37 H :    0.320861

  Mayer bond orders larger than 0.100000
B(  0-C ,  1-C ) :   1.4562 B(  0-C ,  2-C ) :   1.4118 B(  0-C , 27-Pd) :   0.5233
B(  1-C ,  5-C ) :   1.3418 B(  1-C , 11-C ) :   0.9603 B(  2-C ,  3-C ) :   1.4307
B(  2-C ,  7-H ) :   0.9155 B(  3-C ,  4-C ) :   1.4157 B(  3-C ,  9-H ) :   0.9278
B(  4-C ,  5-C ) :   1.4690 B(  4-C , 10-H ) :   0.9286 B(  5-C ,  8-H ) :   0.9287
B(  6-H , 28-Br) :   0.3867 B(  6-H , 33-O ) :   0.3361 B( 11-C , 12-C ) :   0.9496
B( 11-C , 13-H ) :   0.9264 B( 11-C , 14-H ) :   0.9123 B( 12-C , 15-C ) :   0.9676
B( 12-C , 16-H ) :   0.8789 B( 12-C , 17-H ) :   0.9303 B( 15-C , 18-C ) :   1.3356
B( 15-C , 21-C ) :   1.4098 B( 18-C , 19-C ) :   1.3812 B( 18-C , 27-Pd) :   0.8589
B( 19-C , 20-C ) :   1.4120 B( 19-C , 23-H ) :   0.8840 B( 20-C , 22-C ) :   1.4359
B( 20-C , 24-H ) :   0.9250 B( 21-C , 22-C ) :   1.4201 B( 21-C , 25-H ) :   0.9265
B( 22-C , 26-H ) :   0.9266 B( 27-Pd, 28-Br) :   0.2484 B( 27-Pd, 29-P ) :   0.6228
B( 27-Pd, 33-O ) :   0.1403 B( 29-P , 30-H ) :   0.9285 B( 29-P , 35-H ) :   0.9157
B( 29-P , 36-H ) :   0.9261 B( 31-C , 32-O ) :   1.8276 B( 31-C , 33-O ) :   1.4231
B( 31-C , 34-O ) :   1.0610 B( 34-O , 37-H ) :   0.7737

Dispersion correction           -0.031394613
FINAL SINGLE POINT ENERGY     -3847.438163911397
Dispersion correction            ... done

DIPOLE MOMENT
-------------
                                X             Y             Z
Electronic contribution:      4.58686     -62.81781     -20.78893
Nuclear contribution   :     -3.26084      63.33743      22.36657
                        -----------------------------------------
Total Dipole Moment    :      1.32602       0.51962       1.57764
                        -----------------------------------------
Magnitude (a.u.)       :      2.12539
Magnitude (Debye)      :      5.40232

Rotational constants in cm-1:     0.006512     0.006386     0.004438
Rotational constants in MHz :   195.217880   191.452897   133.048673

                             ****ORCA TERMINATED NORMALLY****
TOTAL RUN TIME: 0 days 0 hours 27 minutes 19 seconds 607 msec
