                         Program Version 5.0.3 -  RELEASE  -
|  1> ! EnGrad PBEh-3c
|  2> %output
|  3> xyzfile=True
|  4> end
|  5> %scf
|  6> maxiter 250
|  7> end
|  8> %output
|  9> Print[P_Hirshfeld] = 1
| 10> end
| 11> % maxcore
| 12> 4000
| 13> *xyz -1 1
| 14> C   -2.03780171  -0.04539427   0.63468638
| 15> C   -1.79524404   1.03541208   1.44755870
| 16> C   -3.47050273  -0.27580250   0.39632071
| 17> C   -4.45610839   0.62560252   0.74757716
| 18> C   -4.12142465   1.75518141   1.45723789
| 19> C   -2.80389343   1.96481617   1.81509533
| 20> H   -2.44395322  -2.07884021  -2.10363296
| 21> H   -3.80271454  -1.26764907   0.15339269
| 22> H   -2.56597464   2.89382956   2.28731073
| 23> H   -5.49224414   0.42832452   0.49259122
| 24> H   -4.89280215   2.43133929   1.80622634
| 25> C   -0.42636017   1.39150094   2.08182143
| 26> C    0.77441579   0.38401465   2.05077324
| 27> H   -0.59065066   1.61796466   3.10469080
| 28> H   -0.13652718   2.29462791   1.58297703
| 29> C    1.71941881   0.63711127   0.92865526
| 30> H    0.41111266  -0.62163117   2.04595005
| 31> H    1.32695971   0.50030767   2.98241469
| 32> C    1.51134067   0.09723225  -0.34703621
| 33> C    2.46788703   0.32361737  -1.33779555
| 34> C    3.49777583   1.24848399  -1.12543212
| 35> C    2.85428722   1.43305753   1.14373319
| 36> C    3.67064764   1.83455738   0.09779943
| 37> H    2.49014214  -0.25138890  -2.22862758
| 38> H    4.21902519   1.43263850  -1.92954023
| 39> H    3.08677349   1.76561443   2.15235523
| 40> H    4.38504237   2.64619377   0.23576981
| 41> Pd   0.00979568  -1.27606537  -0.56375969
| 42> Br  -1.55586520  -3.70349544  -0.41154414
| 43> P    1.50494167  -3.00470441  -0.09069107
| 44> H    1.29590121  -3.63607903   1.15591376
| 45> C    0.15292217  -1.58058640  -3.82151848
| 46> O    1.41638616  -1.75001522  -4.17776649
| 47> O   -0.56096911  -2.31156490  -3.24947373
| 48> O   -0.36663126  -0.31051180  -4.11941952
| 49> H    2.84679405  -2.77502043   0.06567865
| 50> H    1.58093973  -4.12979929  -0.89834328
| 51> H    0.29790697   0.27695685  -4.46191230
| 52> *
| 53>
| 54>                          ****END OF INPUT****

CARTESIAN COORDINATES (ANGSTROEM)
---------------------------------
  C     -2.037802   -0.045394    0.634686
  C     -1.795244    1.035412    1.447559
  C     -3.470503   -0.275802    0.396321
  C     -4.456108    0.625603    0.747577
  C     -4.121425    1.755181    1.457238
  C     -2.803893    1.964816    1.815095
  H     -2.443953   -2.078840   -2.103633
  H     -3.802715   -1.267649    0.153393
  H     -2.565975    2.893830    2.287311
  H     -5.492244    0.428325    0.492591
  H     -4.892802    2.431339    1.806226
  C     -0.426360    1.391501    2.081821
  C      0.774416    0.384015    2.050773
  H     -0.590651    1.617965    3.104691
  H     -0.136527    2.294628    1.582977
  C      1.719419    0.637111    0.928655
  H      0.411113   -0.621631    2.045950
  H      1.326960    0.500308    2.982415
  C      1.511341    0.097232   -0.347036
  C      2.467887    0.323617   -1.337796
  C      3.497776    1.248484   -1.125432
  C      2.854287    1.433058    1.143733
  C      3.670648    1.834557    0.097799
  H      2.490142   -0.251389   -2.228628
  H      4.219025    1.432638   -1.929540
  H      3.086773    1.765614    2.152355
  H      4.385042    2.646194    0.235770
  Pd     0.009796   -1.276065   -0.563760
  Br    -1.555865   -3.703495   -0.411544
  P      1.504942   -3.004704   -0.090691
  H      1.295901   -3.636079    1.155914
  C      0.152922   -1.580586   -3.821518
  O      1.416386   -1.750015   -4.177766
  O     -0.560969   -2.311565   -3.249474
  O     -0.366631   -0.310512   -4.119420
  H      2.846794   -2.775020    0.065679
  H      1.580940   -4.129799   -0.898343
  H      0.297907    0.276957   -4.461912

 Total Charge           Charge          ....   -1
 Multiplicity           Mult            ....    1
 Number of Electrons    NEL             ....  200
 Basis Dimension        Dim             ....  385

ORBITAL ENERGIES
----------------

  NO   OCC          E(Eh)            E(eV)
   0   2.0000    -484.393770    -13181.0246
   1   2.0000     -77.672976     -2113.5891
   2   2.0000     -63.054594     -1715.8027
   3   2.0000     -56.758088     -1544.4661
   4   2.0000     -56.757465     -1544.4491
   5   2.0000     -56.757036     -1544.4375
   6   2.0000     -19.366816      -526.9979
   7   2.0000     -19.350348      -526.5497
   8   2.0000     -19.291607      -524.9513
   9   2.0000     -10.444741      -284.2159
  10   2.0000     -10.354808      -281.7687
  11   2.0000     -10.347382      -281.5666
  12   2.0000     -10.344148      -281.4786
  13   2.0000     -10.343353      -281.4569
  14   2.0000     -10.342009      -281.4204
  15   2.0000     -10.333036      -281.1762
  16   2.0000     -10.330047      -281.0949
  17   2.0000     -10.325354      -280.9672
  18   2.0000     -10.323769      -280.9240
  19   2.0000     -10.321377      -280.8589
  20   2.0000     -10.320225      -280.8276
  21   2.0000     -10.318629      -280.7842
  22   2.0000     -10.317999      -280.7670
  23   2.0000     -10.312593      -280.6199
  24   2.0000      -8.881260      -241.6714
  25   2.0000      -6.749309      -183.6580
  26   2.0000      -6.652037      -181.0111
  27   2.0000      -6.646372      -180.8570
  28   2.0000      -6.643384      -180.7757
  29   2.0000      -4.840392      -131.7138
  30   2.0000      -4.839948      -131.7017
  31   2.0000      -4.838321      -131.6574
  32   2.0000      -3.523559       -95.8809
  33   2.0000      -2.666041       -72.5467
  34   2.0000      -2.665055       -72.5198
  35   2.0000      -2.662552       -72.4517
  36   2.0000      -2.657711       -72.3200
  37   2.0000      -2.657455       -72.3130
  38   2.0000      -2.172566       -59.1185
  39   2.0000      -2.161930       -58.8291
  40   2.0000      -2.140646       -58.2500
  41   2.0000      -1.076022       -29.2801
  42   2.0000      -0.979236       -26.6464
  43   2.0000      -0.887295       -24.1445
  44   2.0000      -0.852837       -23.2069
  45   2.0000      -0.823462       -22.4075
  46   2.0000      -0.776667       -21.1342
  47   2.0000      -0.730611       -19.8809
  48   2.0000      -0.725149       -19.7323
  49   2.0000      -0.693852       -18.8807
  50   2.0000      -0.691797       -18.8248
  51   2.0000      -0.677218       -18.4280
  52   2.0000      -0.651084       -17.7169
  53   2.0000      -0.608694       -16.5634
  54   2.0000      -0.570926       -15.5357
  55   2.0000      -0.549872       -14.9628
  56   2.0000      -0.543003       -14.7759
  57   2.0000      -0.525461       -14.2985
  58   2.0000      -0.508119       -13.8266
  59   2.0000      -0.465546       -12.6682
  60   2.0000      -0.446333       -12.1453
  61   2.0000      -0.423221       -11.5164
  62   2.0000      -0.412022       -11.2117
  63   2.0000      -0.411742       -11.2041
  64   2.0000      -0.390014       -10.6128
  65   2.0000      -0.382149       -10.3988
  66   2.0000      -0.378843       -10.3089
  67   2.0000      -0.378168       -10.2905
  68   2.0000      -0.375032       -10.2051
  69   2.0000      -0.371766       -10.1163
  70   2.0000      -0.368454       -10.0262
  71   2.0000      -0.359359        -9.7786
  72   2.0000      -0.347441        -9.4544
  73   2.0000      -0.337314        -9.1788
  74   2.0000      -0.332133        -9.0378
  75   2.0000      -0.323620        -8.8062
  76   2.0000      -0.314021        -8.5450
  77   2.0000      -0.305729        -8.3193
  78   2.0000      -0.299773        -8.1572
  79   2.0000      -0.292430        -7.9574
  80   2.0000      -0.286303        -7.7907
  81   2.0000      -0.275820        -7.5054
  82   2.0000      -0.263136        -7.1603
  83   2.0000      -0.257312        -7.0018
  84   2.0000      -0.252591        -6.8734
  85   2.0000      -0.240388        -6.5413
  86   2.0000      -0.235776        -6.4158
  87   2.0000      -0.223834        -6.0908
  88   2.0000      -0.217322        -5.9136
  89   2.0000      -0.205171        -5.5830
  90   2.0000      -0.202373        -5.5068
  91   2.0000      -0.197196        -5.3660
  92   2.0000      -0.177397        -4.8272
  93   2.0000      -0.173981        -4.7343
  94   2.0000      -0.172450        -4.6926
  95   2.0000      -0.163219        -4.4414
  96   2.0000      -0.155217        -4.2237
  97   2.0000      -0.151185        -4.1140
  98   2.0000      -0.145589        -3.9617
  99   2.0000      -0.110429        -3.0049
 100   0.0000      -0.036716        -0.9991
 101   0.0000       0.052533         1.4295
 102   0.0000       0.117293         3.1917
 103   0.0000       0.128300         3.4912
 104   0.0000       0.138138         3.7589

MULLIKEN ATOMIC CHARGES
-----------------------
   0 C :   -0.113467
   1 C :    0.013761
   2 C :   -0.340759
   3 C :   -0.208243
   4 C :   -0.229606
   5 C :   -0.235794
   6 H :    0.291588
   7 H :    0.199236
   8 H :    0.176339
   9 H :    0.175082
  10 H :    0.170312
  11 C :   -0.457190
  12 C :   -0.523773
  13 H :    0.208855
  14 H :    0.237372
  15 C :    0.133138
  16 H :    0.278520
  17 H :    0.199672
  18 C :   -0.116808
  19 C :   -0.282203
  20 C :   -0.240223
  21 C :   -0.293304
  22 C :   -0.214814
  23 H :    0.276556
  24 H :    0.192674
  25 H :    0.181937
  26 H :    0.187461
  27 Pd:    0.125063
  28 Br:   -0.350475
  29 P :   -0.176323
  30 H :    0.113731
  31 C :    0.647535
  32 O :   -0.618425
  33 O :   -0.412908
  34 O :   -0.653246
  35 H :    0.100761
  36 H :    0.141119
  37 H :    0.416850
Sum of atomic charges:   -1.0000000

LOEWDIN ATOMIC CHARGES
----------------------
   0 C :   -0.116734
   1 C :   -0.064581
   2 C :   -0.151117
   3 C :   -0.173919
   4 C :   -0.167946
   5 C :   -0.157997
   6 H :    0.326443
   7 H :    0.124305
   8 H :    0.118185
   9 H :    0.115615
  10 H :    0.113368
  11 C :   -0.223350
  12 C :   -0.212328
  13 H :    0.124293
  14 H :    0.139390
  15 C :   -0.034930
  16 H :    0.161106
  17 H :    0.118434
  18 C :    0.017477
  19 C :   -0.127472
  20 C :   -0.149410
  21 C :   -0.145329
  22 C :   -0.160408
  23 H :    0.165635
  24 H :    0.125253
  25 H :    0.121617
  26 H :    0.122849
  27 Pd:   -0.751986
  28 Br:   -0.172323
  29 P :    0.365739
  30 H :    0.050949
  31 C :    0.099222
  32 O :   -0.454516
  33 O :   -0.182957
  34 O :   -0.377666
  35 H :    0.037570
  36 H :    0.065166
  37 H :    0.312353

  Mayer bond orders larger than 0.100000
B(  0-C ,  1-C ) :   1.4925 B(  0-C ,  2-C ) :   1.3396 B(  0-C , 27-Pd) :   0.5503
B(  1-C ,  5-C ) :   1.3047 B(  1-C , 11-C ) :   0.9568 B(  2-C ,  3-C ) :   1.4700
B(  2-C ,  7-H ) :   0.9197 B(  3-C ,  4-C ) :   1.3876 B(  3-C ,  9-H ) :   0.9280
B(  4-C ,  5-C ) :   1.4969 B(  4-C , 10-H ) :   0.9292 B(  5-C ,  8-H ) :   0.9270
B(  6-H , 28-Br) :   0.4946 B(  6-H , 33-O ) :   0.2002 B( 11-C , 12-C ) :   0.9549
B( 11-C , 13-H ) :   0.9267 B( 11-C , 14-H ) :   0.9118 B( 12-C , 15-C ) :   0.9715
B( 12-C , 16-H ) :   0.8792 B( 12-C , 17-H ) :   0.9287 B( 15-C , 18-C ) :   1.3396
B( 15-C , 21-C ) :   1.4131 B( 18-C , 19-C ) :   1.4101 B( 18-C , 27-Pd) :   0.8477
B( 19-C , 20-C ) :   1.4001 B( 19-C , 23-H ) :   0.8663 B( 20-C , 22-C ) :   1.4387
B( 20-C , 24-H ) :   0.9260 B( 21-C , 22-C ) :   1.4129 B( 21-C , 25-H ) :   0.9261
B( 22-C , 26-H ) :   0.9279 B( 27-Pd, 28-Br) :   0.2471 B( 27-Pd, 29-P ) :   0.5466
B( 27-Pd, 33-O ) :   0.1156 B( 29-P , 30-H ) :   0.9348 B( 29-P , 35-H ) :   0.9233
B( 29-P , 36-H ) :   0.9313 B( 31-C , 32-O ) :   1.6271 B( 31-C , 33-O ) :   1.7040
B( 31-C , 34-O ) :   0.9775 B( 34-O , 37-H ) :   0.7779

Dispersion correction           -0.031447656
FINAL SINGLE POINT ENERGY     -3847.448844923384
Dispersion correction            ... done

DIPOLE MOMENT
-------------
                                X             Y             Z
Electronic contribution:     -0.75784     -62.56209     -18.84873
Nuclear contribution   :      1.71987      62.52428      21.04288
                        -----------------------------------------
Total Dipole Moment    :      0.96203      -0.03781       2.19415
                        -----------------------------------------
Magnitude (a.u.)       :      2.39608
Magnitude (Debye)      :      6.09035

Rotational constants in cm-1:     0.006535     0.006415     0.004435
Rotational constants in MHz :   195.906335   192.302439   132.947781

                             ****ORCA TERMINATED NORMALLY****
TOTAL RUN TIME: 0 days 0 hours 22 minutes 31 seconds 426 msec
