                         Program Version 5.0.3 -  RELEASE  -
|  1> ! EnGrad PBEh-3c
|  2> %output
|  3> xyzfile=True
|  4> end
|  5> %scf
|  6> maxiter 250
|  7> end
|  8> %output
|  9> Print[P_Hirshfeld] = 1
| 10> end
| 11> % maxcore
| 12> 4000
| 13> *xyz -1 1
| 14> C   -2.03401461  -0.05881615   0.63392493
| 15> C   -1.79415244   1.04518936   1.43899836
| 16> C   -3.46722275  -0.28400970   0.41164052
| 17> C   -4.46180287   0.61285380   0.76476346
| 18> C   -4.12260461   1.76168603   1.45840682
| 19> C   -2.81257261   1.95848068   1.82244977
| 20> H   -2.41413474  -2.07773482  -2.08766407
| 21> H   -3.80203131  -1.27588349   0.14646383
| 22> H   -2.56170101   2.89520134   2.28939013
| 23> H   -5.49747768   0.42074393   0.50637371
| 24> H   -4.89403527   2.43155935   1.81305457
| 25> C   -0.42653811   1.39569742   2.06957132
| 26> C    0.77239505   0.38448771   2.04809750
| 27> H   -0.58941213   1.63499181   3.09682686
| 28> H   -0.13441792   2.29601838   1.56427264
| 29> C    1.72398948   0.63119301   0.92802617
| 30> H    0.40630141  -0.62460120   2.04117465
| 31> H    1.32124814   0.50582822   2.98008620
| 32> C    1.52277900   0.08420286  -0.34586500
| 33> C    2.47560470   0.31782273  -1.33811690
| 34> C    3.49924645   1.24569189  -1.13028832
| 35> C    2.84228777   1.44586379   1.14062572
| 36> C    3.67705962   1.83045514   0.10148121
| 37> H    2.48988431  -0.25584209  -2.23720544
| 38> H    4.22057303   1.43015421  -1.92825484
| 39> H    3.08162856   1.76739711   2.15085763
| 40> H    4.39158426   2.63863352   0.23845688
| 41> Pd  -0.01699014  -1.27047673  -0.55205333
| 42> Br  -1.56648083  -3.68463540  -0.43705627
| 43> P    1.51144099  -3.00343241  -0.09058612
| 44> H    1.28476384  -3.63287162   1.15609322
| 45> C    0.18276473  -1.56967570  -3.85151310
| 46> O    1.40721955  -1.74197392  -4.16976144
| 47> O   -0.59016066  -2.31662790  -3.22464190
| 48> O   -0.36645035  -0.30728488  -4.11780915
| 49> H    2.85172689  -2.77412620   0.07547376
| 50> H    1.58064173  -4.13220310  -0.89462655
| 51> H    0.31004237   0.27604466  -4.47083879
| 52> *
| 53>
| 54>                          ****END OF INPUT****

CARTESIAN COORDINATES (ANGSTROEM)
---------------------------------
  C     -2.034015   -0.058816    0.633925
  C     -1.794152    1.045189    1.438998
  C     -3.467223   -0.284010    0.411641
  C     -4.461803    0.612854    0.764763
  C     -4.122605    1.761686    1.458407
  C     -2.812573    1.958481    1.822450
  H     -2.414135   -2.077735   -2.087664
  H     -3.802031   -1.275883    0.146464
  H     -2.561701    2.895201    2.289390
  H     -5.497478    0.420744    0.506374
  H     -4.894035    2.431559    1.813055
  C     -0.426538    1.395697    2.069571
  C      0.772395    0.384488    2.048097
  H     -0.589412    1.634992    3.096827
  H     -0.134418    2.296018    1.564273
  C      1.723989    0.631193    0.928026
  H      0.406301   -0.624601    2.041175
  H      1.321248    0.505828    2.980086
  C      1.522779    0.084203   -0.345865
  C      2.475605    0.317823   -1.338117
  C      3.499246    1.245692   -1.130288
  C      2.842288    1.445864    1.140626
  C      3.677060    1.830455    0.101481
  H      2.489884   -0.255842   -2.237205
  H      4.220573    1.430154   -1.928255
  H      3.081629    1.767397    2.150858
  H      4.391584    2.638634    0.238457
  Pd    -0.016990   -1.270477   -0.552053
  Br    -1.566481   -3.684635   -0.437056
  P      1.511441   -3.003432   -0.090586
  H      1.284764   -3.632872    1.156093
  C      0.182765   -1.569676   -3.851513
  O      1.407220   -1.741974   -4.169761
  O     -0.590161   -2.316628   -3.224642
  O     -0.366450   -0.307285   -4.117809
  H      2.851727   -2.774126    0.075474
  H      1.580642   -4.132203   -0.894627
  H      0.310042    0.276045   -4.470839

 Total Charge           Charge          ....   -1
 Multiplicity           Mult            ....    1
 Number of Electrons    NEL             ....  200
 Basis Dimension        Dim             ....  385

ORBITAL ENERGIES
----------------

  NO   OCC          E(Eh)            E(eV)
   0   2.0000    -484.392947    -13181.0022
   1   2.0000     -77.671602     -2113.5518
   2   2.0000     -63.053740     -1715.7795
   3   2.0000     -56.757281     -1544.4441
   4   2.0000     -56.756605     -1544.4257
   5   2.0000     -56.756154     -1544.4135
   6   2.0000     -19.375251      -527.2274
   7   2.0000     -19.347490      -526.4720
   8   2.0000     -19.309315      -525.4332
   9   2.0000     -10.453682      -284.4591
  10   2.0000     -10.353446      -281.7316
  11   2.0000     -10.345556      -281.5169
  12   2.0000     -10.343325      -281.4562
  13   2.0000     -10.342655      -281.4379
  14   2.0000     -10.341870      -281.4166
  15   2.0000     -10.333404      -281.1862
  16   2.0000     -10.328736      -281.0592
  17   2.0000     -10.323221      -280.9091
  18   2.0000     -10.322261      -280.8830
  19   2.0000     -10.318941      -280.7927
  20   2.0000     -10.317396      -280.7506
  21   2.0000     -10.316976      -280.7392
  22   2.0000     -10.316080      -280.7148
  23   2.0000     -10.309262      -280.5293
  24   2.0000      -8.880389      -241.6477
  25   2.0000      -6.747842      -183.6181
  26   2.0000      -6.651253      -180.9898
  27   2.0000      -6.645470      -180.8324
  28   2.0000      -6.642464      -180.7506
  29   2.0000      -4.838923      -131.6738
  30   2.0000      -4.838507      -131.6625
  31   2.0000      -4.836814      -131.6164
  32   2.0000      -3.519229       -95.7631
  33   2.0000      -2.665247       -72.5251
  34   2.0000      -2.664238       -72.4976
  35   2.0000      -2.661711       -72.4288
  36   2.0000      -2.656769       -72.2944
  37   2.0000      -2.656513       -72.2874
  38   2.0000      -2.168333       -59.0033
  39   2.0000      -2.157264       -58.7021
  40   2.0000      -2.136116       -58.1267
  41   2.0000      -1.061662       -28.8893
  42   2.0000      -0.962485       -26.1905
  43   2.0000      -0.918137       -24.9838
  44   2.0000      -0.851413       -23.1681
  45   2.0000      -0.819539       -22.3008
  46   2.0000      -0.774444       -21.0737
  47   2.0000      -0.727779       -19.8039
  48   2.0000      -0.724026       -19.7017
  49   2.0000      -0.692358       -18.8400
  50   2.0000      -0.690037       -18.7769
  51   2.0000      -0.673892       -18.3375
  52   2.0000      -0.649627       -17.6772
  53   2.0000      -0.606213       -16.4959
  54   2.0000      -0.569641       -15.5007
  55   2.0000      -0.545765       -14.8510
  56   2.0000      -0.541023       -14.7220
  57   2.0000      -0.525168       -14.2906
  58   2.0000      -0.506498       -13.7825
  59   2.0000      -0.464316       -12.6347
  60   2.0000      -0.443221       -12.0607
  61   2.0000      -0.421740       -11.4761
  62   2.0000      -0.410112       -11.1597
  63   2.0000      -0.406226       -11.0540
  64   2.0000      -0.387164       -10.5353
  65   2.0000      -0.379780       -10.3344
  66   2.0000      -0.378984       -10.3127
  67   2.0000      -0.377090       -10.2611
  68   2.0000      -0.376189       -10.2366
  69   2.0000      -0.370541       -10.0829
  70   2.0000      -0.366792        -9.9809
  71   2.0000      -0.356631        -9.7044
  72   2.0000      -0.344868        -9.3843
  73   2.0000      -0.334946        -9.1143
  74   2.0000      -0.330134        -8.9834
  75   2.0000      -0.321948        -8.7606
  76   2.0000      -0.312641        -8.5074
  77   2.0000      -0.308554        -8.3962
  78   2.0000      -0.295887        -8.0515
  79   2.0000      -0.290710        -7.9106
  80   2.0000      -0.283955        -7.7268
  81   2.0000      -0.272532        -7.4160
  82   2.0000      -0.260861        -7.0984
  83   2.0000      -0.255146        -6.9429
  84   2.0000      -0.249120        -6.7789
  85   2.0000      -0.238624        -6.4933
  86   2.0000      -0.234738        -6.3875
  87   2.0000      -0.221238        -6.0202
  88   2.0000      -0.214238        -5.8297
  89   2.0000      -0.204000        -5.5511
  90   2.0000      -0.202850        -5.5198
  91   2.0000      -0.194744        -5.2992
  92   2.0000      -0.183389        -4.9903
  93   2.0000      -0.177283        -4.8241
  94   2.0000      -0.170480        -4.6390
  95   2.0000      -0.165804        -4.5118
  96   2.0000      -0.161491        -4.3944
  97   2.0000      -0.151131        -4.1125
  98   2.0000      -0.148191        -4.0325
  99   2.0000      -0.110205        -2.9988
 100   0.0000      -0.026873        -0.7312
 101   0.0000       0.055515         1.5106
 102   0.0000       0.118515         3.2250
 103   0.0000       0.128233         3.4894
 104   0.0000       0.142581         3.8798

MULLIKEN ATOMIC CHARGES
-----------------------
   0 C :   -0.115903
   1 C :    0.011316
   2 C :   -0.341948
   3 C :   -0.211510
   4 C :   -0.229648
   5 C :   -0.235127
   6 H :    0.301310
   7 H :    0.194317
   8 H :    0.173519
   9 H :    0.174477
  10 H :    0.169388
  11 C :   -0.457342
  12 C :   -0.521832
  13 H :    0.206388
  14 H :    0.236711
  15 C :    0.134100
  16 H :    0.278067
  17 H :    0.198585
  18 C :   -0.114419
  19 C :   -0.286726
  20 C :   -0.239520
  21 C :   -0.290367
  22 C :   -0.219067
  23 H :    0.271182
  24 H :    0.191550
  25 H :    0.181075
  26 H :    0.186956
  27 Pd:    0.136190
  28 Br:   -0.348873
  29 P :   -0.177950
  30 H :    0.113018
  31 C :    0.672804
  32 O :   -0.572057
  33 O :   -0.480925
  34 O :   -0.641105
  35 H :    0.100839
  36 H :    0.138196
  37 H :    0.414328
Sum of atomic charges:   -1.0000000

LOEWDIN ATOMIC CHARGES
----------------------
   0 C :   -0.123232
   1 C :   -0.063296
   2 C :   -0.151376
   3 C :   -0.175386
   4 C :   -0.169388
   5 C :   -0.160040
   6 H :    0.336567
   7 H :    0.122305
   8 H :    0.116899
   9 H :    0.115225
  10 H :    0.113285
  11 C :   -0.222814
  12 C :   -0.211999
  13 H :    0.123599
  14 H :    0.139090
  15 C :   -0.036027
  16 H :    0.161841
  17 H :    0.118047
  18 C :    0.015967
  19 C :   -0.130211
  20 C :   -0.150129
  21 C :   -0.145011
  22 C :   -0.161771
  23 H :    0.163045
  24 H :    0.124592
  25 H :    0.121514
  26 H :    0.122700
  27 Pd:   -0.753996
  28 Br:   -0.163633
  29 P :    0.359951
  30 H :    0.050854
  31 C :    0.125163
  32 O :   -0.397706
  33 O :   -0.259264
  34 O :   -0.369536
  35 H :    0.037933
  36 H :    0.063394
  37 H :    0.312844

  Mayer bond orders larger than 0.100000
B(  0-C ,  1-C ) :   1.4802 B(  0-C ,  2-C ) :   1.3430 B(  0-C , 27-Pd) :   0.5670
B(  1-C ,  5-C ) :   1.3085 B(  1-C , 11-C ) :   0.9581 B(  2-C ,  3-C ) :   1.4694
B(  2-C ,  7-H ) :   0.9198 B(  3-C ,  4-C ) :   1.3854 B(  3-C ,  9-H ) :   0.9283
B(  4-C ,  5-C ) :   1.4945 B(  4-C , 10-H ) :   0.9294 B(  5-C ,  8-H ) :   0.9277
B(  6-H , 28-Br) :   0.5064 B(  6-H , 33-O ) :   0.2507 B( 11-C , 12-C ) :   0.9541
B( 11-C , 13-H ) :   0.9281 B( 11-C , 14-H ) :   0.9109 B( 12-C , 15-C ) :   0.9719
B( 12-C , 16-H ) :   0.8794 B( 12-C , 17-H ) :   0.9280 B( 15-C , 18-C ) :   1.3417
B( 15-C , 21-C ) :   1.4105 B( 18-C , 19-C ) :   1.4092 B( 18-C , 27-Pd) :   0.8445
B( 19-C , 20-C ) :   1.4048 B( 19-C , 23-H ) :   0.8718 B( 20-C , 22-C ) :   1.4350
B( 20-C , 24-H ) :   0.9262 B( 21-C , 22-C ) :   1.4157 B( 21-C , 25-H ) :   0.9263
B( 22-C , 26-H ) :   0.9279 B( 27-Pd, 28-Br) :   0.2482 B( 27-Pd, 29-P ) :   0.5240
B( 27-Pd, 33-O ) :   0.1267 B( 29-P , 30-H ) :   0.9359 B( 29-P , 35-H ) :   0.9240
B( 29-P , 36-H ) :   0.9318 B( 31-C , 32-O ) :   1.7288 B( 31-C , 33-O ) :   1.5562
B( 31-C , 34-O ) :   0.9925 B( 34-O , 37-H ) :   0.7795

Dispersion correction           -0.031467415
FINAL SINGLE POINT ENERGY     -3847.474007884020
Dispersion correction            ... done

DIPOLE MOMENT
-------------
                                X             Y             Z
Electronic contribution:     -2.00100     -62.31853     -18.53270
Nuclear contribution   :      3.14736      62.22250      20.44062
                        -----------------------------------------
Total Dipole Moment    :      1.14637      -0.09603       1.90792
                        -----------------------------------------
Magnitude (a.u.)       :      2.22790
Magnitude (Debye)      :      5.66287

Rotational constants in cm-1:     0.006548     0.006435     0.004435
Rotational constants in MHz :   196.291927   192.923127   132.969019

                             ****ORCA TERMINATED NORMALLY****
TOTAL RUN TIME: 0 days 0 hours 17 minutes 51 seconds 370 msec
