                         Program Version 5.0.3 -  RELEASE  -
|  1> ! EnGrad PBEh-3c
|  2> %output
|  3> xyzfile=True
|  4> end
|  5> %scf
|  6> maxiter 250
|  7> end
|  8> %output
|  9> Print[P_Hirshfeld] = 1
| 10> end
| 11> % maxcore
| 12> 4000
| 13> *xyz -1 1
| 14> C   -2.03522506  -0.07222261   0.63248075
| 15> C   -1.79124121   1.05499178   1.43253582
| 16> C   -3.45801487  -0.29462216   0.42978926
| 17> C   -4.46616062   0.59845290   0.78476310
| 18> C   -4.12629826   1.76645851   1.46107486
| 19> C   -2.81898381   1.95094104   1.82735250
| 20> H   -2.37392127  -2.07933300  -2.06729845
| 21> H   -3.80111915  -1.28511071   0.13772533
| 22> H   -2.55670206   2.89637134   2.29292903
| 23> H   -5.50370488   0.41102132   0.52351016
| 24> H   -4.89607023   2.43262788   1.82066782
| 25> C   -0.42671508   1.39645608   2.05092683
| 26> C    0.76715155   0.38889389   2.04459162
| 27> H   -0.58861056   1.65626249   3.08918046
| 28> H   -0.13003584   2.29979662   1.54137696
| 29> C    1.72988371   0.62513709   0.92520919
| 30> H    0.39984521  -0.62928323   2.03580301
| 31> H    1.31485065   0.51215501   2.97829194
| 32> C    1.53137123   0.06701033  -0.34339771
| 33> C    2.48386102   0.31123842  -1.33673419
| 34> C    3.50266824   1.24100051  -1.13631415
| 35> C    2.83014696   1.45900086   1.13773173
| 36> C    3.68220228   1.82691655   0.10522017
| 37> H    2.48927116  -0.26132912  -2.24861640
| 38> H    4.22217269   1.42740950  -1.92671216
| 39> H    3.07467381   1.77065112   2.14895153
| 40> H    4.39999158   2.62886071   0.24189546
| 41> Pd  -0.04461475  -1.26437709  -0.53567678
| 42> Br  -1.58171900  -3.65889616  -0.47012245
| 43> P    1.51275624  -2.99885550  -0.09061934
| 44> H    1.27190971  -3.62876559   1.15557219
| 45> C    0.20948126  -1.55961597  -3.87221055
| 46> O    1.38772832  -1.73446109  -4.16031560
| 47> O   -0.61153785  -2.31188512  -3.20688848
| 48> O   -0.36301822  -0.30710775  -4.11802895
| 49> H    2.86088003  -2.77277340   0.08759262
| 50> H    1.58082678  -4.13618172  -0.89085846
| 51> H    0.32322726   0.27340368  -4.48087636
| 52> *
| 53>
| 54>                          ****END OF INPUT****

CARTESIAN COORDINATES (ANGSTROEM)
---------------------------------
  C     -2.035225   -0.072223    0.632481
  C     -1.791241    1.054992    1.432536
  C     -3.458015   -0.294622    0.429789
  C     -4.466161    0.598453    0.784763
  C     -4.126298    1.766459    1.461075
  C     -2.818984    1.950941    1.827352
  H     -2.373921   -2.079333   -2.067298
  H     -3.801119   -1.285111    0.137725
  H     -2.556702    2.896371    2.292929
  H     -5.503705    0.411021    0.523510
  H     -4.896070    2.432628    1.820668
  C     -0.426715    1.396456    2.050927
  C      0.767152    0.388894    2.044592
  H     -0.588611    1.656262    3.089180
  H     -0.130036    2.299797    1.541377
  C      1.729884    0.625137    0.925209
  H      0.399845   -0.629283    2.035803
  H      1.314851    0.512155    2.978292
  C      1.531371    0.067010   -0.343398
  C      2.483861    0.311238   -1.336734
  C      3.502668    1.241001   -1.136314
  C      2.830147    1.459001    1.137732
  C      3.682202    1.826917    0.105220
  H      2.489271   -0.261329   -2.248616
  H      4.222173    1.427409   -1.926712
  H      3.074674    1.770651    2.148952
  H      4.399992    2.628861    0.241895
  Pd    -0.044615   -1.264377   -0.535677
  Br    -1.581719   -3.658896   -0.470122
  P      1.512756   -2.998855   -0.090619
  H      1.271910   -3.628766    1.155572
  C      0.209481   -1.559616   -3.872211
  O      1.387728   -1.734461   -4.160316
  O     -0.611538   -2.311885   -3.206888
  O     -0.363018   -0.307108   -4.118029
  H      2.860880   -2.772773    0.087593
  H      1.580827   -4.136182   -0.890858
  H      0.323227    0.273404   -4.480876

 Total Charge           Charge          ....   -1
 Multiplicity           Mult            ....    1
 Number of Electrons    NEL             ....  200
 Basis Dimension        Dim             ....  385

ORBITAL ENERGIES
----------------

  NO   OCC          E(Eh)            E(eV)
   0   2.0000    -484.391714    -13180.9686
   1   2.0000     -77.671988     -2113.5622
   2   2.0000     -63.052483     -1715.7453
   3   2.0000     -56.756077     -1544.4114
   4   2.0000     -56.755343     -1544.3914
   5   2.0000     -56.754862     -1544.3783
   6   2.0000     -19.378406      -527.3132
   7   2.0000     -19.341066      -526.2972
   8   2.0000     -19.323027      -525.8063
   9   2.0000     -10.456027      -284.5230
  10   2.0000     -10.352531      -281.7067
  11   2.0000     -10.344166      -281.4791
  12   2.0000     -10.343465      -281.4600
  13   2.0000     -10.342087      -281.4225
  14   2.0000     -10.341904      -281.4175
  15   2.0000     -10.334718      -281.2220
  16   2.0000     -10.328774      -281.0602
  17   2.0000     -10.322984      -280.9027
  18   2.0000     -10.322701      -280.8950
  19   2.0000     -10.317922      -280.7649
  20   2.0000     -10.316933      -280.7380
  21   2.0000     -10.316047      -280.7139
  22   2.0000     -10.314924      -280.6834
  23   2.0000     -10.308072      -280.4969
  24   2.0000      -8.879126      -241.6133
  25   2.0000      -6.747755      -183.6157
  26   2.0000      -6.649978      -180.9551
  27   2.0000      -6.644260      -180.7995
  28   2.0000      -6.641178      -180.7156
  29   2.0000      -4.838823      -131.6711
  30   2.0000      -4.838465      -131.6613
  31   2.0000      -4.836728      -131.6141
  32   2.0000      -3.516871       -95.6989
  33   2.0000      -2.663996       -72.4910
  34   2.0000      -2.663014       -72.4643
  35   2.0000      -2.660413       -72.3935
  36   2.0000      -2.655524       -72.2605
  37   2.0000      -2.655255       -72.2531
  38   2.0000      -2.165950       -58.9385
  39   2.0000      -2.154723       -58.6330
  40   2.0000      -2.133536       -58.0565
  41   2.0000      -1.064571       -28.9685
  42   2.0000      -0.958225       -26.0746
  43   2.0000      -0.929558       -25.2946
  44   2.0000      -0.850181       -23.1346
  45   2.0000      -0.817142       -22.2356
  46   2.0000      -0.773021       -21.0350
  47   2.0000      -0.726330       -19.7645
  48   2.0000      -0.722788       -19.6681
  49   2.0000      -0.691548       -18.8180
  50   2.0000      -0.688828       -18.7440
  51   2.0000      -0.671856       -18.2821
  52   2.0000      -0.647802       -17.6276
  53   2.0000      -0.604050       -16.4370
  54   2.0000      -0.568782       -15.4773
  55   2.0000      -0.544131       -14.8065
  56   2.0000      -0.537493       -14.6259
  57   2.0000      -0.522827       -14.2268
  58   2.0000      -0.506231       -13.7752
  59   2.0000      -0.463419       -12.6103
  60   2.0000      -0.440853       -11.9962
  61   2.0000      -0.420568       -11.4442
  62   2.0000      -0.409061       -11.1311
  63   2.0000      -0.406146       -11.0518
  64   2.0000      -0.385160       -10.4807
  65   2.0000      -0.384242       -10.4558
  66   2.0000      -0.378926       -10.3111
  67   2.0000      -0.375980       -10.2309
  68   2.0000      -0.374387       -10.1876
  69   2.0000      -0.369009       -10.0413
  70   2.0000      -0.367590       -10.0026
  71   2.0000      -0.355208        -9.6657
  72   2.0000      -0.342762        -9.3270
  73   2.0000      -0.333017        -9.0618
  74   2.0000      -0.328618        -8.9421
  75   2.0000      -0.321522        -8.7491
  76   2.0000      -0.318899        -8.6777
  77   2.0000      -0.306486        -8.3399
  78   2.0000      -0.292851        -7.9689
  79   2.0000      -0.290800        -7.9131
  80   2.0000      -0.281950        -7.6722
  81   2.0000      -0.269546        -7.3347
  82   2.0000      -0.259990        -7.0747
  83   2.0000      -0.254114        -6.9148
  84   2.0000      -0.247297        -6.7293
  85   2.0000      -0.237394        -6.4598
  86   2.0000      -0.233589        -6.3563
  87   2.0000      -0.220716        -6.0060
  88   2.0000      -0.212735        -5.7888
  89   2.0000      -0.205872        -5.6021
  90   2.0000      -0.203296        -5.5320
  91   2.0000      -0.191998        -5.2245
  92   2.0000      -0.188129        -5.1193
  93   2.0000      -0.177749        -4.8368
  94   2.0000      -0.171375        -4.6633
  95   2.0000      -0.168119        -4.5748
  96   2.0000      -0.162686        -4.4269
  97   2.0000      -0.150485        -4.0949
  98   2.0000      -0.144607        -3.9350
  99   2.0000      -0.110690        -3.0120
 100   0.0000      -0.013460        -0.3663
 101   0.0000       0.057379         1.5614
 102   0.0000       0.118979         3.2376
 103   0.0000       0.127675         3.4742
 104   0.0000       0.146093         3.9754

MULLIKEN ATOMIC CHARGES
-----------------------
   0 C :   -0.114174
   1 C :    0.014337
   2 C :   -0.338762
   3 C :   -0.216948
   4 C :   -0.228745
   5 C :   -0.236870
   6 H :    0.302603
   7 H :    0.190337
   8 H :    0.170311
   9 H :    0.174328
  10 H :    0.169691
  11 C :   -0.456944
  12 C :   -0.519528
  13 H :    0.202729
  14 H :    0.236093
  15 C :    0.130378
  16 H :    0.276549
  17 H :    0.197850
  18 C :   -0.109983
  19 C :   -0.293571
  20 C :   -0.235841
  21 C :   -0.283526
  22 C :   -0.226086
  23 H :    0.265093
  24 H :    0.191496
  25 H :    0.180441
  26 H :    0.186597
  27 Pd:    0.144331
  28 Br:   -0.348318
  29 P :   -0.176559
  30 H :    0.112703
  31 C :    0.673971
  32 O :   -0.519905
  33 O :   -0.525382
  34 O :   -0.632837
  35 H :    0.099775
  36 H :    0.135315
  37 H :    0.409052
Sum of atomic charges:   -1.0000000

LOEWDIN ATOMIC CHARGES
----------------------
   0 C :   -0.124407
   1 C :   -0.060770
   2 C :   -0.151000
   3 C :   -0.175677
   4 C :   -0.170729
   5 C :   -0.161419
   6 H :    0.337538
   7 H :    0.120933
   8 H :    0.115379
   9 H :    0.115087
  10 H :    0.113725
  11 C :   -0.221034
  12 C :   -0.211445
  13 H :    0.122925
  14 H :    0.139033
  15 C :   -0.037304
  16 H :    0.162549
  17 H :    0.117701
  18 C :    0.012267
  19 C :   -0.131399
  20 C :   -0.151499
  21 C :   -0.145357
  22 C :   -0.162071
  23 H :    0.160399
  24 H :    0.124406
  25 H :    0.121710
  26 H :    0.122342
  27 Pd:   -0.757416
  28 Br:   -0.155909
  29 P :    0.356901
  30 H :    0.050910
  31 C :    0.123848
  32 O :   -0.334020
  33 O :   -0.312848
  34 O :   -0.364413
  35 H :    0.037910
  36 H :    0.061823
  37 H :    0.311330

  Mayer bond orders larger than 0.100000
B(  0-C ,  1-C ) :   1.4577 B(  0-C ,  2-C ) :   1.3592 B(  0-C , 27-Pd) :   0.5780
B(  1-C ,  5-C ) :   1.3201 B(  1-C , 11-C ) :   0.9588 B(  2-C ,  3-C ) :   1.4594
B(  2-C ,  7-H ) :   0.9195 B(  3-C ,  4-C ) :   1.3895 B(  3-C ,  9-H ) :   0.9284
B(  4-C ,  5-C ) :   1.4850 B(  4-C , 10-H ) :   0.9293 B(  5-C ,  8-H ) :   0.9284
B(  6-H , 28-Br) :   0.5074 B(  6-H , 33-O ) :   0.2823 B( 11-C , 12-C ) :   0.9521
B( 11-C , 13-H ) :   0.9298 B( 11-C , 14-H ) :   0.9094 B( 12-C , 15-C ) :   0.9710
B( 12-C , 16-H ) :   0.8799 B( 12-C , 17-H ) :   0.9276 B( 15-C , 18-C ) :   1.3450
B( 15-C , 21-C ) :   1.4058 B( 18-C , 19-C ) :   1.4050 B( 18-C , 27-Pd) :   0.8391
B( 19-C , 20-C ) :   1.4116 B( 19-C , 23-H ) :   0.8770 B( 20-C , 22-C ) :   1.4296
B( 20-C , 24-H ) :   0.9262 B( 21-C , 22-C ) :   1.4210 B( 21-C , 25-H ) :   0.9264
B( 22-C , 26-H ) :   0.9277 B( 27-Pd, 28-Br) :   0.2545 B( 27-Pd, 29-P ) :   0.5079
B( 27-Pd, 33-O ) :   0.1358 B( 29-P , 30-H ) :   0.9362 B( 29-P , 35-H ) :   0.9244
B( 29-P , 36-H ) :   0.9317 B( 31-C , 32-O ) :   1.8216 B( 31-C , 33-O ) :   1.4567
B( 31-C , 34-O ) :   0.9997 B( 34-O , 37-H ) :   0.7831

Dispersion correction           -0.031504008
FINAL SINGLE POINT ENERGY     -3847.487707693999
Dispersion correction            ... done

DIPOLE MOMENT
-------------
                                X             Y             Z
Electronic contribution:     -3.27671     -62.03371     -17.87237
Nuclear contribution   :      4.60767      61.90086      19.58348
                        -----------------------------------------
Total Dipole Moment    :      1.33096      -0.13284       1.71112
                        -----------------------------------------
Magnitude (a.u.)       :      2.17187
Magnitude (Debye)      :      5.52045

Rotational constants in cm-1:     0.006569     0.006466     0.004439
Rotational constants in MHz :   196.946607   193.850911   133.081637

                             ****ORCA TERMINATED NORMALLY****
TOTAL RUN TIME: 0 days 0 hours 17 minutes 42 seconds 353 msec
