                         Program Version 5.0.3 -  RELEASE  -
|  1> ! EnGrad PBEh-3c
|  2> %output
|  3> xyzfile=True
|  4> end
|  5> %scf
|  6> maxiter 250
|  7> end
|  8> %output
|  9> Print[P_Hirshfeld] = 1
| 10> end
| 11> % maxcore
| 12> 4000
| 13> *xyz -1 1
| 14> C   -2.04156557  -0.09247692   0.63414453
| 15> C   -1.78806178   1.06647764   1.41849874
| 16> C   -3.44049460  -0.32421686   0.47103041
| 17> C   -4.47114405   0.56771162   0.83347305
| 18> C   -4.14001593   1.76565656   1.46920750
| 19> C   -2.82368281   1.93999952   1.83538083
| 20> H   -2.27255512  -2.08496895  -2.01698678
| 21> H   -3.79813186  -1.30372929   0.12071977
| 22> H   -2.54688961   2.89496635   2.30013713
| 23> H   -5.51750369   0.38548057   0.56749879
| 24> H   -4.90272472   2.43604486   1.83955687
| 25> C   -0.42678008   1.40206228   2.00887085
| 26> C    0.75260161   0.39814683   2.03350971
| 27> H   -0.58548481   1.70831692   3.06276565
| 28> H   -0.11845703   2.30761971   1.48385847
| 29> C    1.74017677   0.61196182   0.91724773
| 30> H    0.38488867  -0.63675351   2.02341647
| 31> H    1.29871771   0.52716210   2.97415727
| 32> C    1.54516648   0.02700704  -0.33661440
| 33> C    2.50051839   0.29089141  -1.33662144
| 34> C    3.51326463   1.22916960  -1.14218062
| 35> C    2.80944241   1.48516442   1.13041783
| 36> C    3.68890421   1.81831306   0.10875865
| 37> H    2.48898017  -0.27219752  -2.27223701
| 38> H    4.22870095   1.42090644  -1.92526600
| 39> H    3.05642583   1.78095287   2.14450036
| 40> H    4.42157379   2.60536742   0.25056028
| 41> Pd  -0.09959740  -1.25351001  -0.49657508
| 42> Br  -1.62129630  -3.59311273  -0.55337272
| 43> P    1.50899663  -2.98494638  -0.09029640
| 44> H    1.24095492  -3.61816364   1.15340057
| 45> C    0.21558430  -1.53328354  -3.88404367
| 46> O    1.37137913  -1.72675255  -4.14957798
| 47> O   -0.64002323  -2.28822041  -3.18223502
| 48> O   -0.34409247  -0.30554283  -4.12724274
| 49> H    2.88185704  -2.77003608   0.11800191
| 50> H    1.58224002  -4.14539944  -0.88097532
| 51> H    0.34961737   0.26438720  -4.50356335
| 52> *
| 53>
| 54>                          ****END OF INPUT****

CARTESIAN COORDINATES (ANGSTROEM)
---------------------------------
  C     -2.041566   -0.092477    0.634145
  C     -1.788062    1.066478    1.418499
  C     -3.440495   -0.324217    0.471030
  C     -4.471144    0.567712    0.833473
  C     -4.140016    1.765657    1.469207
  C     -2.823683    1.940000    1.835381
  H     -2.272555   -2.084969   -2.016987
  H     -3.798132   -1.303729    0.120720
  H     -2.546890    2.894966    2.300137
  H     -5.517504    0.385481    0.567499
  H     -4.902725    2.436045    1.839557
  C     -0.426780    1.402062    2.008871
  C      0.752602    0.398147    2.033510
  H     -0.585485    1.708317    3.062766
  H     -0.118457    2.307620    1.483858
  C      1.740177    0.611962    0.917248
  H      0.384889   -0.636754    2.023416
  H      1.298718    0.527162    2.974157
  C      1.545166    0.027007   -0.336614
  C      2.500518    0.290891   -1.336621
  C      3.513265    1.229170   -1.142181
  C      2.809442    1.485164    1.130418
  C      3.688904    1.818313    0.108759
  H      2.488980   -0.272198   -2.272237
  H      4.228701    1.420906   -1.925266
  H      3.056426    1.780953    2.144500
  H      4.421574    2.605367    0.250560
  Pd    -0.099597   -1.253510   -0.496575
  Br    -1.621296   -3.593113   -0.553373
  P      1.508997   -2.984946   -0.090296
  H      1.240955   -3.618164    1.153401
  C      0.215584   -1.533284   -3.884044
  O      1.371379   -1.726753   -4.149578
  O     -0.640023   -2.288220   -3.182235
  O     -0.344092   -0.305543   -4.127243
  H      2.881857   -2.770036    0.118002
  H      1.582240   -4.145399   -0.880975
  H      0.349617    0.264387   -4.503563

 Total Charge           Charge          ....   -1
 Multiplicity           Mult            ....    1
 Number of Electrons    NEL             ....  200
 Basis Dimension        Dim             ....  385

ORBITAL ENERGIES
----------------

  NO   OCC          E(Eh)            E(eV)
   0   2.0000    -484.395545    -13181.0729
   1   2.0000     -77.675046     -2113.6454
   2   2.0000     -63.056294     -1715.8490
   3   2.0000     -56.760050     -1544.5195
   4   2.0000     -56.759110     -1544.4939
   5   2.0000     -56.758559     -1544.4789
   6   2.0000     -19.382479      -527.4241
   7   2.0000     -19.328986      -525.9685
   8   2.0000     -19.325356      -525.8697
   9   2.0000     -10.453453      -284.4529
  10   2.0000     -10.352222      -281.6983
  11   2.0000     -10.344147      -281.4785
  12   2.0000     -10.342841      -281.4430
  13   2.0000     -10.342591      -281.4362
  14   2.0000     -10.341217      -281.3988
  15   2.0000     -10.337667      -281.3022
  16   2.0000     -10.330260      -281.1007
  17   2.0000     -10.325387      -280.9681
  18   2.0000     -10.324566      -280.9457
  19   2.0000     -10.320212      -280.8272
  20   2.0000     -10.319404      -280.8053
  21   2.0000     -10.316992      -280.7396
  22   2.0000     -10.315727      -280.7052
  23   2.0000     -10.308610      -280.5116
  24   2.0000      -8.883003      -241.7188
  25   2.0000      -6.749631      -183.6668
  26   2.0000      -6.654023      -181.0652
  27   2.0000      -6.648151      -180.9054
  28   2.0000      -6.644895      -180.8168
  29   2.0000      -4.840655      -131.7209
  30   2.0000      -4.840430      -131.7148
  31   2.0000      -4.838633      -131.6659
  32   2.0000      -3.515679       -95.6665
  33   2.0000      -2.668064       -72.6017
  34   2.0000      -2.667057       -72.5743
  35   2.0000      -2.664293       -72.4991
  36   2.0000      -2.659258       -72.3621
  37   2.0000      -2.658973       -72.3543
  38   2.0000      -2.164575       -58.9011
  39   2.0000      -2.153388       -58.5967
  40   2.0000      -2.132097       -58.0173
  41   2.0000      -1.073447       -29.2100
  42   2.0000      -0.968414       -26.3519
  43   2.0000      -0.909010       -24.7354
  44   2.0000      -0.847952       -23.0739
  45   2.0000      -0.815833       -22.1999
  46   2.0000      -0.771522       -20.9942
  47   2.0000      -0.725215       -19.7341
  48   2.0000      -0.721003       -19.6195
  49   2.0000      -0.696322       -18.9479
  50   2.0000      -0.689254       -18.7556
  51   2.0000      -0.670473       -18.2445
  52   2.0000      -0.644843       -17.5471
  53   2.0000      -0.601379       -16.3644
  54   2.0000      -0.567811       -15.4509
  55   2.0000      -0.542741       -14.7687
  56   2.0000      -0.533848       -14.5267
  57   2.0000      -0.528163       -14.3720
  58   2.0000      -0.506870       -13.7926
  59   2.0000      -0.461905       -12.5691
  60   2.0000      -0.438816       -11.9408
  61   2.0000      -0.418706       -11.3936
  62   2.0000      -0.407829       -11.0976
  63   2.0000      -0.405728       -11.0404
  64   2.0000      -0.387956       -10.5568
  65   2.0000      -0.383244       -10.4286
  66   2.0000      -0.379107       -10.3160
  67   2.0000      -0.373964       -10.1761
  68   2.0000      -0.372263       -10.1298
  69   2.0000      -0.368530       -10.0282
  70   2.0000      -0.365601        -9.9485
  71   2.0000      -0.353366        -9.6156
  72   2.0000      -0.340651        -9.2696
  73   2.0000      -0.331981        -9.0337
  74   2.0000      -0.325896        -8.8681
  75   2.0000      -0.322000        -8.7621
  76   2.0000      -0.319014        -8.6808
  77   2.0000      -0.304379        -8.2826
  78   2.0000      -0.292944        -7.9714
  79   2.0000      -0.290166        -7.8958
  80   2.0000      -0.280026        -7.6199
  81   2.0000      -0.266949        -7.2641
  82   2.0000      -0.262697        -7.1483
  83   2.0000      -0.256929        -6.9914
  84   2.0000      -0.247694        -6.7401
  85   2.0000      -0.240214        -6.5365
  86   2.0000      -0.234172        -6.3721
  87   2.0000      -0.221008        -6.0139
  88   2.0000      -0.212317        -5.7774
  89   2.0000      -0.205090        -5.5808
  90   2.0000      -0.202140        -5.5005
  91   2.0000      -0.190766        -5.1910
  92   2.0000      -0.186027        -5.0620
  93   2.0000      -0.178092        -4.8461
  94   2.0000      -0.170837        -4.6487
  95   2.0000      -0.165193        -4.4951
  96   2.0000      -0.160315        -4.3624
  97   2.0000      -0.150794        -4.1033
  98   2.0000      -0.141863        -3.8603
  99   2.0000      -0.113392        -3.0856
 100   0.0000       0.014751         0.4014
 101   0.0000       0.058224         1.5844
 102   0.0000       0.117902         3.2083
 103   0.0000       0.126870         3.4523
 104   0.0000       0.146907         3.9975

MULLIKEN ATOMIC CHARGES
-----------------------
   0 C :   -0.110649
   1 C :    0.029049
   2 C :   -0.331273
   3 C :   -0.224815
   4 C :   -0.227638
   5 C :   -0.244123
   6 H :    0.304857
   7 H :    0.186115
   8 H :    0.167660
   9 H :    0.173815
  10 H :    0.171209
  11 C :   -0.456864
  12 C :   -0.515611
  13 H :    0.196898
  14 H :    0.236071
  15 C :    0.119480
  16 H :    0.272894
  17 H :    0.196123
  18 C :   -0.104275
  19 C :   -0.307904
  20 C :   -0.228110
  21 C :   -0.268582
  22 C :   -0.235722
  23 H :    0.261963
  24 H :    0.192432
  25 H :    0.179725
  26 H :    0.185579
  27 Pd:    0.148159
  28 Br:   -0.332297
  29 P :   -0.169310
  30 H :    0.110954
  31 C :    0.666987
  32 O :   -0.497939
  33 O :   -0.569486
  34 O :   -0.612256
  35 H :    0.098931
  36 H :    0.130776
  37 H :    0.407178
Sum of atomic charges:   -1.0000000

LOEWDIN ATOMIC CHARGES
----------------------
   0 C :   -0.121669
   1 C :   -0.055184
   2 C :   -0.149177
   3 C :   -0.173936
   4 C :   -0.172060
   5 C :   -0.162722
   6 H :    0.336061
   7 H :    0.119664
   8 H :    0.113622
   9 H :    0.115027
  10 H :    0.114882
  11 C :   -0.217414
  12 C :   -0.210454
  13 H :    0.121678
  14 H :    0.139434
  15 C :   -0.039291
  16 H :    0.163486
  17 H :    0.116922
  18 C :    0.003465
  19 C :   -0.130541
  20 C :   -0.153916
  21 C :   -0.147352
  22 C :   -0.160977
  23 H :    0.158669
  24 H :    0.124684
  25 H :    0.122407
  26 H :    0.121507
  27 Pd:   -0.768939
  28 Br:   -0.123158
  29 P :    0.355155
  30 H :    0.050256
  31 C :    0.115238
  32 O :   -0.307458
  33 O :   -0.368039
  34 O :   -0.340707
  35 H :    0.039071
  36 H :    0.059606
  37 H :    0.312158

  Mayer bond orders larger than 0.100000
B(  0-C ,  1-C ) :   1.4152 B(  0-C ,  2-C ) :   1.3955 B(  0-C , 27-Pd) :   0.5968
B(  1-C ,  5-C ) :   1.3482 B(  1-C , 11-C ) :   0.9577 B(  2-C ,  3-C ) :   1.4309
B(  2-C ,  7-H ) :   0.9182 B(  3-C ,  4-C ) :   1.4071 B(  3-C ,  9-H ) :   0.9289
B(  4-C ,  5-C ) :   1.4582 B(  4-C , 10-H ) :   0.9290 B(  5-C ,  8-H ) :   0.9286
B(  6-H , 28-Br) :   0.5323 B(  6-H , 33-O ) :   0.2804 B( 11-C , 12-C ) :   0.9470
B( 11-C , 13-H ) :   0.9326 B( 11-C , 14-H ) :   0.9065 B( 12-C , 15-C ) :   0.9695
B( 12-C , 16-H ) :   0.8809 B( 12-C , 17-H ) :   0.9276 B( 15-C , 18-C ) :   1.3509
B( 15-C , 21-C ) :   1.3948 B( 18-C , 19-C ) :   1.3974 B( 18-C , 27-Pd) :   0.8234
B( 19-C , 20-C ) :   1.4208 B( 19-C , 23-H ) :   0.8786 B( 20-C , 22-C ) :   1.4209
B( 20-C , 24-H ) :   0.9259 B( 21-C , 22-C ) :   1.4298 B( 21-C , 25-H ) :   0.9261
B( 22-C , 26-H ) :   0.9276 B( 27-Pd, 28-Br) :   0.2667 B( 27-Pd, 29-P ) :   0.4837
B( 27-Pd, 33-O ) :   0.1426 B( 29-P , 30-H ) :   0.9358 B( 29-P , 35-H ) :   0.9261
B( 29-P , 36-H ) :   0.9305 B( 31-C , 32-O ) :   1.8647 B( 31-C , 33-O ) :   1.3949
B( 31-C , 34-O ) :   1.0300 B( 34-O , 37-H ) :   0.7828

Dispersion correction           -0.031584371
FINAL SINGLE POINT ENERGY     -3847.505700428119
Dispersion correction            ... done

DIPOLE MOMENT
-------------
                                X             Y             Z
Electronic contribution:     -6.12438     -61.49692     -15.85316
Nuclear contribution   :      7.52316      61.33594      17.51780
                        -----------------------------------------
Total Dipole Moment    :      1.39877      -0.16099       1.66464
                        -----------------------------------------
Magnitude (a.u.)       :      2.18026
Magnitude (Debye)      :      5.54177

Rotational constants in cm-1:     0.006631     0.006534     0.004447
Rotational constants in MHz :   198.791472   195.878727   133.315526

                             ****ORCA TERMINATED NORMALLY****
TOTAL RUN TIME: 0 days 0 hours 18 minutes 28 seconds 196 msec
