                         Program Version 5.0.3 -  RELEASE  -
|  1> ! EnGrad PBEh-3c
|  2> %output
|  3> xyzfile=True
|  4> end
|  5> %scf
|  6> maxiter 250
|  7> end
|  8> %output
|  9> Print[P_Hirshfeld] = 1
| 10> end
| 11> % maxcore
| 12> 4000
| 13> *xyz -1 1
| 14> C   -2.06313268  -0.10400486   0.63972978
| 15> C   -1.78708180   1.07062077   1.41532696
| 16> C   -3.42339152  -0.36511110   0.51997654
| 17> C   -4.47363779   0.52798647   0.89199647
| 18> C   -4.15408904   1.75041125   1.49430085
| 19> C   -2.82179080   1.92980732   1.82803824
| 20> H   -2.13310789  -2.09896636  -1.94381908
| 21> H   -3.79391094  -1.32339843   0.10779376
| 22> H   -2.53711155   2.88906942   2.30979679
| 23> H   -5.52952557   0.34783787   0.63201997
| 24> H   -4.91379431   2.43936196   1.86343800
| 25> C   -0.42509989   1.41140934   1.95059061
| 26> C    0.73131784   0.41344374   2.01688670
| 27> H   -0.58017129   1.77868567   3.01737417
| 28> H   -0.10083371   2.31581967   1.40307124
| 29> C    1.74873002   0.60071844   0.90489286
| 30> H    0.36499676  -0.64109023   2.00867927
| 31> H    1.27539851   0.54538984   2.96761782
| 32> C    1.55073450  -0.02033999  -0.32992791
| 33> C    2.51544150   0.26157840  -1.33305333
| 34> C    3.52912471   1.20429510  -1.14541866
| 35> C    2.79526207   1.50212547   1.12135888
| 36> C    3.69026702   1.81474244   0.10997443
| 37> H    2.49120998  -0.28487777  -2.29957100
| 38> H    4.24062621   1.41221763  -1.92482856
| 39> H    3.02974784   1.80025787   2.13829924
| 40> H    4.45029285   2.57230715   0.26179799
| 41> Pd  -0.14368180  -1.24848365  -0.44769020
| 42> Br  -1.68066145  -3.49726208  -0.67078681
| 43> P    1.49119106  -2.96117352  -0.08880814
| 44> H    1.20071685  -3.60270635   1.14865682
| 45> C    0.23143833  -1.47446188  -3.87455972
| 46> O    1.33953184  -1.72881138  -4.13834046
| 47> O   -0.66715606  -2.26184025  -3.16169415
| 48> O   -0.32115812  -0.30152446  -4.14969111
| 49> H    2.90452939  -2.76748744   0.15973069
| 50> H    1.58570556  -4.15535222  -0.86619137
| 51> H    0.38484193   0.24922359  -4.53406394
| 52> *
| 53>
| 54>                          ****END OF INPUT****

CARTESIAN COORDINATES (ANGSTROEM)
---------------------------------
  C     -2.063133   -0.104005    0.639730
  C     -1.787082    1.070621    1.415327
  C     -3.423392   -0.365111    0.519977
  C     -4.473638    0.527986    0.891996
  C     -4.154089    1.750411    1.494301
  C     -2.821791    1.929807    1.828038
  H     -2.133108   -2.098966   -1.943819
  H     -3.793911   -1.323398    0.107794
  H     -2.537112    2.889069    2.309797
  H     -5.529526    0.347838    0.632020
  H     -4.913794    2.439362    1.863438
  C     -0.425100    1.411409    1.950591
  C      0.731318    0.413444    2.016887
  H     -0.580171    1.778686    3.017374
  H     -0.100834    2.315820    1.403071
  C      1.748730    0.600718    0.904893
  H      0.364997   -0.641090    2.008679
  H      1.275399    0.545390    2.967618
  C      1.550734   -0.020340   -0.329928
  C      2.515441    0.261578   -1.333053
  C      3.529125    1.204295   -1.145419
  C      2.795262    1.502125    1.121359
  C      3.690267    1.814742    0.109974
  H      2.491210   -0.284878   -2.299571
  H      4.240626    1.412218   -1.924829
  H      3.029748    1.800258    2.138299
  H      4.450293    2.572307    0.261798
  Pd    -0.143682   -1.248484   -0.447690
  Br    -1.680661   -3.497262   -0.670787
  P      1.491191   -2.961174   -0.088808
  H      1.200717   -3.602706    1.148657
  C      0.231438   -1.474462   -3.874560
  O      1.339532   -1.728811   -4.138340
  O     -0.667156   -2.261840   -3.161694
  O     -0.321158   -0.301524   -4.149691
  H      2.904529   -2.767487    0.159731
  H      1.585706   -4.155352   -0.866191
  H      0.384842    0.249224   -4.534064

 Total Charge           Charge          ....   -1
 Multiplicity           Mult            ....    1
 Number of Electrons    NEL             ....  200
 Basis Dimension        Dim             ....  385

ORBITAL ENERGIES
----------------

  NO   OCC          E(Eh)            E(eV)
   0   2.0000    -484.400664    -13181.2122
   1   2.0000     -77.679834     -2113.7758
   2   2.0000     -63.061552     -1715.9921
   3   2.0000     -56.765511     -1544.6681
   4   2.0000     -56.764285     -1544.6347
   5   2.0000     -56.763663     -1544.6178
   6   2.0000     -19.389233      -527.6079
   7   2.0000     -19.323846      -525.8286
   8   2.0000     -19.305974      -525.3423
   9   2.0000     -10.444903      -284.2203
  10   2.0000     -10.352463      -281.7048
  11   2.0000     -10.345334      -281.5108
  12   2.0000     -10.344191      -281.4797
  13   2.0000     -10.342215      -281.4260
  14   2.0000     -10.341696      -281.4119
  15   2.0000     -10.340998      -281.3929
  16   2.0000     -10.332026      -281.1487
  17   2.0000     -10.328667      -281.0573
  18   2.0000     -10.325192      -280.9628
  19   2.0000     -10.323591      -280.9192
  20   2.0000     -10.322401      -280.8868
  21   2.0000     -10.318209      -280.7727
  22   2.0000     -10.315142      -280.6893
  23   2.0000     -10.307551      -280.4827
  24   2.0000      -8.888571      -241.8703
  25   2.0000      -6.752799      -183.7530
  26   2.0000      -6.659739      -181.2207
  27   2.0000      -6.653858      -181.0607
  28   2.0000      -6.650254      -180.9626
  29   2.0000      -4.843816      -131.8069
  30   2.0000      -4.843661      -131.8027
  31   2.0000      -4.841859      -131.7537
  32   2.0000      -3.516730       -95.6951
  33   2.0000      -2.673903       -72.7606
  34   2.0000      -2.672860       -72.7322
  35   2.0000      -2.669797       -72.6489
  36   2.0000      -2.664722       -72.5108
  37   2.0000      -2.664395       -72.5019
  38   2.0000      -2.165452       -58.9250
  39   2.0000      -2.154706       -58.6325
  40   2.0000      -2.132754       -58.0352
  41   2.0000      -1.091894       -29.7120
  42   2.0000      -0.986656       -26.8483
  43   2.0000      -0.875255       -23.8169
  44   2.0000      -0.845804       -23.0155
  45   2.0000      -0.816987       -22.2314
  46   2.0000      -0.770774       -20.9738
  47   2.0000      -0.724693       -19.7199
  48   2.0000      -0.720142       -19.5961
  49   2.0000      -0.706355       -19.2209
  50   2.0000      -0.691663       -18.8211
  51   2.0000      -0.669913       -18.2293
  52   2.0000      -0.640941       -17.4409
  53   2.0000      -0.599089       -16.3020
  54   2.0000      -0.567048       -15.4302
  55   2.0000      -0.541656       -14.7392
  56   2.0000      -0.537756       -14.6331
  57   2.0000      -0.531035       -14.4502
  58   2.0000      -0.508309       -13.8318
  59   2.0000      -0.460792       -12.5388
  60   2.0000      -0.437795       -11.9130
  61   2.0000      -0.417270       -11.3545
  62   2.0000      -0.408950       -11.1281
  63   2.0000      -0.405762       -11.0414
  64   2.0000      -0.392816       -10.6891
  65   2.0000      -0.384979       -10.4758
  66   2.0000      -0.381338       -10.3767
  67   2.0000      -0.376243       -10.2381
  68   2.0000      -0.368276       -10.0213
  69   2.0000      -0.366756        -9.9799
  70   2.0000      -0.361782        -9.8446
  71   2.0000      -0.352575        -9.5940
  72   2.0000      -0.340668        -9.2700
  73   2.0000      -0.332578        -9.0499
  74   2.0000      -0.326247        -8.8776
  75   2.0000      -0.322018        -8.7626
  76   2.0000      -0.319552        -8.6954
  77   2.0000      -0.305213        -8.3053
  78   2.0000      -0.296177        -8.0594
  79   2.0000      -0.288085        -7.8392
  80   2.0000      -0.279364        -7.6019
  81   2.0000      -0.273449        -7.4409
  82   2.0000      -0.263185        -7.1616
  83   2.0000      -0.261038        -7.1032
  84   2.0000      -0.249305        -6.7839
  85   2.0000      -0.245592        -6.6829
  86   2.0000      -0.238048        -6.4776
  87   2.0000      -0.222423        -6.0524
  88   2.0000      -0.212745        -5.7891
  89   2.0000      -0.205887        -5.6025
  90   2.0000      -0.200772        -5.4633
  91   2.0000      -0.189061        -5.1446
  92   2.0000      -0.180385        -4.9085
  93   2.0000      -0.178756        -4.8642
  94   2.0000      -0.171412        -4.6643
  95   2.0000      -0.156555        -4.2601
  96   2.0000      -0.151650        -4.1266
  97   2.0000      -0.147838        -4.0229
  98   2.0000      -0.140241        -3.8162
  99   2.0000      -0.113672        -3.0932
 100   0.0000       0.056508         1.5377
 101   0.0000       0.064771         1.7625
 102   0.0000       0.116606         3.1730
 103   0.0000       0.125722         3.4211
 104   0.0000       0.144113         3.9215

MULLIKEN ATOMIC CHARGES
-----------------------
   0 C :   -0.104737
   1 C :    0.053971
   2 C :   -0.324561
   3 C :   -0.233375
   4 C :   -0.227104
   5 C :   -0.252082
   6 H :    0.309806
   7 H :    0.185675
   8 H :    0.163482
   9 H :    0.173186
  10 H :    0.172727
  11 C :   -0.457119
  12 C :   -0.512560
  13 H :    0.189203
  14 H :    0.237295
  15 C :    0.109398
  16 H :    0.268461
  17 H :    0.194943
  18 C :   -0.098913
  19 C :   -0.321180
  20 C :   -0.221392
  21 C :   -0.256564
  22 C :   -0.241345
  23 H :    0.255391
  24 H :    0.193267
  25 H :    0.179704
  26 H :    0.185617
  27 Pd:    0.138367
  28 Br:   -0.306673
  29 P :   -0.156995
  30 H :    0.108613
  31 C :    0.639893
  32 O :   -0.466403
  33 O :   -0.627384
  34 O :   -0.577270
  35 H :    0.096385
  36 H :    0.124934
  37 H :    0.405341
Sum of atomic charges:   -1.0000000

LOEWDIN ATOMIC CHARGES
----------------------
   0 C :   -0.117825
   1 C :   -0.052149
   2 C :   -0.149768
   3 C :   -0.169500
   4 C :   -0.173607
   5 C :   -0.160655
   6 H :    0.325883
   7 H :    0.120334
   8 H :    0.110985
   9 H :    0.114740
  10 H :    0.115979
  11 C :   -0.212169
  12 C :   -0.209398
  13 H :    0.119757
  14 H :    0.140275
  15 C :   -0.039697
  16 H :    0.164656
  17 H :    0.115939
  18 C :   -0.007591
  19 C :   -0.129065
  20 C :   -0.156791
  21 C :   -0.149885
  22 C :   -0.159050
  23 H :    0.156019
  24 H :    0.124916
  25 H :    0.123129
  26 H :    0.120667
  27 Pd:   -0.786084
  28 Br:   -0.074522
  29 P :    0.362572
  30 H :    0.049065
  31 C :    0.086367
  32 O :   -0.270056
  33 O :   -0.443405
  34 O :   -0.299827
  35 H :    0.039422
  36 H :    0.056478
  37 H :    0.313862

  Mayer bond orders larger than 0.100000
B(  0-C ,  1-C ) :   1.3769 B(  0-C ,  2-C ) :   1.4413 B(  0-C , 27-Pd) :   0.6111
B(  1-C ,  5-C ) :   1.3844 B(  1-C , 11-C ) :   0.9542 B(  2-C ,  3-C ) :   1.3949
B(  2-C ,  7-H ) :   0.9160 B(  3-C ,  4-C ) :   1.4325 B(  3-C ,  9-H ) :   0.9292
B(  4-C ,  5-C ) :   1.4275 B(  4-C , 10-H ) :   0.9289 B(  5-C ,  8-H ) :   0.9291
B(  6-H , 28-Br) :   0.5701 B(  6-H , 33-O ) :   0.2613 B( 11-C , 12-C ) :   0.9404
B( 11-C , 13-H ) :   0.9360 B( 11-C , 14-H ) :   0.9034 B( 12-C , 15-C ) :   0.9658
B( 12-C , 16-H ) :   0.8815 B( 12-C , 17-H ) :   0.9282 B( 15-C , 18-C ) :   1.3562
B( 15-C , 21-C ) :   1.3823 B( 18-C , 19-C ) :   1.3842 B( 18-C , 27-Pd) :   0.8052
B( 19-C , 20-C ) :   1.4294 B( 19-C , 23-H ) :   0.8817 B( 20-C , 22-C ) :   1.4113
B( 20-C , 24-H ) :   0.9257 B( 21-C , 22-C ) :   1.4416 B( 21-C , 25-H ) :   0.9258
B( 22-C , 26-H ) :   0.9273 B( 27-Pd, 28-Br) :   0.2827 B( 27-Pd, 29-P ) :   0.4810
B( 27-Pd, 33-O ) :   0.1542 B( 29-P , 30-H ) :   0.9335 B( 29-P , 35-H ) :   0.9273
B( 29-P , 36-H ) :   0.9273 B( 31-C , 32-O ) :   1.9184 B( 31-C , 33-O ) :   1.3298
B( 31-C , 34-O ) :   1.0813 B( 34-O , 37-H ) :   0.7808

Dispersion correction           -0.031474931
FINAL SINGLE POINT ENERGY     -3847.519698599254
Dispersion correction            ... done

DIPOLE MOMENT
-------------
                                X             Y             Z
Electronic contribution:     -8.34508     -61.21581     -13.22087
Nuclear contribution   :      9.80792      61.09181      14.92558
                        -----------------------------------------
Total Dipole Moment    :      1.46284      -0.12401       1.70471
                        -----------------------------------------
Magnitude (a.u.)       :      2.24974
Magnitude (Debye)      :      5.71838

Rotational constants in cm-1:     0.006730     0.006613     0.004458
Rotational constants in MHz :   201.754365   198.245835   133.642029

                             ****ORCA TERMINATED NORMALLY****
TOTAL RUN TIME: 0 days 0 hours 17 minutes 50 seconds 239 msec
