                         Program Version 5.0.3 -  RELEASE  -
|  1> ! EnGrad PBEh-3c
|  2> %output
|  3> xyzfile=True
|  4> end
|  5> %scf
|  6> maxiter 250
|  7> end
|  8> %output
|  9> Print[P_Hirshfeld] = 1
| 10> end
| 11> % maxcore
| 12> 4000
| 13> *xyz -1 1
| 14> C   -2.55996966  -0.26009223   0.84051912
| 15> C   -1.98882615   0.90907740   1.36809832
| 16> C   -3.87331836  -0.56391350   1.20174284
| 17> C   -4.72798213   0.45206433   1.60972564
| 18> C   -4.16241633   1.60141475   2.13458692
| 19> C   -2.78115387   1.72086041   2.17638943
| 20> H   -2.52789564  -1.28257564  -0.84442398
| 21> H   -4.31250856  -1.52502920   0.96574442
| 22> H   -2.36866013   2.60275098   2.65435919
| 23> H   -5.79268516   0.27188624   1.69147469
| 24> H   -4.79647838   2.33405637   2.61768657
| 25> C   -0.63427950   1.41263153   0.96627994
| 26> C    0.50444227   0.55524835   1.50792964
| 27> H   -0.45137941   2.45312200   1.26698286
| 28> H   -0.64966212   1.52261232  -0.12143621
| 29> C    1.73030013   0.62831130   0.63652917
| 30> H    0.20479420  -0.49003979   1.61901110
| 31> H    0.74514846   0.87506531   2.52859533
| 32> C    1.82912530  -0.11587874  -0.54913930
| 33> C    2.94320853   0.07579835  -1.36259494
| 34> C    3.89646527   1.04458116  -1.06744951
| 35> C    2.82356275   1.39334317   1.04127035
| 36> C    3.81809469   1.73604093   0.13320716
| 37> H    3.06876306  -0.50863354  -2.26514671
| 38> H    4.69430818   1.25710441  -1.76987572
| 39> H    2.78880894   1.87915988   2.01149213
| 40> H    4.49421140   2.55743940   0.33917602
| 41> Pd   0.47664154  -1.45269493  -1.02332724
| 42> Br  -1.27987572  -3.74533880  -1.35409712
| 43> P    1.27894610  -2.98397701   0.28654641
| 44> H    0.48558004  -3.41961635   1.35669344
| 45> C    0.61186074  -1.04910214  -3.94151618
| 46> O    1.62688273  -1.67408547  -4.16774292
| 47> O   -0.35308879  -1.38953069  -3.18943690
| 48> O    0.18227241  -0.02554844  -4.71993260
| 49> H    2.46439412  -2.72936522   1.00302471
| 50> H    1.69047398  -4.21519196  -0.24794938
| 51> H    0.90189735   0.14804815  -5.33297707
| 52> *
| 53>
| 54>                          ****END OF INPUT****

CARTESIAN COORDINATES (ANGSTROEM)
---------------------------------
  C     -2.559970   -0.260092    0.840519
  C     -1.988826    0.909077    1.368098
  C     -3.873318   -0.563913    1.201743
  C     -4.727982    0.452064    1.609726
  C     -4.162416    1.601415    2.134587
  C     -2.781154    1.720860    2.176389
  H     -2.527896   -1.282576   -0.844424
  H     -4.312509   -1.525029    0.965744
  H     -2.368660    2.602751    2.654359
  H     -5.792685    0.271886    1.691475
  H     -4.796478    2.334056    2.617687
  C     -0.634279    1.412632    0.966280
  C      0.504442    0.555248    1.507930
  H     -0.451379    2.453122    1.266983
  H     -0.649662    1.522612   -0.121436
  C      1.730300    0.628311    0.636529
  H      0.204794   -0.490040    1.619011
  H      0.745148    0.875065    2.528595
  C      1.829125   -0.115879   -0.549139
  C      2.943209    0.075798   -1.362595
  C      3.896465    1.044581   -1.067450
  C      2.823563    1.393343    1.041270
  C      3.818095    1.736041    0.133207
  H      3.068763   -0.508634   -2.265147
  H      4.694308    1.257104   -1.769876
  H      2.788809    1.879160    2.011492
  H      4.494211    2.557439    0.339176
  Pd     0.476642   -1.452695   -1.023327
  Br    -1.279876   -3.745339   -1.354097
  P      1.278946   -2.983977    0.286546
  H      0.485580   -3.419616    1.356693
  C      0.611861   -1.049102   -3.941516
  O      1.626883   -1.674085   -4.167743
  O     -0.353089   -1.389531   -3.189437
  O      0.182272   -0.025548   -4.719933
  H      2.464394   -2.729365    1.003025
  H      1.690474   -4.215192   -0.247949
  H      0.901897    0.148048   -5.332977

 Total Charge           Charge          ....   -1
 Multiplicity           Mult            ....    1
 Number of Electrons    NEL             ....  200
 Basis Dimension        Dim             ....  385

ORBITAL ENERGIES
----------------

  NO   OCC          E(Eh)            E(eV)
   0   2.0000    -484.316873    -13178.9321
   1   2.0000     -77.682140     -2113.8385
   2   2.0000     -62.978296     -1713.7266
   3   2.0000     -56.681763     -1542.3892
   4   2.0000     -56.681135     -1542.3721
   5   2.0000     -56.680911     -1542.3660
   6   2.0000     -19.367250      -527.0097
   7   2.0000     -19.292715      -524.9815
   8   2.0000     -19.290186      -524.9127
   9   2.0000     -10.422493      -283.6105
  10   2.0000     -10.381301      -282.4896
  11   2.0000     -10.366233      -282.0796
  12   2.0000     -10.357164      -281.8328
  13   2.0000     -10.355938      -281.7994
  14   2.0000     -10.354201      -281.7521
  15   2.0000     -10.353530      -281.7339
  16   2.0000     -10.351723      -281.6847
  17   2.0000     -10.349446      -281.6227
  18   2.0000     -10.347607      -281.5727
  19   2.0000     -10.346983      -281.5557
  20   2.0000     -10.346592      -281.5451
  21   2.0000     -10.344669      -281.4928
  22   2.0000     -10.343843      -281.4703
  23   2.0000     -10.333902      -281.1998
  24   2.0000      -8.805239      -239.6027
  25   2.0000      -6.756273      -183.8475
  26   2.0000      -6.574217      -178.8935
  27   2.0000      -6.570931      -178.8041
  28   2.0000      -6.569022      -178.7522
  29   2.0000      -4.847386      -131.9041
  30   2.0000      -4.847061      -131.8952
  31   2.0000      -4.845946      -131.8649
  32   2.0000      -3.535472       -96.2051
  33   2.0000      -2.588441       -70.4351
  34   2.0000      -2.587933       -70.4212
  35   2.0000      -2.586294       -70.3766
  36   2.0000      -2.583487       -70.3003
  37   2.0000      -2.583274       -70.2945
  38   2.0000      -2.183158       -59.4067
  39   2.0000      -2.178336       -59.2755
  40   2.0000      -2.150183       -58.5094
  41   2.0000      -1.063775       -28.9468
  42   2.0000      -0.949818       -25.8459
  43   2.0000      -0.905587       -24.6423
  44   2.0000      -0.868898       -23.6439
  45   2.0000      -0.854901       -23.2630
  46   2.0000      -0.796932       -21.6856
  47   2.0000      -0.752970       -20.4894
  48   2.0000      -0.735394       -20.0111
  49   2.0000      -0.726942       -19.7811
  50   2.0000      -0.697223       -18.9724
  51   2.0000      -0.654959       -17.8223
  52   2.0000      -0.625040       -17.0082
  53   2.0000      -0.620114       -16.8742
  54   2.0000      -0.580873       -15.8064
  55   2.0000      -0.572774       -15.5860
  56   2.0000      -0.557087       -15.1591
  57   2.0000      -0.544092       -14.8055
  58   2.0000      -0.513214       -13.9653
  59   2.0000      -0.480439       -13.0734
  60   2.0000      -0.469762       -12.7829
  61   2.0000      -0.440737       -11.9931
  62   2.0000      -0.421321       -11.4647
  63   2.0000      -0.417960       -11.3733
  64   2.0000      -0.406394       -11.0585
  65   2.0000      -0.387462       -10.5434
  66   2.0000      -0.385662       -10.4944
  67   2.0000      -0.381439       -10.3795
  68   2.0000      -0.376425       -10.2430
  69   2.0000      -0.372951       -10.1485
  70   2.0000      -0.369287       -10.0488
  71   2.0000      -0.365283        -9.9398
  72   2.0000      -0.360545        -9.8109
  73   2.0000      -0.358086        -9.7440
  74   2.0000      -0.353129        -9.6091
  75   2.0000      -0.335115        -9.1189
  76   2.0000      -0.330734        -8.9997
  77   2.0000      -0.326006        -8.8711
  78   2.0000      -0.319408        -8.6915
  79   2.0000      -0.302310        -8.2263
  80   2.0000      -0.300774        -8.1845
  81   2.0000      -0.291210        -7.9242
  82   2.0000      -0.280670        -7.6374
  83   2.0000      -0.267221        -7.2715
  84   2.0000      -0.258996        -7.0476
  85   2.0000      -0.239897        -6.5279
  86   2.0000      -0.232865        -6.3366
  87   2.0000      -0.223398        -6.0790
  88   2.0000      -0.212898        -5.7932
  89   2.0000      -0.199700        -5.4341
  90   2.0000      -0.190790        -5.1917
  91   2.0000      -0.184664        -5.0250
  92   2.0000      -0.180968        -4.9244
  93   2.0000      -0.177606        -4.8329
  94   2.0000      -0.163720        -4.4550
  95   2.0000      -0.155895        -4.2421
  96   2.0000      -0.151251        -4.1158
  97   2.0000      -0.143544        -3.9060
  98   2.0000      -0.139576        -3.7980
  99   2.0000      -0.128242        -3.4896
 100   0.0000       0.050697         1.3795
 101   0.0000       0.060473         1.6456
 102   0.0000       0.108600         2.9552
 103   0.0000       0.116691         3.1753
 104   0.0000       0.120942         3.2910

MULLIKEN ATOMIC CHARGES
-----------------------
   0 C :   -0.096336
   1 C :    0.017292
   2 C :   -0.251011
   3 C :   -0.218999
   4 C :   -0.223927
   5 C :   -0.257071
   6 H :    0.209668
   7 H :    0.227496
   8 H :    0.192237
   9 H :    0.198499
  10 H :    0.195411
  11 C :   -0.485518
  12 C :   -0.507981
  13 H :    0.215545
  14 H :    0.289621
  15 C :    0.116552
  16 H :    0.262043
  17 H :    0.211777
  18 C :   -0.170997
  19 C :   -0.261036
  20 C :   -0.229836
  21 C :   -0.282593
  22 C :   -0.232243
  23 H :    0.268565
  24 H :    0.194008
  25 H :    0.179372
  26 H :    0.188616
  27 Pd:    0.190922
  28 Br:   -0.517382
  29 P :   -0.140136
  30 H :    0.131059
  31 C :    0.646294
  32 O :   -0.525727
  33 O :   -0.541891
  34 O :   -0.603234
  35 H :    0.077697
  36 H :    0.140238
  37 H :    0.393005
Sum of atomic charges:   -1.0000000

LOEWDIN ATOMIC CHARGES
----------------------
   0 C :   -0.088520
   1 C :   -0.058460
   2 C :   -0.142903
   3 C :   -0.161923
   4 C :   -0.151126
   5 C :   -0.148302
   6 H :    0.228948
   7 H :    0.134273
   8 H :    0.125745
   9 H :    0.126048
  10 H :    0.123769
  11 C :   -0.209927
  12 C :   -0.208527
  13 H :    0.124244
  14 H :    0.164107
  15 C :   -0.038185
  16 H :    0.152286
  17 H :    0.121572
  18 C :   -0.013891
  19 C :   -0.119701
  20 C :   -0.148895
  21 C :   -0.146012
  22 C :   -0.160478
  23 H :    0.166511
  24 H :    0.125486
  25 H :    0.120724
  26 H :    0.121852
  27 Pd:   -0.703679
  28 Br:   -0.372209
  29 P :    0.427933
  30 H :    0.061437
  31 C :    0.084152
  32 O :   -0.330179
  33 O :   -0.267270
  34 O :   -0.331825
  35 H :    0.023587
  36 H :    0.067909
  37 H :    0.301431

  Mayer bond orders larger than 0.100000
B(  0-C ,  1-C ) :   1.4400 B(  0-C ,  2-C ) :   1.3976 B(  0-C ,  6-H ) :   0.7252
B(  1-C ,  5-C ) :   1.3825 B(  1-C , 11-C ) :   0.9594 B(  2-C ,  3-C ) :   1.4297
B(  2-C ,  7-H ) :   0.9156 B(  3-C ,  4-C ) :   1.4094 B(  3-C ,  9-H ) :   0.9219
B(  4-C ,  5-C ) :   1.4511 B(  4-C , 10-H ) :   0.9248 B(  5-C ,  8-H ) :   0.9229
B( 11-C , 12-C ) :   0.9301 B( 11-C , 13-H ) :   0.9256 B( 11-C , 14-H ) :   0.8856
B( 12-C , 15-C ) :   0.9617 B( 12-C , 16-H ) :   0.8880 B( 12-C , 17-H ) :   0.9266
B( 15-C , 18-C ) :   1.3347 B( 15-C , 21-C ) :   1.4214 B( 18-C , 19-C ) :   1.4127
B( 18-C , 27-Pd) :   0.8383 B( 18-C , 28-Br) :   0.1043 B( 19-C , 20-C ) :   1.3984
B( 19-C , 23-H ) :   0.8770 B( 20-C , 22-C ) :   1.4364 B( 20-C , 24-H ) :   0.9256
B( 21-C , 22-C ) :   1.4140 B( 21-C , 25-H ) :   0.9266 B( 22-C , 26-H ) :   0.9281
B( 27-Pd, 28-Br) :   0.3684 B( 27-Pd, 29-P ) :   0.7910 B( 27-Pd, 33-O ) :   0.4383
B( 28-Br, 29-P ) :   0.1531 B( 29-P , 30-H ) :   0.9229 B( 29-P , 35-H ) :   0.8982
B( 29-P , 36-H ) :   0.9255 B( 31-C , 32-O ) :   1.8177 B( 31-C , 33-O ) :   1.4211
B( 31-C , 34-O ) :   1.0530 B( 34-O , 37-H ) :   0.7963

Dispersion correction           -0.031087119
FINAL SINGLE POINT ENERGY     -3847.540086696115
Dispersion correction            ... done

DIPOLE MOMENT
-------------
                                X             Y             Z
Electronic contribution:     23.65573     -71.25599     -42.85826
Nuclear contribution   :    -22.77235      72.70907      46.05035
                        -----------------------------------------
Total Dipole Moment    :      0.88338       1.45308       3.19209
                        -----------------------------------------
Magnitude (a.u.)       :      3.61680
Magnitude (Debye)      :      9.19317

Rotational constants in cm-1:     0.006774     0.005705     0.004055
Rotational constants in MHz :   203.073054   171.043201   121.579447

                             ****ORCA TERMINATED NORMALLY****
TOTAL RUN TIME: 0 days 0 hours 31 minutes 29 seconds 174 msec
