                         Program Version 5.0.3 -  RELEASE  -
|  1> ! EnGrad PBEh-3c
|  2> %output
|  3> xyzfile=True
|  4> end
|  5> %scf
|  6> maxiter 250
|  7> end
|  8> %output
|  9> Print[P_Hirshfeld] = 1
| 10> end
| 11> % maxcore
| 12> 4000
| 13> *xyz -1 1
| 14> C   -2.57612855  -0.28611794   0.76337433
| 15> C   -1.97031539   0.89905766   1.34867347
| 16> C   -3.88398266  -0.55158337   1.12937296
| 17> C   -4.71137560   0.43060669   1.61996057
| 18> C   -4.16809577   1.59697579   2.13853808
| 19> C   -2.82124595   1.75185539   2.15183445
| 20> H   -2.49817883  -1.21996696  -0.78174026
| 21> H   -4.28336098  -1.52504099   0.93866949
| 22> H   -2.38274505   2.61462915   2.63833086
| 23> H   -5.78841911   0.27312932   1.63633576
| 24> H   -4.80956210   2.33860499   2.58239711
| 25> C   -0.62332625   1.42608128   0.99910861
| 26> C    0.54032689   0.53711045   1.52883984
| 27> H   -0.45111855   2.44129202   1.34736552
| 28> H   -0.62210017   1.53835395  -0.08244954
| 29> C    1.75340972   0.60378315   0.67180866
| 30> H    0.20189694  -0.48963037   1.62967501
| 31> H    0.76679483   0.86413474   2.54667268
| 32> C    1.82891998  -0.10355267  -0.53847140
| 33> C    2.93163235   0.07949777  -1.36891031
| 34> C    3.88124674   1.05920074  -1.06361791
| 35> C    2.80428853   1.43006447   1.02718024
| 36> C    3.82664997   1.72619284   0.13056673
| 37> H    3.04693324  -0.50364843  -2.26808465
| 38> H    4.67752460   1.26357700  -1.77886331
| 39> H    2.80817857   1.87132862   2.01949541
| 40> H    4.50273674   2.55027213   0.34258224
| 41> Pd   0.39760095  -1.49259721  -1.09076548
| 42> Br  -1.28677995  -3.72569604  -1.29419447
| 43> P    1.29970232  -2.98986611   0.29958979
| 44> H    0.51691984  -3.43331244   1.35348660
| 45> C    0.48184817  -1.13669043  -3.94646407
| 46> O    1.68116193  -1.65240051  -4.17622371
| 47> O   -0.32064086  -1.40890879  -3.12056742
| 48> O    0.20254866  -0.00221280  -4.72003333
| 49> H    2.48784210  -2.73325585   0.97570890
| 50> H    1.68264302  -4.20823849  -0.28229505
| 51> H    0.87616217   0.17001285  -5.30436059
| 52> *
| 53>
| 54>                          ****END OF INPUT****

CARTESIAN COORDINATES (ANGSTROEM)
---------------------------------
  C     -2.576129   -0.286118    0.763374
  C     -1.970315    0.899058    1.348673
  C     -3.883983   -0.551583    1.129373
  C     -4.711376    0.430607    1.619961
  C     -4.168096    1.596976    2.138538
  C     -2.821246    1.751855    2.151834
  H     -2.498179   -1.219967   -0.781740
  H     -4.283361   -1.525041    0.938669
  H     -2.382745    2.614629    2.638331
  H     -5.788419    0.273129    1.636336
  H     -4.809562    2.338605    2.582397
  C     -0.623326    1.426081    0.999109
  C      0.540327    0.537110    1.528840
  H     -0.451119    2.441292    1.347366
  H     -0.622100    1.538354   -0.082450
  C      1.753410    0.603783    0.671809
  H      0.201897   -0.489630    1.629675
  H      0.766795    0.864135    2.546673
  C      1.828920   -0.103553   -0.538471
  C      2.931632    0.079498   -1.368910
  C      3.881247    1.059201   -1.063618
  C      2.804289    1.430064    1.027180
  C      3.826650    1.726193    0.130567
  H      3.046933   -0.503648   -2.268085
  H      4.677525    1.263577   -1.778863
  H      2.808179    1.871329    2.019495
  H      4.502737    2.550272    0.342582
  Pd     0.397601   -1.492597   -1.090765
  Br    -1.286780   -3.725696   -1.294194
  P      1.299702   -2.989866    0.299590
  H      0.516920   -3.433312    1.353487
  C      0.481848   -1.136690   -3.946464
  O      1.681162   -1.652401   -4.176224
  O     -0.320641   -1.408909   -3.120567
  O      0.202549   -0.002213   -4.720033
  H      2.487842   -2.733256    0.975709
  H      1.682643   -4.208238   -0.282295
  H      0.876162    0.170013   -5.304361

 Total Charge           Charge          ....   -1
 Multiplicity           Mult            ....    1
 Number of Electrons    NEL             ....  200
 Basis Dimension        Dim             ....  385

ORBITAL ENERGIES
----------------

  NO   OCC          E(Eh)            E(eV)
   0   2.0000    -484.321043    -13179.0456
   1   2.0000     -77.682312     -2113.8432
   2   2.0000     -62.982571     -1713.8429
   3   2.0000     -56.686109     -1542.5075
   4   2.0000     -56.685359     -1542.4870
   5   2.0000     -56.685172     -1542.4819
   6   2.0000     -19.352964      -526.6209
   7   2.0000     -19.325976      -525.8866
   8   2.0000     -19.272605      -524.4342
   9   2.0000     -10.433501      -283.9100
  10   2.0000     -10.388829      -282.6944
  11   2.0000     -10.378089      -282.4022
  12   2.0000     -10.360403      -281.9209
  13   2.0000     -10.356409      -281.8122
  14   2.0000     -10.355268      -281.7812
  15   2.0000     -10.352001      -281.6923
  16   2.0000     -10.348275      -281.5909
  17   2.0000     -10.347643      -281.5737
  18   2.0000     -10.347480      -281.5692
  19   2.0000     -10.344403      -281.4855
  20   2.0000     -10.343945      -281.4731
  21   2.0000     -10.342992      -281.4471
  22   2.0000     -10.340550      -281.3807
  23   2.0000     -10.329975      -281.0929
  24   2.0000      -8.809620      -239.7220
  25   2.0000      -6.756982      -183.8668
  26   2.0000      -6.578741      -179.0167
  27   2.0000      -6.574997      -178.9148
  28   2.0000      -6.573650      -178.8781
  29   2.0000      -4.848136      -131.9245
  30   2.0000      -4.847861      -131.9170
  31   2.0000      -4.846434      -131.8782
  32   2.0000      -3.527731       -95.9944
  33   2.0000      -2.592874       -70.5557
  34   2.0000      -2.592158       -70.5362
  35   2.0000      -2.590999       -70.5047
  36   2.0000      -2.587787       -70.4173
  37   2.0000      -2.587670       -70.4141
  38   2.0000      -2.173278       -59.1379
  39   2.0000      -2.171502       -59.0896
  40   2.0000      -2.142900       -58.3113
  41   2.0000      -1.062098       -28.9011
  42   2.0000      -0.975006       -26.5313
  43   2.0000      -0.870851       -23.6971
  44   2.0000      -0.866233       -23.5714
  45   2.0000      -0.853988       -23.2382
  46   2.0000      -0.795939       -21.6586
  47   2.0000      -0.752073       -20.4649
  48   2.0000      -0.743777       -20.2392
  49   2.0000      -0.722653       -19.6644
  50   2.0000      -0.692408       -18.8414
  51   2.0000      -0.658738       -17.9252
  52   2.0000      -0.628567       -17.1042
  53   2.0000      -0.626230       -17.0406
  54   2.0000      -0.578734       -15.7482
  55   2.0000      -0.569813       -15.5054
  56   2.0000      -0.558664       -15.2020
  57   2.0000      -0.542501       -14.7622
  58   2.0000      -0.527057       -14.3419
  59   2.0000      -0.482356       -13.1256
  60   2.0000      -0.467107       -12.7106
  61   2.0000      -0.442963       -12.0536
  62   2.0000      -0.422061       -11.4849
  63   2.0000      -0.417696       -11.3661
  64   2.0000      -0.409185       -11.1345
  65   2.0000      -0.403998       -10.9933
  66   2.0000      -0.384516       -10.4632
  67   2.0000      -0.381236       -10.3740
  68   2.0000      -0.380367       -10.3503
  69   2.0000      -0.373683       -10.1684
  70   2.0000      -0.370495       -10.0817
  71   2.0000      -0.367180        -9.9915
  72   2.0000      -0.358805        -9.7636
  73   2.0000      -0.357891        -9.7387
  74   2.0000      -0.349622        -9.5137
  75   2.0000      -0.333589        -9.0774
  76   2.0000      -0.323061        -8.7909
  77   2.0000      -0.321954        -8.7608
  78   2.0000      -0.318704        -8.6724
  79   2.0000      -0.304438        -8.2842
  80   2.0000      -0.298982        -8.1357
  81   2.0000      -0.292761        -7.9664
  82   2.0000      -0.282045        -7.6748
  83   2.0000      -0.256167        -6.9707
  84   2.0000      -0.251736        -6.8501
  85   2.0000      -0.249036        -6.7766
  86   2.0000      -0.238995        -6.5034
  87   2.0000      -0.223692        -6.0870
  88   2.0000      -0.211933        -5.7670
  89   2.0000      -0.199060        -5.4167
  90   2.0000      -0.188895        -5.1401
  91   2.0000      -0.182447        -4.9646
  92   2.0000      -0.178141        -4.8475
  93   2.0000      -0.174985        -4.7616
  94   2.0000      -0.163884        -4.4595
  95   2.0000      -0.152355        -4.1458
  96   2.0000      -0.147479        -4.0131
  97   2.0000      -0.146199        -3.9783
  98   2.0000      -0.142809        -3.8860
  99   2.0000      -0.132477        -3.6049
 100   0.0000       0.057962         1.5772
 101   0.0000       0.069928         1.9028
 102   0.0000       0.103774         2.8238
 103   0.0000       0.120307         3.2737
 104   0.0000       0.123779         3.3682

MULLIKEN ATOMIC CHARGES
-----------------------
   0 C :   -0.134492
   1 C :    0.001060
   2 C :   -0.228782
   3 C :   -0.224688
   4 C :   -0.206530
   5 C :   -0.256077
   6 H :    0.221210
   7 H :    0.234408
   8 H :    0.195986
   9 H :    0.199039
  10 H :    0.196329
  11 C :   -0.487003
  12 C :   -0.513558
  13 H :    0.218045
  14 H :    0.288709
  15 C :    0.130263
  16 H :    0.261201
  17 H :    0.208692
  18 C :   -0.168748
  19 C :   -0.258523
  20 C :   -0.238579
  21 C :   -0.294500
  22 C :   -0.216635
  23 H :    0.282096
  24 H :    0.192045
  25 H :    0.179051
  26 H :    0.184016
  27 Pd:    0.180114
  28 Br:   -0.516846
  29 P :   -0.129937
  30 H :    0.132598
  31 C :    0.674106
  32 O :   -0.630562
  33 O :   -0.464916
  34 O :   -0.648743
  35 H :    0.087058
  36 H :    0.143557
  37 H :    0.409538
Sum of atomic charges:   -1.0000000

LOEWDIN ATOMIC CHARGES
----------------------
   0 C :   -0.095039
   1 C :   -0.045239
   2 C :   -0.146614
   3 C :   -0.159441
   4 C :   -0.153249
   5 C :   -0.148259
   6 H :    0.231780
   7 H :    0.136567
   8 H :    0.126384
   9 H :    0.126534
  10 H :    0.125266
  11 C :   -0.214170
  12 C :   -0.208754
  13 H :    0.125601
  14 H :    0.164753
  15 C :   -0.050936
  16 H :    0.149522
  17 H :    0.120899
  18 C :   -0.014200
  19 C :   -0.119502
  20 C :   -0.146663
  21 C :   -0.147321
  22 C :   -0.162310
  23 H :    0.171103
  24 H :    0.124901
  25 H :    0.120243
  26 H :    0.121621
  27 Pd:   -0.732204
  28 Br:   -0.349821
  29 P :    0.424911
  30 H :    0.061574
  31 C :    0.145237
  32 O :   -0.461575
  33 O :   -0.147774
  34 O :   -0.373495
  35 H :    0.030012
  36 H :    0.070719
  37 H :    0.298940

  Mayer bond orders larger than 0.100000
B(  0-C ,  1-C ) :   1.4332 B(  0-C ,  2-C ) :   1.3862 B(  0-C ,  6-H ) :   0.7748
B(  1-C ,  5-C ) :   1.3676 B(  1-C , 11-C ) :   0.9615 B(  2-C ,  3-C ) :   1.4445
B(  2-C ,  7-H ) :   0.9116 B(  3-C ,  4-C ) :   1.3963 B(  3-C ,  9-H ) :   0.9228
B(  4-C ,  5-C ) :   1.4700 B(  4-C , 10-H ) :   0.9241 B(  5-C ,  8-H ) :   0.9217
B( 11-C , 12-C ) :   0.9253 B( 11-C , 13-H ) :   0.9248 B( 11-C , 14-H ) :   0.8859
B( 12-C , 15-C ) :   0.9661 B( 12-C , 16-H ) :   0.8908 B( 12-C , 17-H ) :   0.9270
B( 15-C , 18-C ) :   1.3350 B( 15-C , 21-C ) :   1.4303 B( 18-C , 19-C ) :   1.4352
B( 18-C , 27-Pd) :   0.7888 B( 18-C , 28-Br) :   0.1076 B( 19-C , 20-C ) :   1.3808
B( 19-C , 23-H ) :   0.8644 B( 20-C , 22-C ) :   1.4496 B( 20-C , 24-H ) :   0.9264
B( 21-C , 22-C ) :   1.4005 B( 21-C , 25-H ) :   0.9264 B( 22-C , 26-H ) :   0.9294
B( 27-Pd, 28-Br) :   0.4249 B( 27-Pd, 29-P ) :   0.7535 B( 27-Pd, 33-O ) :   0.3826
B( 28-Br, 29-P ) :   0.1375 B( 29-P , 30-H ) :   0.9254 B( 29-P , 35-H ) :   0.9023
B( 29-P , 36-H ) :   0.9294 B( 31-C , 32-O ) :   1.6556 B( 31-C , 33-O ) :   1.5859
B( 31-C , 34-O ) :   1.0038 B( 34-O , 37-H ) :   0.7859

Dispersion correction           -0.031041493
FINAL SINGLE POINT ENERGY     -3847.558363246007
Dispersion correction            ... done

DIPOLE MOMENT
-------------
                                X             Y             Z
Electronic contribution:     18.87297     -73.53786     -46.29439
Nuclear contribution   :    -18.45383      74.82665      49.70932
                        -----------------------------------------
Total Dipole Moment    :      0.41914       1.28879       3.41493
                        -----------------------------------------
Magnitude (a.u.)       :      3.67402
Magnitude (Debye)      :      9.33862

Rotational constants in cm-1:     0.006783     0.005721     0.004072
Rotational constants in MHz :   203.359473   171.512874   122.068859

                             ****ORCA TERMINATED NORMALLY****
TOTAL RUN TIME: 0 days 0 hours 33 minutes 59 seconds 367 msec
