                         Program Version 5.0.3 -  RELEASE  -
|  1> ! EnGrad PBEh-3c
|  2> %output
|  3> xyzfile=True
|  4> end
|  5> %scf
|  6> maxiter 250
|  7> end
|  8> %output
|  9> Print[P_Hirshfeld] = 1
| 10> end
| 11> % maxcore
| 12> 4000
| 13> *xyz -1 1
| 14> C   -2.57363800  -0.28591016   0.73343540
| 15> C   -1.97650589   0.89520099   1.34262262
| 16> C   -3.88560141  -0.54851107   1.10190853
| 17> C   -4.70956078   0.42537981   1.62095805
| 18> C   -4.17706476   1.59350920   2.13606943
| 19> C   -2.82112279   1.75562057   2.13597382
| 20> H   -2.48604300  -1.19236238  -0.75453962
| 21> H   -4.27356364  -1.52695701   0.92419010
| 22> H   -2.38974751   2.62076227   2.63054297
| 23> H   -5.78496080   0.27288864   1.61294189
| 24> H   -4.81679994   2.34087632   2.56740445
| 25> C   -0.61415170   1.42657907   1.01505274
| 26> C    0.54938656   0.53245682   1.53930969
| 27> H   -0.45063605   2.43770296   1.38395620
| 28> H   -0.60894076   1.54778911  -0.06516780
| 29> C    1.76098342   0.59539672   0.68129241
| 30> H    0.20126462  -0.49121981   1.63499656
| 31> H    0.77729223   0.85850531   2.55586861
| 32> C    1.82388517  -0.10406651  -0.53831315
| 33> C    2.92519467   0.08362707  -1.36839044
| 34> C    3.87634839   1.06110841  -1.06809688
| 35> C    2.80142744   1.44188117   1.02491916
| 36> C    3.82795080   1.72734619   0.13311911
| 37> H    3.03662392  -0.50133225  -2.27060265
| 38> H    4.66921665   1.26655527  -1.78192689
| 39> H    2.81641303   1.86882551   2.02262777
| 40> H    4.50608722   2.54675627   0.34335724
| 41> Pd   0.37651009  -1.50835845  -1.10259325
| 42> Br  -1.29095292  -3.71845071  -1.26870024
| 43> P    1.30453751  -2.98850383   0.29631265
| 44> H    0.53038897  -3.44025865   1.35402830
| 45> C    0.50053864  -1.15978159  -3.97597220
| 46> O    1.66655331  -1.63710897  -4.17444779
| 47> O   -0.33527334  -1.42581036  -3.08550549
| 48> O    0.18200002  -0.00568835  -4.69850105
| 49> H    2.50016956  -2.73447724   0.96381256
| 50> H    1.67959019  -4.20526268  -0.29720959
| 51> H    0.88144325   0.17932242  -5.30149157
| 52> *
| 53>
| 54>                          ****END OF INPUT****

CARTESIAN COORDINATES (ANGSTROEM)
---------------------------------
  C     -2.573638   -0.285910    0.733435
  C     -1.976506    0.895201    1.342623
  C     -3.885601   -0.548511    1.101909
  C     -4.709561    0.425380    1.620958
  C     -4.177065    1.593509    2.136069
  C     -2.821123    1.755621    2.135974
  H     -2.486043   -1.192362   -0.754540
  H     -4.273564   -1.526957    0.924190
  H     -2.389748    2.620762    2.630543
  H     -5.784961    0.272889    1.612942
  H     -4.816800    2.340876    2.567404
  C     -0.614152    1.426579    1.015053
  C      0.549387    0.532457    1.539310
  H     -0.450636    2.437703    1.383956
  H     -0.608941    1.547789   -0.065168
  C      1.760983    0.595397    0.681292
  H      0.201265   -0.491220    1.634997
  H      0.777292    0.858505    2.555869
  C      1.823885   -0.104067   -0.538313
  C      2.925195    0.083627   -1.368390
  C      3.876348    1.061108   -1.068097
  C      2.801427    1.441881    1.024919
  C      3.827951    1.727346    0.133119
  H      3.036624   -0.501332   -2.270603
  H      4.669217    1.266555   -1.781927
  H      2.816413    1.868826    2.022628
  H      4.506087    2.546756    0.343357
  Pd     0.376510   -1.508358   -1.102593
  Br    -1.290953   -3.718451   -1.268700
  P      1.304538   -2.988504    0.296313
  H      0.530389   -3.440259    1.354028
  C      0.500539   -1.159782   -3.975972
  O      1.666553   -1.637109   -4.174448
  O     -0.335273   -1.425810   -3.085505
  O      0.182000   -0.005688   -4.698501
  H      2.500170   -2.734477    0.963813
  H      1.679590   -4.205263   -0.297210
  H      0.881443    0.179322   -5.301492

 Total Charge           Charge          ....   -1
 Multiplicity           Mult            ....    1
 Number of Electrons    NEL             ....  200
 Basis Dimension        Dim             ....  385

ORBITAL ENERGIES
----------------

  NO   OCC          E(Eh)            E(eV)
   0   2.0000    -484.318650    -13178.9805
   1   2.0000     -77.678776     -2113.7470
   2   2.0000     -62.980217     -1713.7788
   3   2.0000     -56.683776     -1542.4440
   4   2.0000     -56.682989     -1542.4225
   5   2.0000     -56.682814     -1542.4178
   6   2.0000     -19.364798      -526.9429
   7   2.0000     -19.320421      -525.7354
   8   2.0000     -19.293234      -524.9956
   9   2.0000     -10.441964      -284.1403
  10   2.0000     -10.386767      -282.6383
  11   2.0000     -10.376590      -282.3614
  12   2.0000     -10.359240      -281.8892
  13   2.0000     -10.354823      -281.7691
  14   2.0000     -10.352942      -281.7179
  15   2.0000     -10.350115      -281.6410
  16   2.0000     -10.345436      -281.5136
  17   2.0000     -10.345128      -281.5052
  18   2.0000     -10.344882      -281.4985
  19   2.0000     -10.342009      -281.4204
  20   2.0000     -10.340913      -281.3905
  21   2.0000     -10.340832      -281.3884
  22   2.0000     -10.338927      -281.3365
  23   2.0000     -10.328329      -281.0481
  24   2.0000      -8.807303      -239.6589
  25   2.0000      -6.753337      -183.7676
  26   2.0000      -6.576493      -178.9555
  27   2.0000      -6.572601      -178.8496
  28   2.0000      -6.571363      -178.8159
  29   2.0000      -4.844499      -131.8255
  30   2.0000      -4.844237      -131.8184
  31   2.0000      -4.842742      -131.7777
  32   2.0000      -3.523240       -95.8722
  33   2.0000      -2.590607       -70.4940
  34   2.0000      -2.589831       -70.4729
  35   2.0000      -2.588764       -70.4439
  36   2.0000      -2.585422       -70.3529
  37   2.0000      -2.585323       -70.3502
  38   2.0000      -2.168461       -59.0068
  39   2.0000      -2.166715       -58.9593
  40   2.0000      -2.138141       -58.1818
  41   2.0000      -1.052661       -28.6444
  42   2.0000      -0.954549       -25.9746
  43   2.0000      -0.904592       -24.6152
  44   2.0000      -0.862888       -23.4804
  45   2.0000      -0.850878       -23.1536
  46   2.0000      -0.792294       -21.5594
  47   2.0000      -0.749118       -20.3845
  48   2.0000      -0.741049       -20.1650
  49   2.0000      -0.720542       -19.6069
  50   2.0000      -0.689609       -18.7652
  51   2.0000      -0.655504       -17.8372
  52   2.0000      -0.625399       -17.0180
  53   2.0000      -0.624186       -16.9850
  54   2.0000      -0.576859       -15.6971
  55   2.0000      -0.566813       -15.4238
  56   2.0000      -0.556923       -15.1546
  57   2.0000      -0.540261       -14.7012
  58   2.0000      -0.523294       -14.2396
  59   2.0000      -0.479593       -13.0504
  60   2.0000      -0.464823       -12.6485
  61   2.0000      -0.439995       -11.9729
  62   2.0000      -0.419976       -11.4281
  63   2.0000      -0.414924       -11.2907
  64   2.0000      -0.403214       -10.9720
  65   2.0000      -0.400978       -10.9112
  66   2.0000      -0.381293       -10.3755
  67   2.0000      -0.378189       -10.2911
  68   2.0000      -0.377418       -10.2701
  69   2.0000      -0.374793       -10.1986
  70   2.0000      -0.370648       -10.0858
  71   2.0000      -0.368776       -10.0349
  72   2.0000      -0.357977        -9.7410
  73   2.0000      -0.354699        -9.6519
  74   2.0000      -0.347603        -9.4587
  75   2.0000      -0.331912        -9.0318
  76   2.0000      -0.320522        -8.7218
  77   2.0000      -0.318254        -8.6601
  78   2.0000      -0.315657        -8.5895
  79   2.0000      -0.308846        -8.4041
  80   2.0000      -0.296079        -8.0567
  81   2.0000      -0.288597        -7.8531
  82   2.0000      -0.278716        -7.5843
  83   2.0000      -0.254336        -6.9208
  84   2.0000      -0.251780        -6.8513
  85   2.0000      -0.246140        -6.6978
  86   2.0000      -0.240917        -6.5557
  87   2.0000      -0.223344        -6.0775
  88   2.0000      -0.208162        -5.6644
  89   2.0000      -0.197828        -5.3832
  90   2.0000      -0.188615        -5.1325
  91   2.0000      -0.181675        -4.9436
  92   2.0000      -0.177325        -4.8252
  93   2.0000      -0.173055        -4.7091
  94   2.0000      -0.162920        -4.4333
  95   2.0000      -0.161609        -4.3976
  96   2.0000      -0.151392        -4.1196
  97   2.0000      -0.145558        -3.9608
  98   2.0000      -0.143129        -3.8947
  99   2.0000      -0.136462        -3.7133
 100   0.0000       0.064113         1.7446
 101   0.0000       0.078271         2.1298
 102   0.0000       0.106647         2.9020
 103   0.0000       0.123951         3.3729
 104   0.0000       0.126658         3.4465

MULLIKEN ATOMIC CHARGES
-----------------------
   0 C :   -0.149477
   1 C :    0.002208
   2 C :   -0.226106
   3 C :   -0.223993
   4 C :   -0.207766
   5 C :   -0.257171
   6 H :    0.234428
   7 H :    0.235250
   8 H :    0.196308
   9 H :    0.198135
  10 H :    0.196036
  11 C :   -0.485391
  12 C :   -0.512570
  13 H :    0.215022
  14 H :    0.288129
  15 C :    0.117111
  16 H :    0.261193
  17 H :    0.206508
  18 C :   -0.155630
  19 C :   -0.262964
  20 C :   -0.236809
  21 C :   -0.287316
  22 C :   -0.220610
  23 H :    0.275037
  24 H :    0.190137
  25 H :    0.178154
  26 H :    0.182595
  27 Pd:    0.176388
  28 Br:   -0.515033
  29 P :   -0.133286
  30 H :    0.130401
  31 C :    0.698038
  32 O :   -0.574962
  33 O :   -0.528768
  34 O :   -0.636472
  35 H :    0.085446
  36 H :    0.140669
  37 H :    0.407130
Sum of atomic charges:   -1.0000000

LOEWDIN ATOMIC CHARGES
----------------------
   0 C :   -0.099270
   1 C :   -0.043659
   2 C :   -0.146227
   3 C :   -0.160590
   4 C :   -0.154022
   5 C :   -0.149151
   6 H :    0.238577
   7 H :    0.136623
   8 H :    0.126358
   9 H :    0.126274
  10 H :    0.124909
  11 C :   -0.213725
  12 C :   -0.210161
  13 H :    0.124258
  14 H :    0.164459
  15 C :   -0.052347
  16 H :    0.149059
  17 H :    0.120119
  18 C :   -0.017316
  19 C :   -0.122455
  20 C :   -0.148075
  21 C :   -0.148163
  22 C :   -0.163871
  23 H :    0.167148
  24 H :    0.123824
  25 H :    0.120020
  26 H :    0.120967
  27 Pd:   -0.750271
  28 Br:   -0.341352
  29 P :    0.420486
  30 H :    0.059916
  31 C :    0.163307
  32 O :   -0.393162
  33 O :   -0.209223
  34 O :   -0.365683
  35 H :    0.029057
  36 H :    0.069012
  37 H :    0.304349

  Mayer bond orders larger than 0.100000
B(  0-C ,  1-C ) :   1.4225 B(  0-C ,  2-C ) :   1.3888 B(  0-C ,  6-H ) :   0.7884
B(  1-C ,  5-C ) :   1.3795 B(  1-C , 11-C ) :   0.9603 B(  2-C ,  3-C ) :   1.4354
B(  2-C ,  7-H ) :   0.9113 B(  3-C ,  4-C ) :   1.4093 B(  3-C ,  9-H ) :   0.9236
B(  4-C ,  5-C ) :   1.4575 B(  4-C , 10-H ) :   0.9241 B(  5-C ,  8-H ) :   0.9217
B( 11-C , 12-C ) :   0.9245 B( 11-C , 13-H ) :   0.9258 B( 11-C , 14-H ) :   0.8863
B( 12-C , 15-C ) :   0.9697 B( 12-C , 16-H ) :   0.8909 B( 12-C , 17-H ) :   0.9273
B( 15-C , 18-C ) :   1.3378 B( 15-C , 21-C ) :   1.4263 B( 18-C , 19-C ) :   1.4330
B( 18-C , 27-Pd) :   0.7785 B( 18-C , 28-Br) :   0.1067 B( 19-C , 20-C ) :   1.3857
B( 19-C , 23-H ) :   0.8720 B( 20-C , 22-C ) :   1.4463 B( 20-C , 24-H ) :   0.9267
B( 21-C , 22-C ) :   1.4050 B( 21-C , 25-H ) :   0.9264 B( 22-C , 26-H ) :   0.9295
B( 27-Pd, 28-Br) :   0.4413 B( 27-Pd, 29-P ) :   0.7419 B( 27-Pd, 33-O ) :   0.4356
B( 28-Br, 29-P ) :   0.1350 B( 29-P , 30-H ) :   0.9248 B( 29-P , 35-H ) :   0.9022
B( 29-P , 36-H ) :   0.9295 B( 31-C , 32-O ) :   1.7433 B( 31-C , 33-O ) :   1.4581
B( 31-C , 34-O ) :   1.0172 B( 34-O , 37-H ) :   0.7866

Dispersion correction           -0.031047291
FINAL SINGLE POINT ENERGY     -3847.584107374197
Dispersion correction            ... done

DIPOLE MOMENT
-------------
                                X             Y             Z
Electronic contribution:     17.91955     -74.44468     -47.31877
Nuclear contribution   :    -17.35970      75.65879      50.36110
                        -----------------------------------------
Total Dipole Moment    :      0.55985       1.21411       3.04233
                        -----------------------------------------
Magnitude (a.u.)       :      3.32314
Magnitude (Debye)      :      8.44676

Rotational constants in cm-1:     0.006789     0.005737     0.004082
Rotational constants in MHz :   203.530020   171.997646   122.367701

                             ****ORCA TERMINATED NORMALLY****
TOTAL RUN TIME: 0 days 0 hours 35 minutes 34 seconds 954 msec
