                         Program Version 5.0.3 -  RELEASE  -
|  1> ! EnGrad PBEh-3c
|  2> %output
|  3> xyzfile=True
|  4> end
|  5> %scf
|  6> maxiter 250
|  7> end
|  8> %output
|  9> Print[P_Hirshfeld] = 1
| 10> end
| 11> % maxcore
| 12> 4000
| 13> *xyz -1 1
| 14> C   -2.56903228  -0.28168132   0.69639321
| 15> C   -1.98659271   0.89263683   1.33419715
| 16> C   -3.88425968  -0.54451625   1.06878636
| 17> C   -4.70957835   0.41958994   1.61898556
| 18> C   -4.18704532   1.58885834   2.13011035
| 19> C   -2.81793671   1.75594064   2.11430897
| 20> H   -2.46993835  -1.15538981  -0.71764659
| 21> H   -4.26274163  -1.53060547   0.90300782
| 22> H   -2.39897121   2.62849682   2.61909118
| 23> H   -5.78043698   0.27176636   1.58318016
| 24> H   -4.82731486   2.34418102   2.54820295
| 25> C   -0.60207976   1.42446500   1.03699532
| 26> C    0.55770386   0.52753004   1.55367301
| 27> H   -0.45001893   2.43304111   1.43258174
| 28> H   -0.59061508   1.56165677  -0.04204493
| 29> C    1.76901787   0.58618871   0.68934368
| 30> H    0.20092831  -0.49432625   1.64240947
| 31> H    0.79171613   0.85057156   2.56888697
| 32> C    1.81425538  -0.10759859  -0.53923789
| 33> C    2.91617493   0.08952249  -1.36771433
| 34> C    3.87016082   1.06255580  -1.07393820
| 35> C    2.80041921   1.45343935   1.02425999
| 36> C    3.82810625   1.73048601   0.13547682
| 37> H    3.02271635  -0.49748171  -2.27362252
| 38> H    4.65850503   1.27054866  -1.78617643
| 39> H    2.82679726   1.86647998   2.02664915
| 40> H    4.51080005   2.54251375   0.34415533
| 41> Pd   0.35685997  -1.52827910  -1.10837187
| 42> Br  -1.29728847  -3.71010883  -1.23552898
| 43> P    1.30867844  -2.98491614   0.28830405
| 44> H    0.54834531  -3.44990708   1.35554000
| 45> C    0.51951831  -1.18140785  -3.99175576
| 46> O    1.64144908  -1.62145900  -4.17450774
| 47> O   -0.34210815  -1.44490975  -3.06545920
| 48> O    0.15859930  -0.01537641  -4.67481563
| 49> H    2.51700079  -2.73588805   0.94780202
| 50> H    1.67575685  -4.20116961  -0.31659613
| 51> H    0.88118770   0.18955926  -5.29088346
| 52> *
| 53>
| 54>                          ****END OF INPUT****

CARTESIAN COORDINATES (ANGSTROEM)
---------------------------------
  C     -2.569032   -0.281681    0.696393
  C     -1.986593    0.892637    1.334197
  C     -3.884260   -0.544516    1.068786
  C     -4.709578    0.419590    1.618986
  C     -4.187045    1.588858    2.130110
  C     -2.817937    1.755941    2.114309
  H     -2.469938   -1.155390   -0.717647
  H     -4.262742   -1.530605    0.903008
  H     -2.398971    2.628497    2.619091
  H     -5.780437    0.271766    1.583180
  H     -4.827315    2.344181    2.548203
  C     -0.602080    1.424465    1.036995
  C      0.557704    0.527530    1.553673
  H     -0.450019    2.433041    1.432582
  H     -0.590615    1.561657   -0.042045
  C      1.769018    0.586189    0.689344
  H      0.200928   -0.494326    1.642409
  H      0.791716    0.850572    2.568887
  C      1.814255   -0.107599   -0.539238
  C      2.916175    0.089522   -1.367714
  C      3.870161    1.062556   -1.073938
  C      2.800419    1.453439    1.024260
  C      3.828106    1.730486    0.135477
  H      3.022716   -0.497482   -2.273623
  H      4.658505    1.270549   -1.786176
  H      2.826797    1.866480    2.026649
  H      4.510800    2.542514    0.344155
  Pd     0.356860   -1.528279   -1.108372
  Br    -1.297288   -3.710109   -1.235529
  P      1.308678   -2.984916    0.288304
  H      0.548345   -3.449907    1.355540
  C      0.519518   -1.181408   -3.991756
  O      1.641449   -1.621459   -4.174508
  O     -0.342108   -1.444910   -3.065459
  O      0.158599   -0.015376   -4.674816
  H      2.517001   -2.735888    0.947802
  H      1.675757   -4.201170   -0.316596
  H      0.881188    0.189559   -5.290883

 Total Charge           Charge          ....   -1
 Multiplicity           Mult            ....    1
 Number of Electrons    NEL             ....  200
 Basis Dimension        Dim             ....  385

ORBITAL ENERGIES
----------------

  NO   OCC          E(Eh)            E(eV)
   0   2.0000    -484.317903    -13178.9601
   1   2.0000     -77.676830     -2113.6940
   2   2.0000     -62.979511     -1713.7596
   3   2.0000     -56.683098     -1542.4255
   4   2.0000     -56.682259     -1542.4027
   5   2.0000     -56.682098     -1542.3983
   6   2.0000     -19.369065      -527.0590
   7   2.0000     -19.314335      -525.5698
   8   2.0000     -19.308529      -525.4118
   9   2.0000     -10.443588      -284.1845
  10   2.0000     -10.384905      -282.5876
  11   2.0000     -10.375187      -282.3232
  12   2.0000     -10.358450      -281.8678
  13   2.0000     -10.354295      -281.7547
  14   2.0000     -10.351232      -281.6713
  15   2.0000     -10.349438      -281.6225
  16   2.0000     -10.343926      -281.4725
  17   2.0000     -10.343654      -281.4651
  18   2.0000     -10.342960      -281.4462
  19   2.0000     -10.340408      -281.3768
  20   2.0000     -10.339592      -281.3546
  21   2.0000     -10.338425      -281.3228
  22   2.0000     -10.337826      -281.3065
  23   2.0000     -10.327385      -281.0224
  24   2.0000      -8.806644      -239.6410
  25   2.0000      -6.751070      -183.7060
  26   2.0000      -6.575941      -178.9405
  27   2.0000      -6.571836      -178.8287
  28   2.0000      -6.570718      -178.7983
  29   2.0000      -4.842233      -131.7639
  30   2.0000      -4.841993      -131.7573
  31   2.0000      -4.840473      -131.7160
  32   2.0000      -3.521169       -95.8159
  33   2.0000      -2.590029       -70.4783
  34   2.0000      -2.589175       -70.4550
  35   2.0000      -2.588208       -70.4287
  36   2.0000      -2.584680       -70.3327
  37   2.0000      -2.584600       -70.3305
  38   2.0000      -2.166492       -58.9532
  39   2.0000      -2.164147       -58.8894
  40   2.0000      -2.135866       -58.1199
  41   2.0000      -1.056744       -28.7555
  42   2.0000      -0.948577       -25.8121
  43   2.0000      -0.922334       -25.0980
  44   2.0000      -0.860420       -23.4132
  45   2.0000      -0.847873       -23.0718
  46   2.0000      -0.789074       -21.4718
  47   2.0000      -0.746548       -20.3146
  48   2.0000      -0.738461       -20.0946
  49   2.0000      -0.719150       -19.5691
  50   2.0000      -0.687714       -18.7136
  51   2.0000      -0.652997       -17.7689
  52   2.0000      -0.623511       -16.9666
  53   2.0000      -0.622118       -16.9287
  54   2.0000      -0.575487       -15.6598
  55   2.0000      -0.564287       -15.3550
  56   2.0000      -0.555964       -15.1285
  57   2.0000      -0.538404       -14.6507
  58   2.0000      -0.516295       -14.0491
  59   2.0000      -0.476936       -12.9781
  60   2.0000      -0.463020       -12.5994
  61   2.0000      -0.437470       -11.9042
  62   2.0000      -0.418584       -11.3902
  63   2.0000      -0.412587       -11.2271
  64   2.0000      -0.401976       -10.9383
  65   2.0000      -0.398853       -10.8533
  66   2.0000      -0.383834       -10.4447
  67   2.0000      -0.378136       -10.2896
  68   2.0000      -0.375124       -10.2076
  69   2.0000      -0.374049       -10.1784
  70   2.0000      -0.369660       -10.0590
  71   2.0000      -0.366730        -9.9792
  72   2.0000      -0.360988        -9.8230
  73   2.0000      -0.351953        -9.5771
  74   2.0000      -0.347278        -9.4499
  75   2.0000      -0.330935        -9.0052
  76   2.0000      -0.321304        -8.7431
  77   2.0000      -0.317656        -8.6439
  78   2.0000      -0.314763        -8.5651
  79   2.0000      -0.310223        -8.4416
  80   2.0000      -0.293658        -7.9909
  81   2.0000      -0.284500        -7.7416
  82   2.0000      -0.275431        -7.4949
  83   2.0000      -0.258301        -7.0287
  84   2.0000      -0.250869        -6.8265
  85   2.0000      -0.246633        -6.7112
  86   2.0000      -0.240284        -6.5384
  87   2.0000      -0.221981        -6.0404
  88   2.0000      -0.209917        -5.7121
  89   2.0000      -0.199625        -5.4321
  90   2.0000      -0.188469        -5.1285
  91   2.0000      -0.182322        -4.9612
  92   2.0000      -0.179787        -4.8922
  93   2.0000      -0.174857        -4.7581
  94   2.0000      -0.164966        -4.4889
  95   2.0000      -0.163516        -4.4495
  96   2.0000      -0.153697        -4.1823
  97   2.0000      -0.145082        -3.9479
  98   2.0000      -0.142611        -3.8806
  99   2.0000      -0.132226        -3.5981
 100   0.0000       0.068725         1.8701
 101   0.0000       0.086133         2.3438
 102   0.0000       0.109308         2.9744
 103   0.0000       0.126905         3.4533
 104   0.0000       0.131108         3.5676

MULLIKEN ATOMIC CHARGES
-----------------------
   0 C :   -0.168411
   1 C :    0.007598
   2 C :   -0.224388
   3 C :   -0.222490
   4 C :   -0.211395
   5 C :   -0.257066
   6 H :    0.250308
   7 H :    0.235563
   8 H :    0.196498
   9 H :    0.197941
  10 H :    0.195892
  11 C :   -0.483799
  12 C :   -0.510594
  13 H :    0.211177
  14 H :    0.286704
  15 C :    0.097948
  16 H :    0.260856
  17 H :    0.204678
  18 C :   -0.141427
  19 C :   -0.268113
  20 C :   -0.233123
  21 C :   -0.276531
  22 C :   -0.226598
  23 H :    0.267875
  24 H :    0.189107
  25 H :    0.177655
  26 H :    0.181921
  27 Pd:    0.170930
  28 Br:   -0.509987
  29 P :   -0.135000
  30 H :    0.127841
  31 C :    0.696899
  32 O :   -0.514652
  33 O :   -0.565080
  34 O :   -0.629767
  35 H :    0.083621
  36 H :    0.138205
  37 H :    0.399200
Sum of atomic charges:   -1.0000000

LOEWDIN ATOMIC CHARGES
----------------------
   0 C :   -0.104198
   1 C :   -0.042001
   2 C :   -0.144910
   3 C :   -0.162247
   4 C :   -0.154076
   5 C :   -0.150327
   6 H :    0.244378
   7 H :    0.136668
   8 H :    0.126540
   9 H :    0.126374
  10 H :    0.124516
  11 C :   -0.212866
  12 C :   -0.212136
  13 H :    0.122700
  14 H :    0.163678
  15 C :   -0.052368
  16 H :    0.148516
  17 H :    0.119452
  18 C :   -0.021915
  19 C :   -0.124508
  20 C :   -0.149856
  21 C :   -0.149564
  22 C :   -0.164463
  23 H :    0.163311
  24 H :    0.123199
  25 H :    0.120076
  26 H :    0.120379
  27 Pd:   -0.766677
  28 Br:   -0.329505
  29 P :    0.419274
  30 H :    0.058093
  31 C :    0.153048
  32 O :   -0.319991
  33 O :   -0.245074
  34 O :   -0.364060
  35 H :    0.028065
  36 H :    0.067509
  37 H :    0.304966

  Mayer bond orders larger than 0.100000
B(  0-C ,  1-C ) :   1.4043 B(  0-C ,  2-C ) :   1.3961 B(  0-C ,  6-H ) :   0.8039
B(  1-C ,  5-C ) :   1.3987 B(  1-C , 11-C ) :   0.9580 B(  2-C ,  3-C ) :   1.4201
B(  2-C ,  7-H ) :   0.9110 B(  3-C ,  4-C ) :   1.4287 B(  3-C ,  9-H ) :   0.9242
B(  4-C ,  5-C ) :   1.4378 B(  4-C , 10-H ) :   0.9241 B(  5-C ,  8-H ) :   0.9219
B( 11-C , 12-C ) :   0.9233 B( 11-C , 13-H ) :   0.9273 B( 11-C , 14-H ) :   0.8871
B( 12-C , 15-C ) :   0.9731 B( 12-C , 16-H ) :   0.8913 B( 12-C , 17-H ) :   0.9278
B( 15-C , 18-C ) :   1.3415 B( 15-C , 21-C ) :   1.4195 B( 18-C , 19-C ) :   1.4273
B( 18-C , 27-Pd) :   0.7665 B( 18-C , 28-Br) :   0.1066 B( 19-C , 20-C ) :   1.3931
B( 19-C , 23-H ) :   0.8787 B( 20-C , 22-C ) :   1.4405 B( 20-C , 24-H ) :   0.9269
B( 21-C , 22-C ) :   1.4124 B( 21-C , 25-H ) :   0.9263 B( 22-C , 26-H ) :   0.9293
B( 27-Pd, 28-Br) :   0.4610 B( 27-Pd, 29-P ) :   0.7423 B( 27-Pd, 33-O ) :   0.4764
B( 28-Br, 29-P ) :   0.1335 B( 29-P , 30-H ) :   0.9236 B( 29-P , 35-H ) :   0.9017
B( 29-P , 36-H ) :   0.9290 B( 31-C , 32-O ) :   1.8345 B( 31-C , 33-O ) :   1.3736
B( 31-C , 34-O ) :   1.0174 B( 34-O , 37-H ) :   0.7920

Dispersion correction           -0.031055961
FINAL SINGLE POINT ENERGY     -3847.599484285784
Dispersion correction            ... done

DIPOLE MOMENT
-------------
                                X             Y             Z
Electronic contribution:     17.02529     -75.58820     -47.88770
Nuclear contribution   :    -16.35211      76.70947      50.66159
                        -----------------------------------------
Total Dipole Moment    :      0.67318       1.12127       2.77389
                        -----------------------------------------
Magnitude (a.u.)       :      3.06674
Magnitude (Debye)      :      7.79504

Rotational constants in cm-1:     0.006797     0.005759     0.004095
Rotational constants in MHz :   203.772982   172.648057   122.776717

                             ****ORCA TERMINATED NORMALLY****
TOTAL RUN TIME: 0 days 0 hours 21 minutes 9 seconds 115 msec
