                         Program Version 5.0.3 -  RELEASE  -
|  1> ! EnGrad PBEh-3c
|  2> %output
|  3> xyzfile=True
|  4> end
|  5> %scf
|  6> maxiter 250
|  7> end
|  8> %output
|  9> Print[P_Hirshfeld] = 1
| 10> end
| 11> % maxcore
| 12> 4000
| 13> *xyz -1 1
| 14> C   -2.56164848  -0.26980795   0.60904116
| 15> C   -2.00128072   0.89275497   1.30946066
| 16> C   -3.87526395  -0.53421730   0.99203587
| 17> C   -4.70908705   0.40511637   1.60491040
| 18> C   -4.20301328   1.57893503   2.10952456
| 19> C   -2.81818045   1.75519770   2.06504287
| 20> H   -2.42882249  -1.06238913  -0.62568349
| 21> H   -4.23774139  -1.53918121   0.84545612
| 22> H   -2.42199207   2.64484299   2.58617480
| 23> H   -5.77161122   0.26685473   1.51013290
| 24> H   -4.85411127   2.35178098   2.49985640
| 25> C   -0.57655825   1.41888633   1.09398543
| 26> C    0.57537929   0.51486559   1.59013072
| 27> H   -0.44874217   2.41823401   1.55528350
| 28> H   -0.54207902   1.59987877   0.01886140
| 29> C    1.78386527   0.56733025   0.70328165
| 30> H    0.20150746  -0.50355999   1.66232218
| 31> H    0.82926637   0.82924478   2.60351325
| 32> C    1.78801332  -0.11818519  -0.53959628
| 33> C    2.89163802   0.10247455  -1.36904585
| 34> C    3.85319662   1.06762775  -1.08270441
| 35> C    2.80078984   1.47249580   1.02531329
| 36> C    3.82587403   1.73813709   0.13506375
| 37> H    2.98711692  -0.48536983  -2.27957221
| 38> H    4.63277448   1.28062246  -1.79850437
| 39> H    2.85182716   1.86235278   2.03695987
| 40> H    4.52367682   2.53361304   0.34575441
| 41> Pd   0.31962494  -1.57401503  -1.10874616
| 42> Br  -1.31530167  -3.69170813  -1.15284586
| 43> P    1.31805643  -2.97609617   0.26697573
| 44> H    0.59544580  -3.47429982   1.35875577
| 45> C    0.51348629  -1.20206951  -3.99188010
| 46> O    1.61757196  -1.60926558  -4.18575790
| 47> O   -0.34677960  -1.49381220  -3.04747555
| 48> O    0.11649695  -0.04268831  -4.63242758
| 49> H    2.55811329  -2.73939027   0.90457344
| 50> H    1.66632594  -4.19004956  -0.36513614
| 51> H    0.85999979   0.21138692  -5.24698733
| 52> *
| 53>
| 54>                          ****END OF INPUT****

CARTESIAN COORDINATES (ANGSTROEM)
---------------------------------
  C     -2.561648   -0.269808    0.609041
  C     -2.001281    0.892755    1.309461
  C     -3.875264   -0.534217    0.992036
  C     -4.709087    0.405116    1.604910
  C     -4.203013    1.578935    2.109525
  C     -2.818180    1.755198    2.065043
  H     -2.428822   -1.062389   -0.625683
  H     -4.237741   -1.539181    0.845456
  H     -2.421992    2.644843    2.586175
  H     -5.771611    0.266855    1.510133
  H     -4.854111    2.351781    2.499856
  C     -0.576558    1.418886    1.093985
  C      0.575379    0.514866    1.590131
  H     -0.448742    2.418234    1.555283
  H     -0.542079    1.599879    0.018861
  C      1.783865    0.567330    0.703282
  H      0.201507   -0.503560    1.662322
  H      0.829266    0.829245    2.603513
  C      1.788013   -0.118185   -0.539596
  C      2.891638    0.102475   -1.369046
  C      3.853197    1.067628   -1.082704
  C      2.800790    1.472496    1.025313
  C      3.825874    1.738137    0.135064
  H      2.987117   -0.485370   -2.279572
  H      4.632774    1.280622   -1.798504
  H      2.851827    1.862353    2.036960
  H      4.523677    2.533613    0.345754
  Pd     0.319625   -1.574015   -1.108746
  Br    -1.315302   -3.691708   -1.152846
  P      1.318056   -2.976096    0.266976
  H      0.595446   -3.474300    1.358756
  C      0.513486   -1.202070   -3.991880
  O      1.617572   -1.609266   -4.185758
  O     -0.346780   -1.493812   -3.047476
  O      0.116497   -0.042688   -4.632428
  H      2.558113   -2.739390    0.904573
  H      1.666326   -4.190050   -0.365136
  H      0.860000    0.211387   -5.246987

 Total Charge           Charge          ....   -1
 Multiplicity           Mult            ....    1
 Number of Electrons    NEL             ....  200
 Basis Dimension        Dim             ....  385

ORBITAL ENERGIES
----------------

  NO   OCC          E(Eh)            E(eV)
   0   2.0000    -484.320595    -13179.0334
   1   2.0000     -77.677022     -2113.6992
   2   2.0000     -62.982300     -1713.8355
   3   2.0000     -56.685949     -1542.5031
   4   2.0000     -56.684995     -1542.4771
   5   2.0000     -56.684862     -1542.4735
   6   2.0000     -19.374040      -527.1944
   7   2.0000     -19.314226      -525.5668
   8   2.0000     -19.311946      -525.5048
   9   2.0000     -10.443523      -284.1827
  10   2.0000     -10.381022      -282.4820
  11   2.0000     -10.375701      -282.3372
  12   2.0000     -10.357911      -281.8531
  13   2.0000     -10.355123      -281.7772
  14   2.0000     -10.350379      -281.6481
  15   2.0000     -10.349812      -281.6327
  16   2.0000     -10.344018      -281.4750
  17   2.0000     -10.343679      -281.4658
  18   2.0000     -10.341850      -281.4160
  19   2.0000     -10.339550      -281.3535
  20   2.0000     -10.338777      -281.3324
  21   2.0000     -10.336764      -281.2777
  22   2.0000     -10.336615      -281.2736
  23   2.0000     -10.326583      -281.0006
  24   2.0000      -8.809551      -239.7201
  25   2.0000      -6.750497      -183.6904
  26   2.0000      -6.579114      -179.0268
  27   2.0000      -6.574517      -178.9017
  28   2.0000      -6.573614      -178.8771
  29   2.0000      -4.841655      -131.7481
  30   2.0000      -4.841461      -131.7429
  31   2.0000      -4.839963      -131.7021
  32   2.0000      -3.521941       -95.8369
  33   2.0000      -2.593142       -70.5630
  34   2.0000      -2.592125       -70.5353
  35   2.0000      -2.591332       -70.5137
  36   2.0000      -2.587375       -70.4060
  37   2.0000      -2.587329       -70.4048
  38   2.0000      -2.168195       -58.9996
  39   2.0000      -2.163968       -58.8846
  40   2.0000      -2.136445       -58.1356
  41   2.0000      -1.066558       -29.0225
  42   2.0000      -0.957092       -26.0438
  43   2.0000      -0.919137       -25.0110
  44   2.0000      -0.857863       -23.3436
  45   2.0000      -0.843546       -22.9541
  46   2.0000      -0.785141       -21.3648
  47   2.0000      -0.743290       -20.2260
  48   2.0000      -0.736797       -20.0493
  49   2.0000      -0.717534       -19.5251
  50   2.0000      -0.685533       -18.6543
  51   2.0000      -0.651774       -17.7357
  52   2.0000      -0.625369       -17.0172
  53   2.0000      -0.618212       -16.8224
  54   2.0000      -0.573183       -15.5971
  55   2.0000      -0.561125       -15.2690
  56   2.0000      -0.555831       -15.1249
  57   2.0000      -0.535798       -14.5798
  58   2.0000      -0.516592       -14.0572
  59   2.0000      -0.473341       -12.8803
  60   2.0000      -0.460709       -12.5365
  61   2.0000      -0.435261       -11.8441
  62   2.0000      -0.417847       -11.3702
  63   2.0000      -0.410117       -11.1598
  64   2.0000      -0.401238       -10.9182
  65   2.0000      -0.400719       -10.9041
  66   2.0000      -0.390054       -10.6139
  67   2.0000      -0.375371       -10.2144
  68   2.0000      -0.374650       -10.1947
  69   2.0000      -0.370840       -10.0911
  70   2.0000      -0.368141       -10.0176
  71   2.0000      -0.365580        -9.9479
  72   2.0000      -0.363351        -9.8873
  73   2.0000      -0.348936        -9.4950
  74   2.0000      -0.348489        -9.4829
  75   2.0000      -0.330647        -8.9974
  76   2.0000      -0.324793        -8.8381
  77   2.0000      -0.317352        -8.6356
  78   2.0000      -0.312219        -8.4959
  79   2.0000      -0.310338        -8.4447
  80   2.0000      -0.291078        -7.9206
  81   2.0000      -0.279424        -7.6035
  82   2.0000      -0.277507        -7.5513
  83   2.0000      -0.264446        -7.1959
  84   2.0000      -0.252577        -6.8730
  85   2.0000      -0.247759        -6.7419
  86   2.0000      -0.242836        -6.6079
  87   2.0000      -0.223753        -6.0886
  88   2.0000      -0.214688        -5.8419
  89   2.0000      -0.200540        -5.4570
  90   2.0000      -0.187419        -5.0999
  91   2.0000      -0.184158        -5.0112
  92   2.0000      -0.182435        -4.9643
  93   2.0000      -0.174331        -4.7438
  94   2.0000      -0.166235        -4.5235
  95   2.0000      -0.163584        -4.4514
  96   2.0000      -0.154337        -4.1997
  97   2.0000      -0.147140        -4.0039
  98   2.0000      -0.143888        -3.9154
  99   2.0000      -0.131082        -3.5669
 100   0.0000       0.072215         1.9651
 101   0.0000       0.095003         2.5852
 102   0.0000       0.111401         3.0314
 103   0.0000       0.127564         3.4712
 104   0.0000       0.131241         3.5713

MULLIKEN ATOMIC CHARGES
-----------------------
   0 C :   -0.213486
   1 C :    0.024934
   2 C :   -0.221958
   3 C :   -0.221479
   4 C :   -0.217114
   5 C :   -0.253593
   6 H :    0.282556
   7 H :    0.235365
   8 H :    0.196096
   9 H :    0.198030
  10 H :    0.195634
  11 C :   -0.481465
  12 C :   -0.507356
  13 H :    0.204514
  14 H :    0.282073
  15 C :    0.061875
  16 H :    0.260249
  17 H :    0.202305
  18 C :   -0.121615
  19 C :   -0.278317
  20 C :   -0.225732
  21 C :   -0.257681
  22 C :   -0.234839
  23 H :    0.263253
  24 H :    0.188520
  25 H :    0.177326
  26 H :    0.181617
  27 Pd:    0.164889
  28 Br:   -0.492821
  29 P :   -0.132800
  30 H :    0.123268
  31 C :    0.691589
  32 O :   -0.487045
  33 O :   -0.583210
  34 O :   -0.616709
  35 H :    0.081950
  36 H :    0.136627
  37 H :    0.394551
Sum of atomic charges:   -1.0000000

LOEWDIN ATOMIC CHARGES
----------------------
   0 C :   -0.113354
   1 C :   -0.035701
   2 C :   -0.141549
   3 C :   -0.165651
   4 C :   -0.153359
   5 C :   -0.153255
   6 H :    0.245341
   7 H :    0.137403
   8 H :    0.126875
   9 H :    0.127192
  10 H :    0.124082
  11 C :   -0.212121
  12 C :   -0.215996
  13 H :    0.120494
  14 H :    0.161613
  15 C :   -0.051308
  16 H :    0.147552
  17 H :    0.118644
  18 C :   -0.031930
  19 C :   -0.126038
  20 C :   -0.153007
  21 C :   -0.152906
  22 C :   -0.163774
  23 H :    0.160121
  24 H :    0.122887
  25 H :    0.120472
  26 H :    0.119576
  27 Pd:   -0.787561
  28 Br:   -0.298281
  29 P :    0.424720
  30 H :    0.054934
  31 C :    0.136861
  32 O :   -0.287011
  33 O :   -0.257313
  34 O :   -0.350284
  35 H :    0.027552
  36 H :    0.066655
  37 H :    0.307422

  Mayer bond orders larger than 0.100000
B(  0-C ,  1-C ) :   1.3586 B(  0-C ,  2-C ) :   1.4198 B(  0-C ,  6-H ) :   0.8325
B(  1-C ,  5-C ) :   1.4356 B(  1-C , 11-C ) :   0.9531 B(  2-C ,  3-C ) :   1.3876
B(  2-C ,  7-H ) :   0.9104 B(  3-C ,  4-C ) :   1.4644 B(  3-C ,  9-H ) :   0.9248
B(  4-C ,  5-C ) :   1.4002 B(  4-C , 10-H ) :   0.9240 B(  5-C ,  8-H ) :   0.9223
B( 11-C , 12-C ) :   0.9193 B( 11-C , 13-H ) :   0.9302 B( 11-C , 14-H ) :   0.8893
B( 12-C , 15-C ) :   0.9779 B( 12-C , 16-H ) :   0.8926 B( 12-C , 17-H ) :   0.9289
B( 15-C , 18-C ) :   1.3454 B( 15-C , 21-C ) :   1.4058 B( 18-C , 19-C ) :   1.4175
B( 18-C , 27-Pd) :   0.7399 B( 18-C , 28-Br) :   0.1091 B( 19-C , 20-C ) :   1.4025
B( 19-C , 23-H ) :   0.8820 B( 20-C , 22-C ) :   1.4317 B( 20-C , 24-H ) :   0.9272
B( 21-C , 22-C ) :   1.4239 B( 21-C , 25-H ) :   0.9260 B( 22-C , 26-H ) :   0.9288
B( 27-Pd, 28-Br) :   0.5040 B( 27-Pd, 29-P ) :   0.7670 B( 27-Pd, 33-O ) :   0.4993
B( 28-Br, 29-P ) :   0.1318 B( 29-P , 30-H ) :   0.9207 B( 29-P , 35-H ) :   0.9007
B( 29-P , 36-H ) :   0.9270 B( 31-C , 32-O ) :   1.8783 B( 31-C , 33-O ) :   1.3301
B( 31-C , 34-O ) :   1.0310 B( 34-O , 37-H ) :   0.7941

Dispersion correction           -0.030832123
FINAL SINGLE POINT ENERGY     -3847.625601506687
Dispersion correction            ... done

DIPOLE MOMENT
-------------
                                X             Y             Z
Electronic contribution:     15.11225     -78.05593     -48.05531
Nuclear contribution   :    -14.43084      79.10109      50.61139
                        -----------------------------------------
Total Dipole Moment    :      0.68141       1.04515       2.55608
                        -----------------------------------------
Magnitude (a.u.)       :      2.84433
Magnitude (Debye)      :      7.22971

Rotational constants in cm-1:     0.006814     0.005804     0.004127
Rotational constants in MHz :   204.264089   174.010158   123.719346

                             ****ORCA TERMINATED NORMALLY****
TOTAL RUN TIME: 0 days 0 hours 30 minutes 0 seconds 418 msec
