                         Program Version 5.0.3 -  RELEASE  -
|  1> ! EnGrad PBEh-3c
|  2> %output
|  3> xyzfile=True
|  4> end
|  5> %scf
|  6> maxiter 250
|  7> end
|  8> %output
|  9> Print[P_Hirshfeld] = 1
| 10> end
| 11> % maxcore
| 12> 4000
| 13> *xyz -1 1
| 14> C   -2.54930435  -0.24231532   0.50571668
| 15> C   -2.01172627   0.90039736   1.26947745
| 16> C   -3.85833332  -0.52502293   0.90247373
| 17> C   -4.70854553   0.38904072   1.56734273
| 18> C   -4.22247666   1.56760446   2.06874988
| 19> C   -2.81871207   1.75205004   2.00513097
| 20> H   -2.36883053  -0.93604986  -0.50051365
| 21> H   -4.20775124  -1.54658010   0.75576618
| 22> H   -2.45273986   2.66037971   2.53212179
| 23> H   -5.76268270   0.25539297   1.41500088
| 24> H   -4.88855987   2.35778473   2.43245389
| 25> C   -0.54738240   1.41297810   1.17392225
| 26> C    0.59274310   0.49711829   1.64081772
| 27> H   -0.44872519   2.38969843   1.72342844
| 28> H   -0.46887706   1.65942253   0.10900567
| 29> C    1.79111075   0.55123518   0.71190760
| 30> H    0.20523432  -0.51992385   1.69254011
| 31> H    0.88329825   0.79646041   2.65394951
| 32> C    1.75198826  -0.13680123  -0.53850891
| 33> C    2.85181705   0.11819681  -1.37162639
| 34> C    3.82812356   1.07282294  -1.09321844
| 35> C    2.80743343   1.47795351   1.03205764
| 36> C    3.81683591   1.75301903   0.12995232
| 37> H    2.93639667  -0.46524559  -2.28791586
| 38> H    4.59745156   1.29380007  -1.81640773
| 39> H    2.88279549   1.86030806   2.04938334
| 40> H    4.54216292   2.52265389   0.34632787
| 41> Pd   0.29499439  -1.62551864  -1.07744482
| 42> Br  -1.34433024  -3.67032085  -1.04171133
| 43> P    1.33048855  -2.96623725   0.23541393
| 44> H    0.66395110  -3.50747412   1.36150567
| 45> C    0.53222744  -1.19499413  -3.97481414
| 46> O    1.57957191  -1.61013599  -4.20530563
| 47> O   -0.36783107  -1.56711906  -3.05419121
| 48> O    0.04948452  -0.08468109  -4.57827088
| 49> H    2.61128221  -2.74310994   0.83886143
| 50> H    1.65360004  -4.17266157  -0.43099840
| 51> H    0.82103304   0.23230683  -5.17438373
| 52> *
| 53>
| 54>                          ****END OF INPUT****

CARTESIAN COORDINATES (ANGSTROEM)
---------------------------------
  C     -2.549304   -0.242315    0.505717
  C     -2.011726    0.900397    1.269477
  C     -3.858333   -0.525023    0.902474
  C     -4.708546    0.389041    1.567343
  C     -4.222477    1.567604    2.068750
  C     -2.818712    1.752050    2.005131
  H     -2.368831   -0.936050   -0.500514
  H     -4.207751   -1.546580    0.755766
  H     -2.452740    2.660380    2.532122
  H     -5.762683    0.255393    1.415001
  H     -4.888560    2.357785    2.432454
  C     -0.547382    1.412978    1.173922
  C      0.592743    0.497118    1.640818
  H     -0.448725    2.389698    1.723428
  H     -0.468877    1.659423    0.109006
  C      1.791111    0.551235    0.711908
  H      0.205234   -0.519924    1.692540
  H      0.883298    0.796460    2.653950
  C      1.751988   -0.136801   -0.538509
  C      2.851817    0.118197   -1.371626
  C      3.828124    1.072823   -1.093218
  C      2.807433    1.477954    1.032058
  C      3.816836    1.753019    0.129952
  H      2.936397   -0.465246   -2.287916
  H      4.597452    1.293800   -1.816408
  H      2.882795    1.860308    2.049383
  H      4.542163    2.522654    0.346328
  Pd     0.294994   -1.625519   -1.077445
  Br    -1.344330   -3.670321   -1.041711
  P      1.330489   -2.966237    0.235414
  H      0.663951   -3.507474    1.361506
  C      0.532227   -1.194994   -3.974814
  O      1.579572   -1.610136   -4.205306
  O     -0.367831   -1.567119   -3.054191
  O      0.049485   -0.084681   -4.578271
  H      2.611282   -2.743110    0.838861
  H      1.653600   -4.172662   -0.430998
  H      0.821033    0.232307   -5.174384

 Total Charge           Charge          ....   -1
 Multiplicity           Mult            ....    1
 Number of Electrons    NEL             ....  200
 Basis Dimension        Dim             ....  385

ORBITAL ENERGIES
----------------

  NO   OCC          E(Eh)            E(eV)
   0   2.0000    -484.323667    -13179.1170
   1   2.0000     -77.678460     -2113.7383
   2   2.0000     -62.985466     -1713.9217
   3   2.0000     -56.689178     -1542.5909
   4   2.0000     -56.688113     -1542.5620
   5   2.0000     -56.687992     -1542.5587
   6   2.0000     -19.381002      -527.3839
   7   2.0000     -19.320887      -525.7481
   8   2.0000     -19.301594      -525.2231
   9   2.0000     -10.438481      -284.0455
  10   2.0000     -10.375884      -282.3422
  11   2.0000     -10.369775      -282.1759
  12   2.0000     -10.356469      -281.8139
  13   2.0000     -10.355900      -281.7984
  14   2.0000     -10.351311      -281.6735
  15   2.0000     -10.349103      -281.6134
  16   2.0000     -10.346811      -281.5510
  17   2.0000     -10.345227      -281.5079
  18   2.0000     -10.342664      -281.4382
  19   2.0000     -10.341011      -281.3932
  20   2.0000     -10.340229      -281.3719
  21   2.0000     -10.337772      -281.3051
  22   2.0000     -10.336944      -281.2825
  23   2.0000     -10.327871      -281.0357
  24   2.0000      -8.812838      -239.8095
  25   2.0000      -6.751240      -183.7106
  26   2.0000      -6.582700      -179.1244
  27   2.0000      -6.577616      -178.9860
  28   2.0000      -6.576802      -178.9639
  29   2.0000      -4.842357      -131.7672
  30   2.0000      -4.842216      -131.7634
  31   2.0000      -4.840866      -131.7267
  32   2.0000      -3.526158       -95.9516
  33   2.0000      -2.596669       -70.6590
  34   2.0000      -2.595519       -70.6277
  35   2.0000      -2.594792       -70.6079
  36   2.0000      -2.590414       -70.4888
  37   2.0000      -2.590387       -70.4880
  38   2.0000      -2.173819       -59.1526
  39   2.0000      -2.167150       -58.9711
  40   2.0000      -2.140383       -58.2428
  41   2.0000      -1.085345       -29.5337
  42   2.0000      -0.977684       -26.6041
  43   2.0000      -0.901152       -24.5216
  44   2.0000      -0.855519       -23.2798
  45   2.0000      -0.840181       -22.8625
  46   2.0000      -0.782069       -21.2812
  47   2.0000      -0.740467       -20.1491
  48   2.0000      -0.736307       -20.0359
  49   2.0000      -0.717727       -19.5303
  50   2.0000      -0.684268       -18.6199
  51   2.0000      -0.652277       -17.7493
  52   2.0000      -0.626553       -17.0494
  53   2.0000      -0.614936       -16.7333
  54   2.0000      -0.572663       -15.5830
  55   2.0000      -0.559488       -15.2244
  56   2.0000      -0.555681       -15.1208
  57   2.0000      -0.534453       -14.5432
  58   2.0000      -0.513849       -13.9825
  59   2.0000      -0.471323       -12.8254
  60   2.0000      -0.459572       -12.5056
  61   2.0000      -0.434759       -11.8304
  62   2.0000      -0.419323       -11.4104
  63   2.0000      -0.410693       -11.1755
  64   2.0000      -0.403609       -10.9827
  65   2.0000      -0.400578       -10.9003
  66   2.0000      -0.396057       -10.7773
  67   2.0000      -0.381641       -10.3850
  68   2.0000      -0.378849       -10.3090
  69   2.0000      -0.370007       -10.0684
  70   2.0000      -0.366521        -9.9735
  71   2.0000      -0.365198        -9.9375
  72   2.0000      -0.360948        -9.8219
  73   2.0000      -0.352396        -9.5892
  74   2.0000      -0.347071        -9.4443
  75   2.0000      -0.334365        -9.0985
  76   2.0000      -0.326456        -8.8833
  77   2.0000      -0.317969        -8.6524
  78   2.0000      -0.315061        -8.5732
  79   2.0000      -0.311514        -8.4767
  80   2.0000      -0.289690        -7.8829
  81   2.0000      -0.284250        -7.7348
  82   2.0000      -0.276459        -7.5228
  83   2.0000      -0.261635        -7.1195
  84   2.0000      -0.254957        -6.9377
  85   2.0000      -0.250208        -6.8085
  86   2.0000      -0.245434        -6.6786
  87   2.0000      -0.229502        -6.2451
  88   2.0000      -0.222752        -6.0614
  89   2.0000      -0.201906        -5.4941
  90   2.0000      -0.189477        -5.1559
  91   2.0000      -0.185891        -5.0584
  92   2.0000      -0.182290        -4.9604
  93   2.0000      -0.174051        -4.7362
  94   2.0000      -0.169281        -4.6064
  95   2.0000      -0.161402        -4.3920
  96   2.0000      -0.156273        -4.2524
  97   2.0000      -0.149354        -4.0641
  98   2.0000      -0.145254        -3.9526
  99   2.0000      -0.129160        -3.5146
 100   0.0000       0.074201         2.0191
 101   0.0000       0.097402         2.6504
 102   0.0000       0.113654         3.0927
 103   0.0000       0.126201         3.4341
 104   0.0000       0.130651         3.5552

MULLIKEN ATOMIC CHARGES
-----------------------
   0 C :   -0.243972
   1 C :    0.052303
   2 C :   -0.236490
   3 C :   -0.221207
   4 C :   -0.223498
   5 C :   -0.249255
   6 H :    0.310006
   7 H :    0.235347
   8 H :    0.194832
   9 H :    0.197680
  10 H :    0.194816
  11 C :   -0.479257
  12 C :   -0.505844
  13 H :    0.198317
  14 H :    0.275918
  15 C :    0.035374
  16 H :    0.260943
  17 H :    0.200950
  18 C :   -0.108569
  19 C :   -0.287375
  20 C :   -0.220744
  21 C :   -0.245915
  22 C :   -0.238711
  23 H :    0.256011
  24 H :    0.188082
  25 H :    0.177694
  26 H :    0.182688
  27 Pd:    0.150531
  28 Br:   -0.469747
  29 P :   -0.130241
  30 H :    0.117559
  31 C :    0.669536
  32 O :   -0.443461
  33 O :   -0.603326
  34 O :   -0.590117
  35 H :    0.079075
  36 H :    0.135596
  37 H :    0.384469
Sum of atomic charges:   -1.0000000

LOEWDIN ATOMIC CHARGES
----------------------
   0 C :   -0.115463
   1 C :   -0.027936
   2 C :   -0.133704
   3 C :   -0.169171
   4 C :   -0.152257
   5 C :   -0.157326
   6 H :    0.227016
   7 H :    0.138896
   8 H :    0.126721
   9 H :    0.127947
  10 H :    0.123639
  11 C :   -0.211756
  12 C :   -0.219760
  13 H :    0.119001
  14 H :    0.158948
  15 C :   -0.046528
  16 H :    0.147731
  17 H :    0.118120
  18 C :   -0.042491
  19 C :   -0.127398
  20 C :   -0.156561
  21 C :   -0.156090
  22 C :   -0.162172
  23 H :    0.156128
  24 H :    0.122855
  25 H :    0.120958
  26 H :    0.119165
  27 Pd:   -0.801794
  28 Br:   -0.264086
  29 P :    0.435921
  30 H :    0.051382
  31 C :    0.097641
  32 O :   -0.235398
  33 O :   -0.289855
  34 O :   -0.322476
  35 H :    0.026544
  36 H :    0.066160
  37 H :    0.307447

  Mayer bond orders larger than 0.100000
B(  0-C ,  1-C ) :   1.3066 B(  0-C ,  2-C ) :   1.4655 B(  0-C ,  6-H ) :   0.8523
B(  1-C ,  5-C ) :   1.4715 B(  1-C , 11-C ) :   0.9477 B(  2-C ,  3-C ) :   1.3531
B(  2-C ,  7-H ) :   0.9100 B(  3-C ,  4-C ) :   1.4995 B(  3-C ,  9-H ) :   0.9249
B(  4-C ,  5-C ) :   1.3618 B(  4-C , 10-H ) :   0.9241 B(  5-C ,  8-H ) :   0.9229
B( 11-C , 12-C ) :   0.9134 B( 11-C , 13-H ) :   0.9330 B( 11-C , 14-H ) :   0.8922
B( 12-C , 15-C ) :   0.9768 B( 12-C , 16-H ) :   0.8937 B( 12-C , 17-H ) :   0.9310
B( 15-C , 18-C ) :   1.3461 B( 15-C , 21-C ) :   1.3923 B( 18-C , 19-C ) :   1.4070
B( 18-C , 27-Pd) :   0.7186 B( 18-C , 28-Br) :   0.1118 B( 19-C , 20-C ) :   1.4096
B( 19-C , 23-H ) :   0.8868 B( 20-C , 22-C ) :   1.4238 B( 20-C , 24-H ) :   0.9275
B( 21-C , 22-C ) :   1.4350 B( 21-C , 25-H ) :   0.9262 B( 22-C , 26-H ) :   0.9279
B( 27-Pd, 28-Br) :   0.5429 B( 27-Pd, 29-P ) :   0.8295 B( 27-Pd, 33-O ) :   0.5285
B( 28-Br, 29-P ) :   0.1339 B( 29-P , 30-H ) :   0.9161 B( 29-P , 35-H ) :   0.8984
B( 29-P , 36-H ) :   0.9232 B( 31-C , 32-O ) :   1.9472 B( 31-C , 33-O ) :   1.2733
B( 31-C , 34-O ) :   1.0587 B( 34-O , 37-H ) :   0.7993

Dispersion correction           -0.030492047
FINAL SINGLE POINT ENERGY     -3847.648369717512
Dispersion correction            ... done

DIPOLE MOMENT
-------------
                                X             Y             Z
Electronic contribution:     14.04787     -80.71351     -46.39645
Nuclear contribution   :    -13.23673      81.76331      48.79935
                        -----------------------------------------
Total Dipole Moment    :      0.81114       1.04979       2.40290
                        -----------------------------------------
Magnitude (a.u.)       :      2.74480
Magnitude (Debye)      :      6.97673

Rotational constants in cm-1:     0.006830     0.005859     0.004170
Rotational constants in MHz :   204.772428   175.638239   125.021484

                             ****ORCA TERMINATED NORMALLY****
TOTAL RUN TIME: 0 days 0 hours 26 minutes 31 seconds 886 msec
