                         Program Version 5.0.3 -  RELEASE  -
|  1> ! EnGrad PBEh-3c
|  2> %output
|  3> xyzfile=True
|  4> end
|  5> %scf
|  6> maxiter 250
|  7> end
|  8> %output
|  9> Print[P_Hirshfeld] = 1
| 10> end
| 11> % maxcore
| 12> 4000
| 13> *xyz 0 1
| 14> C   -1.45562130   0.17912658  -0.66345119
| 15> C   -2.14842574  -0.88364679  -1.23075771
| 16> C   -1.85508600  -2.18630551  -0.86615538
| 17> C   -0.86034918  -2.45198686   0.05981938
| 18> C   -0.51191982  -0.14138716   0.29130411
| 19> C   -0.19235696  -1.41847262   0.69847306
| 20> H   -1.73102056   1.15863131  -1.03455271
| 21> H   -2.92337146  -0.69327924  -1.96078009
| 22> H   -2.41825027  -3.00241119  -1.30455451
| 23> H    0.57700368  -1.68150880   1.41251145
| 24> H   -0.63403055  -3.47548777   0.32833815
| 25> Pd   1.45849793   1.09078754  -0.15798590
| 26> O    3.37910052   1.38657959  -1.08227718
| 27> O    2.67961261  -0.54815573  -0.39786611
| 28> O    0.34895920   2.79246877   0.16765357
| 29> C   -0.07058540   2.90309493   1.31046355
| 30> O    0.27177049   2.08892157   2.24756056
| 31> H   -1.13820665   1.37535822   2.89336252
| 32> C    3.55475726   0.15869422  -0.96194879
| 33> H    4.46845462  -0.33409008  -1.31490156
| 34> H   -0.79892589   3.68305901   1.56575786
| 35> *
| 36>
| 37>                          ****END OF INPUT****

CARTESIAN COORDINATES (ANGSTROEM)
---------------------------------
  C     -1.455621    0.179127   -0.663451
  C     -2.148426   -0.883647   -1.230758
  C     -1.855086   -2.186306   -0.866155
  C     -0.860349   -2.451987    0.059819
  C     -0.511920   -0.141387    0.291304
  C     -0.192357   -1.418473    0.698473
  H     -1.731021    1.158631   -1.034553
  H     -2.923371   -0.693279   -1.960780
  H     -2.418250   -3.002411   -1.304555
  H      0.577004   -1.681509    1.412511
  H     -0.634031   -3.475488    0.328338
  Pd     1.458498    1.090788   -0.157986
  O      3.379101    1.386580   -1.082277
  O      2.679613   -0.548156   -0.397866
  O      0.348959    2.792469    0.167654
  C     -0.070585    2.903095    1.310464
  O      0.271770    2.088922    2.247561
  H     -1.138207    1.375358    2.893363
  C      3.554757    0.158694   -0.961949
  H      4.468455   -0.334090   -1.314902
  H     -0.798926    3.683059    1.565758

 Total Charge           Charge          ....    0
 Multiplicity           Mult            ....    1
 Number of Electrons    NEL             ....  106
 Basis Dimension        Dim             ....  227

ORBITAL ENERGIES
----------------

  NO   OCC          E(Eh)            E(eV)
   0   2.0000     -19.568254      -532.4793
   1   2.0000     -19.556981      -532.1725
   2   2.0000     -19.501701      -530.6683
   3   2.0000     -19.490870      -530.3735
   4   2.0000     -10.609212      -288.6913
   5   2.0000     -10.560851      -287.3754
   6   2.0000     -10.466533      -284.8088
   7   2.0000     -10.451785      -284.4075
   8   2.0000     -10.448451      -284.3168
   9   2.0000     -10.447728      -284.2971
  10   2.0000     -10.446950      -284.2760
  11   2.0000     -10.446301      -284.2583
  12   2.0000      -3.646455       -99.2251
  13   2.0000      -2.296328       -62.4863
  14   2.0000      -2.286927       -62.2304
  15   2.0000      -2.259585       -61.4864
  16   2.0000      -1.243858       -33.8471
  17   2.0000      -1.201245       -32.6876
  18   2.0000      -1.139126       -30.9972
  19   2.0000      -1.087509       -29.5926
  20   2.0000      -0.957627       -26.0583
  21   2.0000      -0.842278       -22.9196
  22   2.0000      -0.826718       -22.4961
  23   2.0000      -0.712832       -19.3971
  24   2.0000      -0.679449       -18.4888
  25   2.0000      -0.668522       -18.1914
  26   2.0000      -0.666895       -18.1471
  27   2.0000      -0.609378       -16.5820
  28   2.0000      -0.582745       -15.8573
  29   2.0000      -0.581150       -15.8139
  30   2.0000      -0.560753       -15.2589
  31   2.0000      -0.544375       -14.8132
  32   2.0000      -0.529154       -14.3990
  33   2.0000      -0.515709       -14.0332
  34   2.0000      -0.510847       -13.9008
  35   2.0000      -0.501908       -13.6576
  36   2.0000      -0.483586       -13.1590
  37   2.0000      -0.442952       -12.0533
  38   2.0000      -0.431744       -11.7484
  39   2.0000      -0.426541       -11.6068
  40   2.0000      -0.425212       -11.5706
  41   2.0000      -0.406562       -11.0631
  42   2.0000      -0.398348       -10.8396
  43   2.0000      -0.383915       -10.4469
  44   2.0000      -0.370782       -10.0895
  45   2.0000      -0.364913        -9.9298
  46   2.0000      -0.345048        -9.3892
  47   2.0000      -0.326714        -8.8903
  48   2.0000      -0.315013        -8.5719
  49   2.0000      -0.299994        -8.1633
  50   2.0000      -0.294381        -8.0105
  51   2.0000      -0.287531        -7.8241
  52   2.0000      -0.254539        -6.9264
  53   0.0000      -0.148902        -4.0518
  54   0.0000      -0.060739        -1.6528
  55   0.0000       0.008450         0.2299
  56   0.0000       0.020166         0.5488
  57   0.0000       0.028754         0.7824

MULLIKEN ATOMIC CHARGES
-----------------------
   0 C :   -0.208247
   1 C :   -0.231521
   2 C :   -0.212193
   3 C :   -0.229448
   4 C :   -0.182580
   5 C :   -0.208889
   6 H :    0.237185
   7 H :    0.221479
   8 H :    0.220850
   9 H :    0.250279
  10 H :    0.221176
  11 Pd:    0.377859
  12 O :   -0.466103
  13 O :   -0.470969
  14 O :   -0.389988
  15 C :    0.372884
  16 O :   -0.396166
  17 H :    0.299514
  18 C :    0.395410
  19 H :    0.188058
  20 H :    0.211409
Sum of atomic charges:    0.0000000

LOEWDIN ATOMIC CHARGES
----------------------
   0 C :   -0.128801
   1 C :   -0.130629
   2 C :   -0.134007
   3 C :   -0.124719
   4 C :   -0.035907
   5 C :   -0.111450
   6 H :    0.151590
   7 H :    0.134819
   8 H :    0.136814
   9 H :    0.157763
  10 H :    0.136173
  11 Pd:   -0.286128
  12 O :   -0.179229
  13 O :   -0.158022
  14 O :   -0.056333
  15 C :    0.131773
  16 O :   -0.187000
  17 H :    0.308775
  18 C :    0.144846
  19 H :    0.111975
  20 H :    0.117694

  Mayer bond orders larger than 0.100000
B(  0-C ,  1-C ) :   1.4174 B(  0-C ,  4-C ) :   1.3661 B(  0-C ,  6-H ) :   0.9048
B(  1-C ,  2-C ) :   1.4344 B(  1-C ,  7-H ) :   0.9136 B(  2-C ,  3-C ) :   1.4190
B(  2-C ,  8-H ) :   0.9194 B(  3-C ,  5-C ) :   1.4265 B(  3-C , 10-H ) :   0.9142
B(  4-C ,  5-C ) :   1.3978 B(  4-C , 11-Pd) :   0.7077 B(  4-C , 17-H ) :   0.1214
B(  5-C ,  9-H ) :   0.9021 B( 11-Pd, 12-O ) :   0.4112 B( 11-Pd, 13-O ) :   0.5513
B( 11-Pd, 14-O ) :   0.4284 B( 12-O , 13-O ) :   0.1145 B( 12-O , 18-C ) :   1.5597
B( 13-O , 18-C ) :   1.4442 B( 14-O , 15-C ) :   1.6466 B( 15-C , 16-O ) :   1.3793
B( 15-C , 20-H ) :   0.8747 B( 16-O , 17-H ) :   0.5628 B( 18-C , 19-H ) :   0.8864

Dispersion correction           -0.013254886
FINAL SINGLE POINT ENERGY      -736.937153359812
Dispersion correction            ... done

DIPOLE MOMENT
-------------
                                X             Y             Z
Electronic contribution:     53.48685      41.33545      -6.32425
Nuclear contribution   :    -55.02451     -41.18874       7.27925
                        -----------------------------------------
Total Dipole Moment    :     -1.53766       0.14671       0.95500
                        -----------------------------------------
Magnitude (a.u.)       :      1.81602
Magnitude (Debye)      :      4.61597

Rotational constants in cm-1:     0.028535     0.017041     0.012682
Rotational constants in MHz :   855.465571   510.888675   380.191769

                             ****ORCA TERMINATED NORMALLY****
TOTAL RUN TIME: 0 days 0 hours 4 minutes 29 seconds 408 msec
