                         Program Version 5.0.3 -  RELEASE  -
|  1> ! EnGrad PBEh-3c
|  2> %output
|  3> xyzfile=True
|  4> end
|  5> %scf
|  6> maxiter 250
|  7> end
|  8> %output
|  9> Print[P_Hirshfeld] = 1
| 10> end
| 11> % maxcore
| 12> 4000
| 13> *xyz 0 1
| 14> C   -1.47392018   0.17347478  -0.57495368
| 15> C   -2.09543092  -0.89064753  -1.21727003
| 16> C   -1.70703929  -2.18801890  -0.96377965
| 17> C   -0.84128622  -2.43728004   0.07925998
| 18> C   -0.37615929  -0.09871114   0.25727663
| 19> C   -0.21605498  -1.40020806   0.74583134
| 20> H   -1.78113779   1.20117234  -0.77318194
| 21> H   -2.74549108  -0.67206106  -2.02554788
| 22> H   -2.04491970  -3.00588672  -1.59438941
| 23> H    0.47667096  -1.56706716   1.56820299
| 24> H   -0.49658459  -3.41603572   0.29467587
| 25> Pd   1.25778665   0.94574528  -0.04324419
| 26> O    3.16972332   1.28401557  -1.21061150
| 27> O    2.56646702  -0.61017380  -0.27571643
| 28> O    0.35944003   2.73789413   0.30755837
| 29> C   -0.18033135   2.91276437   1.33271325
| 30> O    0.04029340   2.00625105   2.37304407
| 31> H   -0.76489643   1.49666343   2.47504750
| 32> C    3.35721341   0.07894975  -0.98188416
| 33> H    4.22661726  -0.44274761  -1.38665756
| 34> H   -0.75586707   3.86641176   1.59477471
| 35> *
| 36>
| 37>                          ****END OF INPUT****

CARTESIAN COORDINATES (ANGSTROEM)
---------------------------------
  C     -1.473920    0.173475   -0.574954
  C     -2.095431   -0.890648   -1.217270
  C     -1.707039   -2.188019   -0.963780
  C     -0.841286   -2.437280    0.079260
  C     -0.376159   -0.098711    0.257277
  C     -0.216055   -1.400208    0.745831
  H     -1.781138    1.201172   -0.773182
  H     -2.745491   -0.672061   -2.025548
  H     -2.044920   -3.005887   -1.594389
  H      0.476671   -1.567067    1.568203
  H     -0.496585   -3.416036    0.294676
  Pd     1.257787    0.945745   -0.043244
  O      3.169723    1.284016   -1.210611
  O      2.566467   -0.610174   -0.275716
  O      0.359440    2.737894    0.307558
  C     -0.180331    2.912764    1.332713
  O      0.040293    2.006251    2.373044
  H     -0.764896    1.496663    2.475048
  C      3.357213    0.078950   -0.981884
  H      4.226617   -0.442748   -1.386658
  H     -0.755867    3.866412    1.594775

 Total Charge           Charge          ....    0
 Multiplicity           Mult            ....    1
 Number of Electrons    NEL             ....  106
 Basis Dimension        Dim             ....  227

ORBITAL ENERGIES
----------------

  NO   OCC          E(Eh)            E(eV)
   0   2.0000     -19.602049      -533.3989
   1   2.0000     -19.571289      -532.5618
   2   2.0000     -19.488074      -530.2974
   3   2.0000     -19.475268      -529.9490
   4   2.0000     -10.654924      -289.9352
   5   2.0000     -10.548227      -287.0318
   6   2.0000     -10.457079      -284.5516
   7   2.0000     -10.448880      -284.3285
   8   2.0000     -10.441106      -284.1169
   9   2.0000     -10.440309      -284.0953
  10   2.0000     -10.437561      -284.0205
  11   2.0000     -10.436819      -284.0003
  12   2.0000      -3.649235       -99.3007
  13   2.0000      -2.297885       -62.5286
  14   2.0000      -2.294324       -62.4317
  15   2.0000      -2.262094       -61.5547
  16   2.0000      -1.299051       -35.3490
  17   2.0000      -1.191192       -32.4140
  18   2.0000      -1.184026       -32.2190
  19   2.0000      -1.076664       -29.2975
  20   2.0000      -0.951805       -25.8999
  21   2.0000      -0.834353       -22.7039
  22   2.0000      -0.826159       -22.4809
  23   2.0000      -0.764330       -20.7985
  24   2.0000      -0.684315       -18.6212
  25   2.0000      -0.676666       -18.4130
  26   2.0000      -0.665581       -18.1114
  27   2.0000      -0.655815       -17.8456
  28   2.0000      -0.634877       -17.2759
  29   2.0000      -0.594293       -16.1715
  30   2.0000      -0.577076       -15.7030
  31   2.0000      -0.547776       -14.9057
  32   2.0000      -0.519145       -14.1266
  33   2.0000      -0.512944       -13.9579
  34   2.0000      -0.509682       -13.8691
  35   2.0000      -0.503247       -13.6941
  36   2.0000      -0.488118       -13.2824
  37   2.0000      -0.477890       -13.0040
  38   2.0000      -0.454047       -12.3552
  39   2.0000      -0.449622       -12.2348
  40   2.0000      -0.436650       -11.8818
  41   2.0000      -0.429638       -11.6910
  42   2.0000      -0.401262       -10.9189
  43   2.0000      -0.380861       -10.3638
  44   2.0000      -0.376607       -10.2480
  45   2.0000      -0.361952        -9.8492
  46   2.0000      -0.346319        -9.4238
  47   2.0000      -0.339371        -9.2348
  48   2.0000      -0.317003        -8.6261
  49   2.0000      -0.309102        -8.4111
  50   2.0000      -0.288229        -7.8431
  51   2.0000      -0.282722        -7.6933
  52   2.0000      -0.254899        -6.9362
  53   0.0000      -0.054991        -1.4964
  54   0.0000      -0.035903        -0.9770
  55   0.0000       0.020885         0.5683
  56   0.0000       0.024362         0.6629
  57   0.0000       0.052185         1.4200

MULLIKEN ATOMIC CHARGES
-----------------------
   0 C :   -0.233088
   1 C :   -0.218868
   2 C :   -0.224276
   3 C :   -0.216903
   4 C :   -0.229185
   5 C :   -0.214978
   6 H :    0.214251
   7 H :    0.219497
   8 H :    0.216902
   9 H :    0.244257
  10 H :    0.223424
  11 Pd:    0.403020
  12 O :   -0.466340
  13 O :   -0.486792
  14 O :   -0.297727
  15 C :    0.361933
  16 O :   -0.583765
  17 H :    0.476837
  18 C :    0.384646
  19 H :    0.177754
  20 H :    0.249401
Sum of atomic charges:    0.0000000

LOEWDIN ATOMIC CHARGES
----------------------
   0 C :   -0.134244
   1 C :   -0.131811
   2 C :   -0.143839
   3 C :   -0.126432
   4 C :   -0.037244
   5 C :   -0.107311
   6 H :    0.141536
   7 H :    0.137165
   8 H :    0.136576
   9 H :    0.156306
  10 H :    0.139226
  11 Pd:   -0.311462
  12 O :   -0.207126
  13 O :   -0.175418
  14 O :    0.034936
  15 C :    0.199101
  16 O :   -0.308342
  17 H :    0.355513
  18 C :    0.132816
  19 H :    0.104967
  20 H :    0.145088

  Mayer bond orders larger than 0.100000
B(  0-C ,  1-C ) :   1.4296 B(  0-C ,  4-C ) :   1.3598 B(  0-C ,  6-H ) :   0.9119
B(  1-C ,  2-C ) :   1.4371 B(  1-C ,  7-H ) :   0.9173 B(  2-C ,  3-C ) :   1.4141
B(  2-C ,  8-H ) :   0.9209 B(  3-C ,  5-C ) :   1.4403 B(  3-C , 10-H ) :   0.9165
B(  4-C ,  5-C ) :   1.3853 B(  4-C , 11-Pd) :   0.9228 B(  5-C ,  9-H ) :   0.9056
B( 11-Pd, 12-O ) :   0.3511 B( 11-Pd, 13-O ) :   0.5464 B( 11-Pd, 14-O ) :   0.3485
B( 12-O , 13-O ) :   0.1172 B( 12-O , 18-C ) :   1.6106 B( 13-O , 18-C ) :   1.4287
B( 14-O , 15-C ) :   1.8695 B( 15-C , 16-O ) :   1.0779 B( 15-C , 20-H ) :   0.8522
B( 16-O , 17-H ) :   0.7170 B( 18-C , 19-H ) :   0.8869

Dispersion correction           -0.013312766
FINAL SINGLE POINT ENERGY      -737.078293611665
Dispersion correction            ... done

DIPOLE MOMENT
-------------
                                X             Y             Z
Electronic contribution:     45.73597      36.39830      -1.77335
Nuclear contribution   :    -47.30328     -35.42863       2.77039
                        -----------------------------------------
Total Dipole Moment    :     -1.56731       0.96967       0.99705
                        -----------------------------------------
Magnitude (a.u.)       :      2.09543
Magnitude (Debye)      :      5.32615

Rotational constants in cm-1:     0.028085     0.018913     0.013600
Rotational constants in MHz :   841.979319   567.004722   407.711915

                             ****ORCA TERMINATED NORMALLY****
TOTAL RUN TIME: 0 days 0 hours 4 minutes 7 seconds 128 msec
