                         Program Version 5.0.3 -  RELEASE  -
|  1> ! EnGrad PBEh-3c
|  2> %output
|  3> xyzfile=True
|  4> end
|  5> %scf
|  6> maxiter 250
|  7> end
|  8> %output
|  9> Print[P_Hirshfeld] = 1
| 10> end
| 11> % maxcore
| 12> 4000
| 13> *xyz 0 1
| 14> C   -1.46707559   0.17415744  -0.57154652
| 15> C   -2.08353467  -0.89338202  -1.21817610
| 16> C   -1.69085825  -2.19017991  -0.97508040
| 17> C   -0.83318981  -2.43714599   0.07358052
| 18> C   -0.38204546  -0.10290351   0.27039641
| 19> C   -0.21222532  -1.40050956   0.75126648
| 20> H   -1.78176561   1.20997943  -0.74526494
| 21> H   -2.73222853  -0.66146702  -2.03046808
| 22> H   -1.98246583  -2.98945560  -1.62638749
| 23> H    0.47521399  -1.55737234   1.58806352
| 24> H   -0.48194431  -3.41773581   0.30405055
| 25> Pd   1.27067097   0.94238749  -0.04515600
| 26> O    3.12233736   1.26690375  -1.20703612
| 27> O    2.54341205  -0.62758404  -0.26956082
| 28> O    0.34418911   2.73592462   0.26945816
| 29> C   -0.16001921   2.94840471   1.36302418
| 30> O    0.03134731   2.02395571   2.39696026
| 31> H   -0.75928306   1.45610156   2.42904372
| 32> C    3.32326792   0.06117015  -0.98498402
| 33> H    4.18940800  -0.45808247  -1.39313295
| 34> H   -0.76079348   3.88537153   1.59734910
| 35> *
| 36>
| 37>                          ****END OF INPUT****

CARTESIAN COORDINATES (ANGSTROEM)
---------------------------------
  C     -1.467076    0.174157   -0.571547
  C     -2.083535   -0.893382   -1.218176
  C     -1.690858   -2.190180   -0.975080
  C     -0.833190   -2.437146    0.073581
  C     -0.382045   -0.102904    0.270396
  C     -0.212225   -1.400510    0.751266
  H     -1.781766    1.209979   -0.745265
  H     -2.732229   -0.661467   -2.030468
  H     -1.982466   -2.989456   -1.626387
  H      0.475214   -1.557372    1.588064
  H     -0.481944   -3.417736    0.304051
  Pd     1.270671    0.942387   -0.045156
  O      3.122337    1.266904   -1.207036
  O      2.543412   -0.627584   -0.269561
  O      0.344189    2.735925    0.269458
  C     -0.160019    2.948405    1.363024
  O      0.031347    2.023956    2.396960
  H     -0.759283    1.456102    2.429044
  C      3.323268    0.061170   -0.984984
  H      4.189408   -0.458082   -1.393133
  H     -0.760793    3.885372    1.597349

 Total Charge           Charge          ....    0
 Multiplicity           Mult            ....    1
 Number of Electrons    NEL             ....  106
 Basis Dimension        Dim             ....  227

ORBITAL ENERGIES
----------------

  NO   OCC          E(Eh)            E(eV)
   0   2.0000     -19.601336      -533.3795
   1   2.0000     -19.574962      -532.6618
   2   2.0000     -19.491949      -530.4029
   3   2.0000     -19.479977      -530.0771
   4   2.0000     -10.661652      -290.1183
   5   2.0000     -10.551853      -287.1305
   6   2.0000     -10.452552      -284.4284
   7   2.0000     -10.447411      -284.2885
   8   2.0000     -10.440259      -284.0939
   9   2.0000     -10.439218      -284.0656
  10   2.0000     -10.437011      -284.0055
  11   2.0000     -10.434673      -283.9419
  12   2.0000      -3.648052       -99.2685
  13   2.0000      -2.296288       -62.4852
  14   2.0000      -2.293299       -62.4038
  15   2.0000      -2.260821       -61.5201
  16   2.0000      -1.271936       -34.6111
  17   2.0000      -1.190277       -32.3891
  18   2.0000      -1.183088       -32.1934
  19   2.0000      -1.081304       -29.4238
  20   2.0000      -0.950477       -25.8638
  21   2.0000      -0.831684       -22.6313
  22   2.0000      -0.825588       -22.4654
  23   2.0000      -0.767522       -20.8853
  24   2.0000      -0.674946       -18.3662
  25   2.0000      -0.674513       -18.3544
  26   2.0000      -0.664043       -18.0695
  27   2.0000      -0.659303       -17.9405
  28   2.0000      -0.625976       -17.0337
  29   2.0000      -0.584975       -15.9180
  30   2.0000      -0.573606       -15.6086
  31   2.0000      -0.552579       -15.0364
  32   2.0000      -0.522989       -14.2313
  33   2.0000      -0.509574       -13.8662
  34   2.0000      -0.507556       -13.8113
  35   2.0000      -0.496474       -13.5098
  36   2.0000      -0.492009       -13.3883
  37   2.0000      -0.474668       -12.9164
  38   2.0000      -0.456243       -12.4150
  39   2.0000      -0.449144       -12.2218
  40   2.0000      -0.434238       -11.8162
  41   2.0000      -0.429528       -11.6881
  42   2.0000      -0.398984       -10.8569
  43   2.0000      -0.382090       -10.3972
  44   2.0000      -0.376547       -10.2464
  45   2.0000      -0.364319        -9.9136
  46   2.0000      -0.346671        -9.4334
  47   2.0000      -0.338474        -9.2103
  48   2.0000      -0.315922        -8.5967
  49   2.0000      -0.309480        -8.4214
  50   2.0000      -0.286104        -7.7853
  51   2.0000      -0.281017        -7.6469
  52   2.0000      -0.254109        -6.9147
  53   0.0000      -0.063824        -1.7367
  54   0.0000      -0.037049        -1.0082
  55   0.0000       0.021444         0.5835
  56   0.0000       0.025577         0.6960
  57   0.0000       0.050658         1.3785

MULLIKEN ATOMIC CHARGES
-----------------------
   0 C :   -0.228477
   1 C :   -0.224710
   2 C :   -0.217828
   3 C :   -0.223463
   4 C :   -0.244021
   5 C :   -0.211368
   6 H :    0.214775
   7 H :    0.217207
   8 H :    0.218865
   9 H :    0.243494
  10 H :    0.220879
  11 Pd:    0.407026
  12 O :   -0.468445
  13 O :   -0.483298
  14 O :   -0.334537
  15 C :    0.384232
  16 O :   -0.583466
  17 H :    0.482841
  18 C :    0.391708
  19 H :    0.180406
  20 H :    0.258180
Sum of atomic charges:   -0.0000000

LOEWDIN ATOMIC CHARGES
----------------------
   0 C :   -0.133317
   1 C :   -0.131372
   2 C :   -0.145525
   3 C :   -0.125866
   4 C :   -0.049368
   5 C :   -0.109004
   6 H :    0.142122
   7 H :    0.136548
   8 H :    0.137153
   9 H :    0.155840
  10 H :    0.138514
  11 Pd:   -0.322452
  12 O :   -0.197903
  13 O :   -0.167862
  14 O :   -0.003012
  15 C :    0.228688
  16 O :   -0.312233
  17 H :    0.363063
  18 C :    0.138483
  19 H :    0.107051
  20 H :    0.150452

  Mayer bond orders larger than 0.100000
B(  0-C ,  1-C ) :   1.4295 B(  0-C ,  4-C ) :   1.3619 B(  0-C ,  6-H ) :   0.9114
B(  1-C ,  2-C ) :   1.4350 B(  1-C ,  7-H ) :   0.9182 B(  2-C ,  3-C ) :   1.4157
B(  2-C ,  8-H ) :   0.9204 B(  3-C ,  5-C ) :   1.4382 B(  3-C , 10-H ) :   0.9173
B(  4-C ,  5-C ) :   1.3886 B(  4-C , 11-Pd) :   0.9050 B(  5-C ,  9-H ) :   0.9054
B( 11-Pd, 12-O ) :   0.3692 B( 11-Pd, 13-O ) :   0.5483 B( 11-Pd, 14-O ) :   0.3596
B( 12-O , 13-O ) :   0.1173 B( 12-O , 18-C ) :   1.5903 B( 13-O , 18-C ) :   1.4321
B( 14-O , 15-C ) :   1.8240 B( 15-C , 16-O ) :   1.0923 B( 15-C , 20-H ) :   0.8519
B( 16-O , 17-H ) :   0.7051 B( 18-C , 19-H ) :   0.8885

Dispersion correction           -0.013304439
FINAL SINGLE POINT ENERGY      -737.078669914510
Dispersion correction            ... done

DIPOLE MOMENT
-------------
                                X             Y             Z
Electronic contribution:     46.63836      36.28998      -1.91602
Nuclear contribution   :    -48.06113     -35.31503       2.88475
                        -----------------------------------------
Total Dipole Moment    :     -1.42277       0.97495       0.96874
                        -----------------------------------------
Magnitude (a.u.)       :      1.97819
Magnitude (Debye)      :      5.02817

Rotational constants in cm-1:     0.027944     0.019009     0.013649
Rotational constants in MHz :   837.741138   569.886964   409.197436

                             ****ORCA TERMINATED NORMALLY****
TOTAL RUN TIME: 0 days 0 hours 4 minutes 0 seconds 353 msec
