                         Program Version 5.0.3 -  RELEASE  -
|  1> ! EnGrad PBEh-3c
|  2> %output
|  3> xyzfile=True
|  4> end
|  5> %scf
|  6> maxiter 250
|  7> end
|  8> %output
|  9> Print[P_Hirshfeld] = 1
| 10> end
| 11> % maxcore
| 12> 4000
| 13> *xyz 0 1
| 14> C   -1.45752082   0.17519989  -0.56826855
| 15> C   -2.07911598  -0.88887498  -1.22514891
| 16> C   -1.68963604  -2.19193228  -0.97499195
| 17> C   -0.82237690  -2.44091823   0.07558920
| 18> C   -0.38893643  -0.09349197   0.29117147
| 19> C   -0.20766195  -1.39175616   0.75069363
| 20> H   -1.77437572   1.20432861  -0.75675818
| 21> H   -2.75122438  -0.65701606  -2.03615397
| 22> H   -1.98124357  -2.98264228  -1.62287130
| 23> H    0.48182852  -1.56648833   1.57872107
| 24> H   -0.48665729  -3.43864237   0.31335446
| 25> Pd   1.27951906   0.95154365  -0.04880087
| 26> O    3.11542069   1.26501170  -1.19298531
| 27> O    2.53277649  -0.63113230  -0.27791198
| 28> O    0.31376438   2.76355756   0.25059928
| 29> C   -0.11460443   2.94474724   1.37615476
| 30> O    0.00166836   2.05479938   2.39721367
| 31> H   -0.76198532   1.43144401   2.43584128
| 32> C    3.32417728   0.05415243  -0.98345107
| 33> H    4.19542593  -0.46026878  -1.39781867
| 34> H   -0.75578866   3.86434579   1.59065222
| 35> *
| 36>
| 37>                          ****END OF INPUT****

CARTESIAN COORDINATES (ANGSTROEM)
---------------------------------
  C     -1.457521    0.175200   -0.568269
  C     -2.079116   -0.888875   -1.225149
  C     -1.689636   -2.191932   -0.974992
  C     -0.822377   -2.440918    0.075589
  C     -0.388936   -0.093492    0.291171
  C     -0.207662   -1.391756    0.750694
  H     -1.774376    1.204329   -0.756758
  H     -2.751224   -0.657016   -2.036154
  H     -1.981244   -2.982642   -1.622871
  H      0.481829   -1.566488    1.578721
  H     -0.486657   -3.438642    0.313354
  Pd     1.279519    0.951544   -0.048801
  O      3.115421    1.265012   -1.192985
  O      2.532776   -0.631132   -0.277912
  O      0.313764    2.763558    0.250599
  C     -0.114604    2.944747    1.376155
  O      0.001668    2.054799    2.397214
  H     -0.761985    1.431444    2.435841
  C      3.324177    0.054152   -0.983451
  H      4.195426   -0.460269   -1.397819
  H     -0.755789    3.864346    1.590652

 Total Charge           Charge          ....    0
 Multiplicity           Mult            ....    1
 Number of Electrons    NEL             ....  106
 Basis Dimension        Dim             ....  227

ORBITAL ENERGIES
----------------

  NO   OCC          E(Eh)            E(eV)
   0   2.0000     -19.597160      -533.2658
   1   2.0000     -19.577650      -532.7350
   2   2.0000     -19.495329      -530.4949
   3   2.0000     -19.482925      -530.1574
   4   2.0000     -10.657664      -290.0098
   5   2.0000     -10.555594      -287.2323
   6   2.0000     -10.450303      -284.3672
   7   2.0000     -10.446582      -284.2659
   8   2.0000     -10.442409      -284.1524
   9   2.0000     -10.439754      -284.0801
  10   2.0000     -10.438941      -284.0580
  11   2.0000     -10.435908      -283.9755
  12   2.0000      -3.648320       -99.2758
  13   2.0000      -2.296440       -62.4893
  14   2.0000      -2.293215       -62.4016
  15   2.0000      -2.261220       -61.5309
  16   2.0000      -1.274045       -34.6685
  17   2.0000      -1.193676       -32.4816
  18   2.0000      -1.191525       -32.4231
  19   2.0000      -1.082515       -29.4567
  20   2.0000      -0.948208       -25.8021
  21   2.0000      -0.829387       -22.5688
  22   2.0000      -0.825355       -22.4591
  23   2.0000      -0.769433       -20.9373
  24   2.0000      -0.680262       -18.5109
  25   2.0000      -0.673685       -18.3319
  26   2.0000      -0.664005       -18.0685
  27   2.0000      -0.660804       -17.9814
  28   2.0000      -0.623283       -16.9604
  29   2.0000      -0.584903       -15.9160
  30   2.0000      -0.573258       -15.5992
  31   2.0000      -0.554964       -15.1013
  32   2.0000      -0.525790       -14.3075
  33   2.0000      -0.507919       -13.8212
  34   2.0000      -0.505923       -13.7669
  35   2.0000      -0.496422       -13.5083
  36   2.0000      -0.490678       -13.3520
  37   2.0000      -0.472707       -12.8630
  38   2.0000      -0.452656       -12.3174
  39   2.0000      -0.447526       -12.1778
  40   2.0000      -0.436684       -11.8828
  41   2.0000      -0.429419       -11.6851
  42   2.0000      -0.397482       -10.8160
  43   2.0000      -0.384596       -10.4654
  44   2.0000      -0.376504       -10.2452
  45   2.0000      -0.365484        -9.9453
  46   2.0000      -0.347643        -9.4599
  47   2.0000      -0.338430        -9.2091
  48   2.0000      -0.316386        -8.6093
  49   2.0000      -0.311155        -8.4670
  50   2.0000      -0.286462        -7.7950
  51   2.0000      -0.281132        -7.6500
  52   2.0000      -0.255566        -6.9543
  53   0.0000      -0.058712        -1.5976
  54   0.0000      -0.039151        -1.0654
  55   0.0000       0.021127         0.5749
  56   0.0000       0.025495         0.6938
  57   0.0000       0.049266         1.3406

MULLIKEN ATOMIC CHARGES
-----------------------
   0 C :   -0.223351
   1 C :   -0.226140
   2 C :   -0.218852
   3 C :   -0.224785
   4 C :   -0.257155
   5 C :   -0.209233
   6 H :    0.217397
   7 H :    0.216411
   8 H :    0.220188
   9 H :    0.241606
  10 H :    0.219452
  11 Pd:    0.396825
  12 O :   -0.470925
  13 O :   -0.479657
  14 O :   -0.333246
  15 C :    0.396110
  16 O :   -0.578689
  17 H :    0.493577
  18 C :    0.394402
  19 H :    0.184300
  20 H :    0.241764
Sum of atomic charges:    0.0000000

LOEWDIN ATOMIC CHARGES
----------------------
   0 C :   -0.130903
   1 C :   -0.131594
   2 C :   -0.144090
   3 C :   -0.126027
   4 C :   -0.062392
   5 C :   -0.108776
   6 H :    0.142435
   7 H :    0.136463
   8 H :    0.136691
   9 H :    0.153987
  10 H :    0.138145
  11 Pd:   -0.322095
  12 O :   -0.195993
  13 O :   -0.163500
  14 O :   -0.009783
  15 C :    0.215548
  16 O :   -0.296175
  17 H :    0.375218
  18 C :    0.143400
  19 H :    0.109612
  20 H :    0.139830

  Mayer bond orders larger than 0.100000
B(  0-C ,  1-C ) :   1.4310 B(  0-C ,  4-C ) :   1.3612 B(  0-C ,  6-H ) :   0.9101
B(  1-C ,  2-C ) :   1.4333 B(  1-C ,  7-H ) :   0.9183 B(  2-C ,  3-C ) :   1.4169
B(  2-C ,  8-H ) :   0.9196 B(  3-C ,  5-C ) :   1.4385 B(  3-C , 10-H ) :   0.9177
B(  4-C ,  5-C ) :   1.3900 B(  4-C , 11-Pd) :   0.8918 B(  5-C ,  9-H ) :   0.9055
B( 11-Pd, 12-O ) :   0.3816 B( 11-Pd, 13-O ) :   0.5501 B( 11-Pd, 14-O ) :   0.3621
B( 12-O , 13-O ) :   0.1167 B( 12-O , 18-C ) :   1.5754 B( 13-O , 18-C ) :   1.4345
B( 14-O , 15-C ) :   1.8231 B( 15-C , 16-O ) :   1.1214 B( 15-C , 20-H ) :   0.8619
B( 16-O , 17-H ) :   0.6880 B( 18-C , 19-H ) :   0.8877

Dispersion correction           -0.013289454
FINAL SINGLE POINT ENERGY      -737.084102810028
Dispersion correction            ... done

DIPOLE MOMENT
-------------
                                X             Y             Z
Electronic contribution:     47.24652      36.42625      -2.10135
Nuclear contribution   :    -48.53447     -35.59575       3.06382
                        -----------------------------------------
Total Dipole Moment    :     -1.28795       0.83050       0.96247
                        -----------------------------------------
Magnitude (a.u.)       :      1.80967
Magnitude (Debye)      :      4.59982

Rotational constants in cm-1:     0.027822     0.018999     0.013615
Rotational constants in MHz :   834.083107   569.578798   408.156007

                             ****ORCA TERMINATED NORMALLY****
TOTAL RUN TIME: 0 days 0 hours 3 minutes 55 seconds 700 msec
