                         Program Version 5.0.3 -  RELEASE  -
|  1> ! EnGrad PBEh-3c
|  2> %output
|  3> xyzfile=True
|  4> end
|  5> %scf
|  6> maxiter 250
|  7> end
|  8> %output
|  9> Print[P_Hirshfeld] = 1
| 10> end
| 11> % maxcore
| 12> 4000
| 13> *xyz 0 1
| 14> C   -1.45116261   0.17625211  -0.55890550
| 15> C   -2.07315402  -0.87898138  -1.22722579
| 16> C   -1.67805606  -2.18763195  -0.97500123
| 17> C   -0.81171299  -2.43968367   0.08539392
| 18> C   -0.37971870  -0.08420375   0.29604547
| 19> C   -0.20498980  -1.38345999   0.75256555
| 20> H   -1.76975674   1.19712421  -0.75658652
| 21> H   -2.75795456  -0.65630324  -2.04319982
| 22> H   -1.97517104  -2.99036698  -1.63780812
| 23> H    0.47922797  -1.56886460   1.57238947
| 24> H   -0.48676026  -3.45013969   0.31507928
| 25> Pd   1.25651765   0.94924051  -0.04209325
| 26> O    3.11152188   1.25986218  -1.19132184
| 27> O    2.52177316  -0.63636329  -0.27751103
| 28> O    0.30992411   2.77252445   0.25960983
| 29> C   -0.13412011   2.93081886   1.40761529
| 30> O   -0.02666123   2.08853961   2.37889332
| 31> H   -0.73767649   1.43518279   2.41850098
| 32> C    3.31900877   0.04891707  -0.98296466
| 33> H    4.19320974  -0.46520816  -1.40578358
| 34> H   -0.73123708   3.84558485   1.58543703
| 35> *
| 36>
| 37>                          ****END OF INPUT****

CARTESIAN COORDINATES (ANGSTROEM)
---------------------------------
  C     -1.451163    0.176252   -0.558906
  C     -2.073154   -0.878981   -1.227226
  C     -1.678056   -2.187632   -0.975001
  C     -0.811713   -2.439684    0.085394
  C     -0.379719   -0.084204    0.296045
  C     -0.204990   -1.383460    0.752566
  H     -1.769757    1.197124   -0.756587
  H     -2.757955   -0.656303   -2.043200
  H     -1.975171   -2.990367   -1.637808
  H      0.479228   -1.568865    1.572389
  H     -0.486760   -3.450140    0.315079
  Pd     1.256518    0.949241   -0.042093
  O      3.111522    1.259862   -1.191322
  O      2.521773   -0.636363   -0.277511
  O      0.309924    2.772524    0.259610
  C     -0.134120    2.930819    1.407615
  O     -0.026661    2.088540    2.378893
  H     -0.737676    1.435183    2.418501
  C      3.319009    0.048917   -0.982965
  H      4.193210   -0.465208   -1.405784
  H     -0.731237    3.845585    1.585437

 Total Charge           Charge          ....    0
 Multiplicity           Mult            ....    1
 Number of Electrons    NEL             ....  106
 Basis Dimension        Dim             ....  227

ORBITAL ENERGIES
----------------

  NO   OCC          E(Eh)            E(eV)
   0   2.0000     -19.588179      -533.0215
   1   2.0000     -19.587930      -533.0147
   2   2.0000     -19.492565      -530.4197
   3   2.0000     -19.480433      -530.0895
   4   2.0000     -10.652826      -289.8781
   5   2.0000     -10.554209      -287.1946
   6   2.0000     -10.450340      -284.3682
   7   2.0000     -10.446090      -284.2526
   8   2.0000     -10.444176      -284.2005
   9   2.0000     -10.441293      -284.1220
  10   2.0000     -10.439335      -284.0687
  11   2.0000     -10.438813      -284.0545
  12   2.0000      -3.648917       -99.2921
  13   2.0000      -2.297313       -62.5131
  14   2.0000      -2.293402       -62.4067
  15   2.0000      -2.261888       -61.5491
  16   2.0000      -1.288148       -35.0523
  17   2.0000      -1.199877       -32.6503
  18   2.0000      -1.188873       -32.3509
  19   2.0000      -1.078743       -29.3541
  20   2.0000      -0.947953       -25.7951
  21   2.0000      -0.829784       -22.5796
  22   2.0000      -0.824951       -22.4481
  23   2.0000      -0.791362       -21.5341
  24   2.0000      -0.694223       -18.8908
  25   2.0000      -0.673581       -18.3291
  26   2.0000      -0.663356       -18.0508
  27   2.0000      -0.658990       -17.9320
  28   2.0000      -0.623872       -16.9764
  29   2.0000      -0.592489       -16.1224
  30   2.0000      -0.574484       -15.6325
  31   2.0000      -0.551962       -15.0196
  32   2.0000      -0.522961       -14.2305
  33   2.0000      -0.508110       -13.8264
  34   2.0000      -0.506128       -13.7725
  35   2.0000      -0.492781       -13.4092
  36   2.0000      -0.482954       -13.1419
  37   2.0000      -0.472610       -12.8604
  38   2.0000      -0.453846       -12.3498
  39   2.0000      -0.449495       -12.2314
  40   2.0000      -0.443207       -12.0603
  41   2.0000      -0.431737       -11.7482
  42   2.0000      -0.397371       -10.8130
  43   2.0000      -0.383559       -10.4372
  44   2.0000      -0.374670       -10.1953
  45   2.0000      -0.363496        -9.8912
  46   2.0000      -0.347475        -9.4553
  47   2.0000      -0.337752        -9.1907
  48   2.0000      -0.317330        -8.6350
  49   2.0000      -0.311117        -8.4659
  50   2.0000      -0.287495        -7.8231
  51   2.0000      -0.281426        -7.6580
  52   2.0000      -0.255599        -6.9552
  53   0.0000      -0.057975        -1.5776
  54   0.0000      -0.037717        -1.0263
  55   0.0000       0.021011         0.5717
  56   0.0000       0.025255         0.6872
  57   0.0000       0.048964         1.3324

MULLIKEN ATOMIC CHARGES
-----------------------
   0 C :   -0.220818
   1 C :   -0.223666
   2 C :   -0.226243
   3 C :   -0.221186
   4 C :   -0.272256
   5 C :   -0.206506
   6 H :    0.220002
   7 H :    0.217306
   8 H :    0.218949
   9 H :    0.240265
  10 H :    0.220068
  11 Pd:    0.397461
  12 O :   -0.469338
  13 O :   -0.483460
  14 O :   -0.362416
  15 C :    0.394260
  16 O :   -0.542634
  17 H :    0.505760
  18 C :    0.391320
  19 H :    0.183545
  20 H :    0.239585
Sum of atomic charges:   -0.0000000

LOEWDIN ATOMIC CHARGES
----------------------
   0 C :   -0.128855
   1 C :   -0.132946
   2 C :   -0.141706
   3 C :   -0.127362
   4 C :   -0.067578
   5 C :   -0.107495
   6 H :    0.143284
   7 H :    0.137215
   8 H :    0.136285
   9 H :    0.152949
  10 H :    0.138768
  11 Pd:   -0.317923
  12 O :   -0.199200
  13 O :   -0.170579
  14 O :   -0.037580
  15 C :    0.196774
  16 O :   -0.241243
  17 H :    0.381146
  18 C :    0.142463
  19 H :    0.109118
  20 H :    0.134467

  Mayer bond orders larger than 0.100000
B(  0-C ,  1-C ) :   1.4309 B(  0-C ,  4-C ) :   1.3598 B(  0-C ,  6-H ) :   0.9088
B(  1-C ,  2-C ) :   1.4318 B(  1-C ,  7-H ) :   0.9180 B(  2-C ,  3-C ) :   1.4140
B(  2-C ,  8-H ) :   0.9196 B(  3-C ,  5-C ) :   1.4420 B(  3-C , 10-H ) :   0.9175
B(  4-C ,  5-C ) :   1.3837 B(  4-C , 11-Pd) :   0.9091 B(  5-C ,  9-H ) :   0.9060
B( 11-Pd, 12-O ) :   0.3752 B( 11-Pd, 13-O ) :   0.5449 B( 11-Pd, 14-O ) :   0.3834
B( 12-O , 13-O ) :   0.1166 B( 12-O , 18-C ) :   1.5828 B( 13-O , 18-C ) :   1.4314
B( 14-O , 15-C ) :   1.7759 B( 15-C , 16-O ) :   1.1901 B( 15-C , 20-H ) :   0.8704
B( 16-O , 17-H ) :   0.6735 B( 18-C , 19-H ) :   0.8863

Dispersion correction           -0.013330044
FINAL SINGLE POINT ENERGY      -737.087291458982
Dispersion correction            ... done

DIPOLE MOMENT
-------------
                                X             Y             Z
Electronic contribution:     46.25909      36.17357      -1.71701
Nuclear contribution   :    -47.58208     -35.40103       2.82422
                        -----------------------------------------
Total Dipole Moment    :     -1.32299       0.77254       1.10721
                        -----------------------------------------
Magnitude (a.u.)       :      1.89025
Magnitude (Debye)      :      4.80462

Rotational constants in cm-1:     0.027745     0.019188     0.013659
Rotational constants in MHz :   831.769006   575.254022   409.473802

                             ****ORCA TERMINATED NORMALLY****
TOTAL RUN TIME: 0 days 0 hours 3 minutes 53 seconds 594 msec
