                         Program Version 5.0.3 -  RELEASE  -
|  1> ! EnGrad PBEh-3c
|  2> %output
|  3> xyzfile=True
|  4> end
|  5> %scf
|  6> maxiter 250
|  7> end
|  8> %output
|  9> Print[P_Hirshfeld] = 1
| 10> end
| 11> % maxcore
| 12> 4000
| 13> *xyz 0 1
| 14> C   -1.44805687   0.17785101  -0.55369670
| 15> C   -2.06733724  -0.87108399  -1.23103954
| 16> C   -1.66971656  -2.18401240  -0.97420860
| 17> C   -0.80276982  -2.43863229   0.09093738
| 18> C   -0.38288455  -0.07764453   0.30746741
| 19> C   -0.20210633  -1.37959890   0.75491447
| 20> H   -1.76316800   1.18885030  -0.76897380
| 21> H   -2.76829040  -0.65754072  -2.04343555
| 22> H   -1.98419912  -2.99432492  -1.63655482
| 23> H    0.48252351  -1.57774042   1.56065884
| 24> H   -0.49349214  -3.46032253   0.31699134
| 25> Pd   1.24035909   0.95944951  -0.03995822
| 26> O    3.11920006   1.25745351  -1.18431422
| 27> O    2.51566501  -0.63793477  -0.28334015
| 28> O    0.29925748   2.77992803   0.29719397
| 29> C   -0.14870216   2.92771902   1.38031575
| 30> O   -0.04319634   2.11468701   2.37836333
| 31> H   -0.72361146   1.42600223   2.40955940
| 32> C    3.32017955   0.04656327  -0.98089106
| 33> H    4.19954647  -0.46519261  -1.41099457
| 34> H   -0.70489251   3.82566425   1.58275511
| 35> *
| 36>
| 37>                          ****END OF INPUT****

CARTESIAN COORDINATES (ANGSTROEM)
---------------------------------
  C     -1.448057    0.177851   -0.553697
  C     -2.067337   -0.871084   -1.231040
  C     -1.669717   -2.184012   -0.974209
  C     -0.802770   -2.438632    0.090937
  C     -0.382885   -0.077645    0.307467
  C     -0.202106   -1.379599    0.754914
  H     -1.763168    1.188850   -0.768974
  H     -2.768290   -0.657541   -2.043436
  H     -1.984199   -2.994325   -1.636555
  H      0.482524   -1.577740    1.560659
  H     -0.493492   -3.460323    0.316991
  Pd     1.240359    0.959450   -0.039958
  O      3.119200    1.257454   -1.184314
  O      2.515665   -0.637935   -0.283340
  O      0.299257    2.779928    0.297194
  C     -0.148702    2.927719    1.380316
  O     -0.043196    2.114687    2.378363
  H     -0.723611    1.426002    2.409559
  C      3.320180    0.046563   -0.980891
  H      4.199546   -0.465193   -1.410995
  H     -0.704893    3.825664    1.582755

 Total Charge           Charge          ....    0
 Multiplicity           Mult            ....    1
 Number of Electrons    NEL             ....  106
 Basis Dimension        Dim             ....  227

ORBITAL ENERGIES
----------------

  NO   OCC          E(Eh)            E(eV)
   0   2.0000     -19.588310      -533.0250
   1   2.0000     -19.578941      -532.7701
   2   2.0000     -19.491910      -530.4018
   3   2.0000     -19.479633      -530.0678
   4   2.0000     -10.640238      -289.5356
   5   2.0000     -10.553947      -287.1875
   6   2.0000     -10.453066      -284.4424
   7   2.0000     -10.447607      -284.2938
   8   2.0000     -10.446946      -284.2759
   9   2.0000     -10.443995      -284.1956
  10   2.0000     -10.443035      -284.1694
  11   2.0000     -10.440173      -284.0915
  12   2.0000      -3.651114       -99.3519
  13   2.0000      -2.299848       -62.5821
  14   2.0000      -2.295369       -62.4602
  15   2.0000      -2.264197       -61.6119
  16   2.0000      -1.300298       -35.3829
  17   2.0000      -1.214795       -33.0562
  18   2.0000      -1.188218       -32.3331
  19   2.0000      -1.077864       -29.3302
  20   2.0000      -0.949582       -25.8395
  21   2.0000      -0.832364       -22.6498
  22   2.0000      -0.826097       -22.4793
  23   2.0000      -0.787832       -21.4380
  24   2.0000      -0.698408       -19.0046
  25   2.0000      -0.675406       -18.3787
  26   2.0000      -0.665224       -18.1017
  27   2.0000      -0.657647       -17.8955
  28   2.0000      -0.634010       -17.2523
  29   2.0000      -0.598375       -16.2826
  30   2.0000      -0.575725       -15.6663
  31   2.0000      -0.550679       -14.9847
  32   2.0000      -0.522187       -14.2094
  33   2.0000      -0.510190       -13.8830
  34   2.0000      -0.508082       -13.8256
  35   2.0000      -0.494502       -13.4561
  36   2.0000      -0.490220       -13.3396
  37   2.0000      -0.475778       -12.9466
  38   2.0000      -0.452205       -12.3051
  39   2.0000      -0.450565       -12.2605
  40   2.0000      -0.442416       -12.0388
  41   2.0000      -0.432340       -11.7646
  42   2.0000      -0.398742       -10.8503
  43   2.0000      -0.384328       -10.4581
  44   2.0000      -0.375031       -10.2051
  45   2.0000      -0.363785        -9.8991
  46   2.0000      -0.349237        -9.5032
  47   2.0000      -0.339374        -9.2348
  48   2.0000      -0.319487        -8.6937
  49   2.0000      -0.313055        -8.5187
  50   2.0000      -0.290538        -7.9059
  51   2.0000      -0.283858        -7.7242
  52   2.0000      -0.257882        -7.0173
  53   0.0000      -0.050616        -1.3773
  54   0.0000      -0.031422        -0.8550
  55   0.0000       0.019576         0.5327
  56   0.0000       0.023575         0.6415
  57   0.0000       0.049094         1.3359

MULLIKEN ATOMIC CHARGES
-----------------------
   0 C :   -0.215984
   1 C :   -0.222452
   2 C :   -0.229578
   3 C :   -0.219002
   4 C :   -0.279181
   5 C :   -0.203871
   6 H :    0.221028
   7 H :    0.218685
   8 H :    0.218881
   9 H :    0.242013
  10 H :    0.221245
  11 Pd:    0.395903
  12 O :   -0.467961
  13 O :   -0.482131
  14 O :   -0.325766
  15 C :    0.382396
  16 O :   -0.557045
  17 H :    0.502725
  18 C :    0.388024
  19 H :    0.182660
  20 H :    0.229410
Sum of atomic charges:   -0.0000000

LOEWDIN ATOMIC CHARGES
----------------------
   0 C :   -0.127857
   1 C :   -0.132725
   2 C :   -0.138857
   3 C :   -0.126989
   4 C :   -0.067281
   5 C :   -0.105412
   6 H :    0.143375
   7 H :    0.137888
   8 H :    0.136175
   9 H :    0.153387
  10 H :    0.139507
  11 Pd:   -0.307225
  12 O :   -0.201483
  13 O :   -0.173740
  14 O :    0.005790
  15 C :    0.165175
  16 O :   -0.251684
  17 H :    0.378545
  18 C :    0.139098
  19 H :    0.108494
  20 H :    0.125819

  Mayer bond orders larger than 0.100000
B(  0-C ,  1-C ) :   1.4328 B(  0-C ,  4-C ) :   1.3556 B(  0-C ,  6-H ) :   0.9084
B(  1-C ,  2-C ) :   1.4313 B(  1-C ,  7-H ) :   0.9174 B(  2-C ,  3-C ) :   1.4125
B(  2-C ,  8-H ) :   0.9193 B(  3-C ,  5-C ) :   1.4441 B(  3-C , 10-H ) :   0.9170
B(  4-C ,  5-C ) :   1.3825 B(  4-C , 11-Pd) :   0.9149 B(  5-C ,  9-H ) :   0.9054
B( 11-Pd, 12-O ) :   0.3723 B( 11-Pd, 13-O ) :   0.5427 B( 11-Pd, 14-O ) :   0.3695
B( 12-O , 13-O ) :   0.1159 B( 12-O , 18-C ) :   1.5877 B( 13-O , 18-C ) :   1.4328
B( 14-O , 15-C ) :   1.8334 B( 15-C , 16-O ) :   1.1762 B( 15-C , 20-H ) :   0.8766
B( 16-O , 17-H ) :   0.6767 B( 18-C , 19-H ) :   0.8849

Dispersion correction           -0.013357206
FINAL SINGLE POINT ENERGY      -737.088760529594
Dispersion correction            ... done

DIPOLE MOMENT
-------------
                                X             Y             Z
Electronic contribution:     45.56485      36.46451      -1.83225
Nuclear contribution   :    -46.89816     -35.76627       2.80933
                        -----------------------------------------
Total Dipole Moment    :     -1.33332       0.69825       0.97708
                        -----------------------------------------
Magnitude (a.u.)       :      1.79442
Magnitude (Debye)      :      4.56106

Rotational constants in cm-1:     0.027672     0.019278     0.013657
Rotational constants in MHz :   829.574882   577.946836   409.435198

                             ****ORCA TERMINATED NORMALLY****
TOTAL RUN TIME: 0 days 0 hours 4 minutes 4 seconds 15 msec
