                         Program Version 5.0.3 -  RELEASE  -
|  1> ! EnGrad PBEh-3c
|  2> %output
|  3> xyzfile=True
|  4> end
|  5> %scf
|  6> maxiter 250
|  7> end
|  8> %output
|  9> Print[P_Hirshfeld] = 1
| 10> end
| 11> % maxcore
| 12> 4000
| 13> *xyz 0 1
| 14> C   -1.44554014   0.17799294  -0.55275901
| 15> C   -2.06074063  -0.86896334  -1.23714991
| 16> C   -1.66191434  -2.18013156  -0.97428210
| 17> C   -0.79654851  -2.44038365   0.09084534
| 18> C   -0.38863155  -0.07066903   0.32221771
| 19> C   -0.19794728  -1.37906955   0.75565155
| 20> H   -1.75228666   1.18274280  -0.79053980
| 21> H   -2.78060924  -0.65942991  -2.03703167
| 22> H   -1.99819454  -2.99346878  -1.62577112
| 23> H    0.49478448  -1.59130342   1.54650941
| 24> H   -0.50587691  -3.46948352   0.32132186
| 25> Pd   1.22794617   0.97395135  -0.03990311
| 26> O    3.13135038   1.25711231  -1.17120899
| 27> O    2.50678209  -0.63969932  -0.29415132
| 28> O    0.30641423   2.77749124   0.28388965
| 29> C   -0.18075602   2.93755057   1.38348576
| 30> O   -0.06750668   2.13268736   2.39885402
| 31> H   -0.70294811   1.41198773   2.40069916
| 32> C    3.32375804   0.04263215  -0.97860628
| 33> H    4.20739877  -0.46278690  -1.41509502
| 34> H   -0.68285941   3.81742800   1.58280065
| 35> *
| 36>
| 37>                          ****END OF INPUT****

CARTESIAN COORDINATES (ANGSTROEM)
---------------------------------
  C     -1.445540    0.177993   -0.552759
  C     -2.060741   -0.868963   -1.237150
  C     -1.661914   -2.180132   -0.974282
  C     -0.796549   -2.440384    0.090845
  C     -0.388632   -0.070669    0.322218
  C     -0.197947   -1.379070    0.755652
  H     -1.752287    1.182743   -0.790540
  H     -2.780609   -0.659430   -2.037032
  H     -1.998195   -2.993469   -1.625771
  H      0.494784   -1.591303    1.546509
  H     -0.505877   -3.469484    0.321322
  Pd     1.227946    0.973951   -0.039903
  O      3.131350    1.257112   -1.171209
  O      2.506782   -0.639699   -0.294151
  O      0.306414    2.777491    0.283890
  C     -0.180756    2.937551    1.383486
  O     -0.067507    2.132687    2.398854
  H     -0.702948    1.411988    2.400699
  C      3.323758    0.042632   -0.978606
  H      4.207399   -0.462787   -1.415095
  H     -0.682859    3.817428    1.582801

 Total Charge           Charge          ....    0
 Multiplicity           Mult            ....    1
 Number of Electrons    NEL             ....  106
 Basis Dimension        Dim             ....  227

ORBITAL ENERGIES
----------------

  NO   OCC          E(Eh)            E(eV)
   0   2.0000     -19.590600      -533.0873
   1   2.0000     -19.581759      -532.8467
   2   2.0000     -19.489826      -530.3451
   3   2.0000     -19.477304      -530.0044
   4   2.0000     -10.643026      -289.6115
   5   2.0000     -10.552410      -287.1457
   6   2.0000     -10.453617      -284.4574
   7   2.0000     -10.447842      -284.3002
   8   2.0000     -10.447246      -284.2840
   9   2.0000     -10.444932      -284.2211
  10   2.0000     -10.444072      -284.1976
  11   2.0000     -10.441015      -284.1145
  12   2.0000      -3.651883       -99.3728
  13   2.0000      -2.300199       -62.5916
  14   2.0000      -2.296344       -62.4867
  15   2.0000      -2.264827       -61.6291
  16   2.0000      -1.290656       -35.1205
  17   2.0000      -1.207896       -32.8685
  18   2.0000      -1.185602       -32.2619
  19   2.0000      -1.074912       -29.2498
  20   2.0000      -0.949387       -25.8341
  21   2.0000      -0.832719       -22.6594
  22   2.0000      -0.826262       -22.4837
  23   2.0000      -0.798036       -21.7157
  24   2.0000      -0.698241       -19.0001
  25   2.0000      -0.675633       -18.3849
  26   2.0000      -0.665700       -18.1146
  27   2.0000      -0.655550       -17.8384
  28   2.0000      -0.634008       -17.2522
  29   2.0000      -0.594430       -16.1753
  30   2.0000      -0.575470       -15.6593
  31   2.0000      -0.548055       -14.9133
  32   2.0000      -0.520063       -14.1516
  33   2.0000      -0.510600       -13.8941
  34   2.0000      -0.507816       -13.8184
  35   2.0000      -0.492691       -13.4068
  36   2.0000      -0.487637       -13.2693
  37   2.0000      -0.476057       -12.9542
  38   2.0000      -0.455446       -12.3933
  39   2.0000      -0.451683       -12.2909
  40   2.0000      -0.443829       -12.0772
  41   2.0000      -0.432600       -11.7716
  42   2.0000      -0.398699       -10.8492
  43   2.0000      -0.383490       -10.4353
  44   2.0000      -0.373036       -10.1508
  45   2.0000      -0.361950        -9.8492
  46   2.0000      -0.349200        -9.5022
  47   2.0000      -0.338138        -9.2012
  48   2.0000      -0.319078        -8.6826
  49   2.0000      -0.313071        -8.5191
  50   2.0000      -0.291610        -7.9351
  51   2.0000      -0.284300        -7.7362
  52   2.0000      -0.259149        -7.0518
  53   0.0000      -0.054495        -1.4829
  54   0.0000      -0.039527        -1.0756
  55   0.0000       0.019966         0.5433
  56   0.0000       0.023414         0.6371
  57   0.0000       0.049546         1.3482

MULLIKEN ATOMIC CHARGES
-----------------------
   0 C :   -0.211882
   1 C :   -0.220918
   2 C :   -0.230122
   3 C :   -0.217046
   4 C :   -0.291056
   5 C :   -0.202815
   6 H :    0.222131
   7 H :    0.219236
   8 H :    0.218436
   9 H :    0.242330
  10 H :    0.221693
  11 Pd:    0.401821
  12 O :   -0.468203
  13 O :   -0.482291
  14 O :   -0.353866
  15 C :    0.398212
  16 O :   -0.559985
  17 H :    0.504192
  18 C :    0.385221
  19 H :    0.181832
  20 H :    0.243079
Sum of atomic charges:   -0.0000000

LOEWDIN ATOMIC CHARGES
----------------------
   0 C :   -0.125648
   1 C :   -0.133399
   2 C :   -0.135915
   3 C :   -0.127429
   4 C :   -0.073193
   5 C :   -0.103360
   6 H :    0.143483
   7 H :    0.138011
   8 H :    0.135699
   9 H :    0.153077
  10 H :    0.139765
  11 Pd:   -0.303747
  12 O :   -0.204974
  13 O :   -0.177517
  14 O :   -0.013390
  15 C :    0.191713
  16 O :   -0.254492
  17 H :    0.375907
  18 C :    0.136866
  19 H :    0.107960
  20 H :    0.130584

  Mayer bond orders larger than 0.100000
B(  0-C ,  1-C ) :   1.4336 B(  0-C ,  4-C ) :   1.3532 B(  0-C ,  6-H ) :   0.9076
B(  1-C ,  2-C ) :   1.4313 B(  1-C ,  7-H ) :   0.9170 B(  2-C ,  3-C ) :   1.4124
B(  2-C ,  8-H ) :   0.9192 B(  3-C ,  5-C ) :   1.4455 B(  3-C , 10-H ) :   0.9167
B(  4-C ,  5-C ) :   1.3799 B(  4-C , 11-Pd) :   0.9133 B(  5-C ,  9-H ) :   0.9053
B( 11-Pd, 12-O ) :   0.3714 B( 11-Pd, 13-O ) :   0.5366 B( 11-Pd, 14-O ) :   0.3853
B( 12-O , 13-O ) :   0.1155 B( 12-O , 18-C ) :   1.5891 B( 13-O , 18-C ) :   1.4367
B( 14-O , 15-C ) :   1.7971 B( 15-C , 16-O ) :   1.1858 B( 15-C , 20-H ) :   0.8786
B( 16-O , 17-H ) :   0.6748 B( 18-C , 19-H ) :   0.8840

Dispersion correction           -0.013366217
FINAL SINGLE POINT ENERGY      -737.090433564988
Dispersion correction            ... done

DIPOLE MOMENT
-------------
                                X             Y             Z
Electronic contribution:     44.99336      37.06780      -1.86258
Nuclear contribution   :    -46.38206     -36.36395       2.84847
                        -----------------------------------------
Total Dipole Moment    :     -1.38870       0.70386       0.98589
                        -----------------------------------------
Magnitude (a.u.)       :      1.84279
Magnitude (Debye)      :      4.68399

Rotational constants in cm-1:     0.027493     0.019296     0.013627
Rotational constants in MHz :   824.214103   578.470234   408.520744

                             ****ORCA TERMINATED NORMALLY****
TOTAL RUN TIME: 0 days 0 hours 4 minutes 7 seconds 102 msec
