                         Program Version 5.0.3 -  RELEASE  -
|  1> ! EnGrad PBEh-3c
|  2> %output
|  3> xyzfile=True
|  4> end
|  5> %scf
|  6> maxiter 250
|  7> end
|  8> %output
|  9> Print[P_Hirshfeld] = 1
| 10> end
| 11> % maxcore
| 12> 4000
| 13> *xyz 0 1
| 14> C   -1.44736996   0.17788975  -0.55344077
| 15> C   -2.06553678  -0.87050519  -1.23270729
| 16> C   -1.66758704  -2.18295318  -0.97422866
| 17> C   -0.80107179  -2.43911030   0.09091226
| 18> C   -0.38445312  -0.07574065   0.31149332
| 19> C   -0.20097117  -1.37945442   0.75511564
| 20> H   -1.76019807   1.18718333  -0.77485998
| 21> H   -2.77165268  -0.65805635  -2.04168769
| 22> H   -1.98801900  -2.99409124  -1.63361154
| 23> H    0.48586999  -1.58144228   1.55679693
| 24> H   -0.49687241  -3.46282291   0.31817330
| 25> Pd   1.23697113   0.96340761  -0.03994318
| 26> O    3.12251634   1.25736039  -1.18073731
| 27> O    2.51324053  -0.63841638  -0.28629093
| 28> O    0.30121083   2.77926294   0.29356272
| 29> C   -0.15745086   2.93040242   1.38118097
| 30> O   -0.04983155   2.11959999   2.38395601
| 31> H   -0.71797165   1.42217715   2.40714111
| 32> C    3.32115626   0.04549032  -0.98026746
| 33> H    4.20168966  -0.46453600  -1.41211374
| 34> H   -0.69887885   3.82341627   1.58276754
| 35> *
| 36>
| 37>                          ****END OF INPUT****

CARTESIAN COORDINATES (ANGSTROEM)
---------------------------------
  C     -1.447370    0.177890   -0.553441
  C     -2.065537   -0.870505   -1.232707
  C     -1.667587   -2.182953   -0.974229
  C     -0.801072   -2.439110    0.090912
  C     -0.384453   -0.075741    0.311493
  C     -0.200971   -1.379454    0.755116
  H     -1.760198    1.187183   -0.774860
  H     -2.771653   -0.658056   -2.041688
  H     -1.988019   -2.994091   -1.633612
  H      0.485870   -1.581442    1.556797
  H     -0.496872   -3.462823    0.318173
  Pd     1.236971    0.963408   -0.039943
  O      3.122516    1.257360   -1.180737
  O      2.513241   -0.638416   -0.286291
  O      0.301211    2.779263    0.293563
  C     -0.157451    2.930402    1.381181
  O     -0.049832    2.119600    2.383956
  H     -0.717972    1.422177    2.407141
  C      3.321156    0.045490   -0.980267
  H      4.201690   -0.464536   -1.412114
  H     -0.698879    3.823416    1.582768

 Total Charge           Charge          ....    0
 Multiplicity           Mult            ....    1
 Number of Electrons    NEL             ....  106
 Basis Dimension        Dim             ....  227

ORBITAL ENERGIES
----------------

  NO   OCC          E(Eh)            E(eV)
   0   2.0000     -19.588927      -533.0418
   1   2.0000     -19.579632      -532.7889
   2   2.0000     -19.491327      -530.3860
   3   2.0000     -19.478983      -530.0501
   4   2.0000     -10.640989      -289.5560
   5   2.0000     -10.553509      -287.1756
   6   2.0000     -10.453192      -284.4458
   7   2.0000     -10.447632      -284.2945
   8   2.0000     -10.447032      -284.2782
   9   2.0000     -10.444237      -284.2021
  10   2.0000     -10.443302      -284.1767
  11   2.0000     -10.440379      -284.0972
  12   2.0000      -3.651296       -99.3568
  13   2.0000      -2.299919       -62.5840
  14   2.0000      -2.295600       -62.4664
  15   2.0000      -2.264342       -61.6159
  16   2.0000      -1.297482       -35.3063
  17   2.0000      -1.213065       -33.0092
  18   2.0000      -1.187504       -32.3136
  19   2.0000      -1.077049       -29.3080
  20   2.0000      -0.949518       -25.8377
  21   2.0000      -0.832452       -22.6522
  22   2.0000      -0.826132       -22.4802
  23   2.0000      -0.790570       -21.5125
  24   2.0000      -0.698421       -19.0050
  25   2.0000      -0.675467       -18.3804
  26   2.0000      -0.665340       -18.1048
  27   2.0000      -0.657071       -17.8798
  28   2.0000      -0.633999       -17.2520
  29   2.0000      -0.597215       -16.2510
  30   2.0000      -0.575665       -15.6646
  31   2.0000      -0.549947       -14.9648
  32   2.0000      -0.521580       -14.1929
  33   2.0000      -0.510279       -13.8854
  34   2.0000      -0.508024       -13.8240
  35   2.0000      -0.493956       -13.4412
  36   2.0000      -0.489487       -13.3196
  37   2.0000      -0.475856       -12.9487
  38   2.0000      -0.452570       -12.3150
  39   2.0000      -0.451268       -12.2796
  40   2.0000      -0.442932       -12.0528
  41   2.0000      -0.432525       -11.7696
  42   2.0000      -0.398717       -10.8497
  43   2.0000      -0.384094       -10.4517
  44   2.0000      -0.374454       -10.1894
  45   2.0000      -0.363276        -9.8852
  46   2.0000      -0.349214        -9.5026
  47   2.0000      -0.339007        -9.2248
  48   2.0000      -0.319381        -8.6908
  49   2.0000      -0.313064        -8.5189
  50   2.0000      -0.290826        -7.9138
  51   2.0000      -0.283984        -7.7276
  52   2.0000      -0.258214        -7.0264
  53   0.0000      -0.051364        -1.3977
  54   0.0000      -0.033853        -0.9212
  55   0.0000       0.019712         0.5364
  56   0.0000       0.023548         0.6408
  57   0.0000       0.049236         1.3398

MULLIKEN ATOMIC CHARGES
-----------------------
   0 C :   -0.214828
   1 C :   -0.222014
   2 C :   -0.229763
   3 C :   -0.218448
   4 C :   -0.282440
   5 C :   -0.203592
   6 H :    0.221320
   7 H :    0.218834
   8 H :    0.218758
   9 H :    0.242091
  10 H :    0.221358
  11 Pd:    0.397430
  12 O :   -0.468024
  13 O :   -0.482148
  14 O :   -0.333662
  15 C :    0.386871
  16 O :   -0.558010
  17 H :    0.503110
  18 C :    0.387262
  19 H :    0.182423
  20 H :    0.233472
Sum of atomic charges:    0.0000000

LOEWDIN ATOMIC CHARGES
----------------------
   0 C :   -0.127268
   1 C :   -0.132891
   2 C :   -0.138065
   3 C :   -0.127096
   4 C :   -0.068877
   5 C :   -0.104867
   6 H :    0.143392
   7 H :    0.137913
   8 H :    0.136043
   9 H :    0.153293
  10 H :    0.139570
  11 Pd:   -0.306256
  12 O :   -0.202428
  13 O :   -0.174751
  14 O :    0.000414
  15 C :    0.172513
  16 O :   -0.252574
  17 H :    0.377742
  18 C :    0.138471
  19 H :    0.108339
  20 H :    0.127382

  Mayer bond orders larger than 0.100000
B(  0-C ,  1-C ) :   1.4331 B(  0-C ,  4-C ) :   1.3549 B(  0-C ,  6-H ) :   0.9082
B(  1-C ,  2-C ) :   1.4313 B(  1-C ,  7-H ) :   0.9173 B(  2-C ,  3-C ) :   1.4125
B(  2-C ,  8-H ) :   0.9193 B(  3-C ,  5-C ) :   1.4445 B(  3-C , 10-H ) :   0.9169
B(  4-C ,  5-C ) :   1.3818 B(  4-C , 11-Pd) :   0.9146 B(  5-C ,  9-H ) :   0.9054
B( 11-Pd, 12-O ) :   0.3721 B( 11-Pd, 13-O ) :   0.5410 B( 11-Pd, 14-O ) :   0.3738
B( 12-O , 13-O ) :   0.1158 B( 12-O , 18-C ) :   1.5881 B( 13-O , 18-C ) :   1.4339
B( 14-O , 15-C ) :   1.8234 B( 15-C , 16-O ) :   1.1786 B( 15-C , 20-H ) :   0.8771
B( 16-O , 17-H ) :   0.6762 B( 18-C , 19-H ) :   0.8846

Dispersion correction           -0.013359653
FINAL SINGLE POINT ENERGY      -737.089990531535
Dispersion correction            ... done

DIPOLE MOMENT
-------------
                                X             Y             Z
Electronic contribution:     45.40832      36.63005      -1.84016
Nuclear contribution   :    -46.75730     -35.92940       2.82001
                        -----------------------------------------
Total Dipole Moment    :     -1.34898       0.70065       0.97985
                        -----------------------------------------
Magnitude (a.u.)       :      1.80853
Magnitude (Debye)      :      4.59691

Rotational constants in cm-1:     0.027623     0.019283     0.013649
Rotational constants in MHz :   828.119092   578.094001   409.189080

                             ****ORCA TERMINATED NORMALLY****
TOTAL RUN TIME: 0 days 0 hours 4 minutes 3 seconds 871 msec
