                         Program Version 5.0.3 -  RELEASE  -
|  1> ! EnGrad PBEh-3c
|  2> %output
|  3> xyzfile=True
|  4> end
|  5> %scf
|  6> maxiter 250
|  7> end
|  8> %output
|  9> Print[P_Hirshfeld] = 1
| 10> end
| 11> % maxcore
| 12> 4000
| 13> *xyz 0 1
| 14> C   -1.49372308   0.14815675  -0.65385247
| 15> C   -2.14853235  -0.88738887  -1.23474466
| 16> C   -1.83896756  -2.19146546  -0.88899418
| 17> C   -0.86186310  -2.46286588   0.07569456
| 18> C   -0.41911510  -0.04770709   0.30570523
| 19> C   -0.21922547  -1.43510969   0.69409251
| 20> H   -1.73176297   1.16899538  -0.99648000
| 21> H   -2.90376791  -0.69264470  -1.97836867
| 22> H   -2.37529995  -3.00057674  -1.33506835
| 23> H    0.56346538  -1.66126753   1.43520581
| 24> H   -0.61347478  -3.47473467   0.31618564
| 25> Pd   1.37168916   1.03533744  -0.11049928
| 26> O    3.37374400   1.38186335  -1.11209661
| 27> O    2.65217055  -0.54275852  -0.37698340
| 28> O    0.36551430   2.80773785   0.14059207
| 29> C   -0.08703505   2.88744409   1.34184752
| 30> O    0.17603703   2.03925547   2.29873388
| 31> H   -1.02721807   1.42355306   2.81549280
| 32> C    3.54594647   0.15177611  -0.96394097
| 33> H    4.45214514  -0.34665565  -1.33158807
| 34> H   -0.78430411   3.69764854   1.55845769
| 35> *
| 36>
| 37>                          ****END OF INPUT****

CARTESIAN COORDINATES (ANGSTROEM)
---------------------------------
  C     -1.493723    0.148157   -0.653852
  C     -2.148532   -0.887389   -1.234745
  C     -1.838968   -2.191465   -0.888994
  C     -0.861863   -2.462866    0.075695
  C     -0.419115   -0.047707    0.305705
  C     -0.219225   -1.435110    0.694093
  H     -1.731763    1.168995   -0.996480
  H     -2.903768   -0.692645   -1.978369
  H     -2.375300   -3.000577   -1.335068
  H      0.563465   -1.661268    1.435206
  H     -0.613475   -3.474735    0.316186
  Pd     1.371689    1.035337   -0.110499
  O      3.373744    1.381863   -1.112097
  O      2.652171   -0.542759   -0.376983
  O      0.365514    2.807738    0.140592
  C     -0.087035    2.887444    1.341848
  O      0.176037    2.039255    2.298734
  H     -1.027218    1.423553    2.815493
  C      3.545946    0.151776   -0.963941
  H      4.452145   -0.346656   -1.331588
  H     -0.784304    3.697649    1.558458

 Total Charge           Charge          ....    0
 Multiplicity           Mult            ....    1
 Number of Electrons    NEL             ....  106
 Basis Dimension        Dim             ....  227

ORBITAL ENERGIES
----------------

  NO   OCC          E(Eh)            E(eV)
   0   2.0000     -19.606110      -533.5094
   1   2.0000     -19.578047      -532.7458
   2   2.0000     -19.490983      -530.3766
   3   2.0000     -19.479124      -530.0539
   4   2.0000     -10.643909      -289.6355
   5   2.0000     -10.553632      -287.1789
   6   2.0000     -10.459179      -284.6087
   7   2.0000     -10.444415      -284.2070
   8   2.0000     -10.441299      -284.1222
   9   2.0000     -10.438867      -284.0560
  10   2.0000     -10.435950      -283.9766
  11   2.0000     -10.435660      -283.9688
  12   2.0000      -3.647110       -99.2429
  13   2.0000      -2.294831       -62.4455
  14   2.0000      -2.290195       -62.3194
  15   2.0000      -2.259142       -61.4744
  16   2.0000      -1.243395       -33.8345
  17   2.0000      -1.181850       -32.1598
  18   2.0000      -1.157658       -31.5015
  19   2.0000      -1.070773       -29.1372
  20   2.0000      -0.940002       -25.5788
  21   2.0000      -0.832872       -22.6636
  22   2.0000      -0.808082       -21.9890
  23   2.0000      -0.739916       -20.1341
  24   2.0000      -0.664219       -18.0743
  25   2.0000      -0.660387       -17.9700
  26   2.0000      -0.658291       -17.9130
  27   2.0000      -0.642103       -17.4725
  28   2.0000      -0.597302       -16.2534
  29   2.0000      -0.573725       -15.6118
  30   2.0000      -0.558935       -15.2094
  31   2.0000      -0.545414       -14.8415
  32   2.0000      -0.515647       -14.0315
  33   2.0000      -0.500535       -13.6202
  34   2.0000      -0.497076       -13.5261
  35   2.0000      -0.486027       -13.2255
  36   2.0000      -0.474759       -12.9188
  37   2.0000      -0.460129       -12.5207
  38   2.0000      -0.444614       -12.0986
  39   2.0000      -0.434149       -11.8138
  40   2.0000      -0.428309       -11.6549
  41   2.0000      -0.414791       -11.2870
  42   2.0000      -0.381652       -10.3853
  43   2.0000      -0.377087       -10.2611
  44   2.0000      -0.367182        -9.9915
  45   2.0000      -0.355686        -9.6787
  46   2.0000      -0.343866        -9.3571
  47   2.0000      -0.330608        -8.9963
  48   2.0000      -0.311416        -8.4741
  49   2.0000      -0.308315        -8.3897
  50   2.0000      -0.290033        -7.8922
  51   2.0000      -0.282738        -7.6937
  52   2.0000      -0.254072        -6.9137
  53   0.0000      -0.121863        -3.3161
  54   0.0000      -0.051962        -1.4139
  55   0.0000      -0.022049        -0.6000
  56   0.0000       0.024883         0.6771
  57   0.0000       0.033875         0.9218

MULLIKEN ATOMIC CHARGES
-----------------------
   0 C :   -0.243517
   1 C :   -0.188851
   2 C :   -0.242889
   3 C :   -0.190393
   4 C :   -0.230685
   5 C :   -0.239140
   6 H :    0.217879
   7 H :    0.216643
   8 H :    0.217189
   9 H :    0.233909
  10 H :    0.219637
  11 Pd:    0.386766
  12 O :   -0.464613
  13 O :   -0.487848
  14 O :   -0.404618
  15 C :    0.410461
  16 O :   -0.437236
  17 H :    0.420248
  18 C :    0.386353
  19 H :    0.188082
  20 H :    0.232623
Sum of atomic charges:   -0.0000000

LOEWDIN ATOMIC CHARGES
----------------------
   0 C :   -0.125791
   1 C :   -0.144635
   2 C :   -0.128262
   3 C :   -0.138961
   4 C :   -0.069902
   5 C :   -0.106640
   6 H :    0.139495
   7 H :    0.135534
   8 H :    0.133288
   9 H :    0.148174
  10 H :    0.137047
  11 Pd:   -0.302467
  12 O :   -0.205608
  13 O :   -0.175841
  14 O :   -0.077828
  15 C :    0.198357
  16 O :   -0.204096
  17 H :    0.400867
  18 C :    0.146215
  19 H :    0.111310
  20 H :    0.129742

  Mayer bond orders larger than 0.100000
B(  0-C ,  1-C ) :   1.4378 B(  0-C ,  4-C ) :   1.3436 B(  0-C ,  6-H ) :   0.9114
B(  1-C ,  2-C ) :   1.4300 B(  1-C ,  7-H ) :   0.9177 B(  2-C ,  3-C ) :   1.4055
B(  2-C ,  4-C ) :   0.1066 B(  2-C ,  8-H ) :   0.9189 B(  3-C ,  5-C ) :   1.4567
B(  3-C , 10-H ) :   0.9171 B(  4-C ,  5-C ) :   1.3587 B(  4-C , 11-Pd) :   0.8348
B(  5-C ,  9-H ) :   0.9096 B( 11-Pd, 12-O ) :   0.3706 B( 11-Pd, 13-O ) :   0.5579
B( 11-Pd, 14-O ) :   0.4224 B( 12-O , 13-O ) :   0.1156 B( 12-O , 18-C ) :   1.5974
B( 13-O , 18-C ) :   1.4204 B( 14-O , 15-C ) :   1.6576 B( 15-C , 16-O ) :   1.2941
B( 15-C , 20-H ) :   0.8718 B( 16-O , 17-H ) :   0.6640 B( 18-C , 19-H ) :   0.8836

Dispersion correction           -0.013383658
FINAL SINGLE POINT ENERGY      -736.988865755177
Dispersion correction            ... done

DIPOLE MOMENT
-------------
                                X             Y             Z
Electronic contribution:     49.70163      39.43495      -3.70987
Nuclear contribution   :    -51.37455     -38.77985       5.24145
                        -----------------------------------------
Total Dipole Moment    :     -1.67292       0.65510       1.53158
                        -----------------------------------------
Magnitude (a.u.)       :      2.36084
Magnitude (Debye)      :      6.00077

Rotational constants in cm-1:     0.028322     0.017388     0.012872
Rotational constants in MHz :   849.081265   521.266219   385.906277

                             ****ORCA TERMINATED NORMALLY****
TOTAL RUN TIME: 0 days 0 hours 3 minutes 46 seconds 453 msec
