                         Program Version 5.0.3 -  RELEASE  -
|  1> ! EnGrad PBEh-3c
|  2> %output
|  3> xyzfile=True
|  4> end
|  5> %scf
|  6> maxiter 250
|  7> end
|  8> %output
|  9> Print[P_Hirshfeld] = 1
| 10> end
| 11> % maxcore
| 12> 4000
| 13> *xyz 0 1
| 14> C   -1.47358112   0.16452851  -0.65892670
| 15> C   -2.14847599  -0.88541067  -1.23263702
| 16> C   -1.84748834  -2.18873773  -0.87692078
| 17> C   -0.86106279  -2.45711484   0.06730237
| 18> C   -0.46817499  -0.09722972   0.29809228
| 19> C   -0.20502182  -1.42631474   0.69640822
| 20> H   -1.73137051   1.16351657  -1.01660660
| 21> H   -2.91413105  -0.69298014  -1.96907072
| 22> H   -2.39800502  -3.00154650  -1.31893764
| 23> H    0.57062221  -1.67196779   1.42320876
| 24> H   -0.62434130  -3.47513278   0.32260989
| 25> Pd   1.41757938   1.06465034  -0.13560240
| 26> O    3.37657565   1.38435652  -1.09633299
| 27> O    2.66667740  -0.54561168  -0.38802274
| 28> O    0.35676268   2.79966607   0.15489775
| 29> C   -0.07833918   2.89571768   1.32525683
| 30> O    0.22664515   2.06551075   2.27168184
| 31> H   -1.08589060   1.39807555   2.85665751
| 32> C    3.55060417   0.15543327  -0.96288783
| 33> H    4.46076692  -0.34001304  -1.32276698
| 34> H   -0.79203371   3.68993599   1.56231682
| 35> *
| 36>
| 37>                          ****END OF INPUT****

CARTESIAN COORDINATES (ANGSTROEM)
---------------------------------
  C     -1.473581    0.164529   -0.658927
  C     -2.148476   -0.885411   -1.232637
  C     -1.847488   -2.188738   -0.876921
  C     -0.861063   -2.457115    0.067302
  C     -0.468175   -0.097230    0.298092
  C     -0.205022   -1.426315    0.696408
  H     -1.731371    1.163517   -1.016607
  H     -2.914131   -0.692980   -1.969071
  H     -2.398005   -3.001546   -1.318938
  H      0.570622   -1.671968    1.423209
  H     -0.624341   -3.475133    0.322610
  Pd     1.417579    1.064650   -0.135602
  O      3.376576    1.384357   -1.096333
  O      2.666677   -0.545612   -0.388023
  O      0.356763    2.799666    0.154898
  C     -0.078339    2.895718    1.325257
  O      0.226645    2.065511    2.271682
  H     -1.085891    1.398076    2.856658
  C      3.550604    0.155433   -0.962888
  H      4.460767   -0.340013   -1.322767
  H     -0.792034    3.689936    1.562317

 Total Charge           Charge          ....    0
 Multiplicity           Mult            ....    1
 Number of Electrons    NEL             ....  106
 Basis Dimension        Dim             ....  227

ORBITAL ENERGIES
----------------

  NO   OCC          E(Eh)            E(eV)
   0   2.0000     -19.589512      -533.0577
   1   2.0000     -19.568026      -532.4730
   2   2.0000     -19.495891      -530.5102
   3   2.0000     -19.484532      -530.2011
   4   2.0000     -10.626778      -289.1693
   5   2.0000     -10.556679      -287.2618
   6   2.0000     -10.459891      -284.6281
   7   2.0000     -10.446333      -284.2592
   8   2.0000     -10.443253      -284.1754
   9   2.0000     -10.441942      -284.1397
  10   2.0000     -10.440578      -284.1026
  11   2.0000     -10.440022      -284.0875
  12   2.0000      -3.645411       -99.1967
  13   2.0000      -2.294324       -62.4317
  14   2.0000      -2.286845       -62.2282
  15   2.0000      -2.258048       -61.4446
  16   2.0000      -1.243440       -33.8357
  17   2.0000      -1.191276       -32.4163
  18   2.0000      -1.150751       -31.3135
  19   2.0000      -1.078772       -29.3549
  20   2.0000      -0.947384       -25.7796
  21   2.0000      -0.835941       -22.7471
  22   2.0000      -0.816816       -22.2267
  23   2.0000      -0.725977       -19.7548
  24   2.0000      -0.669360       -18.2142
  25   2.0000      -0.664409       -18.0795
  26   2.0000      -0.662405       -18.0249
  27   2.0000      -0.623740       -16.9728
  28   2.0000      -0.592006       -16.1093
  29   2.0000      -0.576125       -15.6772
  30   2.0000      -0.555897       -15.1267
  31   2.0000      -0.548433       -14.9236
  32   2.0000      -0.521754       -14.1976
  33   2.0000      -0.504975       -13.7411
  34   2.0000      -0.502973       -13.6866
  35   2.0000      -0.493548       -13.4301
  36   2.0000      -0.479159       -13.0386
  37   2.0000      -0.447102       -12.1663
  38   2.0000      -0.438826       -11.9411
  39   2.0000      -0.434139       -11.8135
  40   2.0000      -0.420434       -11.4406
  41   2.0000      -0.414145       -11.2695
  42   2.0000      -0.392395       -10.6776
  43   2.0000      -0.380519       -10.3545
  44   2.0000      -0.366244        -9.9660
  45   2.0000      -0.359442        -9.7809
  46   2.0000      -0.344819        -9.3830
  47   2.0000      -0.327694        -8.9170
  48   2.0000      -0.311264        -8.4699
  49   2.0000      -0.303422        -8.2565
  50   2.0000      -0.290993        -7.9183
  51   2.0000      -0.282442        -7.6856
  52   2.0000      -0.257412        -7.0045
  53   0.0000      -0.140837        -3.8324
  54   0.0000      -0.055340        -1.5059
  55   0.0000      -0.006874        -0.1870
  56   0.0000       0.026981         0.7342
  57   0.0000       0.028055         0.7634

MULLIKEN ATOMIC CHARGES
-----------------------
   0 C :   -0.227796
   1 C :   -0.209361
   2 C :   -0.228402
   3 C :   -0.208819
   4 C :   -0.209174
   5 C :   -0.226411
   6 H :    0.227524
   7 H :    0.217815
   8 H :    0.218388
   9 H :    0.242042
  10 H :    0.219194
  11 Pd:    0.379572
  12 O :   -0.465356
  13 O :   -0.478872
  14 O :   -0.397199
  15 C :    0.392814
  16 O :   -0.409873
  17 H :    0.363549
  18 C :    0.390927
  19 H :    0.187620
  20 H :    0.221819
Sum of atomic charges:   -0.0000000

LOEWDIN ATOMIC CHARGES
----------------------
   0 C :   -0.128039
   1 C :   -0.137882
   2 C :   -0.131177
   3 C :   -0.132093
   4 C :   -0.058774
   5 C :   -0.109794
   6 H :    0.145067
   7 H :    0.134523
   8 H :    0.134741
   9 H :    0.152549
  10 H :    0.135997
  11 Pd:   -0.297047
  12 O :   -0.192131
  13 O :   -0.166182
  14 O :   -0.065251
  15 C :    0.163644
  16 O :   -0.190581
  17 H :    0.362170
  18 C :    0.145373
  19 H :    0.111415
  20 H :    0.123472

  Mayer bond orders larger than 0.100000
B(  0-C ,  1-C ) :   1.4302 B(  0-C ,  4-C ) :   1.3547 B(  0-C ,  6-H ) :   0.9086
B(  1-C ,  2-C ) :   1.4326 B(  1-C ,  7-H ) :   0.9163 B(  2-C ,  3-C ) :   1.4128
B(  2-C ,  8-H ) :   0.9195 B(  3-C ,  5-C ) :   1.4435 B(  3-C , 10-H ) :   0.9162
B(  4-C ,  5-C ) :   1.3791 B(  4-C , 11-Pd) :   0.7787 B(  5-C ,  9-H ) :   0.9063
B( 11-Pd, 12-O ) :   0.3912 B( 11-Pd, 13-O ) :   0.5550 B( 11-Pd, 14-O ) :   0.4225
B( 12-O , 13-O ) :   0.1150 B( 12-O , 18-C ) :   1.5781 B( 13-O , 18-C ) :   1.4332
B( 14-O , 15-C ) :   1.6538 B( 15-C , 16-O ) :   1.3354 B( 15-C , 20-H ) :   0.8736
B( 16-O , 17-H ) :   0.6254 B( 18-C , 19-H ) :   0.8851

Dispersion correction           -0.013296577
FINAL SINGLE POINT ENERGY      -736.967010503983
Dispersion correction            ... done

DIPOLE MOMENT
-------------
                                X             Y             Z
Electronic contribution:     51.68553      40.49184      -5.02085
Nuclear contribution   :    -53.30405     -40.05327       6.31870
                        -----------------------------------------
Total Dipole Moment    :     -1.61852       0.43857       1.29785
                        -----------------------------------------
Magnitude (a.u.)       :      2.12046
Magnitude (Debye)      :      5.38979

Rotational constants in cm-1:     0.028438     0.017208     0.012774
Rotational constants in MHz :   852.542626   515.881237   382.947115

                             ****ORCA TERMINATED NORMALLY****
TOTAL RUN TIME: 0 days 0 hours 4 minutes 2 seconds 839 msec
