                         Program Version 5.0.3 -  RELEASE  -
|  1> ! EnGrad PBEh-3c
|  2> %output
|  3> xyzfile=True
|  4> end
|  5> %scf
|  6> maxiter 250
|  7> end
|  8> %output
|  9> Print[P_Hirshfeld] = 1
| 10> end
| 11> % maxcore
| 12> 4000
| 13> *xyz 0 1
| 14> C   -1.48465388   0.15767528  -0.64283484
| 15> C   -2.14844790  -0.89197184  -1.23613704
| 16> C   -1.83211055  -2.19107264  -0.88967185
| 17> C   -0.86471151  -2.46131741   0.07126945
| 18> C   -0.42650449  -0.05713611   0.30397614
| 19> C   -0.21564099  -1.42130094   0.69964292
| 20> H   -1.73565341   1.16667653  -0.99080437
| 21> H   -2.90007842  -0.69248664  -1.98182759
| 22> H   -2.36813631  -3.00222427  -1.34268627
| 23> H    0.55811129  -1.66031523   1.43792814
| 24> H   -0.60904856  -3.47602523   0.31483797
| 25> Pd   1.36963514   1.03373479  -0.10960834
| 26> O    3.36841536   1.37648743  -1.11567210
| 27> O    2.65285910  -0.54212613  -0.37402173
| 28> O    0.36011066   2.80777258   0.16188195
| 29> C   -0.08219278   2.88617348   1.32474508
| 30> O    0.16491210   2.03495852   2.30123667
| 31> H   -1.01413216   1.42887551   2.80517357
| 32> C    3.53788244   0.15174538  -0.96335711
| 33> H    4.44755836  -0.35028413  -1.33398589
| 34> H   -0.78210199   3.70013173   1.55904894
| 35> *
| 36>
| 37>                          ****END OF INPUT****

CARTESIAN COORDINATES (ANGSTROEM)
---------------------------------
  C     -1.484654    0.157675   -0.642835
  C     -2.148448   -0.891972   -1.236137
  C     -1.832111   -2.191073   -0.889672
  C     -0.864712   -2.461317    0.071269
  C     -0.426504   -0.057136    0.303976
  C     -0.215641   -1.421301    0.699643
  H     -1.735653    1.166677   -0.990804
  H     -2.900078   -0.692487   -1.981828
  H     -2.368136   -3.002224   -1.342686
  H      0.558111   -1.660315    1.437928
  H     -0.609049   -3.476025    0.314838
  Pd     1.369635    1.033735   -0.109608
  O      3.368415    1.376487   -1.115672
  O      2.652859   -0.542126   -0.374022
  O      0.360111    2.807773    0.161882
  C     -0.082193    2.886173    1.324745
  O      0.164912    2.034959    2.301237
  H     -1.014132    1.428876    2.805174
  C      3.537882    0.151745   -0.963357
  H      4.447558   -0.350284   -1.333986
  H     -0.782102    3.700132    1.559049

 Total Charge           Charge          ....    0
 Multiplicity           Mult            ....    1
 Number of Electrons    NEL             ....  106
 Basis Dimension        Dim             ....  227

ORBITAL ENERGIES
----------------

  NO   OCC          E(Eh)            E(eV)
   0   2.0000     -19.601313      -533.3788
   1   2.0000     -19.581933      -532.8515
   2   2.0000     -19.490479      -530.3629
   3   2.0000     -19.478467      -530.0360
   4   2.0000     -10.642076      -289.5856
   5   2.0000     -10.552544      -287.1493
   6   2.0000     -10.457308      -284.5578
   7   2.0000     -10.445046      -284.2241
   8   2.0000     -10.441406      -284.1251
   9   2.0000     -10.438165      -284.0369
  10   2.0000     -10.437582      -284.0211
  11   2.0000     -10.437000      -284.0052
  12   2.0000      -3.646030       -99.2135
  13   2.0000      -2.293829       -62.4183
  14   2.0000      -2.289315       -62.2954
  15   2.0000      -2.258264       -61.4505
  16   2.0000      -1.251770       -34.0624
  17   2.0000      -1.184503       -32.2320
  18   2.0000      -1.164919       -31.6991
  19   2.0000      -1.072980       -29.1973
  20   2.0000      -0.940527       -25.5930
  21   2.0000      -0.829894       -22.5826
  22   2.0000      -0.812609       -22.1122
  23   2.0000      -0.737913       -20.0796
  24   2.0000      -0.664394       -18.0791
  25   2.0000      -0.661466       -17.9994
  26   2.0000      -0.657060       -17.8795
  27   2.0000      -0.644135       -17.5278
  28   2.0000      -0.604205       -16.4413
  29   2.0000      -0.574687       -15.6380
  30   2.0000      -0.561579       -15.2813
  31   2.0000      -0.546091       -14.8599
  32   2.0000      -0.516453       -14.0534
  33   2.0000      -0.502571       -13.6757
  34   2.0000      -0.497715       -13.5435
  35   2.0000      -0.487700       -13.2710
  36   2.0000      -0.474048       -12.8995
  37   2.0000      -0.466278       -12.6881
  38   2.0000      -0.443840       -12.0775
  39   2.0000      -0.435494       -11.8504
  40   2.0000      -0.427925       -11.6444
  41   2.0000      -0.414851       -11.2887
  42   2.0000      -0.385320       -10.4851
  43   2.0000      -0.379198       -10.3185
  44   2.0000      -0.366572        -9.9749
  45   2.0000      -0.356003        -9.6873
  46   2.0000      -0.344241        -9.3673
  47   2.0000      -0.331183        -9.0120
  48   2.0000      -0.310564        -8.4509
  49   2.0000      -0.308168        -8.3857
  50   2.0000      -0.287395        -7.8204
  51   2.0000      -0.282738        -7.6937
  52   2.0000      -0.255714        -6.9583
  53   0.0000      -0.110562        -3.0085
  54   0.0000      -0.052306        -1.4233
  55   0.0000      -0.015654        -0.4260
  56   0.0000       0.028427         0.7735
  57   0.0000       0.029565         0.8045

MULLIKEN ATOMIC CHARGES
-----------------------
   0 C :   -0.239563
   1 C :   -0.198120
   2 C :   -0.236324
   3 C :   -0.197796
   4 C :   -0.226506
   5 C :   -0.235566
   6 H :    0.218505
   7 H :    0.217302
   8 H :    0.215958
   9 H :    0.236004
  10 H :    0.219556
  11 Pd:    0.379546
  12 O :   -0.462624
  13 O :   -0.484946
  14 O :   -0.378435
  15 C :    0.408577
  16 O :   -0.457426
  17 H :    0.426224
  18 C :    0.384436
  19 H :    0.184995
  20 H :    0.226200
Sum of atomic charges:   -0.0000000

LOEWDIN ATOMIC CHARGES
----------------------
   0 C :   -0.127703
   1 C :   -0.141744
   2 C :   -0.132510
   3 C :   -0.136162
   4 C :   -0.068527
   5 C :   -0.107248
   6 H :    0.139872
   7 H :    0.135349
   8 H :    0.133313
   9 H :    0.149215
  10 H :    0.136960
  11 Pd:   -0.301891
  12 O :   -0.202717
  13 O :   -0.172727
  14 O :   -0.048479
  15 C :    0.188168
  16 O :   -0.221989
  17 H :    0.402080
  18 C :    0.140403
  19 H :    0.109714
  20 H :    0.126622

  Mayer bond orders larger than 0.100000
B(  0-C ,  1-C ) :   1.4333 B(  0-C ,  4-C ) :   1.3509 B(  0-C ,  6-H ) :   0.9108
B(  1-C ,  2-C ) :   1.4334 B(  1-C ,  7-H ) :   0.9174 B(  2-C ,  3-C ) :   1.4117
B(  2-C ,  8-H ) :   0.9194 B(  3-C ,  5-C ) :   1.4479 B(  3-C , 10-H ) :   0.9170
B(  4-C ,  5-C ) :   1.3714 B(  4-C , 11-Pd) :   0.8382 B(  5-C ,  9-H ) :   0.9084
B( 11-Pd, 12-O ) :   0.3689 B( 11-Pd, 13-O ) :   0.5577 B( 11-Pd, 14-O ) :   0.4031
B( 12-O , 13-O ) :   0.1150 B( 12-O , 18-C ) :   1.6002 B( 13-O , 18-C ) :   1.4238
B( 14-O , 15-C ) :   1.7115 B( 15-C , 16-O ) :   1.2516 B( 15-C , 20-H ) :   0.8724
B( 16-O , 17-H ) :   0.6840 B( 18-C , 19-H ) :   0.8835

Dispersion correction           -0.013385897
FINAL SINGLE POINT ENERGY      -737.003279779870
Dispersion correction            ... done

DIPOLE MOMENT
-------------
                                X             Y             Z
Electronic contribution:     49.64543      39.39329      -3.76653
Nuclear contribution   :    -51.32277     -38.71530       5.24274
                        -----------------------------------------
Total Dipole Moment    :     -1.67733       0.67799       1.47621
                        -----------------------------------------
Magnitude (a.u.)       :      2.33502
Magnitude (Debye)      :      5.93514

Rotational constants in cm-1:     0.028349     0.017448     0.012898
Rotational constants in MHz :   849.895237   523.092151   386.665983

                             ****ORCA TERMINATED NORMALLY****
TOTAL RUN TIME: 0 days 0 hours 4 minutes 8 seconds 474 msec
