                         Program Version 5.0.3 -  RELEASE  -
|  1> ! EnGrad PBEh-3c
|  2> %output
|  3> xyzfile=True
|  4> end
|  5> %scf
|  6> maxiter 250
|  7> end
|  8> %output
|  9> Print[P_Hirshfeld] = 1
| 10> end
| 11> % maxcore
| 12> 4000
| 13> *xyz 0 1
| 14> C   -1.48587374   0.16260243  -0.61068915
| 15> C   -2.14161272  -0.89878157  -1.23815136
| 16> C   -1.80535629  -2.19480724  -0.90847638
| 17> C   -0.86615403  -2.45835889   0.07282514
| 18> C   -0.40332971  -0.03500013   0.31075395
| 19> C   -0.22278842  -1.39881379   0.71205301
| 20> H   -1.74899710   1.16754393  -0.95098904
| 21> H   -2.87699582  -0.69147358  -2.00283947
| 22> H   -2.31950625  -3.00544685  -1.38390695
| 23> H    0.53450917  -1.64562941   1.46114301
| 24> H   -0.58347376  -3.47747767   0.30320377
| 25> Pd   1.31808441   1.00224299  -0.08021833
| 26> O    3.34779708   1.36079175  -1.14498226
| 27> O    2.63679023  -0.53986914  -0.35123959
| 28> O    0.36279053   2.81247967   0.18607421
| 29> C   -0.08993711   2.87735304   1.32023922
| 30> O    0.07744320   1.99540243   2.33426888
| 31> H   -0.91059985   1.47251375   2.72784025
| 32> C    3.51321737   0.14440169  -0.96457475
| 33> H    4.42130714  -0.36819733  -1.35031760
| 34> H   -0.76402618   3.71414886   1.55594543
| 35> *
| 36>
| 37>                          ****END OF INPUT****

CARTESIAN COORDINATES (ANGSTROEM)
---------------------------------
  C     -1.485874    0.162602   -0.610689
  C     -2.141613   -0.898782   -1.238151
  C     -1.805356   -2.194807   -0.908476
  C     -0.866154   -2.458359    0.072825
  C     -0.403330   -0.035000    0.310754
  C     -0.222788   -1.398814    0.712053
  H     -1.748997    1.167544   -0.950989
  H     -2.876996   -0.691474   -2.002839
  H     -2.319506   -3.005447   -1.383907
  H      0.534509   -1.645629    1.461143
  H     -0.583474   -3.477478    0.303204
  Pd     1.318084    1.002243   -0.080218
  O      3.347797    1.360792   -1.144982
  O      2.636790   -0.539869   -0.351240
  O      0.362791    2.812480    0.186074
  C     -0.089937    2.877353    1.320239
  O      0.077443    1.995402    2.334269
  H     -0.910600    1.472514    2.727840
  C      3.513217    0.144402   -0.964575
  H      4.421307   -0.368197   -1.350318
  H     -0.764026    3.714149    1.555945

 Total Charge           Charge          ....    0
 Multiplicity           Mult            ....    1
 Number of Electrons    NEL             ....  106
 Basis Dimension        Dim             ....  227

ORBITAL ENERGIES
----------------

  NO   OCC          E(Eh)            E(eV)
   0   2.0000     -19.597432      -533.2732
   1   2.0000     -19.595607      -533.2236
   2   2.0000     -19.486632      -530.2582
   3   2.0000     -19.473726      -529.9070
   4   2.0000     -10.653391      -289.8935
   5   2.0000     -10.549475      -287.0658
   6   2.0000     -10.458744      -284.5969
   7   2.0000     -10.448032      -284.3054
   8   2.0000     -10.443008      -284.1687
   9   2.0000     -10.441307      -284.1224
  10   2.0000     -10.439752      -284.0801
  11   2.0000     -10.436765      -283.9988
  12   2.0000      -3.649122       -99.2977
  13   2.0000      -2.296211       -62.4831
  14   2.0000      -2.294078       -62.4250
  15   2.0000      -2.261389       -61.5355
  16   2.0000      -1.265930       -34.4477
  17   2.0000      -1.181195       -32.1420
  18   2.0000      -1.178724       -32.0747
  19   2.0000      -1.070420       -29.1276
  20   2.0000      -0.939777       -25.5726
  21   2.0000      -0.825742       -22.4696
  22   2.0000      -0.817934       -22.2571
  23   2.0000      -0.754564       -20.5327
  24   2.0000      -0.672370       -18.2961
  25   2.0000      -0.666800       -18.1446
  26   2.0000      -0.661468       -17.9995
  27   2.0000      -0.651483       -17.7278
  28   2.0000      -0.617572       -16.8050
  29   2.0000      -0.579113       -15.7585
  30   2.0000      -0.567329       -15.4378
  31   2.0000      -0.543267       -14.7830
  32   2.0000      -0.514092       -13.9892
  33   2.0000      -0.505232       -13.7480
  34   2.0000      -0.498913       -13.5761
  35   2.0000      -0.488775       -13.3003
  36   2.0000      -0.483528       -13.1575
  37   2.0000      -0.469691       -12.7810
  38   2.0000      -0.449561       -12.2332
  39   2.0000      -0.442760       -12.0481
  40   2.0000      -0.434525       -11.8240
  41   2.0000      -0.416267       -11.3272
  42   2.0000      -0.389395       -10.5960
  43   2.0000      -0.380389       -10.3509
  44   2.0000      -0.370976       -10.0948
  45   2.0000      -0.355380        -9.6704
  46   2.0000      -0.344959        -9.3868
  47   2.0000      -0.336034        -9.1439
  48   2.0000      -0.315366        -8.5815
  49   2.0000      -0.308406        -8.3922
  50   2.0000      -0.288296        -7.8449
  51   2.0000      -0.281927        -7.6716
  52   2.0000      -0.256241        -6.9727
  53   0.0000      -0.066909        -1.8207
  54   0.0000      -0.047899        -1.3034
  55   0.0000       0.002026         0.0551
  56   0.0000       0.025154         0.6845
  57   0.0000       0.031532         0.8580

MULLIKEN ATOMIC CHARGES
-----------------------
   0 C :   -0.239089
   1 C :   -0.203384
   2 C :   -0.230958
   3 C :   -0.202133
   4 C :   -0.229036
   5 C :   -0.231260
   6 H :    0.214698
   7 H :    0.219091
   8 H :    0.216154
   9 H :    0.235660
  10 H :    0.221351
  11 Pd:    0.381906
  12 O :   -0.459306
  13 O :   -0.489851
  14 O :   -0.350181
  15 C :    0.419908
  16 O :   -0.536100
  17 H :    0.474095
  18 C :    0.377303
  19 H :    0.181305
  20 H :    0.229829
Sum of atomic charges:   -0.0000000

LOEWDIN ATOMIC CHARGES
----------------------
   0 C :   -0.127247
   1 C :   -0.139940
   2 C :   -0.136134
   3 C :   -0.134712
   4 C :   -0.062663
   5 C :   -0.103651
   6 H :    0.138225
   7 H :    0.136664
   8 H :    0.133596
   9 H :    0.149520
  10 H :    0.138496
  11 Pd:   -0.296383
  12 O :   -0.210587
  13 O :   -0.178430
  14 O :   -0.020812
  15 C :    0.212477
  16 O :   -0.273098
  17 H :    0.405286
  18 C :    0.132529
  19 H :    0.107402
  20 H :    0.129462

  Mayer bond orders larger than 0.100000
B(  0-C ,  1-C ) :   1.4304 B(  0-C ,  4-C ) :   1.3501 B(  0-C ,  6-H ) :   0.9111
B(  1-C ,  2-C ) :   1.4351 B(  1-C ,  7-H ) :   0.9172 B(  2-C ,  3-C ) :   1.4141
B(  2-C ,  8-H ) :   0.9189 B(  3-C ,  5-C ) :   1.4429 B(  3-C , 10-H ) :   0.9170
B(  4-C ,  5-C ) :   1.3714 B(  4-C , 11-Pd) :   0.8830 B(  5-C ,  9-H ) :   0.9081
B( 11-Pd, 12-O ) :   0.3468 B( 11-Pd, 13-O ) :   0.5576 B( 11-Pd, 14-O ) :   0.3832
B( 12-O , 13-O ) :   0.1145 B( 12-O , 18-C ) :   1.6227 B( 13-O , 18-C ) :   1.4164
B( 14-O , 15-C ) :   1.7813 B( 15-C , 16-O ) :   1.1613 B( 15-C , 20-H ) :   0.8713
B( 16-O , 17-H ) :   0.6991 B( 18-C , 19-H ) :   0.8818

Dispersion correction           -0.013176731
FINAL SINGLE POINT ENERGY      -737.053111168101
Dispersion correction            ... done

DIPOLE MOMENT
-------------
                                X             Y             Z
Electronic contribution:     47.58844      38.17997      -2.67249
Nuclear contribution   :    -49.27570     -37.38211       4.07919
                        -----------------------------------------
Total Dipole Moment    :     -1.68726       0.79786       1.40670
                        -----------------------------------------
Magnitude (a.u.)       :      2.33714
Magnitude (Debye)      :      5.94053

Rotational constants in cm-1:     0.028238     0.017793     0.013062
Rotational constants in MHz :   846.558254   533.426329   391.593259

                             ****ORCA TERMINATED NORMALLY****
TOTAL RUN TIME: 0 days 0 hours 4 minutes 3 seconds 918 msec
