                         Program Version 5.0.3 -  RELEASE  -
|  1> ! EnGrad PBEh-3c
|  2> %output
|  3> xyzfile=True
|  4> end
|  5> %scf
|  6> maxiter 250
|  7> end
|  8> %output
|  9> Print[P_Hirshfeld] = 1
| 10> end
| 11> % maxcore
| 12> 4000
| 13> *xyz 0 1
| 14> C   -1.47957765   0.17351522  -0.57989906
| 15> C   -2.12805726  -0.89691432  -1.23487896
| 16> C   -1.77950363  -2.19775446  -0.92593598
| 17> C   -0.86004344  -2.44705984   0.07494318
| 18> C   -0.41253607  -0.04492838   0.31519103
| 19> C   -0.22508776  -1.37382085   0.72709802
| 20> H   -1.76574219   1.16682236  -0.91323796
| 21> H   -2.85319866  -0.69020757  -2.02209903
| 22> H   -2.27148535  -3.01065340  -1.42667546
| 23> H    0.51002204  -1.63341718   1.48357558
| 24> H   -0.55868319  -3.47611335   0.29269149
| 25> Pd   1.28887628   0.98719010  -0.06139309
| 26> O    3.32169055   1.34504940  -1.17146789
| 27> O    2.62476298  -0.54200295  -0.32907591
| 28> O    0.36613495   2.80737069   0.21567530
| 29> C   -0.10495435   2.87207694   1.32292343
| 30> O    0.00282660   1.96653962   2.34995263
| 31> H   -0.81734793   1.51160233   2.65448322
| 32> C    3.48716872   0.13528046  -0.96660622
| 33> H    4.39061467  -0.38601743  -1.36381888
| 34> H   -0.74456433   3.72672533   1.55491607
| 35> *
| 36>
| 37>                          ****END OF INPUT****

CARTESIAN COORDINATES (ANGSTROEM)
---------------------------------
  C     -1.479578    0.173515   -0.579899
  C     -2.128057   -0.896914   -1.234879
  C     -1.779504   -2.197754   -0.925936
  C     -0.860043   -2.447060    0.074943
  C     -0.412536   -0.044928    0.315191
  C     -0.225088   -1.373821    0.727098
  H     -1.765742    1.166822   -0.913238
  H     -2.853199   -0.690208   -2.022099
  H     -2.271485   -3.010653   -1.426675
  H      0.510022   -1.633417    1.483576
  H     -0.558683   -3.476113    0.292691
  Pd     1.288876    0.987190   -0.061393
  O      3.321691    1.345049   -1.171468
  O      2.624763   -0.542003   -0.329076
  O      0.366135    2.807371    0.215675
  C     -0.104954    2.872077    1.322923
  O      0.002827    1.966540    2.349953
  H     -0.817348    1.511602    2.654483
  C      3.487169    0.135280   -0.966606
  H      4.390615   -0.386017   -1.363819
  H     -0.744564    3.726725    1.554916

 Total Charge           Charge          ....    0
 Multiplicity           Mult            ....    1
 Number of Electrons    NEL             ....  106
 Basis Dimension        Dim             ....  227

ORBITAL ENERGIES
----------------

  NO   OCC          E(Eh)            E(eV)
   0   2.0000     -19.603176      -533.4295
   1   2.0000     -19.584895      -532.9321
   2   2.0000     -19.484665      -530.2047
   3   2.0000     -19.471227      -529.8390
   4   2.0000     -10.658526      -290.0332
   5   2.0000     -10.547618      -287.0153
   6   2.0000     -10.457888      -284.5736
   7   2.0000     -10.449422      -284.3432
   8   2.0000     -10.445683      -284.2415
   9   2.0000     -10.443428      -284.1801
  10   2.0000     -10.442820      -284.1636
  11   2.0000     -10.438072      -284.0344
  12   2.0000      -3.649493       -99.3077
  13   2.0000      -2.296726       -62.4971
  14   2.0000      -2.294699       -62.4419
  15   2.0000      -2.262149       -61.5562
  16   2.0000      -1.280630       -34.8477
  17   2.0000      -1.199188       -32.6316
  18   2.0000      -1.179523       -32.0965
  19   2.0000      -1.069781       -29.1102
  20   2.0000      -0.943584       -25.6762
  21   2.0000      -0.825971       -22.4758
  22   2.0000      -0.824854       -22.4454
  23   2.0000      -0.779753       -21.2182
  24   2.0000      -0.697203       -18.9719
  25   2.0000      -0.672059       -18.2876
  26   2.0000      -0.661979       -18.0134
  27   2.0000      -0.648958       -17.6590
  28   2.0000      -0.627139       -17.0653
  29   2.0000      -0.584892       -15.9157
  30   2.0000      -0.570990       -15.5374
  31   2.0000      -0.541967       -14.7477
  32   2.0000      -0.513564       -13.9748
  33   2.0000      -0.508040       -13.8245
  34   2.0000      -0.503232       -13.6936
  35   2.0000      -0.499501       -13.5921
  36   2.0000      -0.483000       -13.1431
  37   2.0000      -0.468378       -12.7452
  38   2.0000      -0.454587       -12.3699
  39   2.0000      -0.449309       -12.2263
  40   2.0000      -0.440321       -11.9817
  41   2.0000      -0.420670       -11.4470
  42   2.0000      -0.395350       -10.7580
  43   2.0000      -0.380904       -10.3649
  44   2.0000      -0.371232       -10.1017
  45   2.0000      -0.354847        -9.6559
  46   2.0000      -0.345279        -9.3955
  47   2.0000      -0.338109        -9.2004
  48   2.0000      -0.315461        -8.5841
  49   2.0000      -0.308082        -8.3833
  50   2.0000      -0.289770        -7.8850
  51   2.0000      -0.280850        -7.6423
  52   2.0000      -0.258118        -7.0237
  53   0.0000      -0.060351        -1.6422
  54   0.0000      -0.045061        -1.2262
  55   0.0000       0.019699         0.5360
  56   0.0000       0.025213         0.6861
  57   0.0000       0.048304         1.3144

MULLIKEN ATOMIC CHARGES
-----------------------
   0 C :   -0.231097
   1 C :   -0.216670
   2 C :   -0.222000
   3 C :   -0.214373
   4 C :   -0.221860
   5 C :   -0.220780
   6 H :    0.215993
   7 H :    0.219402
   8 H :    0.217926
   9 H :    0.238858
  10 H :    0.221407
  11 Pd:    0.378698
  12 O :   -0.458277
  13 O :   -0.491921
  14 O :   -0.331912
  15 C :    0.419536
  16 O :   -0.579915
  17 H :    0.490084
  18 C :    0.373663
  19 H :    0.178302
  20 H :    0.234935
Sum of atomic charges:   -0.0000000

LOEWDIN ATOMIC CHARGES
----------------------
   0 C :   -0.128738
   1 C :   -0.134622
   2 C :   -0.140323
   3 C :   -0.129389
   4 C :   -0.055210
   5 C :   -0.103216
   6 H :    0.139908
   7 H :    0.136690
   8 H :    0.134809
   9 H :    0.152120
  10 H :    0.138702
  11 Pd:   -0.292723
  12 O :   -0.213825
  13 O :   -0.181321
  14 O :   -0.000119
  15 C :    0.227052
  16 O :   -0.289167
  17 H :    0.373901
  18 C :    0.127666
  19 H :    0.105545
  20 H :    0.132259

  Mayer bond orders larger than 0.100000
B(  0-C ,  1-C ) :   1.4277 B(  0-C ,  4-C ) :   1.3526 B(  0-C ,  6-H ) :   0.9103
B(  1-C ,  2-C ) :   1.4358 B(  1-C ,  7-H ) :   0.9170 B(  2-C ,  3-C ) :   1.4179
B(  2-C ,  8-H ) :   0.9183 B(  3-C ,  5-C ) :   1.4353 B(  3-C , 10-H ) :   0.9170
B(  4-C ,  5-C ) :   1.3806 B(  4-C , 11-Pd) :   0.8991 B(  5-C ,  9-H ) :   0.9067
B( 11-Pd, 12-O ) :   0.3355 B( 11-Pd, 13-O ) :   0.5545 B( 11-Pd, 14-O ) :   0.3720
B( 12-O , 13-O ) :   0.1144 B( 12-O , 18-C ) :   1.6333 B( 13-O , 18-C ) :   1.4153
B( 14-O , 15-C ) :   1.8229 B( 15-C , 16-O ) :   1.1130 B( 15-C , 20-H ) :   0.8712
B( 16-O , 17-H ) :   0.7021 B( 18-C , 19-H ) :   0.8812

Dispersion correction           -0.013240400
FINAL SINGLE POINT ENERGY      -737.080306281972
Dispersion correction            ... done

DIPOLE MOMENT
-------------
                                X             Y             Z
Electronic contribution:     46.54576      37.64548      -2.10052
Nuclear contribution   :    -48.22204     -36.79870       3.38359
                        -----------------------------------------
Total Dipole Moment    :     -1.67628       0.84678       1.28308
                        -----------------------------------------
Magnitude (a.u.)       :      2.27448
Magnitude (Debye)      :      5.78126

Rotational constants in cm-1:     0.028156     0.018098     0.013195
Rotational constants in MHz :   844.084234   542.563046   395.576905

                             ****ORCA TERMINATED NORMALLY****
TOTAL RUN TIME: 0 days 0 hours 4 minutes 14 seconds 688 msec
