                         Program Version 5.0.3 -  RELEASE  -
|  1> ! EnGrad PBEh-3c
|  2> %output
|  3> xyzfile=True
|  4> end
|  5> %scf
|  6> maxiter 250
|  7> end
|  8> %output
|  9> Print[P_Hirshfeld] = 1
| 10> end
| 11> % maxcore
| 12> 4000
| 13> *xyz 0 1
| 14> C   -1.48053938   0.17651256  -0.55961638
| 15> C   -2.11510656  -0.89033035  -1.22956761
| 16> C   -1.75756766  -2.19859193  -0.94161091
| 17> C   -0.85107818  -2.43691135   0.08116138
| 18> C   -0.41363327  -0.04919027   0.31755039
| 19> C   -0.22991850  -1.36285945   0.73807843
| 20> H   -1.77906755   1.16834128  -0.87841368
| 21> H   -2.82984029  -0.68886979  -2.03681514
| 22> H   -2.22681595  -3.01581740  -1.46643065
| 23> H    0.48961967  -1.62070221   1.50413105
| 24> H   -0.53739697  -3.47074568   0.28369989
| 25> Pd   1.26237046   0.97288977  -0.04523517
| 26> O    3.29686926   1.33269185  -1.19415991
| 27> O    2.61253242  -0.54666255  -0.30895214
| 28> O    0.37297661   2.79818215   0.23960330
| 29> C   -0.12850395   2.86320893   1.33954777
| 30> O   -0.04261693   1.95627821   2.34856976
| 31> H   -0.75057109   1.53890046   2.59199199
| 32> C    3.46414123   0.12566862  -0.96958460
| 33> H    4.36055524  -0.40136452  -1.37453761
| 34> H   -0.72708142   3.74028053   1.55512788
| 35> *
| 36>
| 37>                          ****END OF INPUT****

CARTESIAN COORDINATES (ANGSTROEM)
---------------------------------
  C     -1.480539    0.176513   -0.559616
  C     -2.115107   -0.890330   -1.229568
  C     -1.757568   -2.198592   -0.941611
  C     -0.851078   -2.436911    0.081161
  C     -0.413633   -0.049190    0.317550
  C     -0.229918   -1.362859    0.738078
  H     -1.779068    1.168341   -0.878414
  H     -2.829840   -0.688870   -2.036815
  H     -2.226816   -3.015817   -1.466431
  H      0.489620   -1.620702    1.504131
  H     -0.537397   -3.470746    0.283700
  Pd     1.262370    0.972890   -0.045235
  O      3.296869    1.332692   -1.194160
  O      2.612532   -0.546663   -0.308952
  O      0.372977    2.798182    0.239603
  C     -0.128504    2.863209    1.339548
  O     -0.042617    1.956278    2.348570
  H     -0.750571    1.538900    2.591992
  C      3.464141    0.125669   -0.969585
  H      4.360555   -0.401365   -1.374538
  H     -0.727081    3.740281    1.555128

 Total Charge           Charge          ....    0
 Multiplicity           Mult            ....    1
 Number of Electrons    NEL             ....  106
 Basis Dimension        Dim             ....  227

ORBITAL ENERGIES
----------------

  NO   OCC          E(Eh)            E(eV)
   0   2.0000     -19.604388      -533.4625
   1   2.0000     -19.579332      -532.7807
   2   2.0000     -19.482982      -530.1589
   3   2.0000     -19.469216      -529.7843
   4   2.0000     -10.661498      -290.1141
   5   2.0000     -10.546339      -286.9805
   6   2.0000     -10.457836      -284.5722
   7   2.0000     -10.449675      -284.3501
   8   2.0000     -10.447552      -284.2923
   9   2.0000     -10.444717      -284.2152
  10   2.0000     -10.442205      -284.1468
  11   2.0000     -10.439817      -284.0819
  12   2.0000      -3.650368       -99.3316
  13   2.0000      -2.297955       -62.5305
  14   2.0000      -2.295503       -62.4638
  15   2.0000      -2.263176       -61.5842
  16   2.0000      -1.290957       -35.1287
  17   2.0000      -1.224934       -33.3322
  18   2.0000      -1.176298       -32.0087
  19   2.0000      -1.067784       -29.0559
  20   2.0000      -0.946561       -25.7572
  21   2.0000      -0.828752       -22.5515
  22   2.0000      -0.826566       -22.4920
  23   2.0000      -0.810555       -22.0563
  24   2.0000      -0.713466       -19.4144
  25   2.0000      -0.673770       -18.3342
  26   2.0000      -0.663612       -18.0578
  27   2.0000      -0.647637       -17.6231
  28   2.0000      -0.630676       -17.1616
  29   2.0000      -0.590361       -16.0645
  30   2.0000      -0.573638       -15.6095
  31   2.0000      -0.540256       -14.7011
  32   2.0000      -0.512596       -13.9484
  33   2.0000      -0.509837       -13.8734
  34   2.0000      -0.505170       -13.7464
  35   2.0000      -0.502551       -13.6751
  36   2.0000      -0.480880       -13.0854
  37   2.0000      -0.469189       -12.7673
  38   2.0000      -0.460465       -12.5299
  39   2.0000      -0.455719       -12.4007
  40   2.0000      -0.446951       -12.1622
  41   2.0000      -0.425135       -11.5685
  42   2.0000      -0.396327       -10.7846
  43   2.0000      -0.381077       -10.3696
  44   2.0000      -0.372846       -10.1456
  45   2.0000      -0.354189        -9.6380
  46   2.0000      -0.345547        -9.4028
  47   2.0000      -0.338675        -9.2158
  48   2.0000      -0.315838        -8.5944
  49   2.0000      -0.307305        -8.3622
  50   2.0000      -0.290371        -7.9014
  51   2.0000      -0.281675        -7.6648
  52   2.0000      -0.258247        -7.0273
  53   0.0000      -0.060655        -1.6505
  54   0.0000      -0.046339        -1.2609
  55   0.0000       0.019270         0.5244
  56   0.0000       0.026147         0.7115
  57   0.0000       0.052329         1.4240

MULLIKEN ATOMIC CHARGES
-----------------------
   0 C :   -0.226234
   1 C :   -0.221953
   2 C :   -0.220751
   3 C :   -0.219276
   4 C :   -0.223490
   5 C :   -0.214135
   6 H :    0.216594
   7 H :    0.219108
   8 H :    0.219389
   9 H :    0.240025
  10 H :    0.221398
  11 Pd:    0.382361
  12 O :   -0.459100
  13 O :   -0.495681
  14 O :   -0.336942
  15 C :    0.416160
  16 O :   -0.562921
  17 H :    0.475064
  18 C :    0.371983
  19 H :    0.177249
  20 H :    0.241153
Sum of atomic charges:   -0.0000000

LOEWDIN ATOMIC CHARGES
----------------------
   0 C :   -0.129447
   1 C :   -0.132178
   2 C :   -0.141674
   3 C :   -0.126820
   4 C :   -0.051037
   5 C :   -0.103522
   6 H :    0.140998
   7 H :    0.136775
   8 H :    0.135672
   9 H :    0.153440
  10 H :    0.138864
  11 Pd:   -0.290028
  12 O :   -0.218577
  13 O :   -0.186047
  14 O :   -0.002250
  15 C :    0.233895
  16 O :   -0.259772
  17 H :    0.334903
  18 C :    0.126979
  19 H :    0.104733
  20 H :    0.135094

  Mayer bond orders larger than 0.100000
B(  0-C ,  1-C ) :   1.4280 B(  0-C ,  4-C ) :   1.3530 B(  0-C ,  6-H ) :   0.9101
B(  1-C ,  2-C ) :   1.4356 B(  1-C ,  7-H ) :   0.9171 B(  2-C ,  3-C ) :   1.4165
B(  2-C ,  8-H ) :   0.9179 B(  3-C ,  5-C ) :   1.4359 B(  3-C , 10-H ) :   0.9170
B(  4-C ,  5-C ) :   1.3810 B(  4-C , 11-Pd) :   0.9156 B(  5-C ,  9-H ) :   0.9064
B( 11-Pd, 12-O ) :   0.3269 B( 11-Pd, 13-O ) :   0.5508 B( 11-Pd, 14-O ) :   0.3762
B( 12-O , 13-O ) :   0.1149 B( 12-O , 18-C ) :   1.6401 B( 13-O , 18-C ) :   1.4129
B( 14-O , 15-C ) :   1.8191 B( 15-C , 16-O ) :   1.1130 B( 15-C , 20-H ) :   0.8717
B( 16-O , 17-H ) :   0.7247 B( 18-C , 19-H ) :   0.8810

Dispersion correction           -0.013322746
FINAL SINGLE POINT ENERGY      -737.066786844331
Dispersion correction            ... done

DIPOLE MOMENT
-------------
                                X             Y             Z
Electronic contribution:     45.54930      37.11067      -1.50631
Nuclear contribution   :    -47.22465     -36.23465       2.76514
                        -----------------------------------------
Total Dipole Moment    :     -1.67535       0.87602       1.25883
                        -----------------------------------------
Magnitude (a.u.)       :      2.27131
Magnitude (Debye)      :      5.77322

Rotational constants in cm-1:     0.028114     0.018380     0.013317
Rotational constants in MHz :   842.841511   551.007760   399.247740

                             ****ORCA TERMINATED NORMALLY****
TOTAL RUN TIME: 0 days 0 hours 4 minutes 4 seconds 304 msec
