                         Program Version 5.0.3 -  RELEASE  -
|  1> ! EnGrad PBEh-3c
|  2> %output
|  3> xyzfile=True
|  4> end
|  5> %scf
|  6> maxiter 250
|  7> end
|  8> %output
|  9> Print[P_Hirshfeld] = 1
| 10> end
| 11> % maxcore
| 12> 4000
| 13> *xyz 0 1
| 14> C   -1.46704510   0.18181828  -0.55248830
| 15> C   -2.10315444  -0.87563043  -1.20896033
| 16> C   -1.73979811  -2.19666028  -0.95205122
| 17> C   -0.84493844  -2.41964475   0.09739487
| 18> C   -0.39473530  -0.08420291   0.27117394
| 19> C   -0.22136592  -1.35944939   0.74156801
| 20> H   -1.78143656   1.17087930  -0.83949398
| 21> H   -2.80217942  -0.68773480  -2.04121644
| 22> H   -2.17601564  -3.03028511  -1.51982301
| 23> H    0.47348753  -1.59958245   1.51818663
| 24> H   -0.52218259  -3.45346679   0.28075930
| 25> Pd   1.23349480   0.95058302  -0.04072143
| 26> O    3.26253961   1.32092008  -1.20732630
| 27> O    2.59977056  -0.56987226  -0.29077036
| 28> O    0.38177833   2.76248435   0.32335348
| 29> C   -0.20469471   2.82784585   1.38830700
| 30> O    0.01205807   2.04002461   2.26981368
| 31> H   -0.75880755   1.54092202   2.54225979
| 32> C    3.42899200   0.11354046  -0.97462820
| 33> H    4.31651352  -0.41433727  -1.37906043
| 34> H   -0.70904352   3.76774227   1.56425309
| 35> *
| 36>
| 37>                          ****END OF INPUT****

CARTESIAN COORDINATES (ANGSTROEM)
---------------------------------
  C     -1.467045    0.181818   -0.552488
  C     -2.103154   -0.875630   -1.208960
  C     -1.739798   -2.196660   -0.952051
  C     -0.844938   -2.419645    0.097395
  C     -0.394735   -0.084203    0.271174
  C     -0.221366   -1.359449    0.741568
  H     -1.781437    1.170879   -0.839494
  H     -2.802179   -0.687735   -2.041216
  H     -2.176016   -3.030285   -1.519823
  H      0.473488   -1.599582    1.518187
  H     -0.522183   -3.453467    0.280759
  Pd     1.233495    0.950583   -0.040721
  O      3.262540    1.320920   -1.207326
  O      2.599771   -0.569872   -0.290770
  O      0.381778    2.762484    0.323353
  C     -0.204695    2.827846    1.388307
  O      0.012058    2.040025    2.269814
  H     -0.758808    1.540922    2.542260
  C      3.428992    0.113540   -0.974628
  H      4.316514   -0.414337   -1.379060
  H     -0.709044    3.767742    1.564253

 Total Charge           Charge          ....    0
 Multiplicity           Mult            ....    1
 Number of Electrons    NEL             ....  106
 Basis Dimension        Dim             ....  227

ORBITAL ENERGIES
----------------

  NO   OCC          E(Eh)            E(eV)
   0   2.0000     -19.606539      -533.5211
   1   2.0000     -19.572842      -532.6041
   2   2.0000     -19.477629      -530.0132
   3   2.0000     -19.464306      -529.6507
   4   2.0000     -10.640037      -289.5301
   5   2.0000     -10.541326      -286.8441
   6   2.0000     -10.454849      -284.4909
   7   2.0000     -10.447878      -284.3012
   8   2.0000     -10.446552      -284.2651
   9   2.0000     -10.444275      -284.2032
  10   2.0000     -10.442166      -284.1458
  11   2.0000     -10.438528      -284.0468
  12   2.0000      -3.645383       -99.1959
  13   2.0000      -2.293951       -62.4216
  14   2.0000      -2.289682       -62.3054
  15   2.0000      -2.258502       -61.4570
  16   2.0000      -1.342864       -36.5412
  17   2.0000      -1.211709       -32.9723
  18   2.0000      -1.168552       -31.7979
  19   2.0000      -1.062937       -28.9240
  20   2.0000      -0.953189       -25.9376
  21   2.0000      -0.832224       -22.6460
  22   2.0000      -0.830094       -22.5880
  23   2.0000      -0.811297       -22.0765
  24   2.0000      -0.726527       -19.7698
  25   2.0000      -0.676145       -18.3988
  26   2.0000      -0.665607       -18.1121
  27   2.0000      -0.644239       -17.5306
  28   2.0000      -0.632160       -17.2019
  29   2.0000      -0.622122       -16.9288
  30   2.0000      -0.578187       -15.7333
  31   2.0000      -0.535326       -14.5670
  32   2.0000      -0.511292       -13.9130
  33   2.0000      -0.510809       -13.8998
  34   2.0000      -0.502307       -13.6685
  35   2.0000      -0.487247       -13.2587
  36   2.0000      -0.475677       -12.9438
  37   2.0000      -0.473679       -12.8895
  38   2.0000      -0.460570       -12.5327
  39   2.0000      -0.452364       -12.3094
  40   2.0000      -0.449149       -12.2220
  41   2.0000      -0.432524       -11.7696
  42   2.0000      -0.396553       -10.7907
  43   2.0000      -0.375422       -10.2158
  44   2.0000      -0.372330       -10.1316
  45   2.0000      -0.350392        -9.5347
  46   2.0000      -0.340632        -9.2691
  47   2.0000      -0.333560        -9.0766
  48   2.0000      -0.312182        -8.4949
  49   2.0000      -0.301061        -8.1923
  50   2.0000      -0.287889        -7.8338
  51   2.0000      -0.282273        -7.6810
  52   2.0000      -0.256189        -6.9713
  53   0.0000      -0.052066        -1.4168
  54   0.0000      -0.030085        -0.8187
  55   0.0000       0.020508         0.5580
  56   0.0000       0.024663         0.6711
  57   0.0000       0.045624         1.2415

MULLIKEN ATOMIC CHARGES
-----------------------
   0 C :   -0.220484
   1 C :   -0.231809
   2 C :   -0.220067
   3 C :   -0.229483
   4 C :   -0.236777
   5 C :   -0.204023
   6 H :    0.222903
   7 H :    0.217434
   8 H :    0.219506
   9 H :    0.240979
  10 H :    0.220599
  11 Pd:    0.387857
  12 O :   -0.461460
  13 O :   -0.502029
  14 O :   -0.373331
  15 C :    0.345541
  16 O :   -0.454614
  17 H :    0.501164
  18 C :    0.371467
  19 H :    0.173153
  20 H :    0.233472
Sum of atomic charges:    0.0000000

LOEWDIN ATOMIC CHARGES
----------------------
   0 C :   -0.134921
   1 C :   -0.127821
   2 C :   -0.145749
   3 C :   -0.122465
   4 C :   -0.045858
   5 C :   -0.110125
   6 H :    0.145567
   7 H :    0.136054
   8 H :    0.136962
   9 H :    0.155182
  10 H :    0.138099
  11 Pd:   -0.298390
  12 O :   -0.222194
  13 O :   -0.195072
  14 O :   -0.033671
  15 C :    0.124728
  16 O :   -0.140559
  17 H :    0.382182
  18 C :    0.126927
  19 H :    0.102015
  20 H :    0.129109

  Mayer bond orders larger than 0.100000
B(  0-C ,  1-C ) :   1.4252 B(  0-C ,  4-C ) :   1.3603 B(  0-C ,  6-H ) :   0.9085
B(  1-C ,  2-C ) :   1.4362 B(  1-C ,  7-H ) :   0.9174 B(  2-C ,  3-C ) :   1.4122
B(  2-C ,  8-H ) :   0.9186 B(  3-C ,  5-C ) :   1.4385 B(  3-C , 10-H ) :   0.9170
B(  4-C ,  5-C ) :   1.3820 B(  4-C , 11-Pd) :   0.9415 B(  5-C ,  9-H ) :   0.9068
B( 11-Pd, 12-O ) :   0.3185 B( 11-Pd, 13-O ) :   0.5374 B( 11-Pd, 14-O ) :   0.4051
B( 12-O , 13-O ) :   0.1168 B( 12-O , 18-C ) :   1.6462 B( 13-O , 18-C ) :   1.4148
B( 14-O , 15-C ) :   1.7350 B( 15-C , 16-O ) :   1.2767 B( 15-C , 20-H ) :   0.8759
B( 16-O , 17-H ) :   0.6892 B( 18-C , 19-H ) :   0.8822

Dispersion correction           -0.013382034
FINAL SINGLE POINT ENERGY      -737.067236613187
Dispersion correction            ... done

DIPOLE MOMENT
-------------
                                X             Y             Z
Electronic contribution:     44.07540      36.05913      -1.04760
Nuclear contribution   :    -45.95048     -35.26854       2.63018
                        -----------------------------------------
Total Dipole Moment    :     -1.87508       0.79059       1.58259
                        -----------------------------------------
Magnitude (a.u.)       :      2.57790
Magnitude (Debye)      :      6.55249

Rotational constants in cm-1:     0.028342     0.018823     0.013481
Rotational constants in MHz :   849.671957   564.290609   404.148140

                             ****ORCA TERMINATED NORMALLY****
TOTAL RUN TIME: 0 days 0 hours 3 minutes 58 seconds 69 msec
