                         Program Version 5.0.3 -  RELEASE  -
|  1> ! EnGrad PBEh-3c
|  2> %output
|  3> xyzfile=True
|  4> end
|  5> %scf
|  6> maxiter 250
|  7> end
|  8> %output
|  9> Print[P_Hirshfeld] = 1
| 10> end
| 11> % maxcore
| 12> 4000
| 13> *xyz 0 1
| 14> C   -1.47206019   0.17857942  -0.56020681
| 15> C   -2.10206223  -0.87531962  -1.20847979
| 16> C   -1.73209699  -2.19309302  -0.95371483
| 17> C   -0.84340927  -2.42263662   0.09751666
| 18> C   -0.38338485  -0.08587921   0.26186870
| 19> C   -0.22099893  -1.37380161   0.74204288
| 20> H   -1.78086352   1.17676300  -0.82342308
| 21> H   -2.78720679  -0.68557510  -2.03669666
| 22> H   -2.14919150  -3.02936539  -1.53903839
| 23> H    0.47267521  -1.59067245   1.52825779
| 24> H   -0.51699181  -3.44120802   0.28207754
| 25> Pd   1.23220174   0.94777017  -0.04039424
| 26> O    3.24451761   1.31318120  -1.21005255
| 27> O    2.59404641  -0.57945232  -0.28628276
| 28> O    0.37958403   2.74945606   0.33893134
| 29> C   -0.22421790   2.88270575   1.34175376
| 30> O    0.02407500   2.00163427   2.31679458
| 31> H   -0.75089040   1.54261604   2.52412760
| 32> C    3.41296350   0.10703635  -0.97631342
| 33> H    4.29614185  -0.42005590  -1.38044201
| 34> H   -0.71185108   3.78078260   1.57020392
| 35> *
| 36>
| 37>                          ****END OF INPUT****

CARTESIAN COORDINATES (ANGSTROEM)
---------------------------------
  C     -1.472060    0.178579   -0.560207
  C     -2.102062   -0.875320   -1.208480
  C     -1.732097   -2.193093   -0.953715
  C     -0.843409   -2.422637    0.097517
  C     -0.383385   -0.085879    0.261869
  C     -0.220999   -1.373802    0.742043
  H     -1.780864    1.176763   -0.823423
  H     -2.787207   -0.685575   -2.036697
  H     -2.149192   -3.029365   -1.539038
  H      0.472675   -1.590672    1.528258
  H     -0.516992   -3.441208    0.282078
  Pd     1.232202    0.947770   -0.040394
  O      3.244518    1.313181   -1.210053
  O      2.594046   -0.579452   -0.286283
  O      0.379584    2.749456    0.338931
  C     -0.224218    2.882706    1.341754
  O      0.024075    2.001634    2.316795
  H     -0.750890    1.542616    2.524128
  C      3.412964    0.107036   -0.976313
  H      4.296142   -0.420056   -1.380442
  H     -0.711851    3.780783    1.570204

 Total Charge           Charge          ....    0
 Multiplicity           Mult            ....    1
 Number of Electrons    NEL             ....  106
 Basis Dimension        Dim             ....  227

ORBITAL ENERGIES
----------------

  NO   OCC          E(Eh)            E(eV)
   0   2.0000     -19.592023      -533.1260
   1   2.0000     -19.579036      -532.7726
   2   2.0000     -19.480192      -530.0830
   3   2.0000     -19.466902      -529.7213
   4   2.0000     -10.643785      -289.6321
   5   2.0000     -10.542950      -286.8883
   6   2.0000     -10.458609      -284.5932
   7   2.0000     -10.448002      -284.3046
   8   2.0000     -10.446397      -284.2609
   9   2.0000     -10.442526      -284.1556
  10   2.0000     -10.441927      -284.1393
  11   2.0000     -10.438880      -284.0564
  12   2.0000      -3.648514       -99.2811
  13   2.0000      -2.297816       -62.5268
  14   2.0000      -2.292791       -62.3900
  15   2.0000      -2.261538       -61.5396
  16   2.0000      -1.306844       -35.5610
  17   2.0000      -1.211471       -32.9658
  18   2.0000      -1.171844       -31.8875
  19   2.0000      -1.066380       -29.0177
  20   2.0000      -0.953517       -25.9465
  21   2.0000      -0.835045       -22.7227
  22   2.0000      -0.828284       -22.5388
  23   2.0000      -0.788570       -21.4581
  24   2.0000      -0.714350       -19.4385
  25   2.0000      -0.676522       -18.4091
  26   2.0000      -0.667011       -18.1503
  27   2.0000      -0.647668       -17.6239
  28   2.0000      -0.634697       -17.2710
  29   2.0000      -0.601023       -16.3547
  30   2.0000      -0.578120       -15.7314
  31   2.0000      -0.538193       -14.6450
  32   2.0000      -0.513953       -13.9854
  33   2.0000      -0.511803       -13.9269
  34   2.0000      -0.504630       -13.7317
  35   2.0000      -0.501466       -13.6456
  36   2.0000      -0.478914       -13.0319
  37   2.0000      -0.477082       -12.9821
  38   2.0000      -0.463393       -12.6096
  39   2.0000      -0.453336       -12.3359
  40   2.0000      -0.444333       -12.0909
  41   2.0000      -0.432716       -11.7748
  42   2.0000      -0.398090       -10.8326
  43   2.0000      -0.378552       -10.3009
  44   2.0000      -0.375956       -10.2303
  45   2.0000      -0.354323        -9.6416
  46   2.0000      -0.342950        -9.3321
  47   2.0000      -0.337130        -9.1738
  48   2.0000      -0.314951        -8.5703
  49   2.0000      -0.304333        -8.2813
  50   2.0000      -0.289622        -7.8810
  51   2.0000      -0.283850        -7.7240
  52   2.0000      -0.255798        -6.9606
  53   0.0000      -0.057855        -1.5743
  54   0.0000      -0.035896        -0.9768
  55   0.0000       0.021197         0.5768
  56   0.0000       0.023854         0.6491
  57   0.0000       0.054370         1.4795

MULLIKEN ATOMIC CHARGES
-----------------------
   0 C :   -0.225084
   1 C :   -0.226201
   2 C :   -0.224790
   3 C :   -0.223534
   4 C :   -0.220677
   5 C :   -0.206373
   6 H :    0.217523
   7 H :    0.218364
   8 H :    0.218514
   9 H :    0.243785
  10 H :    0.222409
  11 Pd:    0.402251
  12 O :   -0.462629
  13 O :   -0.497948
  14 O :   -0.321463
  15 C :    0.361072
  16 O :   -0.553924
  17 H :    0.478196
  18 C :    0.373376
  19 H :    0.173984
  20 H :    0.253146
Sum of atomic charges:   -0.0000000

LOEWDIN ATOMIC CHARGES
----------------------
   0 C :   -0.136178
   1 C :   -0.129200
   2 C :   -0.144892
   3 C :   -0.123487
   4 C :   -0.031059
   5 C :   -0.108122
   6 H :    0.143244
   7 H :    0.136722
   8 H :    0.136851
   9 H :    0.156404
  10 H :    0.138918
  11 Pd:   -0.291474
  12 O :   -0.220794
  13 O :   -0.191692
  14 O :    0.020391
  15 C :    0.180846
  16 O :   -0.255626
  17 H :    0.351175
  18 C :    0.127199
  19 H :    0.102383
  20 H :    0.138390

  Mayer bond orders larger than 0.100000
B(  0-C ,  1-C ) :   1.4282 B(  0-C ,  4-C ) :   1.3570 B(  0-C ,  6-H ) :   0.9106
B(  1-C ,  2-C ) :   1.4372 B(  1-C ,  7-H ) :   0.9173 B(  2-C ,  3-C ) :   1.4095
B(  2-C ,  8-H ) :   0.9193 B(  3-C ,  5-C ) :   1.4423 B(  3-C , 10-H ) :   0.9166
B(  4-C ,  5-C ) :   1.3803 B(  4-C , 11-Pd) :   0.9460 B(  5-C ,  9-H ) :   0.9061
B( 11-Pd, 12-O ) :   0.3222 B( 11-Pd, 13-O ) :   0.5407 B( 11-Pd, 14-O ) :   0.3651
B( 12-O , 13-O ) :   0.1169 B( 12-O , 18-C ) :   1.6416 B( 13-O , 18-C ) :   1.4176
B( 14-O , 15-C ) :   1.8373 B( 15-C , 16-O ) :   1.1326 B( 15-C , 20-H ) :   0.8664
B( 16-O , 17-H ) :   0.7199 B( 18-C , 19-H ) :   0.8830

Dispersion correction           -0.013371669
FINAL SINGLE POINT ENERGY      -737.077425661361
Dispersion correction            ... done

DIPOLE MOMENT
-------------
                                X             Y             Z
Electronic contribution:     44.12830      36.20996      -1.42573
Nuclear contribution   :    -45.95341     -35.26028       2.66700
                        -----------------------------------------
Total Dipole Moment    :     -1.82512       0.94968       1.24127
                        -----------------------------------------
Magnitude (a.u.)       :      2.40285
Magnitude (Debye)      :      6.10756

Rotational constants in cm-1:     0.028207     0.018850     0.013515
Rotational constants in MHz :   845.631925   565.096170   405.184037

                             ****ORCA TERMINATED NORMALLY****
TOTAL RUN TIME: 0 days 0 hours 4 minutes 5 seconds 962 msec
