                         Program Version 5.0.3 -  RELEASE  -
|  1> ! EnGrad PBEh-3c
|  2> %output
|  3> xyzfile=True
|  4> end
|  5> %scf
|  6> maxiter 250
|  7> end
|  8> %output
|  9> Print[P_Hirshfeld] = 1
| 10> end
| 11> % maxcore
| 12> 4000
| 13> *xyz 0 1
| 14> C   -1.47636676   0.17504865  -0.57224509
| 15> C   -2.10265442  -0.88118365  -1.21408171
| 16> C   -1.72619959  -2.18903182  -0.95353513
| 17> C   -0.84285118  -2.43177269   0.08957063
| 18> C   -0.38276126  -0.09114024   0.26026797
| 19> C   -0.21970681  -1.39055681   0.74178562
| 20> H   -1.77964132   1.18617235  -0.81064990
| 21> H   -2.77287180  -0.68134698  -2.02758025
| 22> H   -2.11892394  -3.02061866  -1.55283008
| 23> H    0.47779385  -1.58392551   1.54055967
| 24> H   -0.51352333  -3.42844974   0.28733485
| 25> Pd   1.24871862   0.95312908  -0.04477042
| 26> O    3.22175905   1.30455434  -1.20757404
| 27> O    2.58805356  -0.58963171  -0.28580546
| 28> O    0.38385948   2.74110354   0.30594208
| 29> C   -0.21894644   2.90789630   1.34345578
| 30> O    0.04787658   1.99738902   2.34400098
| 31> H   -0.77432475   1.52002061   2.52031634
| 32> C    3.39697985   0.09799461  -0.97782700
| 33> H    4.27478934  -0.42555141  -1.38037636
| 34> H   -0.73167002   3.81068867   1.58031506
| 35> *
| 36>
| 37>                          ****END OF INPUT****

CARTESIAN COORDINATES (ANGSTROEM)
---------------------------------
  C     -1.476367    0.175049   -0.572245
  C     -2.102654   -0.881184   -1.214082
  C     -1.726200   -2.189032   -0.953535
  C     -0.842851   -2.431773    0.089571
  C     -0.382761   -0.091140    0.260268
  C     -0.219707   -1.390557    0.741786
  H     -1.779641    1.186172   -0.810650
  H     -2.772872   -0.681347   -2.027580
  H     -2.118924   -3.020619   -1.552830
  H      0.477794   -1.583926    1.540560
  H     -0.513523   -3.428450    0.287335
  Pd     1.248719    0.953129   -0.044770
  O      3.221759    1.304554   -1.207574
  O      2.588054   -0.589632   -0.285805
  O      0.383859    2.741104    0.305942
  C     -0.218946    2.907896    1.343456
  O      0.047877    1.997389    2.344001
  H     -0.774325    1.520021    2.520316
  C      3.396980    0.097995   -0.977827
  H      4.274789   -0.425551   -1.380376
  H     -0.731670    3.810689    1.580315

 Total Charge           Charge          ....    0
 Multiplicity           Mult            ....    1
 Number of Electrons    NEL             ....  106
 Basis Dimension        Dim             ....  227

ORBITAL ENERGIES
----------------

  NO   OCC          E(Eh)            E(eV)
   0   2.0000     -19.597268      -533.2688
   1   2.0000     -19.580937      -532.8244
   2   2.0000     -19.482614      -530.1489
   3   2.0000     -19.469503      -529.7921
   4   2.0000     -10.653064      -289.8846
   5   2.0000     -10.544118      -286.9200
   6   2.0000     -10.457580      -284.5652
   7   2.0000     -10.447320      -284.2860
   8   2.0000     -10.442533      -284.1558
   9   2.0000     -10.439552      -284.0747
  10   2.0000     -10.439026      -284.0603
  11   2.0000     -10.438370      -284.0425
  12   2.0000      -3.648145       -99.2711
  13   2.0000      -2.296578       -62.4931
  14   2.0000      -2.293153       -62.3999
  15   2.0000      -2.260890       -61.5220
  16   2.0000      -1.284408       -34.9505
  17   2.0000      -1.191410       -32.4199
  18   2.0000      -1.176385       -32.0111
  19   2.0000      -1.069940       -29.1145
  20   2.0000      -0.951536       -25.8926
  21   2.0000      -0.834894       -22.7186
  22   2.0000      -0.825351       -22.4589
  23   2.0000      -0.780693       -21.2437
  24   2.0000      -0.692894       -18.8546
  25   2.0000      -0.675687       -18.3864
  26   2.0000      -0.665757       -18.1162
  27   2.0000      -0.650356       -17.6971
  28   2.0000      -0.630397       -17.1540
  29   2.0000      -0.590864       -16.0782
  30   2.0000      -0.576112       -15.6768
  31   2.0000      -0.541357       -14.7311
  32   2.0000      -0.515297       -14.0219
  33   2.0000      -0.509574       -13.8662
  34   2.0000      -0.506895       -13.7933
  35   2.0000      -0.497618       -13.5409
  36   2.0000      -0.482098       -13.1186
  37   2.0000      -0.477863       -13.0033
  38   2.0000      -0.463042       -12.6000
  39   2.0000      -0.449578       -12.2337
  40   2.0000      -0.438753       -11.9391
  41   2.0000      -0.430313       -11.7094
  42   2.0000      -0.398820       -10.8524
  43   2.0000      -0.378017       -10.2864
  44   2.0000      -0.374814       -10.1992
  45   2.0000      -0.355980        -9.6867
  46   2.0000      -0.343337        -9.3427
  47   2.0000      -0.336816        -9.1652
  48   2.0000      -0.314699        -8.5634
  49   2.0000      -0.305536        -8.3141
  50   2.0000      -0.288633        -7.8541
  51   2.0000      -0.282954        -7.6996
  52   2.0000      -0.254444        -6.9238
  53   0.0000      -0.066122        -1.7993
  54   0.0000      -0.037873        -1.0306
  55   0.0000       0.021986         0.5983
  56   0.0000       0.024452         0.6654
  57   0.0000       0.051622         1.4047

MULLIKEN ATOMIC CHARGES
-----------------------
   0 C :   -0.229544
   1 C :   -0.220054
   2 C :   -0.227439
   3 C :   -0.217460
   4 C :   -0.223660
   5 C :   -0.211984
   6 H :    0.215660
   7 H :    0.219102
   8 H :    0.216511
   9 H :    0.243395
  10 H :    0.223268
  11 Pd:    0.407428
  12 O :   -0.464486
  13 O :   -0.492784
  14 O :   -0.339497
  15 C :    0.373316
  16 O :   -0.565315
  17 H :    0.476550
  18 C :    0.377804
  19 H :    0.174955
  20 H :    0.264236
Sum of atomic charges:    0.0000000

LOEWDIN ATOMIC CHARGES
----------------------
   0 C :   -0.135113
   1 C :   -0.131630
   2 C :   -0.143195
   3 C :   -0.125948
   4 C :   -0.033970
   5 C :   -0.107839
   6 H :    0.141893
   7 H :    0.136792
   8 H :    0.136068
   9 H :    0.155634
  10 H :    0.138913
  11 Pd:   -0.301114
  12 O :   -0.215409
  13 O :   -0.184441
  14 O :    0.003734
  15 C :    0.213135
  16 O :   -0.284045
  17 H :    0.358571
  18 C :    0.128701
  19 H :    0.103105
  20 H :    0.146158

  Mayer bond orders larger than 0.100000
B(  0-C ,  1-C ) :   1.4299 B(  0-C ,  4-C ) :   1.3588 B(  0-C ,  6-H ) :   0.9112
B(  1-C ,  2-C ) :   1.4374 B(  1-C ,  7-H ) :   0.9172 B(  2-C ,  3-C ) :   1.4114
B(  2-C ,  8-H ) :   0.9205 B(  3-C ,  5-C ) :   1.4435 B(  3-C , 10-H ) :   0.9164
B(  4-C ,  5-C ) :   1.3814 B(  4-C , 11-Pd) :   0.9307 B(  5-C ,  9-H ) :   0.9061
B( 11-Pd, 12-O ) :   0.3356 B( 11-Pd, 13-O ) :   0.5412 B( 11-Pd, 14-O ) :   0.3700
B( 12-O , 13-O ) :   0.1170 B( 12-O , 18-C ) :   1.6272 B( 13-O , 18-C ) :   1.4253
B( 14-O , 15-C ) :   1.8129 B( 15-C , 16-O ) :   1.1132 B( 15-C , 20-H ) :   0.8580
B( 16-O , 17-H ) :   0.7186 B( 18-C , 19-H ) :   0.8849

Dispersion correction           -0.013310200
FINAL SINGLE POINT ENERGY      -737.081425214092
Dispersion correction            ... done

DIPOLE MOMENT
-------------
                                X             Y             Z
Electronic contribution:     44.93688      36.60937      -1.61489
Nuclear contribution   :    -46.70652     -35.60411       2.81537
                        -----------------------------------------
Total Dipole Moment    :     -1.76964       1.00526       1.20048
                        -----------------------------------------
Magnitude (a.u.)       :      2.36291
Magnitude (Debye)      :      6.00604

Rotational constants in cm-1:     0.028133     0.018782     0.013515
Rotational constants in MHz :   843.403531   563.069055   405.160658

                             ****ORCA TERMINATED NORMALLY****
TOTAL RUN TIME: 0 days 0 hours 4 minutes 2 seconds 540 msec
