                         Program Version 5.0.3 -  RELEASE  -
|  1> ! EnGrad PBEh-3c
|  2> %output
|  3> xyzfile=True
|  4> end
|  5> %scf
|  6> maxiter 250
|  7> end
|  8> %output
|  9> Print[P_Hirshfeld] = 1
| 10> end
| 11> % maxcore
| 12> 4000
| 13> *xyz -1 1
| 14> C   -2.45174468  -0.19873257   0.77723393
| 15> C   -1.94166928   0.91938082   1.46538051
| 16> C   -3.78295406  -0.52697330   1.04960490
| 17> C   -4.69710769   0.46724581   1.37371993
| 18> C   -4.20723508   1.60959003   1.98351058
| 19> C   -2.83490983   1.75619761   2.13681210
| 20> H   -2.60345614  -1.25788846  -1.25137363
| 21> H   -4.15931135  -1.52326896   0.85857721
| 22> H   -2.52442578   2.70580993   2.56253621
| 23> H   -5.76274337   0.27508807   1.35096145
| 24> H   -4.89949622   2.32720565   2.40711873
| 25> C   -0.56087188   1.45825823   1.21589866
| 26> C    0.57578437   0.53826010   1.64755883
| 27> H   -0.36820427   2.42215072   1.71031589
| 28> H   -0.54837882   1.77988765   0.16895636
| 29> C    1.75564637   0.63014060   0.71591091
| 30> H    0.25281969  -0.50294029   1.72594648
| 31> H    0.89586215   0.77269745   2.67126376
| 32> C    1.76893540  -0.06056168  -0.50541477
| 33> C    2.85861797   0.12447900  -1.35441734
| 34> C    3.83305328   1.08187796  -1.09110574
| 35> C    2.87824001   1.37345472   1.07928686
| 36> C    3.81745543   1.74831299   0.12572488
| 37> H    2.95776819  -0.45902432  -2.26082528
| 38> H    4.59685675   1.30670891  -1.82676179
| 39> H    2.92418292   1.80354731   2.07484864
| 40> H    4.49072564   2.57766808   0.30788443
| 41> Pd   0.37448236  -1.37705210  -0.92511622
| 42> Br  -1.40728880  -3.78659647  -1.09618079
| 43> P    1.33458001  -2.99834840   0.19299790
| 44> H    0.68312581  -3.48924118   1.33477825
| 45> C    0.52856379  -1.18930545  -3.90814192
| 46> O    1.59436300  -1.69328982  -4.18988536
| 47> O   -0.39392445  -1.76343034  -3.24103515
| 48> O    0.01331630  -0.11262516  -4.54549997
| 49> H    2.59648557  -2.77917296   0.78219623
| 50> H    1.68638090  -4.20331184  -0.43907670
| 51> H    0.72647328   0.24380351  -5.08417113
| 52> *
| 53>
| 54>                          ****END OF INPUT****

CARTESIAN COORDINATES (ANGSTROEM)
---------------------------------
  C     -2.451745   -0.198733    0.777234
  C     -1.941669    0.919381    1.465381
  C     -3.782954   -0.526973    1.049605
  C     -4.697108    0.467246    1.373720
  C     -4.207235    1.609590    1.983511
  C     -2.834910    1.756198    2.136812
  H     -2.603456   -1.257888   -1.251374
  H     -4.159311   -1.523269    0.858577
  H     -2.524426    2.705810    2.562536
  H     -5.762743    0.275088    1.350961
  H     -4.899496    2.327206    2.407119
  C     -0.560872    1.458258    1.215899
  C      0.575784    0.538260    1.647559
  H     -0.368204    2.422151    1.710316
  H     -0.548379    1.779888    0.168956
  C      1.755646    0.630141    0.715911
  H      0.252820   -0.502940    1.725946
  H      0.895862    0.772697    2.671264
  C      1.768935   -0.060562   -0.505415
  C      2.858618    0.124479   -1.354417
  C      3.833053    1.081878   -1.091106
  C      2.878240    1.373455    1.079287
  C      3.817455    1.748313    0.125725
  H      2.957768   -0.459024   -2.260825
  H      4.596857    1.306709   -1.826762
  H      2.924183    1.803547    2.074849
  H      4.490726    2.577668    0.307884
  Pd     0.374482   -1.377052   -0.925116
  Br    -1.407289   -3.786596   -1.096181
  P      1.334580   -2.998348    0.192998
  H      0.683126   -3.489241    1.334778
  C      0.528564   -1.189305   -3.908142
  O      1.594363   -1.693290   -4.189885
  O     -0.393924   -1.763430   -3.241035
  O      0.013316   -0.112625   -4.545500
  H      2.596486   -2.779173    0.782196
  H      1.686381   -4.203312   -0.439077
  H      0.726473    0.243804   -5.084171

 Total Charge           Charge          ....   -1
 Multiplicity           Mult            ....    1
 Number of Electrons    NEL             ....  200
 Basis Dimension        Dim             ....  385

ORBITAL ENERGIES
----------------

  NO   OCC          E(Eh)            E(eV)
   0   2.0000    -484.323727    -13179.1186
   1   2.0000     -77.686628     -2113.9606
   2   2.0000     -62.985092     -1713.9115
   3   2.0000     -56.688478     -1542.5719
   4   2.0000     -56.687983     -1542.5584
   5   2.0000     -56.687719     -1542.5512
   6   2.0000     -19.365755      -526.9690
   7   2.0000     -19.283352      -524.7267
   8   2.0000     -19.274716      -524.4917
   9   2.0000     -10.413222      -283.3582
  10   2.0000     -10.375054      -282.3196
  11   2.0000     -10.363738      -282.0116
  12   2.0000     -10.357870      -281.8520
  13   2.0000     -10.357308      -281.8367
  14   2.0000     -10.352430      -281.7039
  15   2.0000     -10.351783      -281.6863
  16   2.0000     -10.351463      -281.6776
  17   2.0000     -10.350866      -281.6614
  18   2.0000     -10.349985      -281.6374
  19   2.0000     -10.349327      -281.6195
  20   2.0000     -10.348581      -281.5992
  21   2.0000     -10.348172      -281.5881
  22   2.0000     -10.346644      -281.5465
  23   2.0000     -10.339736      -281.3585
  24   2.0000      -8.811947      -239.7853
  25   2.0000      -6.760345      -183.9583
  26   2.0000      -6.580517      -179.0650
  27   2.0000      -6.578369      -179.0065
  28   2.0000      -6.575309      -178.9233
  29   2.0000      -4.851465      -132.0151
  30   2.0000      -4.851123      -132.0058
  31   2.0000      -4.850094      -131.9778
  32   2.0000      -3.540751       -96.3487
  33   2.0000      -2.595101       -70.6163
  34   2.0000      -2.594921       -70.6114
  35   2.0000      -2.592336       -70.5411
  36   2.0000      -2.590474       -70.4904
  37   2.0000      -2.589957       -70.4763
  38   2.0000      -2.189146       -59.5697
  39   2.0000      -2.183757       -59.4230
  40   2.0000      -2.155894       -58.6649
  41   2.0000      -1.057262       -28.7696
  42   2.0000      -0.945236       -25.7212
  43   2.0000      -0.888383       -24.1741
  44   2.0000      -0.864978       -23.5373
  45   2.0000      -0.858606       -23.3639
  46   2.0000      -0.797002       -21.6875
  47   2.0000      -0.753159       -20.4945
  48   2.0000      -0.732226       -19.9249
  49   2.0000      -0.730109       -19.8673
  50   2.0000      -0.697977       -18.9929
  51   2.0000      -0.657367       -17.8879
  52   2.0000      -0.625869       -17.0308
  53   2.0000      -0.624124       -16.9833
  54   2.0000      -0.578724       -15.7479
  55   2.0000      -0.574351       -15.6289
  56   2.0000      -0.557120       -15.1600
  57   2.0000      -0.543261       -14.7829
  58   2.0000      -0.509622       -13.8675
  59   2.0000      -0.477189       -12.9850
  60   2.0000      -0.473071       -12.8729
  61   2.0000      -0.440395       -11.9838
  62   2.0000      -0.421123       -11.4593
  63   2.0000      -0.416826       -11.3424
  64   2.0000      -0.407297       -11.0831
  65   2.0000      -0.386161       -10.5080
  66   2.0000      -0.383587       -10.4379
  67   2.0000      -0.379757       -10.3337
  68   2.0000      -0.377460       -10.2712
  69   2.0000      -0.372813       -10.1448
  70   2.0000      -0.369040       -10.0421
  71   2.0000      -0.359941        -9.7945
  72   2.0000      -0.356205        -9.6928
  73   2.0000      -0.352749        -9.5988
  74   2.0000      -0.351369        -9.5612
  75   2.0000      -0.338644        -9.2150
  76   2.0000      -0.333255        -9.0683
  77   2.0000      -0.323507        -8.8031
  78   2.0000      -0.318097        -8.6559
  79   2.0000      -0.303564        -8.2604
  80   2.0000      -0.290820        -7.9136
  81   2.0000      -0.287613        -7.8264
  82   2.0000      -0.281233        -7.6527
  83   2.0000      -0.269490        -7.3332
  84   2.0000      -0.265562        -7.2263
  85   2.0000      -0.238821        -6.4986
  86   2.0000      -0.233572        -6.3558
  87   2.0000      -0.220287        -5.9943
  88   2.0000      -0.208481        -5.6730
  89   2.0000      -0.201011        -5.4698
  90   2.0000      -0.188362        -5.1256
  91   2.0000      -0.184691        -5.0257
  92   2.0000      -0.179490        -4.8842
  93   2.0000      -0.172782        -4.7016
  94   2.0000      -0.166778        -4.5383
  95   2.0000      -0.155612        -4.2344
  96   2.0000      -0.143636        -3.9085
  97   2.0000      -0.137895        -3.7523
  98   2.0000      -0.132669        -3.6101
  99   2.0000      -0.121004        -3.2927
 100   0.0000       0.008444         0.2298
 101   0.0000       0.042097         1.1455
 102   0.0000       0.108654         2.9566
 103   0.0000       0.113373         3.0850
 104   0.0000       0.116771         3.1775

MULLIKEN ATOMIC CHARGES
-----------------------
   0 C :   -0.046257
   1 C :   -0.001623
   2 C :   -0.284524
   3 C :   -0.208760
   4 C :   -0.231057
   5 C :   -0.253189
   6 H :    0.205860
   7 H :    0.232336
   8 H :    0.187757
   9 H :    0.195757
  10 H :    0.193822
  11 C :   -0.480931
  12 C :   -0.516878
  13 H :    0.213089
  14 H :    0.279357
  15 C :    0.118619
  16 H :    0.267984
  17 H :    0.213517
  18 C :   -0.175260
  19 C :   -0.264594
  20 C :   -0.230427
  21 C :   -0.281627
  22 C :   -0.230843
  23 H :    0.275343
  24 H :    0.198391
  25 H :    0.183021
  26 H :    0.192372
  27 Pd:    0.200964
  28 Br:   -0.498372
  29 P :   -0.139768
  30 H :    0.132702
  31 C :    0.617217
  32 O :   -0.531337
  33 O :   -0.549011
  34 O :   -0.602402
  35 H :    0.078779
  36 H :    0.146931
  37 H :    0.393045
Sum of atomic charges:   -1.0000000

LOEWDIN ATOMIC CHARGES
----------------------
   0 C :   -0.063824
   1 C :   -0.067386
   2 C :   -0.142150
   3 C :   -0.163435
   4 C :   -0.157112
   5 C :   -0.155575
   6 H :    0.243720
   7 H :    0.134636
   8 H :    0.125641
   9 H :    0.125094
  10 H :    0.122337
  11 C :   -0.212135
  12 C :   -0.211687
  13 H :    0.123423
  14 H :    0.159234
  15 C :   -0.033745
  16 H :    0.155092
  17 H :    0.122078
  18 C :   -0.008099
  19 C :   -0.117946
  20 C :   -0.149078
  21 C :   -0.145478
  22 C :   -0.156420
  23 H :    0.169153
  24 H :    0.127463
  25 H :    0.122224
  26 H :    0.123531
  27 Pd:   -0.678166
  28 Br:   -0.368668
  29 P :    0.427707
  30 H :    0.061986
  31 C :    0.064294
  32 O :   -0.342206
  33 O :   -0.300483
  34 O :   -0.332027
  35 H :    0.024021
  36 H :    0.071879
  37 H :    0.302108

  Mayer bond orders larger than 0.100000
B(  0-C ,  1-C ) :   1.4582 B(  0-C ,  2-C ) :   1.4103 B(  0-C ,  6-H ) :   0.5997
B(  0-C , 27-Pd) :   0.1234 B(  1-C ,  5-C ) :   1.3677 B(  1-C , 11-C ) :   0.9581
B(  2-C ,  3-C ) :   1.4247 B(  2-C ,  7-H ) :   0.9114 B(  3-C ,  4-C ) :   1.4079
B(  3-C ,  9-H ) :   0.9219 B(  4-C ,  5-C ) :   1.4590 B(  4-C , 10-H ) :   0.9245
B(  5-C ,  8-H ) :   0.9221 B(  6-H , 27-Pd) :   0.1073 B(  6-H , 28-Br) :   0.1401
B( 11-C , 12-C ) :   0.9268 B( 11-C , 13-H ) :   0.9275 B( 11-C , 14-H ) :   0.8904
B( 12-C , 15-C ) :   0.9573 B( 12-C , 16-H ) :   0.8859 B( 12-C , 17-H ) :   0.9277
B( 15-C , 18-C ) :   1.3301 B( 15-C , 21-C ) :   1.4250 B( 18-C , 19-C ) :   1.4113
B( 18-C , 27-Pd) :   0.8503 B( 18-C , 29-P ) :   0.1079 B( 19-C , 20-C ) :   1.3973
B( 19-C , 23-H ) :   0.8714 B( 20-C , 22-C ) :   1.4382 B( 20-C , 24-H ) :   0.9245
B( 21-C , 22-C ) :   1.4111 B( 21-C , 25-H ) :   0.9262 B( 22-C , 26-H ) :   0.9271
B( 27-Pd, 28-Br) :   0.3074 B( 27-Pd, 29-P ) :   0.7655 B( 27-Pd, 33-O ) :   0.3751
B( 28-Br, 29-P ) :   0.1574 B( 29-P , 30-H ) :   0.9230 B( 29-P , 35-H ) :   0.8984
B( 29-P , 36-H ) :   0.9244 B( 31-C , 32-O ) :   1.8125 B( 31-C , 33-O ) :   1.4662
B( 31-C , 34-O ) :   1.0418 B( 34-O , 37-H ) :   0.7944

Dispersion correction           -0.031041728
FINAL SINGLE POINT ENERGY     -3847.460478550071
Dispersion correction            ... done

DIPOLE MOMENT
-------------
                                X             Y             Z
Electronic contribution:     18.47860     -66.54929     -37.53269
Nuclear contribution   :    -17.39573      68.21970      40.73700
                        -----------------------------------------
Total Dipole Moment    :      1.08288       1.67041       3.20431
                        -----------------------------------------
Magnitude (a.u.)       :      3.77234
Magnitude (Debye)      :      9.58852

Rotational constants in cm-1:     0.006638     0.005873     0.004093
Rotational constants in MHz :   198.995977   176.065847   122.704688

                             ****ORCA TERMINATED NORMALLY****
TOTAL RUN TIME: 0 days 0 hours 21 minutes 50 seconds 852 msec
