                         Program Version 5.0.3 -  RELEASE  -
|  1> ! EnGrad PBEh-3c
|  2> %output
|  3> xyzfile=True
|  4> end
|  5> %scf
|  6> maxiter 250
|  7> end
|  8> %output
|  9> Print[P_Hirshfeld] = 1
| 10> end
| 11> % maxcore
| 12> 4000
| 13> *xyz -1 1
| 14> C   -2.47602276  -0.19795447   0.78217922
| 15> C   -1.92596124   0.93107753   1.41286599
| 16> C   -3.79031755  -0.52681979   0.97489564
| 17> C   -4.68302944   0.44672127   1.41161133
| 18> C   -4.20447650   1.60695592   1.98035152
| 19> C   -2.88071644   1.78928536   2.11283224
| 20> H   -2.55388342  -1.25072235  -1.20171778
| 21> H   -4.14466446  -1.51966052   0.82347118
| 22> H   -2.51549896   2.70975405   2.54276217
| 23> H   -5.75620483   0.27083400   1.32225919
| 24> H   -4.90153281   2.33272120   2.38440331
| 25> C   -0.55047566   1.47874548   1.25184130
| 26> C    0.61101045   0.51126521   1.66160101
| 27> H   -0.38627578   2.39931394   1.77219056
| 28> H   -0.51798106   1.77759491   0.19967279
| 29> C    1.77183711   0.60528029   0.74296382
| 30> H    0.24733381  -0.50417655   1.72879564
| 31> H    0.90927622   0.76870022   2.67834225
| 32> C    1.77768630  -0.06007532  -0.49208880
| 33> C    2.84508037   0.12310841  -1.36660178
| 34> C    3.81733061   1.09675167  -1.08341225
| 35> C    2.85335816   1.41196013   1.06795540
| 36> C    3.82161211   1.73826013   0.11986740
| 37> H    2.93698493  -0.45639644  -2.26495578
| 38> H    4.58409953   1.30724795  -1.83133190
| 39> H    2.92866045   1.80719758   2.07555386
| 40> H    4.50010981   2.56786924   0.31295317
| 41> Pd   0.30528464  -1.41388983  -0.97812553
| 42> Br  -1.40883307  -3.75711457  -1.06022791
| 43> P    1.35434710  -3.00465402   0.20320169
| 44> H    0.70286835  -3.49718649   1.32809849
| 45> C    0.39162666  -1.31553679  -3.90975842
| 46> O    1.66651772  -1.65928732  -4.20155252
| 47> O   -0.36488797  -1.73102650  -3.18446196
| 48> O    0.03846796  -0.06778408  -4.54878467
| 49> H    2.60945079  -2.77554611   0.76267053
| 50> H    1.67439037  -4.19431529  -0.46139640
| 51> H    0.71275417   0.25304598  -5.06772729
| 52> *
| 53>
| 54>                          ****END OF INPUT****

CARTESIAN COORDINATES (ANGSTROEM)
---------------------------------
  C     -2.476023   -0.197954    0.782179
  C     -1.925961    0.931078    1.412866
  C     -3.790318   -0.526820    0.974896
  C     -4.683029    0.446721    1.411611
  C     -4.204477    1.606956    1.980352
  C     -2.880716    1.789285    2.112832
  H     -2.553883   -1.250722   -1.201718
  H     -4.144664   -1.519661    0.823471
  H     -2.515499    2.709754    2.542762
  H     -5.756205    0.270834    1.322259
  H     -4.901533    2.332721    2.384403
  C     -0.550476    1.478745    1.251841
  C      0.611010    0.511265    1.661601
  H     -0.386276    2.399314    1.772191
  H     -0.517981    1.777595    0.199673
  C      1.771837    0.605280    0.742964
  H      0.247334   -0.504177    1.728796
  H      0.909276    0.768700    2.678342
  C      1.777686   -0.060075   -0.492089
  C      2.845080    0.123108   -1.366602
  C      3.817331    1.096752   -1.083412
  C      2.853358    1.411960    1.067955
  C      3.821612    1.738260    0.119867
  H      2.936985   -0.456396   -2.264956
  H      4.584100    1.307248   -1.831332
  H      2.928660    1.807198    2.075554
  H      4.500110    2.567869    0.312953
  Pd     0.305285   -1.413890   -0.978126
  Br    -1.408833   -3.757115   -1.060228
  P      1.354347   -3.004654    0.203202
  H      0.702868   -3.497186    1.328098
  C      0.391627   -1.315537   -3.909758
  O      1.666518   -1.659287   -4.201553
  O     -0.364888   -1.731027   -3.184462
  O      0.038468   -0.067784   -4.548785
  H      2.609451   -2.775546    0.762671
  H      1.674390   -4.194315   -0.461396
  H      0.712754    0.253046   -5.067727

 Total Charge           Charge          ....   -1
 Multiplicity           Mult            ....    1
 Number of Electrons    NEL             ....  200
 Basis Dimension        Dim             ....  385

ORBITAL ENERGIES
----------------

  NO   OCC          E(Eh)            E(eV)
   0   2.0000    -484.329095    -13179.2647
   1   2.0000     -77.689112     -2114.0282
   2   2.0000     -62.990533     -1714.0595
   3   2.0000     -56.693971     -1542.7214
   4   2.0000     -56.693410     -1542.7061
   5   2.0000     -56.693128     -1542.6984
   6   2.0000     -19.327315      -525.9230
   7   2.0000     -19.317610      -525.6589
   8   2.0000     -19.253569      -523.9162
   9   2.0000     -10.416441      -283.4458
  10   2.0000     -10.383415      -282.5471
  11   2.0000     -10.377112      -282.3756
  12   2.0000     -10.359133      -281.8863
  13   2.0000     -10.359026      -281.8834
  14   2.0000     -10.356182      -281.8061
  15   2.0000     -10.355190      -281.7791
  16   2.0000     -10.353851      -281.7426
  17   2.0000     -10.353528      -281.7338
  18   2.0000     -10.352757      -281.7128
  19   2.0000     -10.351276      -281.6725
  20   2.0000     -10.349683      -281.6292
  21   2.0000     -10.349050      -281.6120
  22   2.0000     -10.346804      -281.5509
  23   2.0000     -10.337323      -281.2929
  24   2.0000      -8.817464      -239.9354
  25   2.0000      -6.763458      -184.0430
  26   2.0000      -6.586138      -179.2179
  27   2.0000      -6.583616      -179.1493
  28   2.0000      -6.581057      -179.0797
  29   2.0000      -4.854607      -132.1006
  30   2.0000      -4.854301      -132.0922
  31   2.0000      -4.853034      -132.0578
  32   2.0000      -3.535690       -96.2110
  33   2.0000      -2.600571       -70.7651
  34   2.0000      -2.600300       -70.7578
  35   2.0000      -2.598126       -70.6986
  36   2.0000      -2.595937       -70.6390
  37   2.0000      -2.595576       -70.6292
  38   2.0000      -2.182156       -59.3795
  39   2.0000      -2.179423       -59.3051
  40   2.0000      -2.151877       -58.5556
  41   2.0000      -1.065423       -28.9916
  42   2.0000      -0.956900       -26.0386
  43   2.0000      -0.870650       -23.6916
  44   2.0000      -0.860595       -23.4180
  45   2.0000      -0.843615       -22.9559
  46   2.0000      -0.800145       -21.7731
  47   2.0000      -0.756224       -20.5779
  48   2.0000      -0.746808       -20.3217
  49   2.0000      -0.729725       -19.8568
  50   2.0000      -0.697681       -18.9849
  51   2.0000      -0.663372       -18.0513
  52   2.0000      -0.634707       -17.2712
  53   2.0000      -0.631433       -17.1822
  54   2.0000      -0.584857       -15.9148
  55   2.0000      -0.576842       -15.6967
  56   2.0000      -0.558549       -15.1989
  57   2.0000      -0.545654       -14.8480
  58   2.0000      -0.497331       -13.5331
  59   2.0000      -0.483120       -13.1464
  60   2.0000      -0.473131       -12.8746
  61   2.0000      -0.446514       -12.1503
  62   2.0000      -0.425038       -11.5659
  63   2.0000      -0.423597       -11.5267
  64   2.0000      -0.409431       -11.1412
  65   2.0000      -0.399313       -10.8659
  66   2.0000      -0.389807       -10.6072
  67   2.0000      -0.384730       -10.4690
  68   2.0000      -0.384045       -10.4504
  69   2.0000      -0.379179       -10.3180
  70   2.0000      -0.369279       -10.0486
  71   2.0000      -0.361811        -9.8454
  72   2.0000      -0.359851        -9.7920
  73   2.0000      -0.353342        -9.6149
  74   2.0000      -0.340059        -9.2535
  75   2.0000      -0.338411        -9.2086
  76   2.0000      -0.329824        -8.9750
  77   2.0000      -0.327537        -8.9127
  78   2.0000      -0.322883        -8.7861
  79   2.0000      -0.305126        -8.3029
  80   2.0000      -0.301795        -8.2123
  81   2.0000      -0.289174        -7.8688
  82   2.0000      -0.288715        -7.8563
  83   2.0000      -0.263484        -7.1698
  84   2.0000      -0.260600        -7.0913
  85   2.0000      -0.237633        -6.4663
  86   2.0000      -0.230705        -6.2778
  87   2.0000      -0.220925        -6.0117
  88   2.0000      -0.206174        -5.6103
  89   2.0000      -0.197195        -5.3659
  90   2.0000      -0.188116        -5.1189
  91   2.0000      -0.182277        -4.9600
  92   2.0000      -0.181707        -4.9445
  93   2.0000      -0.175661        -4.7800
  94   2.0000      -0.168898        -4.5960
  95   2.0000      -0.157732        -4.2921
  96   2.0000      -0.149310        -4.0629
  97   2.0000      -0.136127        -3.7042
  98   2.0000      -0.130232        -3.5438
  99   2.0000      -0.115287        -3.1371
 100   0.0000       0.013113         0.3568
 101   0.0000       0.040730         1.1083
 102   0.0000       0.101107         2.7512
 103   0.0000       0.113233         3.0812
 104   0.0000       0.116183         3.1615

MULLIKEN ATOMIC CHARGES
-----------------------
   0 C :   -0.049943
   1 C :    0.001477
   2 C :   -0.255363
   3 C :   -0.238315
   4 C :   -0.195157
   5 C :   -0.263333
   6 H :    0.174166
   7 H :    0.245594
   8 H :    0.192214
   9 H :    0.198932
  10 H :    0.194401
  11 C :   -0.482144
  12 C :   -0.526893
  13 H :    0.223158
  14 H :    0.280949
  15 C :    0.137343
  16 H :    0.270646
  17 H :    0.212846
  18 C :   -0.177254
  19 C :   -0.254983
  20 C :   -0.241269
  21 C :   -0.296654
  22 C :   -0.212242
  23 H :    0.293923
  24 H :    0.198415
  25 H :    0.183156
  26 H :    0.188326
  27 Pd:    0.176186
  28 Br:   -0.502604
  29 P :   -0.129364
  30 H :    0.134584
  31 C :    0.629219
  32 O :   -0.668669
  33 O :   -0.396375
  34 O :   -0.686667
  35 H :    0.088972
  36 H :    0.150672
  37 H :    0.402049
Sum of atomic charges:   -1.0000000

LOEWDIN ATOMIC CHARGES
----------------------
   0 C :   -0.047894
   1 C :   -0.054804
   2 C :   -0.145244
   3 C :   -0.159646
   4 C :   -0.155858
   5 C :   -0.148433
   6 H :    0.217192
   7 H :    0.141556
   8 H :    0.125789
   9 H :    0.126186
  10 H :    0.125431
  11 C :   -0.215066
  12 C :   -0.210691
  13 H :    0.127630
  14 H :    0.162953
  15 C :   -0.045747
  16 H :    0.154153
  17 H :    0.122654
  18 C :   -0.004533
  19 C :   -0.113382
  20 C :   -0.144641
  21 C :   -0.146881
  22 C :   -0.157684
  23 H :    0.176669
  24 H :    0.127934
  25 H :    0.122007
  26 H :    0.123713
  27 Pd:   -0.704121
  28 Br:   -0.354950
  29 P :    0.427877
  30 H :    0.062995
  31 C :    0.115507
  32 O :   -0.512744
  33 O :   -0.111862
  34 O :   -0.423399
  35 H :    0.031006
  36 H :    0.074605
  37 H :    0.291724

  Mayer bond orders larger than 0.100000
B(  0-C ,  1-C ) :   1.4791 B(  0-C ,  2-C ) :   1.4069 B(  0-C ,  6-H ) :   0.6230
B(  0-C , 27-Pd) :   0.1301 B(  1-C ,  5-C ) :   1.3324 B(  1-C , 11-C ) :   0.9610
B(  2-C ,  3-C ) :   1.4394 B(  2-C ,  7-H ) :   0.9041 B(  3-C ,  4-C ) :   1.3890
B(  3-C ,  9-H ) :   0.9214 B(  4-C ,  5-C ) :   1.4869 B(  4-C , 10-H ) :   0.9241
B(  5-C ,  8-H ) :   0.9200 B(  6-H , 27-Pd) :   0.1185 B(  6-H , 28-Br) :   0.1108
B( 11-C , 12-C ) :   0.9230 B( 11-C , 13-H ) :   0.9236 B( 11-C , 14-H ) :   0.8897
B( 12-C , 15-C ) :   0.9631 B( 12-C , 16-H ) :   0.8885 B( 12-C , 17-H ) :   0.9280
B( 15-C , 18-C ) :   1.3274 B( 15-C , 21-C ) :   1.4334 B( 18-C , 19-C ) :   1.4383
B( 18-C , 27-Pd) :   0.8060 B( 19-C , 20-C ) :   1.3740 B( 19-C , 23-H ) :   0.8527
B( 20-C , 22-C ) :   1.4552 B( 20-C , 24-H ) :   0.9248 B( 21-C , 22-C ) :   1.3937
B( 21-C , 25-H ) :   0.9258 B( 22-C , 26-H ) :   0.9285 B( 27-Pd, 28-Br) :   0.3529
B( 27-Pd, 29-P ) :   0.7445 B( 27-Pd, 33-O ) :   0.2796 B( 28-Br, 29-P ) :   0.1410
B( 29-P , 30-H ) :   0.9257 B( 29-P , 35-H ) :   0.9019 B( 29-P , 36-H ) :   0.9277
B( 31-C , 32-O ) :   1.5970 B( 31-C , 33-O ) :   1.7647 B( 31-C , 34-O ) :   0.9280
B( 34-O , 37-H ) :   0.7915

Dispersion correction           -0.031024093
FINAL SINGLE POINT ENERGY     -3847.450905538542
Dispersion correction            ... done

DIPOLE MOMENT
-------------
                                X             Y             Z
Electronic contribution:     14.11244     -68.83650     -39.71454
Nuclear contribution   :    -13.59904      70.25351      43.62358
                        -----------------------------------------
Total Dipole Moment    :      0.51340       1.41701       3.90905
                        -----------------------------------------
Magnitude (a.u.)       :      4.18953
Magnitude (Debye)      :     10.64893

Rotational constants in cm-1:     0.006662     0.005873     0.004108
Rotational constants in MHz :   199.710692   176.057533   123.155292

                             ****ORCA TERMINATED NORMALLY****
TOTAL RUN TIME: 0 days 0 hours 22 minutes 2 seconds 106 msec
