                         Program Version 5.0.3 -  RELEASE  -
|  1> ! EnGrad PBEh-3c
|  2> %output
|  3> xyzfile=True
|  4> end
|  5> %scf
|  6> maxiter 250
|  7> end
|  8> %output
|  9> Print[P_Hirshfeld] = 1
| 10> end
| 11> % maxcore
| 12> 4000
| 13> *xyz -1 1
| 14> C   -2.47371991  -0.19416891   0.77801866
| 15> C   -1.93331508   0.94000143   1.40198169
| 16> C   -3.79721779  -0.52189722   0.95302864
| 17> C   -4.68157973   0.43538115   1.41873063
| 18> C   -4.21459977   1.60727199   1.97818527
| 19> C   -2.87563412   1.79511963   2.09642484
| 20> H   -2.53358775  -1.24765383  -1.18237627
| 21> H   -4.13956325  -1.52113367   0.80564755
| 22> H   -2.51367733   2.71397697   2.53372289
| 23> H   -5.75151660   0.26917580   1.31045407
| 24> H   -4.90319278   2.33429189   2.37404708
| 25> C   -0.54259671   1.47684593   1.26247955
| 26> C    0.61821316   0.50588969   1.66961865
| 27> H   -0.39269153   2.39394171   1.80335022
| 28> H   -0.50325945   1.78024792   0.21529481
| 29> C    1.77842611   0.59730534   0.74974652
| 30> H    0.24519046  -0.50733658   1.73100818
| 31> H    0.91690193   0.76540599   2.68356928
| 32> C    1.77577127  -0.06468663  -0.49034789
| 33> C    2.83926087   0.12659992  -1.36635389
| 34> C    3.81131090   1.09721748  -1.08873981
| 35> C    2.84699700   1.42409447   1.06505154
| 36> C    3.82135283   1.73999243   0.12320686
| 37> H    2.92707522  -0.45568477  -2.26901576
| 38> H    4.57717263   1.30778153  -1.83216957
| 39> H    2.93058680   1.80959916   2.07581467
| 40> H    4.50337917   2.56295435   0.31420915
| 41> Pd   0.28600429  -1.42686713  -0.98778615
| 42> Br  -1.41023415  -3.74546353  -1.04472652
| 43> P    1.35862824  -3.00361540   0.20099607
| 44> H    0.71167818  -3.50144455   1.32670945
| 45> C    0.43498243  -1.32018519  -3.96194883
| 46> O    1.65266418  -1.64594307  -4.19767751
| 47> O   -0.40296749  -1.74951368  -3.13003587
| 48> O    0.02205063  -0.07020536  -4.53152900
| 49> H    2.61724738  -2.77378518   0.75389687
| 50> H    1.66982450  -4.19120376  -0.47153739
| 51> H    0.72359110   0.25955558  -5.06908152
| 52> *
| 53>
| 54>                          ****END OF INPUT****

CARTESIAN COORDINATES (ANGSTROEM)
---------------------------------
  C     -2.473720   -0.194169    0.778019
  C     -1.933315    0.940001    1.401982
  C     -3.797218   -0.521897    0.953029
  C     -4.681580    0.435381    1.418731
  C     -4.214600    1.607272    1.978185
  C     -2.875634    1.795120    2.096425
  H     -2.533588   -1.247654   -1.182376
  H     -4.139563   -1.521134    0.805648
  H     -2.513677    2.713977    2.533723
  H     -5.751517    0.269176    1.310454
  H     -4.903193    2.334292    2.374047
  C     -0.542597    1.476846    1.262480
  C      0.618213    0.505890    1.669619
  H     -0.392692    2.393942    1.803350
  H     -0.503259    1.780248    0.215295
  C      1.778426    0.597305    0.749747
  H      0.245190   -0.507337    1.731008
  H      0.916902    0.765406    2.683569
  C      1.775771   -0.064687   -0.490348
  C      2.839261    0.126600   -1.366354
  C      3.811311    1.097217   -1.088740
  C      2.846997    1.424094    1.065052
  C      3.821353    1.739992    0.123207
  H      2.927075   -0.455685   -2.269016
  H      4.577173    1.307782   -1.832170
  H      2.930587    1.809599    2.075815
  H      4.503379    2.562954    0.314209
  Pd     0.286004   -1.426867   -0.987786
  Br    -1.410234   -3.745464   -1.044727
  P      1.358628   -3.003615    0.200996
  H      0.711678   -3.501445    1.326709
  C      0.434982   -1.320185   -3.961949
  O      1.652664   -1.645943   -4.197678
  O     -0.402967   -1.749514   -3.130036
  O      0.022051   -0.070205   -4.531529
  H      2.617247   -2.773785    0.753897
  H      1.669825   -4.191204   -0.471537
  H      0.723591    0.259556   -5.069082

 Total Charge           Charge          ....   -1
 Multiplicity           Mult            ....    1
 Number of Electrons    NEL             ....  200
 Basis Dimension        Dim             ....  385

ORBITAL ENERGIES
----------------

  NO   OCC          E(Eh)            E(eV)
   0   2.0000    -484.324481    -13179.1391
   1   2.0000     -77.684391     -2113.8997
   2   2.0000     -62.985939     -1713.9345
   3   2.0000     -56.689399     -1542.5970
   4   2.0000     -56.688811     -1542.5810
   5   2.0000     -56.688522     -1542.5731
   6   2.0000     -19.350059      -526.5419
   7   2.0000     -19.306681      -525.3615
   8   2.0000     -19.288765      -524.8740
   9   2.0000     -10.434174      -283.9283
  10   2.0000     -10.377906      -282.3972
  11   2.0000     -10.371899      -282.2337
  12   2.0000     -10.356129      -281.8046
  13   2.0000     -10.355331      -281.7829
  14   2.0000     -10.352711      -281.7116
  15   2.0000     -10.351392      -281.6757
  16   2.0000     -10.350470      -281.6506
  17   2.0000     -10.349159      -281.6149
  18   2.0000     -10.349045      -281.6118
  19   2.0000     -10.348474      -281.5963
  20   2.0000     -10.347445      -281.5683
  21   2.0000     -10.345288      -281.5096
  22   2.0000     -10.345060      -281.5034
  23   2.0000     -10.335840      -281.2525
  24   2.0000      -8.812882      -239.8107
  25   2.0000      -6.758608      -183.9111
  26   2.0000      -6.581602      -179.0945
  27   2.0000      -6.579027      -179.0244
  28   2.0000      -6.576439      -178.9540
  29   2.0000      -4.849778      -131.9692
  30   2.0000      -4.849473      -131.9609
  31   2.0000      -4.848139      -131.9246
  32   2.0000      -3.528685       -96.0204
  33   2.0000      -2.596034       -70.6417
  34   2.0000      -2.595754       -70.6341
  35   2.0000      -2.593554       -70.5742
  36   2.0000      -2.591318       -70.5133
  37   2.0000      -2.590955       -70.5035
  38   2.0000      -2.174796       -59.1792
  39   2.0000      -2.172019       -59.1036
  40   2.0000      -2.144286       -58.3490
  41   2.0000      -1.029670       -28.0187
  42   2.0000      -0.933865       -25.4118
  43   2.0000      -0.894764       -24.3478
  44   2.0000      -0.866065       -23.5668
  45   2.0000      -0.857101       -23.3229
  46   2.0000      -0.795699       -21.6521
  47   2.0000      -0.753152       -20.4943
  48   2.0000      -0.740867       -20.1600
  49   2.0000      -0.727476       -19.7956
  50   2.0000      -0.694205       -18.8903
  51   2.0000      -0.658855       -17.9284
  52   2.0000      -0.630420       -17.1546
  53   2.0000      -0.627139       -17.0653
  54   2.0000      -0.581091       -15.8123
  55   2.0000      -0.573565       -15.6075
  56   2.0000      -0.556366       -15.1395
  57   2.0000      -0.542921       -14.7736
  58   2.0000      -0.498550       -13.5662
  59   2.0000      -0.478812       -13.0291
  60   2.0000      -0.470532       -12.8038
  61   2.0000      -0.442294       -12.0354
  62   2.0000      -0.421252       -11.4628
  63   2.0000      -0.419239       -11.4081
  64   2.0000      -0.407084       -11.0773
  65   2.0000      -0.386207       -10.5092
  66   2.0000      -0.383247       -10.4287
  67   2.0000      -0.381833       -10.3902
  68   2.0000      -0.379273       -10.3206
  69   2.0000      -0.374948       -10.2028
  70   2.0000      -0.367633       -10.0038
  71   2.0000      -0.357988        -9.7413
  72   2.0000      -0.356226        -9.6934
  73   2.0000      -0.351661        -9.5692
  74   2.0000      -0.339940        -9.2502
  75   2.0000      -0.337066        -9.1720
  76   2.0000      -0.324532        -8.8310
  77   2.0000      -0.322659        -8.7800
  78   2.0000      -0.317408        -8.6371
  79   2.0000      -0.301832        -8.2133
  80   2.0000      -0.296527        -8.0689
  81   2.0000      -0.296036        -8.0556
  82   2.0000      -0.284805        -7.7499
  83   2.0000      -0.256796        -6.9878
  84   2.0000      -0.253694        -6.9034
  85   2.0000      -0.236458        -6.4344
  86   2.0000      -0.225968        -6.1489
  87   2.0000      -0.219357        -5.9690
  88   2.0000      -0.203562        -5.5392
  89   2.0000      -0.195491        -5.3196
  90   2.0000      -0.186282        -5.0690
  91   2.0000      -0.181416        -4.9366
  92   2.0000      -0.180270        -4.9054
  93   2.0000      -0.172163        -4.6848
  94   2.0000      -0.168057        -4.5731
  95   2.0000      -0.155110        -4.2207
  96   2.0000      -0.148340        -4.0365
  97   2.0000      -0.144502        -3.9321
  98   2.0000      -0.139448        -3.7946
  99   2.0000      -0.130812        -3.5596
 100   0.0000       0.020594         0.5604
 101   0.0000       0.048193         1.3114
 102   0.0000       0.106884         2.9085
 103   0.0000       0.116053         3.1580
 104   0.0000       0.119002         3.2382

MULLIKEN ATOMIC CHARGES
-----------------------
   0 C :   -0.055562
   1 C :    0.007100
   2 C :   -0.255652
   3 C :   -0.238487
   4 C :   -0.198246
   5 C :   -0.267441
   6 H :    0.182515
   7 H :    0.244966
   8 H :    0.190991
   9 H :    0.196407
  10 H :    0.194223
  11 C :   -0.479583
  12 C :   -0.525240
  13 H :    0.218129
  14 H :    0.280444
  15 C :    0.126689
  16 H :    0.271378
  17 H :    0.210492
  18 C :   -0.163945
  19 C :   -0.260459
  20 C :   -0.239946
  21 C :   -0.290730
  22 C :   -0.216901
  23 H :    0.283872
  24 H :    0.195299
  25 H :    0.182010
  26 H :    0.186833
  27 Pd:    0.174108
  28 Br:   -0.498573
  29 P :   -0.134291
  30 H :    0.132459
  31 C :    0.681915
  32 O :   -0.586003
  33 O :   -0.524400
  34 O :   -0.657226
  35 H :    0.086264
  36 H :    0.146444
  37 H :    0.400146
Sum of atomic charges:   -1.0000000

LOEWDIN ATOMIC CHARGES
----------------------
   0 C :   -0.051663
   1 C :   -0.056607
   2 C :   -0.148181
   3 C :   -0.160681
   4 C :   -0.156964
   5 C :   -0.148294
   6 H :    0.227079
   7 H :    0.141609
   8 H :    0.124584
   9 H :    0.125083
  10 H :    0.124963
  11 C :   -0.213963
  12 C :   -0.211654
  13 H :    0.125785
  14 H :    0.162440
  15 C :   -0.047124
  16 H :    0.154420
  17 H :    0.121772
  18 C :   -0.006271
  19 C :   -0.118170
  20 C :   -0.146373
  21 C :   -0.147074
  22 C :   -0.159975
  23 H :    0.171292
  24 H :    0.126231
  25 H :    0.121727
  26 H :    0.122953
  27 Pd:   -0.725391
  28 Br:   -0.344754
  29 P :    0.422827
  30 H :    0.061368
  31 C :    0.167667
  32 O :   -0.411613
  33 O :   -0.247036
  34 O :   -0.399531
  35 H :    0.029375
  36 H :    0.072039
  37 H :    0.298104

  Mayer bond orders larger than 0.100000
B(  0-C ,  1-C ) :   1.4723 B(  0-C ,  2-C ) :   1.4066 B(  0-C ,  6-H ) :   0.6250
B(  0-C , 27-Pd) :   0.1275 B(  1-C ,  5-C ) :   1.3453 B(  1-C , 11-C ) :   0.9599
B(  2-C ,  3-C ) :   1.4347 B(  2-C ,  7-H ) :   0.9048 B(  3-C ,  4-C ) :   1.3970
B(  3-C ,  9-H ) :   0.9225 B(  4-C ,  5-C ) :   1.4769 B(  4-C , 10-H ) :   0.9247
B(  5-C ,  8-H ) :   0.9201 B(  6-H , 27-Pd) :   0.1148 B(  6-H , 28-Br) :   0.1116
B( 11-C , 12-C ) :   0.9228 B( 11-C , 13-H ) :   0.9257 B( 11-C , 14-H ) :   0.8901
B( 12-C , 15-C ) :   0.9667 B( 12-C , 16-H ) :   0.8881 B( 12-C , 17-H ) :   0.9282
B( 15-C , 18-C ) :   1.3318 B( 15-C , 21-C ) :   1.4277 B( 18-C , 19-C ) :   1.4339
B( 18-C , 27-Pd) :   0.8009 B( 19-C , 20-C ) :   1.3815 B( 19-C , 23-H ) :   0.8653
B( 20-C , 22-C ) :   1.4503 B( 20-C , 24-H ) :   0.9255 B( 21-C , 22-C ) :   1.4000
B( 21-C , 25-H ) :   0.9260 B( 22-C , 26-H ) :   0.9286 B( 27-Pd, 28-Br) :   0.3625
B( 27-Pd, 29-P ) :   0.7331 B( 27-Pd, 33-O ) :   0.3613 B( 28-Br, 29-P ) :   0.1404
B( 29-P , 30-H ) :   0.9250 B( 29-P , 35-H ) :   0.9015 B( 29-P , 36-H ) :   0.9276
B( 31-C , 32-O ) :   1.7275 B( 31-C , 33-O ) :   1.5274 B( 31-C , 34-O ) :   0.9655
B( 34-O , 37-H ) :   0.7914

Dispersion correction           -0.031009092
FINAL SINGLE POINT ENERGY     -3847.491068797838
Dispersion correction            ... done

DIPOLE MOMENT
-------------
                                X             Y             Z
Electronic contribution:     13.43285     -69.56605     -40.85483
Nuclear contribution   :    -12.61456      70.94738      44.17818
                        -----------------------------------------
Total Dipole Moment    :      0.81829       1.38133       3.32335
                        -----------------------------------------
Magnitude (a.u.)       :      3.69085
Magnitude (Debye)      :      9.38139

Rotational constants in cm-1:     0.006673     0.005883     0.004117
Rotational constants in MHz :   200.038350   176.361576   123.412352

                             ****ORCA TERMINATED NORMALLY****
TOTAL RUN TIME: 0 days 0 hours 22 minutes 17 seconds 38 msec
