                         Program Version 5.0.3 -  RELEASE  -
|  1> ! EnGrad PBEh-3c
|  2> %output
|  3> xyzfile=True
|  4> end
|  5> %scf
|  6> maxiter 250
|  7> end
|  8> %output
|  9> Print[P_Hirshfeld] = 1
| 10> end
| 11> % maxcore
| 12> 4000
| 13> *xyz -1 1
| 14> C   -2.46872244  -0.19014933   0.76831312
| 15> C   -1.94479068   0.95281893   1.39262803
| 16> C   -3.80308830  -0.51531660   0.93048997
| 17> C   -4.68362601   0.42347616   1.42432740
| 18> C   -4.22470918   1.60629824   1.97429084
| 19> C   -2.86620020   1.79945163   2.07367940
| 20> H   -2.50716550  -1.24308584  -1.15625597
| 21> H   -4.13396477  -1.52382906   0.78116886
| 22> H   -2.51167240   2.71995121   2.52254723
| 23> H   -5.74587400   0.26656093   1.29660677
| 24> H   -4.90699105   2.33718967   2.36171224
| 25> C   -0.53265002   1.47072680   1.27456247
| 26> C    0.62301580   0.50135925   1.68003617
| 27> H   -0.40040818   2.38806714   1.84316492
| 28> H   -0.48337244   1.78516609   0.23496183
| 29> C    1.78540461   0.58847323   0.75467568
| 30> H    0.24266786  -0.51240755   1.73411433
| 31> H    0.92723922   0.76071953   2.69152110
| 32> C    1.76948027  -0.07322311  -0.48932910
| 33> C    2.83211120   0.13155775  -1.36553916
| 34> C    3.80407631   1.09673896  -1.09552793
| 35> C    2.84155093   1.43660061   1.06281023
| 36> C    3.81950504   1.74334254   0.12661611
| 37> H    2.91426325  -0.45402247  -2.27387344
| 38> H    4.56853946   1.30861711  -1.83343162
| 39> H    2.93252097   1.81346449   2.07603997
| 40> H    4.50787560   2.55684361   0.31571175
| 41> Pd   0.26759618  -1.44347811  -0.99507605
| 42> Br  -1.41265026  -3.73120662  -1.02473601
| 43> P    1.36120555  -2.99981713   0.19573536
| 44> H    0.72302003  -3.50734873   1.32574438
| 45> C    0.45847768  -1.32862021  -3.98211466
| 46> O    1.62622751  -1.63313767  -4.19551386
| 47> O   -0.41183201  -1.75551426  -3.10555347
| 48> O    0.00826569  -0.08054821  -4.51444815
| 49> H    2.62804112  -2.77144597   0.74292933
| 50> H    1.66434654  -4.18754263  -0.48435873
| 51> H    0.73080294   0.26515637  -5.06594520
| 52> *
| 53>
| 54>                          ****END OF INPUT****

CARTESIAN COORDINATES (ANGSTROEM)
---------------------------------
  C     -2.468722   -0.190149    0.768313
  C     -1.944791    0.952819    1.392628
  C     -3.803088   -0.515317    0.930490
  C     -4.683626    0.423476    1.424327
  C     -4.224709    1.606298    1.974291
  C     -2.866200    1.799452    2.073679
  H     -2.507166   -1.243086   -1.156256
  H     -4.133965   -1.523829    0.781169
  H     -2.511672    2.719951    2.522547
  H     -5.745874    0.266561    1.296607
  H     -4.906991    2.337190    2.361712
  C     -0.532650    1.470727    1.274562
  C      0.623016    0.501359    1.680036
  H     -0.400408    2.388067    1.843165
  H     -0.483372    1.785166    0.234962
  C      1.785405    0.588473    0.754676
  H      0.242668   -0.512408    1.734114
  H      0.927239    0.760720    2.691521
  C      1.769480   -0.073223   -0.489329
  C      2.832111    0.131558   -1.365539
  C      3.804076    1.096739   -1.095528
  C      2.841551    1.436601    1.062810
  C      3.819505    1.743343    0.126616
  H      2.914263   -0.454022   -2.273873
  H      4.568539    1.308617   -1.833432
  H      2.932521    1.813464    2.076040
  H      4.507876    2.556844    0.315712
  Pd     0.267596   -1.443478   -0.995076
  Br    -1.412650   -3.731207   -1.024736
  P      1.361206   -2.999817    0.195735
  H      0.723020   -3.507349    1.325744
  C      0.458478   -1.328620   -3.982115
  O      1.626228   -1.633138   -4.195514
  O     -0.411832   -1.755514   -3.105553
  O      0.008266   -0.080548   -4.514448
  H      2.628041   -2.771446    0.742929
  H      1.664347   -4.187543   -0.484359
  H      0.730803    0.265156   -5.065945

 Total Charge           Charge          ....   -1
 Multiplicity           Mult            ....    1
 Number of Electrons    NEL             ....  200
 Basis Dimension        Dim             ....  385

ORBITAL ENERGIES
----------------

  NO   OCC          E(Eh)            E(eV)
   0   2.0000    -484.324053    -13179.1275
   1   2.0000     -77.682785     -2113.8560
   2   2.0000     -62.985528     -1713.9234
   3   2.0000     -56.689012     -1542.5864
   4   2.0000     -56.688390     -1542.5695
   5   2.0000     -56.688093     -1542.5614
   6   2.0000     -19.356332      -526.7126
   7   2.0000     -19.305254      -525.3227
   8   2.0000     -19.300452      -525.1920
   9   2.0000     -10.436956      -284.0040
  10   2.0000     -10.375478      -282.3311
  11   2.0000     -10.367967      -282.1267
  12   2.0000     -10.354470      -281.7594
  13   2.0000     -10.353357      -281.7292
  14   2.0000     -10.350957      -281.6639
  15   2.0000     -10.350925      -281.6630
  16   2.0000     -10.347891      -281.5804
  17   2.0000     -10.347168      -281.5607
  18   2.0000     -10.346886      -281.5531
  19   2.0000     -10.346760      -281.5497
  20   2.0000     -10.346137      -281.5327
  21   2.0000     -10.344215      -281.4804
  22   2.0000     -10.342680      -281.4386
  23   2.0000     -10.334954      -281.2284
  24   2.0000      -8.812498      -239.8003
  25   2.0000      -6.756688      -183.8588
  26   2.0000      -6.581295      -179.0862
  27   2.0000      -6.578597      -179.0127
  28   2.0000      -6.576028      -178.9428
  29   2.0000      -4.847870      -131.9173
  30   2.0000      -4.847579      -131.9093
  31   2.0000      -4.846216      -131.8722
  32   2.0000      -3.525771       -95.9411
  33   2.0000      -2.595704       -70.6327
  34   2.0000      -2.595402       -70.6245
  35   2.0000      -2.593214       -70.5649
  36   2.0000      -2.590871       -70.5012
  37   2.0000      -2.590523       -70.4917
  38   2.0000      -2.171508       -59.0897
  39   2.0000      -2.169093       -59.0240
  40   2.0000      -2.141000       -58.2596
  41   2.0000      -1.036448       -28.2032
  42   2.0000      -0.934089       -25.4179
  43   2.0000      -0.902865       -24.5682
  44   2.0000      -0.863283       -23.4911
  45   2.0000      -0.854197       -23.2439
  46   2.0000      -0.792370       -21.5615
  47   2.0000      -0.751410       -20.4469
  48   2.0000      -0.735591       -20.0164
  49   2.0000      -0.726077       -19.7576
  50   2.0000      -0.692348       -18.8398
  51   2.0000      -0.656572       -17.8662
  52   2.0000      -0.626692       -17.0532
  53   2.0000      -0.626592       -17.0504
  54   2.0000      -0.578320       -15.7369
  55   2.0000      -0.570994       -15.5375
  56   2.0000      -0.555706       -15.1215
  57   2.0000      -0.541379       -14.7317
  58   2.0000      -0.494498       -13.4560
  59   2.0000      -0.475466       -12.9381
  60   2.0000      -0.468591       -12.7510
  61   2.0000      -0.439223       -11.9519
  62   2.0000      -0.418841       -11.3972
  63   2.0000      -0.415465       -11.3054
  64   2.0000      -0.405710       -11.0399
  65   2.0000      -0.385925       -10.5016
  66   2.0000      -0.381974       -10.3940
  67   2.0000      -0.379904       -10.3377
  68   2.0000      -0.376497       -10.2450
  69   2.0000      -0.373370       -10.1599
  70   2.0000      -0.367582       -10.0024
  71   2.0000      -0.363480        -9.8908
  72   2.0000      -0.354104        -9.6357
  73   2.0000      -0.350423        -9.5355
  74   2.0000      -0.343758        -9.3541
  75   2.0000      -0.335952        -9.1417
  76   2.0000      -0.322917        -8.7870
  77   2.0000      -0.320145        -8.7116
  78   2.0000      -0.312959        -8.5160
  79   2.0000      -0.304299        -8.2804
  80   2.0000      -0.299456        -8.1486
  81   2.0000      -0.290609        -7.9079
  82   2.0000      -0.280847        -7.6422
  83   2.0000      -0.253995        -6.9115
  84   2.0000      -0.251182        -6.8350
  85   2.0000      -0.236070        -6.4238
  86   2.0000      -0.223904        -6.0927
  87   2.0000      -0.218491        -5.9454
  88   2.0000      -0.203871        -5.5476
  89   2.0000      -0.197892        -5.3849
  90   2.0000      -0.185852        -5.0573
  91   2.0000      -0.183365        -4.9896
  92   2.0000      -0.179842        -4.8937
  93   2.0000      -0.174392        -4.7454
  94   2.0000      -0.168348        -4.5810
  95   2.0000      -0.156373        -4.2551
  96   2.0000      -0.150957        -4.1077
  97   2.0000      -0.145144        -3.9496
  98   2.0000      -0.136993        -3.7278
  99   2.0000      -0.128619        -3.4999
 100   0.0000       0.025510         0.6942
 101   0.0000       0.052439         1.4269
 102   0.0000       0.111206         3.0261
 103   0.0000       0.117453         3.1961
 104   0.0000       0.120632         3.2826

MULLIKEN ATOMIC CHARGES
-----------------------
   0 C :   -0.061194
   1 C :    0.014886
   2 C :   -0.259283
   3 C :   -0.234645
   4 C :   -0.205685
   5 C :   -0.268932
   6 H :    0.190031
   7 H :    0.243745
   8 H :    0.190596
   9 H :    0.195659
  10 H :    0.194577
  11 C :   -0.476679
  12 C :   -0.522203
  13 H :    0.211349
  14 H :    0.280525
  15 C :    0.109242
  16 H :    0.270880
  17 H :    0.208677
  18 C :   -0.150321
  19 C :   -0.265094
  20 C :   -0.236517
  21 C :   -0.280553
  22 C :   -0.223473
  23 H :    0.276485
  24 H :    0.193994
  25 H :    0.181285
  26 H :    0.186260
  27 Pd:    0.166259
  28 Br:   -0.491924
  29 P :   -0.135751
  30 H :    0.130657
  31 C :    0.680930
  32 O :   -0.524535
  33 O :   -0.564455
  34 O :   -0.645613
  35 H :    0.084996
  36 H :    0.143690
  37 H :    0.392134
Sum of atomic charges:   -1.0000000

LOEWDIN ATOMIC CHARGES
----------------------
   0 C :   -0.055481
   1 C :   -0.058475
   2 C :   -0.150874
   3 C :   -0.161732
   4 C :   -0.156722
   5 C :   -0.148106
   6 H :    0.236223
   7 H :    0.141510
   8 H :    0.124058
   9 H :    0.124913
  10 H :    0.124570
  11 C :   -0.212468
  12 C :   -0.213082
  13 H :    0.123571
  14 H :    0.161724
  15 C :   -0.047507
  16 H :    0.154259
  17 H :    0.121069
  18 C :   -0.009687
  19 C :   -0.120520
  20 C :   -0.148153
  21 C :   -0.148039
  22 C :   -0.160646
  23 H :    0.167670
  24 H :    0.125461
  25 H :    0.121784
  26 H :    0.122341
  27 Pd:   -0.746254
  28 Br:   -0.331389
  29 P :    0.421665
  30 H :    0.060043
  31 C :    0.160045
  32 O :   -0.336832
  33 O :   -0.290485
  34 O :   -0.392456
  35 H :    0.028786
  36 H :    0.070428
  37 H :    0.298785

  Mayer bond orders larger than 0.100000
B(  0-C ,  1-C ) :   1.4543 B(  0-C ,  2-C ) :   1.4112 B(  0-C ,  6-H ) :   0.6301
B(  0-C , 27-Pd) :   0.1256 B(  1-C ,  5-C ) :   1.3692 B(  1-C , 11-C ) :   0.9576
B(  2-C ,  3-C ) :   1.4236 B(  2-C ,  7-H ) :   0.9059 B(  3-C ,  4-C ) :   1.4124
B(  3-C ,  9-H ) :   0.9231 B(  4-C ,  5-C ) :   1.4583 B(  4-C , 10-H ) :   0.9250
B(  5-C ,  8-H ) :   0.9200 B(  6-H , 27-Pd) :   0.1119 B(  6-H , 28-Br) :   0.1106
B( 11-C , 12-C ) :   0.9220 B( 11-C , 13-H ) :   0.9287 B( 11-C , 14-H ) :   0.8900
B( 12-C , 15-C ) :   0.9701 B( 12-C , 16-H ) :   0.8883 B( 12-C , 17-H ) :   0.9286
B( 15-C , 18-C ) :   1.3388 B( 15-C , 21-C ) :   1.4188 B( 18-C , 19-C ) :   1.4253
B( 18-C , 27-Pd) :   0.7918 B( 19-C , 20-C ) :   1.3921 B( 19-C , 23-H ) :   0.8726
B( 20-C , 22-C ) :   1.4413 B( 20-C , 24-H ) :   0.9258 B( 21-C , 22-C ) :   1.4103
B( 21-C , 25-H ) :   0.9260 B( 22-C , 26-H ) :   0.9284 B( 27-Pd, 28-Br) :   0.3767
B( 27-Pd, 29-P ) :   0.7321 B( 27-Pd, 33-O ) :   0.4075 B( 28-Br, 29-P ) :   0.1387
B( 29-P , 30-H ) :   0.9239 B( 29-P , 35-H ) :   0.9013 B( 29-P , 36-H ) :   0.9270
B( 31-C , 32-O ) :   1.8209 B( 31-C , 33-O ) :   1.4302 B( 31-C , 34-O ) :   0.9728
B( 34-O , 37-H ) :   0.7965

Dispersion correction           -0.031028047
FINAL SINGLE POINT ENERGY     -3847.499422284484
Dispersion correction            ... done

DIPOLE MOMENT
-------------
                                X             Y             Z
Electronic contribution:     12.64035     -70.56245     -41.56641
Nuclear contribution   :    -11.67406      71.84228      44.57645
                        -----------------------------------------
Total Dipole Moment    :      0.96629       1.27982       3.01004
                        -----------------------------------------
Magnitude (a.u.)       :      3.41058
Magnitude (Debye)      :      8.66899

Rotational constants in cm-1:     0.006690     0.005898     0.004129
Rotational constants in MHz :   200.562458   176.804388   123.785038

                             ****ORCA TERMINATED NORMALLY****
TOTAL RUN TIME: 0 days 0 hours 22 minutes 0 seconds 754 msec
