                         Program Version 5.0.3 -  RELEASE  -
|  1> ! EnGrad PBEh-3c
|  2> %output
|  3> xyzfile=True
|  4> end
|  5> %scf
|  6> maxiter 250
|  7> end
|  8> %output
|  9> Print[P_Hirshfeld] = 1
| 10> end
| 11> % maxcore
| 12> 4000
| 13> *xyz -1 1
| 14> C   -2.46083648  -0.18340528   0.73823703
| 15> C   -1.96074969   0.98013975   1.37064867
| 16> C   -3.80446977  -0.50449238   0.88103294
| 17> C   -4.69071376   0.40566643   1.43201967
| 18> C   -4.23599528   1.59983578   1.95955035
| 19> C   -2.85726750   1.81319357   2.02154581
| 20> H   -2.44161613  -1.23201333  -1.09330985
| 21> H   -4.11970347  -1.52738893   0.71726369
| 22> H   -2.50808299   2.73438685   2.49256277
| 23> H   -5.73631561   0.25824717   1.26259237
| 24> H   -4.91945710   2.34588707   2.33177911
| 25> C   -0.51272521   1.45895428   1.31025285
| 26> C    0.63118910   0.48986847   1.70561162
| 27> H   -0.41842323   2.36819052   1.94066508
| 28> H   -0.43167126   1.80242303   0.28533283
| 29> C    1.79608521   0.56913446   0.76215656
| 30> H    0.23814671  -0.52536291   1.74358373
| 31> H    0.95445235   0.74719081   2.71398171
| 32> C    1.75021886  -0.09455639  -0.48584510
| 33> C    2.81215588   0.14021481  -1.36695952
| 34> C    3.78594262   1.09854047  -1.10428002
| 35> C    2.83224463   1.45994484   1.05958981
| 36> C    3.81206590   1.75012721   0.12724525
| 37> H    2.88154019  -0.44661824  -2.28317030
| 38> H    4.54803499   1.31110086  -1.83879059
| 39> H    2.93661101   1.82415044   2.07680737
| 40> H    4.51986425   2.54352571   0.31907647
| 41> Pd   0.23156119  -1.48222489  -1.00306201
| 42> Br  -1.42070216  -3.69723193  -0.97456291
| 43> P    1.36566092  -2.98897798   0.18086650
| 44> H    0.75319254  -3.52235418   1.32302389
| 45> C    0.46820674  -1.31978996  -3.99450843
| 46> O    1.59401200  -1.62235874  -4.20144163
| 47> O   -0.42075018  -1.77344193  -3.07004093
| 48> O   -0.00884107  -0.10725010  -4.48859797
| 49> H    2.65449205  -2.76595781   0.71319681
| 50> H    1.65120875  -4.17811415  -0.51661622
| 51> H    0.72879517   0.27194278  -5.04303607
| 52> *
| 53>
| 54>                          ****END OF INPUT****

CARTESIAN COORDINATES (ANGSTROEM)
---------------------------------
  C     -2.460836   -0.183405    0.738237
  C     -1.960750    0.980140    1.370649
  C     -3.804470   -0.504492    0.881033
  C     -4.690714    0.405666    1.432020
  C     -4.235995    1.599836    1.959550
  C     -2.857267    1.813194    2.021546
  H     -2.441616   -1.232013   -1.093310
  H     -4.119703   -1.527389    0.717264
  H     -2.508083    2.734387    2.492563
  H     -5.736316    0.258247    1.262592
  H     -4.919457    2.345887    2.331779
  C     -0.512725    1.458954    1.310253
  C      0.631189    0.489868    1.705612
  H     -0.418423    2.368191    1.940665
  H     -0.431671    1.802423    0.285333
  C      1.796085    0.569134    0.762157
  H      0.238147   -0.525363    1.743584
  H      0.954452    0.747191    2.713982
  C      1.750219   -0.094556   -0.485845
  C      2.812156    0.140215   -1.366960
  C      3.785943    1.098540   -1.104280
  C      2.832245    1.459945    1.059590
  C      3.812066    1.750127    0.127245
  H      2.881540   -0.446618   -2.283170
  H      4.548035    1.311101   -1.838791
  H      2.936611    1.824150    2.076807
  H      4.519864    2.543526    0.319076
  Pd     0.231561   -1.482225   -1.003062
  Br    -1.420702   -3.697232   -0.974563
  P      1.365661   -2.988978    0.180866
  H      0.753193   -3.522354    1.323024
  C      0.468207   -1.319790   -3.994508
  O      1.594012   -1.622359   -4.201442
  O     -0.420750   -1.773442   -3.070041
  O     -0.008841   -0.107250   -4.488598
  H      2.654492   -2.765958    0.713197
  H      1.651209   -4.178114   -0.516616
  H      0.728795    0.271943   -5.043036

 Total Charge           Charge          ....   -1
 Multiplicity           Mult            ....    1
 Number of Electrons    NEL             ....  200
 Basis Dimension        Dim             ....  385

ORBITAL ENERGIES
----------------

  NO   OCC          E(Eh)            E(eV)
   0   2.0000    -484.325823    -13179.1757
   1   2.0000     -77.681496     -2113.8210
   2   2.0000     -62.987356     -1713.9731
   3   2.0000     -56.690899     -1542.6378
   4   2.0000     -56.690192     -1542.6185
   5   2.0000     -56.689876     -1542.6099
   6   2.0000     -19.369964      -527.0835
   7   2.0000     -19.317418      -525.6537
   8   2.0000     -19.296484      -525.0840
   9   2.0000     -10.439912      -284.0845
  10   2.0000     -10.373677      -282.2821
  11   2.0000     -10.364116      -282.0219
  12   2.0000     -10.352134      -281.6959
  13   2.0000     -10.351462      -281.6776
  14   2.0000     -10.350663      -281.6559
  15   2.0000     -10.349116      -281.6138
  16   2.0000     -10.345777      -281.5229
  17   2.0000     -10.345496      -281.5153
  18   2.0000     -10.345126      -281.5052
  19   2.0000     -10.344785      -281.4959
  20   2.0000     -10.344156      -281.4788
  21   2.0000     -10.342221      -281.4261
  22   2.0000     -10.340021      -281.3663
  23   2.0000     -10.333479      -281.1883
  24   2.0000      -8.814410      -239.8523
  25   2.0000      -6.754646      -183.8033
  26   2.0000      -6.583425      -179.1441
  27   2.0000      -6.580362      -179.0608
  28   2.0000      -6.577890      -178.9935
  29   2.0000      -4.845842      -131.8621
  30   2.0000      -4.845580      -131.8549
  31   2.0000      -4.844206      -131.8175
  32   2.0000      -3.523108       -95.8686
  33   2.0000      -2.597759       -70.6886
  34   2.0000      -2.597385       -70.6784
  35   2.0000      -2.595268       -70.6208
  36   2.0000      -2.592612       -70.5486
  37   2.0000      -2.592312       -70.5404
  38   2.0000      -2.168149       -58.9983
  39   2.0000      -2.166840       -58.9627
  40   2.0000      -2.137792       -58.1723
  41   2.0000      -1.058801       -28.8114
  42   2.0000      -0.956896       -26.0385
  43   2.0000      -0.884542       -24.0696
  44   2.0000      -0.859864       -23.3981
  45   2.0000      -0.848992       -23.1022
  46   2.0000      -0.787570       -21.4309
  47   2.0000      -0.748583       -20.3700
  48   2.0000      -0.729045       -19.8383
  49   2.0000      -0.723345       -19.6832
  50   2.0000      -0.689479       -18.7617
  51   2.0000      -0.653757       -17.7896
  52   2.0000      -0.627803       -17.0834
  53   2.0000      -0.620903       -16.8956
  54   2.0000      -0.573943       -15.6178
  55   2.0000      -0.566886       -15.4258
  56   2.0000      -0.554433       -15.0869
  57   2.0000      -0.538075       -14.6418
  58   2.0000      -0.504515       -13.7286
  59   2.0000      -0.470199       -12.7948
  60   2.0000      -0.465200       -12.6587
  61   2.0000      -0.435044       -11.8381
  62   2.0000      -0.415787       -11.3141
  63   2.0000      -0.410128       -11.1602
  64   2.0000      -0.403451       -10.9785
  65   2.0000      -0.394113       -10.7244
  66   2.0000      -0.378836       -10.3086
  67   2.0000      -0.376959       -10.2576
  68   2.0000      -0.374934       -10.2025
  69   2.0000      -0.371210       -10.1011
  70   2.0000      -0.368044       -10.0150
  71   2.0000      -0.366123        -9.9627
  72   2.0000      -0.357787        -9.7359
  73   2.0000      -0.350260        -9.5311
  74   2.0000      -0.345614        -9.4046
  75   2.0000      -0.333065        -9.0632
  76   2.0000      -0.321974        -8.7614
  77   2.0000      -0.318591        -8.6693
  78   2.0000      -0.309652        -8.4261
  79   2.0000      -0.305474        -8.3124
  80   2.0000      -0.296118        -8.0578
  81   2.0000      -0.283104        -7.7036
  82   2.0000      -0.274218        -7.4619
  83   2.0000      -0.252260        -6.8643
  84   2.0000      -0.249551        -6.7906
  85   2.0000      -0.238244        -6.4830
  86   2.0000      -0.226027        -6.1505
  87   2.0000      -0.220069        -5.9884
  88   2.0000      -0.212592        -5.7849
  89   2.0000      -0.197063        -5.3624
  90   2.0000      -0.185933        -5.0595
  91   2.0000      -0.183894        -5.0040
  92   2.0000      -0.180463        -4.9107
  93   2.0000      -0.177637        -4.8338
  94   2.0000      -0.166240        -4.5236
  95   2.0000      -0.154727        -4.2103
  96   2.0000      -0.150111        -4.0847
  97   2.0000      -0.143575        -3.9069
  98   2.0000      -0.136595        -3.7169
  99   2.0000      -0.124706        -3.3934
 100   0.0000       0.035811         0.9745
 101   0.0000       0.059129         1.6090
 102   0.0000       0.115258         3.1363
 103   0.0000       0.119498         3.2517
 104   0.0000       0.122968         3.3461

MULLIKEN ATOMIC CHARGES
-----------------------
   0 C :   -0.072456
   1 C :    0.025190
   2 C :   -0.264334
   3 C :   -0.229105
   4 C :   -0.217175
   5 C :   -0.266301
   6 H :    0.200836
   7 H :    0.242134
   8 H :    0.190607
   9 H :    0.195962
  10 H :    0.193372
  11 C :   -0.470607
  12 C :   -0.516643
  13 H :    0.199573
  14 H :    0.279307
  15 C :    0.073036
  16 H :    0.270024
  17 H :    0.205209
  18 C :   -0.129897
  19 C :   -0.274630
  20 C :   -0.229304
  21 C :   -0.261142
  22 C :   -0.232410
  23 H :    0.268558
  24 H :    0.191894
  25 H :    0.180371
  26 H :    0.184962
  27 Pd:    0.151438
  28 Br:   -0.475014
  29 P :   -0.135104
  30 H :    0.126437
  31 C :    0.672093
  32 O :   -0.474590
  33 O :   -0.597877
  34 O :   -0.617104
  35 H :    0.083466
  36 H :    0.140277
  37 H :    0.388947
Sum of atomic charges:   -1.0000000

LOEWDIN ATOMIC CHARGES
----------------------
   0 C :   -0.063903
   1 C :   -0.057989
   2 C :   -0.154381
   3 C :   -0.164358
   4 C :   -0.154989
   5 C :   -0.149106
   6 H :    0.249552
   7 H :    0.141427
   8 H :    0.123845
   9 H :    0.125744
  10 H :    0.123638
  11 C :   -0.210677
  12 C :   -0.215806
  13 H :    0.119963
  14 H :    0.160372
  15 C :   -0.047760
  16 H :    0.153995
  17 H :    0.119838
  18 C :   -0.019018
  19 C :   -0.122914
  20 C :   -0.151733
  21 C :   -0.150623
  22 C :   -0.160767
  23 H :    0.163244
  24 H :    0.124477
  25 H :    0.122044
  26 H :    0.121116
  27 Pd:   -0.787709
  28 Br:   -0.299697
  29 P :    0.424118
  30 H :    0.057044
  31 C :    0.143392
  32 O :   -0.279021
  33 O :   -0.324749
  34 O :   -0.358825
  35 H :    0.028417
  36 H :    0.068576
  37 H :    0.303225

  Mayer bond orders larger than 0.100000
B(  0-C ,  1-C ) :   1.4131 B(  0-C ,  2-C ) :   1.4329 B(  0-C ,  6-H ) :   0.6442
B(  0-C , 27-Pd) :   0.1202 B(  1-C ,  5-C ) :   1.4158 B(  1-C , 11-C ) :   0.9544
B(  2-C ,  3-C ) :   1.3908 B(  2-C ,  7-H ) :   0.9063 B(  3-C ,  4-C ) :   1.4467
B(  3-C ,  9-H ) :   0.9237 B(  4-C ,  5-C ) :   1.4191 B(  4-C , 10-H ) :   0.9258
B(  5-C ,  8-H ) :   0.9193 B(  6-H , 27-Pd) :   0.1073 B(  6-H , 28-Br) :   0.1048
B( 11-C , 12-C ) :   0.9186 B( 11-C , 13-H ) :   0.9336 B( 11-C , 14-H ) :   0.8901
B( 12-C , 15-C ) :   0.9754 B( 12-C , 16-H ) :   0.8889 B( 12-C , 17-H ) :   0.9297
B( 15-C , 18-C ) :   1.3502 B( 15-C , 21-C ) :   1.4008 B( 18-C , 19-C ) :   1.4101
B( 18-C , 27-Pd) :   0.7685 B( 19-C , 20-C ) :   1.4074 B( 19-C , 23-H ) :   0.8786
B( 20-C , 22-C ) :   1.4269 B( 20-C , 24-H ) :   0.9264 B( 21-C , 22-C ) :   1.4272
B( 21-C , 25-H ) :   0.9257 B( 22-C , 26-H ) :   0.9281 B( 27-Pd, 28-Br) :   0.4121
B( 27-Pd, 29-P ) :   0.7433 B( 27-Pd, 33-O ) :   0.4633 B( 28-Br, 29-P ) :   0.1350
B( 29-P , 30-H ) :   0.9212 B( 29-P , 35-H ) :   0.9010 B( 29-P , 36-H ) :   0.9254
B( 31-C , 32-O ) :   1.8956 B( 31-C , 33-O ) :   1.3299 B( 31-C , 34-O ) :   1.0117
B( 34-O , 37-H ) :   0.7960

Dispersion correction           -0.031102717
FINAL SINGLE POINT ENERGY     -3847.503708858158
Dispersion correction            ... done

DIPOLE MOMENT
-------------
                                X             Y             Z
Electronic contribution:     10.84747     -72.73043     -42.38166
Nuclear contribution   :     -9.82005      73.91788      44.98104
                        -----------------------------------------
Total Dipole Moment    :      1.02742       1.18745       2.59938
                        -----------------------------------------
Magnitude (a.u.)       :      3.03684
Magnitude (Debye)      :      7.71904

Rotational constants in cm-1:     0.006732     0.005929     0.004158
Rotational constants in MHz :   201.834456   177.739023   124.666781

                             ****ORCA TERMINATED NORMALLY****
TOTAL RUN TIME: 0 days 0 hours 27 minutes 52 seconds 649 msec
