                         Program Version 5.0.3 -  RELEASE  -
|  1> ! EnGrad PBEh-3c
|  2> %output
|  3> xyzfile=True
|  4> end
|  5> %scf
|  6> maxiter 250
|  7> end
|  8> %output
|  9> Print[P_Hirshfeld] = 1
| 10> end
| 11> % maxcore
| 12> 4000
| 13> *xyz -1 1
| 14> C   -2.44440034  -0.17439464   0.68444024
| 15> C   -1.96781451   1.00322173   1.34524706
| 16> C   -3.79571927  -0.49304249   0.83461300
| 17> C   -4.69586686   0.39050933   1.41988519
| 18> C   -4.25096194   1.59473381   1.93179840
| 19> C   -2.84762348   1.83631156   1.95847911
| 20> H   -2.35167475  -1.21796979  -1.01190834
| 21> H   -4.09934053  -1.52634416   0.62186685
| 22> H   -2.50779843   2.75367395   2.44785501
| 23> H   -5.73146055   0.24417530   1.21709788
| 24> H   -4.93623076   2.35447121   2.28802307
| 25> C   -0.49311727   1.44641401   1.36548615
| 26> C    0.63456354   0.47571492   1.74212621
| 27> H   -0.43974672   2.33318628   2.07316975
| 28> H   -0.35528299   1.83842792   0.36187259
| 29> C    1.79833879   0.55206312   0.76568422
| 30> H    0.23559568  -0.54490026   1.76105911
| 31> H    0.99471533   0.72354819   2.74908579
| 32> C    1.71959677  -0.12396410  -0.48328097
| 33> C    2.77898660   0.14934869  -1.36719620
| 34> C    3.76023993   1.09908345  -1.11474183
| 35> C    2.82546919   1.47206918   1.05844713
| 36> C    3.79714862   1.76391438   0.12400469
| 37> H    2.83441161  -0.43177988  -2.29470053
| 38> H    4.51904910   1.31518727  -1.84814795
| 39> H    2.94046010   1.84078273   2.07757128
| 40> H    4.53571975   2.52649716   0.32153926
| 41> Pd   0.20355787  -1.52674041  -0.98773329
| 42> Br  -1.43696198  -3.65365143  -0.90528610
| 43> P    1.36944496  -2.97315619   0.15657639
| 44> H    0.79917463  -3.54305299   1.31793154
| 45> C    0.47563062  -1.26365076  -3.97323802
| 46> O    1.55883377  -1.63324273  -4.21711941
| 47> O   -0.43097158  -1.80717645  -3.05981512
| 48> O   -0.03939897  -0.15248891  -4.45880042
| 49> H    2.68939257  -2.75884819   0.66616072
| 50> H    1.63408464  -4.16387587  -0.56174530
| 51> H    0.71572215   0.27366546  -5.00028769
| 52> *
| 53>
| 54>                          ****END OF INPUT****

CARTESIAN COORDINATES (ANGSTROEM)
---------------------------------
  C     -2.444400   -0.174395    0.684440
  C     -1.967815    1.003222    1.345247
  C     -3.795719   -0.493042    0.834613
  C     -4.695867    0.390509    1.419885
  C     -4.250962    1.594734    1.931798
  C     -2.847623    1.836312    1.958479
  H     -2.351675   -1.217970   -1.011908
  H     -4.099341   -1.526344    0.621867
  H     -2.507798    2.753674    2.447855
  H     -5.731461    0.244175    1.217098
  H     -4.936231    2.354471    2.288023
  C     -0.493117    1.446414    1.365486
  C      0.634564    0.475715    1.742126
  H     -0.439747    2.333186    2.073170
  H     -0.355283    1.838428    0.361873
  C      1.798339    0.552063    0.765684
  H      0.235596   -0.544900    1.761059
  H      0.994715    0.723548    2.749086
  C      1.719597   -0.123964   -0.483281
  C      2.778987    0.149349   -1.367196
  C      3.760240    1.099083   -1.114742
  C      2.825469    1.472069    1.058447
  C      3.797149    1.763914    0.124005
  H      2.834412   -0.431780   -2.294701
  H      4.519049    1.315187   -1.848148
  H      2.940460    1.840783    2.077571
  H      4.535720    2.526497    0.321539
  Pd     0.203558   -1.526740   -0.987733
  Br    -1.436962   -3.653651   -0.905286
  P      1.369445   -2.973156    0.156576
  H      0.799175   -3.543053    1.317932
  C      0.475631   -1.263651   -3.973238
  O      1.558834   -1.633243   -4.217119
  O     -0.430972   -1.807176   -3.059815
  O     -0.039399   -0.152489   -4.458800
  H      2.689393   -2.758848    0.666161
  H      1.634085   -4.163876   -0.561745
  H      0.715722    0.273665   -5.000288

 Total Charge           Charge          ....   -1
 Multiplicity           Mult            ....    1
 Number of Electrons    NEL             ....  200
 Basis Dimension        Dim             ....  385

ORBITAL ENERGIES
----------------

  NO   OCC          E(Eh)            E(eV)
   0   2.0000    -484.329574    -13179.2777
   1   2.0000     -77.681679     -2113.8259
   2   2.0000     -62.991182     -1714.0772
   3   2.0000     -56.694802     -1542.7440
   4   2.0000     -56.693976     -1542.7215
   5   2.0000     -56.693651     -1542.7127
   6   2.0000     -19.391739      -527.6761
   7   2.0000     -19.317371      -525.6524
   8   2.0000     -19.290082      -524.9098
   9   2.0000     -10.438001      -284.0325
  10   2.0000     -10.373674      -282.2820
  11   2.0000     -10.362223      -281.9704
  12   2.0000     -10.353266      -281.7267
  13   2.0000     -10.350237      -281.6443
  14   2.0000     -10.349601      -281.6270
  15   2.0000     -10.349056      -281.6121
  16   2.0000     -10.345353      -281.5114
  17   2.0000     -10.345295      -281.5098
  18   2.0000     -10.344476      -281.4875
  19   2.0000     -10.344389      -281.4851
  20   2.0000     -10.343691      -281.4662
  21   2.0000     -10.341387      -281.4034
  22   2.0000     -10.339152      -281.3426
  23   2.0000     -10.332665      -281.1661
  24   2.0000      -8.818357      -239.9597
  25   2.0000      -6.753993      -183.7855
  26   2.0000      -6.587665      -179.2595
  27   2.0000      -6.584125      -179.1631
  28   2.0000      -6.581746      -179.0984
  29   2.0000      -4.845179      -131.8440
  30   2.0000      -4.844946      -131.8377
  31   2.0000      -4.843664      -131.8028
  32   2.0000      -3.524591       -95.9090
  33   2.0000      -2.601908       -70.8015
  34   2.0000      -2.601440       -70.7888
  35   2.0000      -2.599390       -70.7330
  36   2.0000      -2.596323       -70.6495
  37   2.0000      -2.596069       -70.6426
  38   2.0000      -2.169912       -59.0463
  39   2.0000      -2.168408       -59.0054
  40   2.0000      -2.138634       -58.1952
  41   2.0000      -1.085312       -29.5328
  42   2.0000      -0.978336       -26.6219
  43   2.0000      -0.867739       -23.6124
  44   2.0000      -0.855686       -23.2844
  45   2.0000      -0.843874       -22.9630
  46   2.0000      -0.783690       -21.3253
  47   2.0000      -0.745585       -20.2884
  48   2.0000      -0.722763       -19.6674
  49   2.0000      -0.721213       -19.6252
  50   2.0000      -0.686950       -18.6929
  51   2.0000      -0.653220       -17.7750
  52   2.0000      -0.629393       -17.1267
  53   2.0000      -0.614930       -16.7331
  54   2.0000      -0.570552       -15.5255
  55   2.0000      -0.563103       -15.3228
  56   2.0000      -0.552346       -15.0301
  57   2.0000      -0.534483       -14.5440
  58   2.0000      -0.525807       -14.3079
  59   2.0000      -0.465647       -12.6709
  60   2.0000      -0.462281       -12.5793
  61   2.0000      -0.430995       -11.7280
  62   2.0000      -0.413253       -11.2452
  63   2.0000      -0.406087       -11.0502
  64   2.0000      -0.403980       -10.9929
  65   2.0000      -0.401148       -10.9158
  66   2.0000      -0.385471       -10.4892
  67   2.0000      -0.378594       -10.3021
  68   2.0000      -0.373569       -10.1653
  69   2.0000      -0.371032       -10.0963
  70   2.0000      -0.366830        -9.9820
  71   2.0000      -0.364878        -9.9288
  72   2.0000      -0.362903        -9.8751
  73   2.0000      -0.349716        -9.5163
  74   2.0000      -0.341384        -9.2895
  75   2.0000      -0.331192        -9.0122
  76   2.0000      -0.322894        -8.7864
  77   2.0000      -0.316737        -8.6188
  78   2.0000      -0.307483        -8.3670
  79   2.0000      -0.300082        -8.1656
  80   2.0000      -0.293282        -7.9806
  81   2.0000      -0.275873        -7.5069
  82   2.0000      -0.267959        -7.2915
  83   2.0000      -0.255511        -6.9528
  84   2.0000      -0.252520        -6.8714
  85   2.0000      -0.242059        -6.5868
  86   2.0000      -0.235191        -6.3999
  87   2.0000      -0.222169        -6.0455
  88   2.0000      -0.219043        -5.9605
  89   2.0000      -0.196995        -5.3605
  90   2.0000      -0.186556        -5.0765
  91   2.0000      -0.185888        -5.0583
  92   2.0000      -0.180567        -4.9135
  93   2.0000      -0.175953        -4.7879
  94   2.0000      -0.165261        -4.4970
  95   2.0000      -0.152526        -4.1505
  96   2.0000      -0.150540        -4.0964
  97   2.0000      -0.142323        -3.8728
  98   2.0000      -0.138928        -3.7804
  99   2.0000      -0.120765        -3.2862
 100   0.0000       0.048748         1.3265
 101   0.0000       0.066211         1.8017
 102   0.0000       0.116657         3.1744
 103   0.0000       0.122044         3.3210
 104   0.0000       0.125148         3.4054

MULLIKEN ATOMIC CHARGES
-----------------------
   0 C :   -0.093947
   1 C :    0.032196
   2 C :   -0.265044
   3 C :   -0.219208
   4 C :   -0.230896
   5 C :   -0.262009
   6 H :    0.216539
   7 H :    0.239684
   8 H :    0.191131
   9 H :    0.196026
  10 H :    0.192125
  11 C :   -0.465189
  12 C :   -0.510656
  13 H :    0.188776
  14 H :    0.275542
  15 C :    0.042190
  16 H :    0.269025
  17 H :    0.201894
  18 C :   -0.115971
  19 C :   -0.285355
  20 C :   -0.223857
  21 C :   -0.247293
  22 C :   -0.237704
  23 H :    0.261882
  24 H :    0.190509
  25 H :    0.179452
  26 H :    0.184947
  27 Pd:    0.136973
  28 Br:   -0.451506
  29 P :   -0.131915
  30 H :    0.120734
  31 C :    0.652642
  32 O :   -0.464620
  33 O :   -0.617876
  34 O :   -0.560466
  35 H :    0.081641
  36 H :    0.138218
  37 H :    0.391386
Sum of atomic charges:   -1.0000000

LOEWDIN ATOMIC CHARGES
----------------------
   0 C :   -0.078066
   1 C :   -0.055702
   2 C :   -0.154996
   3 C :   -0.166782
   4 C :   -0.153462
   5 C :   -0.151852
   6 H :    0.264434
   7 H :    0.140686
   8 H :    0.124324
   9 H :    0.126896
  10 H :    0.122586
  11 C :   -0.209798
  12 C :   -0.218517
  13 H :    0.116824
  14 H :    0.158145
  15 C :   -0.045465
  16 H :    0.154046
  17 H :    0.118674
  18 C :   -0.030689
  19 C :   -0.125704
  20 C :   -0.155642
  21 C :   -0.153454
  22 C :   -0.160321
  23 H :    0.159658
  24 H :    0.123864
  25 H :    0.122065
  26 H :    0.120161
  27 Pd:   -0.827389
  28 Br:   -0.261277
  29 P :    0.432998
  30 H :    0.053202
  31 C :    0.105727
  32 O :   -0.266459
  33 O :   -0.349982
  34 O :   -0.288136
  35 H :    0.028118
  36 H :    0.067611
  37 H :    0.313673

  Mayer bond orders larger than 0.100000
B(  0-C ,  1-C ) :   1.3807 B(  0-C ,  2-C ) :   1.4499 B(  0-C ,  4-C ) :   0.1007
B(  0-C ,  6-H ) :   0.6629 B(  0-C , 27-Pd) :   0.1088 B(  1-C ,  5-C ) :   1.4570
B(  1-C , 11-C ) :   0.9510 B(  2-C ,  3-C ) :   1.3633 B(  2-C ,  7-H ) :   0.9069
B(  3-C ,  4-C ) :   1.4778 B(  3-C ,  9-H ) :   0.9242 B(  4-C ,  5-C ) :   1.3826
B(  4-C , 10-H ) :   0.9261 B(  5-C ,  8-H ) :   0.9183 B( 11-C , 12-C ) :   0.9130
B( 11-C , 13-H ) :   0.9382 B( 11-C , 14-H ) :   0.8917 B( 12-C , 15-C ) :   0.9757
B( 12-C , 16-H ) :   0.8894 B( 12-C , 17-H ) :   0.9317 B( 15-C , 18-C ) :   1.3579
B( 15-C , 21-C ) :   1.3837 B( 18-C , 19-C ) :   1.3942 B( 18-C , 27-Pd) :   0.7457
B( 18-C , 28-Br) :   0.1028 B( 19-C , 20-C ) :   1.4198 B( 19-C , 23-H ) :   0.8817
B( 20-C , 22-C ) :   1.4133 B( 20-C , 24-H ) :   0.9269 B( 21-C , 22-C ) :   1.4435
B( 21-C , 25-H ) :   0.9259 B( 22-C , 26-H ) :   0.9275 B( 27-Pd, 28-Br) :   0.4523
B( 27-Pd, 29-P ) :   0.7831 B( 27-Pd, 33-O ) :   0.5054 B( 28-Br, 29-P ) :   0.1326
B( 29-P , 30-H ) :   0.9170 B( 29-P , 35-H ) :   0.9003 B( 29-P , 36-H ) :   0.9224
B( 31-C , 32-O ) :   1.9186 B( 31-C , 33-O ) :   1.2583 B( 31-C , 34-O ) :   1.0990
B( 34-O , 37-H ) :   0.7878

Dispersion correction           -0.031245893
FINAL SINGLE POINT ENERGY     -3847.509213441009
Dispersion correction            ... done

DIPOLE MOMENT
-------------
                                X             Y             Z
Electronic contribution:      9.44545     -75.04387     -41.78464
Nuclear contribution   :     -8.43074      76.27662      44.08150
                        -----------------------------------------
Total Dipole Moment    :      1.01472       1.23275       2.29685
                        -----------------------------------------
Magnitude (a.u.)       :      2.79730
Magnitude (Debye)      :      7.11016

Rotational constants in cm-1:     0.006788     0.005971     0.004200
Rotational constants in MHz :   203.506641   179.013527   125.917282

                             ****ORCA TERMINATED NORMALLY****
TOTAL RUN TIME: 0 days 0 hours 22 minutes 22 seconds 164 msec
