                         Program Version 5.0.3 -  RELEASE  -
|  1> ! EnGrad PBEh-3c
|  2> %output
|  3> xyzfile=True
|  4> end
|  5> %scf
|  6> maxiter 250
|  7> end
|  8> %output
|  9> Print[P_Hirshfeld] = 1
| 10> end
| 11> % maxcore
| 12> 4000
| 13> *xyz 1 1
| 14> Ir   0.46587545  -0.73059713   0.87678654
| 15> C   -0.08912524  -2.72496448   1.63362556
| 16> C    0.76313498  -2.08038307   2.58482164
| 17> C    1.88625742  -2.25228542   0.57021073
| 18> C    0.60102552  -2.84094607   0.40960762
| 19> C    1.98440654  -1.84011021   1.92951555
| 20> N   -0.98266508   0.01580749  -0.41193778
| 21> C   -2.40249444   0.06183582   0.00438351
| 22> C   -2.88922048   1.45997070   0.33039506
| 23> H   -3.91199266   1.46570791   0.70655035
| 24> H   -2.82885037   2.12206250  -0.53407606
| 25> H   -2.32486970   1.91976957   1.13674160
| 26> C   -3.38402629  -0.58443017  -0.95991527
| 27> H   -2.45432427  -0.49987338   0.93573945
| 28> H   -4.36588942  -0.68789142  -0.50362241
| 29> H   -3.53149377  -0.00390594  -1.87271705
| 30> H   -3.05662320  -1.58562680  -1.24441916
| 31> C   -0.70556512   0.27701489  -1.63411188
| 32> C    0.57846570   0.22698459  -2.26579678
| 33> H   -1.51289194   0.57014648  -2.30164324
| 34> C    1.80906560   0.03911878  -1.70089203
| 35> C    2.87867268   0.03739276  -2.61452071
| 36> S    0.74343366   0.11281414  -3.97737598
| 37> C    2.42753587  -0.02659592  -3.90016795
| 38> H    2.26371318   1.04791442  -0.80434333
| 39> H    3.93437317   0.02305845  -2.38350908
| 40> H    3.02976531  -0.14723278  -4.78765716
| 41> H   -0.94134711  -3.33440843   1.89472194
| 42> H    0.53537654  -1.98202492   3.63296289
| 43> H    2.88111105  -1.45904002   2.38548899
| 44> O    1.70549716   1.71740617   0.76121746
| 45> O    0.05620265   1.05774990   1.92923219
| 46> C    0.79231011   2.00071437   1.58771108
| 47> C    0.75549904   3.36896140   2.15522799
| 48> H    0.82204561   4.11230332   1.36254866
| 49> H    1.60311351   3.53782256   2.82107222
| 50> H   -0.16017809   3.50624849   2.72236876
| 51> H    2.73915017  -2.44426298  -0.05643842
| 52> H    0.28552997  -3.45620927  -0.41777959
| 53> *
| 54>
| 55>                          ****END OF INPUT****

CARTESIAN COORDINATES (ANGSTROEM)
---------------------------------
  Ir     0.465875   -0.730597    0.876787
  C     -0.089125   -2.724964    1.633626
  C      0.763135   -2.080383    2.584822
  C      1.886257   -2.252285    0.570211
  C      0.601026   -2.840946    0.409608
  C      1.984407   -1.840110    1.929516
  N     -0.982665    0.015807   -0.411938
  C     -2.402494    0.061836    0.004384
  C     -2.889220    1.459971    0.330395
  H     -3.911993    1.465708    0.706550
  H     -2.828850    2.122063   -0.534076
  H     -2.324870    1.919770    1.136742
  C     -3.384026   -0.584430   -0.959915
  H     -2.454324   -0.499873    0.935739
  H     -4.365889   -0.687891   -0.503622
  H     -3.531494   -0.003906   -1.872717
  H     -3.056623   -1.585627   -1.244419
  C     -0.705565    0.277015   -1.634112
  C      0.578466    0.226985   -2.265797
  H     -1.512892    0.570146   -2.301643
  C      1.809066    0.039119   -1.700892
  C      2.878673    0.037393   -2.614521
  S      0.743434    0.112814   -3.977376
  C      2.427536   -0.026596   -3.900168
  H      2.263713    1.047914   -0.804343
  H      3.934373    0.023058   -2.383509
  H      3.029765   -0.147233   -4.787657
  H     -0.941347   -3.334408    1.894722
  H      0.535377   -1.982025    3.632963
  H      2.881111   -1.459040    2.385489
  O      1.705497    1.717406    0.761217
  O      0.056203    1.057750    1.929232
  C      0.792310    2.000714    1.587711
  C      0.755499    3.368961    2.155228
  H      0.822046    4.112303    1.362549
  H      1.603114    3.537823    2.821072
  H     -0.160178    3.506248    2.722369
  H      2.739150   -2.444263   -0.056438
  H      0.285530   -3.456209   -0.417780

 Total Charge           Charge          ....    1
 Multiplicity           Mult            ....    1
 Number of Electrons    NEL             ....  164
 Basis Dimension        Dim             ....  358

ORBITAL ENERGIES
----------------

  NO   OCC          E(Eh)            E(eV)
   0   2.0000     -89.751446     -2442.2610
   1   2.0000     -19.615042      -533.7524
   2   2.0000     -19.569177      -532.5044
   3   2.0000     -14.830303      -403.5530
   4   2.0000     -10.668618      -290.3079
   5   2.0000     -10.654742      -289.9303
   6   2.0000     -10.642882      -289.6076
   7   2.0000     -10.641755      -289.5769
   8   2.0000     -10.635181      -289.3980
   9   2.0000     -10.626455      -289.1606
  10   2.0000     -10.620267      -288.9922
  11   2.0000     -10.614566      -288.8370
  12   2.0000     -10.609306      -288.6939
  13   2.0000     -10.601560      -288.4831
  14   2.0000     -10.584419      -288.0167
  15   2.0000     -10.573886      -287.7301
  16   2.0000     -10.548291      -287.0336
  17   2.0000     -10.536705      -286.7183
  18   2.0000     -10.534420      -286.6562
  19   2.0000      -8.391121      -228.3340
  20   2.0000      -6.280967      -170.9138
  21   2.0000      -6.277556      -170.8210
  22   2.0000      -6.276028      -170.7794
  23   2.0000      -4.035293      -109.8059
  24   2.0000      -2.355730       -64.1027
  25   2.0000      -2.317727       -63.0686
  26   2.0000      -2.317518       -63.0629
  27   2.0000      -1.307024       -35.5659
  28   2.0000      -1.200055       -32.6552
  29   2.0000      -1.180107       -32.1123
  30   2.0000      -1.176135       -32.0043
  31   2.0000      -1.121564       -30.5193
  32   2.0000      -1.014451       -27.6046
  33   2.0000      -0.986598       -26.8467
  34   2.0000      -0.984575       -26.7916
  35   2.0000      -0.963232       -26.2109
  36   2.0000      -0.945590       -25.7308
  37   2.0000      -0.930166       -25.3111
  38   2.0000      -0.889871       -24.2146
  39   2.0000      -0.867126       -23.5957
  40   2.0000      -0.794794       -21.6274
  41   2.0000      -0.790017       -21.4975
  42   2.0000      -0.788359       -21.4523
  43   2.0000      -0.779795       -21.2193
  44   2.0000      -0.769841       -20.9484
  45   2.0000      -0.733535       -19.9605
  46   2.0000      -0.728491       -19.8232
  47   2.0000      -0.695849       -18.9350
  48   2.0000      -0.681183       -18.5359
  49   2.0000      -0.661295       -17.9948
  50   2.0000      -0.657541       -17.8926
  51   2.0000      -0.650704       -17.7065
  52   2.0000      -0.645338       -17.5605
  53   2.0000      -0.640384       -17.4257
  54   2.0000      -0.638547       -17.3757
  55   2.0000      -0.631329       -17.1793
  56   2.0000      -0.620057       -16.8726
  57   2.0000      -0.611239       -16.6327
  58   2.0000      -0.609504       -16.5854
  59   2.0000      -0.605361       -16.4727
  60   2.0000      -0.590587       -16.0707
  61   2.0000      -0.583143       -15.8681
  62   2.0000      -0.568414       -15.4673
  63   2.0000      -0.557889       -15.1809
  64   2.0000      -0.555723       -15.1220
  65   2.0000      -0.549567       -14.9545
  66   2.0000      -0.542816       -14.7708
  67   2.0000      -0.534868       -14.5545
  68   2.0000      -0.532259       -14.4835
  69   2.0000      -0.519628       -14.1398
  70   2.0000      -0.511093       -13.9075
  71   2.0000      -0.507666       -13.8143
  72   2.0000      -0.503732       -13.7072
  73   2.0000      -0.491918       -13.3858
  74   2.0000      -0.473944       -12.8967
  75   2.0000      -0.466411       -12.6917
  76   2.0000      -0.453948       -12.3526
  77   2.0000      -0.452066       -12.3014
  78   2.0000      -0.430513       -11.7149
  79   2.0000      -0.415984       -11.3195
  80   2.0000      -0.407199       -11.0804
  81   2.0000      -0.396951       -10.8016
  82   0.0000      -0.219754        -5.9798
  83   0.0000      -0.183594        -4.9958
  84   0.0000      -0.152282        -4.1438
  85   0.0000      -0.082855        -2.2546
  86   0.0000      -0.080675        -2.1953

MULLIKEN ATOMIC CHARGES
-----------------------
   0 Ir:    0.651387
   1 C :   -0.269511
   2 C :   -0.196683
   3 C :   -0.263584
   4 C :   -0.205752
   5 C :   -0.179269
   6 N :   -0.489289
   7 C :   -0.135172
   8 C :   -0.638152
   9 H :    0.251433
  10 H :    0.221690
  11 H :    0.265111
  12 C :   -0.664822
  13 H :    0.260873
  14 H :    0.267832
  15 H :    0.227415
  16 H :    0.240809
  17 C :    0.108304
  18 C :   -0.162473
  19 H :    0.269688
  20 C :   -0.325915
  21 C :   -0.138290
  22 S :    0.316468
  23 C :   -0.421038
  24 H :    0.332738
  25 H :    0.270439
  26 H :    0.296837
  27 H :    0.289810
  28 H :    0.298449
  29 H :    0.295497
  30 O :   -0.525242
  31 O :   -0.500422
  32 C :    0.632692
  33 C :   -0.753988
  34 H :    0.270207
  35 H :    0.277400
  36 H :    0.248783
  37 H :    0.289774
  38 H :    0.285964
Sum of atomic charges:    1.0000000

LOEWDIN ATOMIC CHARGES
----------------------
   0 Ir:   -0.141557
   1 C :   -0.026732
   2 C :   -0.007585
   3 C :   -0.016905
   4 C :   -0.068347
   5 C :   -0.066864
   6 N :   -0.036922
   7 C :   -0.064523
   8 C :   -0.354681
   9 H :    0.148473
  10 H :    0.133561
  11 H :    0.145957
  12 C :   -0.357941
  13 H :    0.147149
  14 H :    0.155749
  15 H :    0.133220
  16 H :    0.136013
  17 C :    0.039849
  18 C :   -0.225572
  19 H :    0.153846
  20 C :   -0.186275
  21 C :   -0.166132
  22 S :    0.475945
  23 C :   -0.259960
  24 H :    0.285321
  25 H :    0.159125
  26 H :    0.168295
  27 H :    0.185501
  28 H :    0.192086
  29 H :    0.186851
  30 O :   -0.308724
  31 O :   -0.186101
  32 C :    0.140167
  33 C :   -0.374127
  34 H :    0.166796
  35 H :    0.172641
  36 H :    0.149488
  37 H :    0.189422
  38 H :    0.183492

  Mayer bond orders larger than 0.100000
B(  0-Ir,  1-C ) :   0.5367 B(  0-Ir,  2-C ) :   0.4427 B(  0-Ir,  3-C ) :   0.5467
B(  0-Ir,  4-C ) :   0.4375 B(  0-Ir,  5-C ) :   0.4550 B(  0-Ir,  6-N ) :   0.4842
B(  0-Ir, 30-O ) :   0.2425 B(  0-Ir, 31-O ) :   0.5400 B(  1-C ,  2-C ) :   1.1324
B(  1-C ,  4-C ) :   1.1467 B(  1-C , 27-H ) :   0.9177 B(  2-C ,  5-C ) :   1.2107
B(  2-C , 28-H ) :   0.9094 B(  3-C ,  4-C ) :   1.1736 B(  3-C ,  5-C ) :   1.1002
B(  3-C , 37-H ) :   0.9192 B(  4-C , 38-H ) :   0.9148 B(  5-C , 29-H ) :   0.9068
B(  6-N ,  7-C ) :   0.8883 B(  6-N , 17-C ) :   1.6190 B(  7-C ,  8-C ) :   0.9771
B(  7-C , 12-C ) :   0.9858 B(  7-C , 13-H ) :   0.8923 B(  8-C ,  9-H ) :   0.9072
B(  8-C , 10-H ) :   0.9187 B(  8-C , 11-H ) :   0.9036 B( 12-C , 14-H ) :   0.9046
B( 12-C , 15-H ) :   0.9135 B( 12-C , 16-H ) :   0.9179 B( 17-C , 18-C ) :   1.1138
B( 17-C , 19-H ) :   0.8802 B( 18-C , 20-C ) :   1.3273 B( 18-C , 22-S ) :   1.1699
B( 20-C , 21-C ) :   1.3004 B( 20-C , 24-H ) :   0.7407 B( 21-C , 23-C ) :   1.4779
B( 21-C , 25-H ) :   0.9000 B( 22-S , 23-C ) :   1.2735 B( 23-C , 26-H ) :   0.8892
B( 30-O , 32-C ) :   1.5736 B( 31-O , 32-C ) :   1.3707 B( 32-C , 33-C ) :   0.9505
B( 33-C , 34-H ) :   0.9023 B( 33-C , 35-H ) :   0.8963 B( 33-C , 36-H ) :   0.9092

Dispersion correction           -0.029634466
FINAL SINGLE POINT ENERGY     -1288.295317346346
Dispersion correction            ... done

DIPOLE MOMENT
-------------
                                X             Y             Z
Electronic contribution:     25.20890     -71.56297     111.53026
Nuclear contribution   :    -25.48101      70.21599    -111.85705
                        -----------------------------------------
Total Dipole Moment    :     -0.27210      -1.34698      -0.32679
                        -----------------------------------------
Magnitude (a.u.)       :      1.41251
Magnitude (Debye)      :      3.59031

Rotational constants in cm-1:     0.010828     0.007757     0.007126
Rotational constants in MHz :   324.623997   232.552225   213.630463

                             ****ORCA TERMINATED NORMALLY****
TOTAL RUN TIME: 0 days 0 hours 18 minutes 56 seconds 83 msec
