                         Program Version 5.0.3 -  RELEASE  -
|  1> ! EnGrad PBEh-3c
|  2> %output
|  3> xyzfile=True
|  4> end
|  5> %scf
|  6> maxiter 250
|  7> end
|  8> %output
|  9> Print[P_Hirshfeld] = 1
| 10> end
| 11> % maxcore
| 12> 4000
| 13> *xyz 1 1
| 14> Ir   0.46469772  -0.68606026   0.90337759
| 15> C   -0.08872295  -2.72836105   1.63306755
| 16> C    0.76962741  -2.09975410   2.56051792
| 17> C    1.88126744  -2.30423713   0.59587843
| 18> C    0.63466779  -2.85406979   0.39161415
| 19> C    2.00028526  -1.82590337   1.96490148
| 20> N   -0.98240066  -0.00296620  -0.43108389
| 21> C   -2.43106867   0.06400442   0.03272109
| 22> C   -2.87615422   1.48215705   0.34888527
| 23> H   -3.91582036   1.45097982   0.70165128
| 24> H   -2.83167938   2.12137490  -0.52534931
| 25> H   -2.31438945   1.90940975   1.14493248
| 26> C   -3.37343754  -0.59680943  -0.98014842
| 27> H   -2.45150808  -0.51162410   0.93307731
| 28> H   -4.36610222  -0.68357661  -0.49859680
| 29> H   -3.53445006   0.00257363  -1.87037945
| 30> H   -3.06203392  -1.58298351  -1.25353241
| 31> C   -0.71285760   0.29604609  -1.66029273
| 32> C    0.57313085   0.19282526  -2.27658002
| 33> H   -1.52074449   0.56924418  -2.29921165
| 34> C    1.91348252   0.22058026  -1.57657077
| 35> C    2.86510946  -0.00930578  -2.63718564
| 36> S    0.72225165   0.10977548  -3.99571270
| 37> C    2.42960523  -0.02502345  -3.90684427
| 38> H    2.18904263   0.92194272  -0.85459896
| 39> H    3.92744939   0.02058953  -2.37112014
| 40> H    3.02478120  -0.13939318  -4.79074121
| 41> H   -0.96255128  -3.31540748   1.87683813
| 42> H    0.51700195  -1.96440367   3.63084087
| 43> H    2.87373477  -1.44756372   2.40334248
| 44> O    1.68906375   1.73406190   0.76992366
| 45> O   -0.01781127   1.01442133   1.96801006
| 46> C    0.92000996   1.98441576   1.50297691
| 47> C    0.72953482   3.37705933   2.16528451
| 48> H    0.82168319   4.11371928   1.35875459
| 49> H    1.60699606   3.53480373   2.81394993
| 50> H   -0.15714697   3.51717458   2.72234986
| 51> H    2.74826912  -2.41434598  -0.06256155
| 52> H    0.29637058  -3.44495371  -0.43166573
| 53> *
| 54>
| 55>                          ****END OF INPUT****

CARTESIAN COORDINATES (ANGSTROEM)
---------------------------------
  Ir     0.464698   -0.686060    0.903378
  C     -0.088723   -2.728361    1.633068
  C      0.769627   -2.099754    2.560518
  C      1.881267   -2.304237    0.595878
  C      0.634668   -2.854070    0.391614
  C      2.000285   -1.825903    1.964901
  N     -0.982401   -0.002966   -0.431084
  C     -2.431069    0.064004    0.032721
  C     -2.876154    1.482157    0.348885
  H     -3.915820    1.450980    0.701651
  H     -2.831679    2.121375   -0.525349
  H     -2.314389    1.909410    1.144932
  C     -3.373438   -0.596809   -0.980148
  H     -2.451508   -0.511624    0.933077
  H     -4.366102   -0.683577   -0.498597
  H     -3.534450    0.002574   -1.870379
  H     -3.062034   -1.582984   -1.253532
  C     -0.712858    0.296046   -1.660293
  C      0.573131    0.192825   -2.276580
  H     -1.520744    0.569244   -2.299212
  C      1.913483    0.220580   -1.576571
  C      2.865109   -0.009306   -2.637186
  S      0.722252    0.109775   -3.995713
  C      2.429605   -0.025023   -3.906844
  H      2.189043    0.921943   -0.854599
  H      3.927449    0.020590   -2.371120
  H      3.024781   -0.139393   -4.790741
  H     -0.962551   -3.315407    1.876838
  H      0.517002   -1.964404    3.630841
  H      2.873735   -1.447564    2.403342
  O      1.689064    1.734062    0.769924
  O     -0.017811    1.014421    1.968010
  C      0.920010    1.984416    1.502977
  C      0.729535    3.377059    2.165285
  H      0.821683    4.113719    1.358755
  H      1.606996    3.534804    2.813950
  H     -0.157147    3.517175    2.722350
  H      2.748269   -2.414346   -0.062562
  H      0.296371   -3.444954   -0.431666

 Total Charge           Charge          ....    1
 Multiplicity           Mult            ....    1
 Number of Electrons    NEL             ....  164
 Basis Dimension        Dim             ....  358

ORBITAL ENERGIES
----------------

  NO   OCC          E(Eh)            E(eV)
   0   2.0000     -89.760715     -2442.5132
   1   2.0000     -19.615123      -533.7546
   2   2.0000     -19.597200      -533.2669
   3   2.0000     -14.828182      -403.4953
   4   2.0000     -10.675946      -290.5073
   5   2.0000     -10.649771      -289.7950
   6   2.0000     -10.643447      -289.6229
   7   2.0000     -10.634641      -289.3833
   8   2.0000     -10.631314      -289.2928
   9   2.0000     -10.630886      -289.2811
  10   2.0000     -10.621666      -289.0302
  11   2.0000     -10.616878      -288.8999
  12   2.0000     -10.608264      -288.6655
  13   2.0000     -10.605671      -288.5950
  14   2.0000     -10.593810      -288.2722
  15   2.0000     -10.579445      -287.8813
  16   2.0000     -10.547072      -287.0004
  17   2.0000     -10.533994      -286.6446
  18   2.0000     -10.532586      -286.6062
  19   2.0000      -8.399395      -228.5592
  20   2.0000      -6.289408      -171.1435
  21   2.0000      -6.285965      -171.0498
  22   2.0000      -6.284089      -170.9988
  23   2.0000      -4.025360      -109.5356
  24   2.0000      -2.344425       -63.7950
  25   2.0000      -2.309115       -62.8342
  26   2.0000      -2.307033       -62.7776
  27   2.0000      -1.369026       -37.2531
  28   2.0000      -1.187156       -32.3042
  29   2.0000      -1.175312       -31.9819
  30   2.0000      -1.164107       -31.6770
  31   2.0000      -1.109216       -30.1833
  32   2.0000      -1.009494       -27.4697
  33   2.0000      -0.984636       -26.7933
  34   2.0000      -0.974695       -26.5228
  35   2.0000      -0.964117       -26.2350
  36   2.0000      -0.947080       -25.7714
  37   2.0000      -0.916647       -24.9432
  38   2.0000      -0.889094       -24.1935
  39   2.0000      -0.864157       -23.5149
  40   2.0000      -0.793365       -21.5885
  41   2.0000      -0.786428       -21.3998
  42   2.0000      -0.783495       -21.3200
  43   2.0000      -0.772348       -21.0167
  44   2.0000      -0.765594       -20.8329
  45   2.0000      -0.750125       -20.4119
  46   2.0000      -0.721375       -19.6296
  47   2.0000      -0.703870       -19.1533
  48   2.0000      -0.679826       -18.4990
  49   2.0000      -0.672835       -18.3088
  50   2.0000      -0.660863       -17.9830
  51   2.0000      -0.651946       -17.7403
  52   2.0000      -0.648847       -17.6560
  53   2.0000      -0.642914       -17.4946
  54   2.0000      -0.639561       -17.4033
  55   2.0000      -0.631733       -17.1903
  56   2.0000      -0.617407       -16.8005
  57   2.0000      -0.605098       -16.4656
  58   2.0000      -0.603083       -16.4107
  59   2.0000      -0.601602       -16.3704
  60   2.0000      -0.595829       -16.2133
  61   2.0000      -0.589034       -16.0284
  62   2.0000      -0.569424       -15.4948
  63   2.0000      -0.564041       -15.3483
  64   2.0000      -0.555664       -15.1204
  65   2.0000      -0.549242       -14.9456
  66   2.0000      -0.542751       -14.7690
  67   2.0000      -0.539639       -14.6843
  68   2.0000      -0.532320       -14.4852
  69   2.0000      -0.527889       -14.3646
  70   2.0000      -0.521026       -14.1778
  71   2.0000      -0.513344       -13.9688
  72   2.0000      -0.509882       -13.8746
  73   2.0000      -0.496571       -13.5124
  74   2.0000      -0.484846       -13.1933
  75   2.0000      -0.471798       -12.8383
  76   2.0000      -0.464015       -12.6265
  77   2.0000      -0.442641       -12.0449
  78   2.0000      -0.430762       -11.7216
  79   2.0000      -0.419598       -11.4178
  80   2.0000      -0.414342       -11.2748
  81   2.0000      -0.391861       -10.6631
  82   0.0000      -0.222011        -6.0412
  83   0.0000      -0.187695        -5.1074
  84   0.0000      -0.139949        -3.8082
  85   0.0000      -0.081367        -2.2141
  86   0.0000      -0.078562        -2.1378

MULLIKEN ATOMIC CHARGES
-----------------------
   0 Ir:    0.629607
   1 C :   -0.254381
   2 C :   -0.200053
   3 C :   -0.259973
   4 C :   -0.199765
   5 C :   -0.201121
   6 N :   -0.482475
   7 C :   -0.127979
   8 C :   -0.635945
   9 H :    0.243163
  10 H :    0.219485
  11 H :    0.281315
  12 C :   -0.669559
  13 H :    0.266353
  14 H :    0.259839
  15 H :    0.229781
  16 H :    0.248871
  17 C :    0.102098
  18 C :   -0.279624
  19 H :    0.270487
  20 C :   -0.265462
  21 C :   -0.168729
  22 S :    0.329012
  23 C :   -0.394108
  24 H :    0.360937
  25 H :    0.261820
  26 H :    0.297509
  27 H :    0.289114
  28 H :    0.299711
  29 H :    0.289851
  30 O :   -0.303114
  31 O :   -0.595788
  32 C :    0.557191
  33 C :   -0.753547
  34 H :    0.252154
  35 H :    0.259951
  36 H :    0.272830
  37 H :    0.287346
  38 H :    0.283197
Sum of atomic charges:    1.0000000

LOEWDIN ATOMIC CHARGES
----------------------
   0 Ir:   -0.159305
   1 C :   -0.014322
   2 C :   -0.021587
   3 C :   -0.027852
   4 C :   -0.075332
   5 C :   -0.074116
   6 N :   -0.041070
   7 C :   -0.050330
   8 C :   -0.353105
   9 H :    0.146909
  10 H :    0.133175
  11 H :    0.152427
  12 C :   -0.360685
  13 H :    0.148188
  14 H :    0.154284
  15 H :    0.133820
  16 H :    0.138135
  17 C :    0.019569
  18 C :   -0.207766
  19 H :    0.152498
  20 C :   -0.147919
  21 C :   -0.153956
  22 S :    0.479244
  23 C :   -0.258826
  24 H :    0.204266
  25 H :    0.156406
  26 H :    0.170541
  27 H :    0.185692
  28 H :    0.192939
  29 H :    0.183810
  30 O :   -0.076567
  31 O :   -0.315438
  32 C :    0.130280
  33 C :   -0.384563
  34 H :    0.156539
  35 H :    0.163520
  36 H :    0.153920
  37 H :    0.184735
  38 H :    0.181842

  Mayer bond orders larger than 0.100000
B(  0-Ir,  1-C ) :   0.5643 B(  0-Ir,  2-C ) :   0.4089 B(  0-Ir,  3-C ) :   0.4798
B(  0-Ir,  4-C ) :   0.3664 B(  0-Ir,  5-C ) :   0.4644 B(  0-Ir,  6-N ) :   0.4962
B(  0-Ir, 30-O ) :   0.1563 B(  0-Ir, 31-O ) :   0.7071 B(  1-C ,  2-C ) :   1.1374
B(  1-C ,  4-C ) :   1.1322 B(  1-C , 27-H ) :   0.9173 B(  2-C ,  5-C ) :   1.2382
B(  2-C , 28-H ) :   0.9055 B(  3-C ,  4-C ) :   1.2477 B(  3-C ,  5-C ) :   1.0909
B(  3-C , 37-H ) :   0.9137 B(  4-C , 38-H ) :   0.9169 B(  5-C , 29-H ) :   0.9115
B(  6-N ,  7-C ) :   0.8624 B(  6-N , 17-C ) :   1.6259 B(  7-C ,  8-C ) :   0.9829
B(  7-C , 12-C ) :   0.9857 B(  7-C , 13-H ) :   0.8915 B(  8-C ,  9-H ) :   0.9086
B(  8-C , 10-H ) :   0.9198 B(  8-C , 11-H ) :   0.8939 B( 12-C , 14-H ) :   0.9077
B( 12-C , 15-H ) :   0.9132 B( 12-C , 16-H ) :   0.9143 B( 17-C , 18-C ) :   1.1252
B( 17-C , 19-H ) :   0.8813 B( 18-C , 20-C ) :   1.3506 B( 18-C , 22-S ) :   1.2115
B( 20-C , 21-C ) :   1.3072 B( 20-C , 24-H ) :   0.7959 B( 21-C , 23-C ) :   1.5219
B( 21-C , 25-H ) :   0.9030 B( 22-S , 23-C ) :   1.2210 B( 23-C , 26-H ) :   0.8919
B( 30-O , 32-C ) :   1.9394 B( 31-O , 32-C ) :   1.0633 B( 32-C , 33-C ) :   0.9299
B( 33-C , 34-H ) :   0.9077 B( 33-C , 35-H ) :   0.9039 B( 33-C , 36-H ) :   0.9046

Dispersion correction           -0.029330329
FINAL SINGLE POINT ENERGY     -1288.301075709231
Dispersion correction            ... done

DIPOLE MOMENT
-------------
                                X             Y             Z
Electronic contribution:     25.31551     -67.06715     113.69255
Nuclear contribution   :    -25.33750      65.85705    -114.40596
                        -----------------------------------------
Total Dipole Moment    :     -0.02199      -1.21010      -0.71342
                        -----------------------------------------
Magnitude (a.u.)       :      1.40492
Magnitude (Debye)      :      3.57102

Rotational constants in cm-1:     0.010804     0.007710     0.007091
Rotational constants in MHz :   323.910518   231.146600   212.573805

                             ****ORCA TERMINATED NORMALLY****
TOTAL RUN TIME: 0 days 0 hours 19 minutes 34 seconds 775 msec
