                         Program Version 5.0.3 -  RELEASE  -
|  1> ! EnGrad PBEh-3c
|  2> %output
|  3> xyzfile=True
|  4> end
|  5> %scf
|  6> maxiter 250
|  7> end
|  8> %output
|  9> Print[P_Hirshfeld] = 1
| 10> end
| 11> % maxcore
| 12> 4000
| 13> *xyz 1 1
| 14> Ir   0.46029595  -0.69410030   0.90523240
| 15> C   -0.08694941  -2.72786011   1.62581965
| 16> C    0.76849859  -2.09632341   2.57371794
| 17> C    1.89291375  -2.29943663   0.59537399
| 18> C    0.62807762  -2.85531106   0.39729893
| 19> C    1.99337427  -1.83021166   1.95561160
| 20> N   -0.98347737  -0.00049729  -0.43176065
| 21> C   -2.42594940   0.06539525   0.02488457
| 22> C   -2.88081773   1.47739594   0.34714185
| 23> H   -3.91450741   1.45184045   0.70136329
| 24> H   -2.83134306   2.12221995  -0.52595531
| 25> H   -2.31190701   1.91132267   1.14784351
| 26> C   -3.37804121  -0.59229950  -0.97392827
| 27> H   -2.45184691  -0.51328930   0.93626242
| 28> H   -4.36373991  -0.68387912  -0.50044082
| 29> H   -3.53415354   0.00294498  -1.87135598
| 30> H   -3.06059459  -1.58625208  -1.25463352
| 31> C   -0.71105630   0.29182757  -1.65414142
| 32> C    0.58871004   0.19935578  -2.26438483
| 33> H   -1.52390956   0.57062117  -2.30193514
| 34> C    1.88814645   0.19983922  -1.61987980
| 35> C    2.87208607  -0.00170806  -2.62184313
| 36> S    0.72558690   0.10802499  -3.99023203
| 37> C    2.42397252  -0.02701063  -3.90809098
| 38> H    2.19569485   0.93370488  -0.84087015
| 39> H    3.92598242   0.01972339  -2.37398570
| 40> H    3.02558574  -0.13979970  -4.79172345
| 41> H   -0.96332905  -3.31376847   1.87670406
| 42> H    0.51788035  -1.96467005   3.62562323
| 43> H    2.87859166  -1.44534949   2.40637347
| 44> O    1.74488199   1.71597645   0.71850534
| 45> O    0.00219638   1.02594569   1.95610528
| 46> C    0.84102796   1.99797871   1.57125957
| 47> C    0.74176668   3.37183535   2.15753438
| 48> H    0.82086042   4.11395150   1.36017155
| 49> H    1.60498184   3.53535169   2.81353063
| 50> H   -0.16208804   3.51603118   2.72456408
| 51> H    2.74538039  -2.41372633  -0.06107325
| 52> H    0.29638721  -3.44527828  -0.43395898
| 53> *
| 54>
| 55>                          ****END OF INPUT****

CARTESIAN COORDINATES (ANGSTROEM)
---------------------------------
  Ir     0.460296   -0.694100    0.905232
  C     -0.086949   -2.727860    1.625820
  C      0.768499   -2.096323    2.573718
  C      1.892914   -2.299437    0.595374
  C      0.628078   -2.855311    0.397299
  C      1.993374   -1.830212    1.955612
  N     -0.983477   -0.000497   -0.431761
  C     -2.425949    0.065395    0.024885
  C     -2.880818    1.477396    0.347142
  H     -3.914507    1.451840    0.701363
  H     -2.831343    2.122220   -0.525955
  H     -2.311907    1.911323    1.147844
  C     -3.378041   -0.592299   -0.973928
  H     -2.451847   -0.513289    0.936262
  H     -4.363740   -0.683879   -0.500441
  H     -3.534154    0.002945   -1.871356
  H     -3.060595   -1.586252   -1.254634
  C     -0.711056    0.291828   -1.654141
  C      0.588710    0.199356   -2.264385
  H     -1.523910    0.570621   -2.301935
  C      1.888146    0.199839   -1.619880
  C      2.872086   -0.001708   -2.621843
  S      0.725587    0.108025   -3.990232
  C      2.423973   -0.027011   -3.908091
  H      2.195695    0.933705   -0.840870
  H      3.925982    0.019723   -2.373986
  H      3.025586   -0.139800   -4.791723
  H     -0.963329   -3.313768    1.876704
  H      0.517880   -1.964670    3.625623
  H      2.878592   -1.445349    2.406373
  O      1.744882    1.715976    0.718505
  O      0.002196    1.025946    1.956105
  C      0.841028    1.997979    1.571260
  C      0.741767    3.371835    2.157534
  H      0.820860    4.113951    1.360172
  H      1.604982    3.535352    2.813531
  H     -0.162088    3.516031    2.724564
  H      2.745380   -2.413726   -0.061073
  H      0.296387   -3.445278   -0.433959

 Total Charge           Charge          ....    1
 Multiplicity           Mult            ....    1
 Number of Electrons    NEL             ....  164
 Basis Dimension        Dim             ....  358

ORBITAL ENERGIES
----------------

  NO   OCC          E(Eh)            E(eV)
   0   2.0000     -89.753135     -2442.3070
   1   2.0000     -19.623494      -533.9824
   2   2.0000     -19.591769      -533.1191
   3   2.0000     -14.826607      -403.4525
   4   2.0000     -10.688744      -290.8555
   5   2.0000     -10.650350      -289.8108
   6   2.0000     -10.643847      -289.6338
   7   2.0000     -10.638326      -289.4836
   8   2.0000     -10.635363      -289.4029
   9   2.0000     -10.626674      -289.1665
  10   2.0000     -10.620377      -288.9952
  11   2.0000     -10.620217      -288.9908
  12   2.0000     -10.609797      -288.7073
  13   2.0000     -10.601823      -288.4903
  14   2.0000     -10.581001      -287.9237
  15   2.0000     -10.571346      -287.6609
  16   2.0000     -10.547892      -287.0227
  17   2.0000     -10.542212      -286.8682
  18   2.0000     -10.535929      -286.6972
  19   2.0000      -8.392045      -228.3592
  20   2.0000      -6.282066      -170.9437
  21   2.0000      -6.278622      -170.8500
  22   2.0000      -6.276736      -170.7987
  23   2.0000      -4.030721      -109.6815
  24   2.0000      -2.349979       -63.9462
  25   2.0000      -2.313294       -62.9479
  26   2.0000      -2.312965       -62.9390
  27   2.0000      -1.279980       -34.8300
  28   2.0000      -1.189367       -32.3643
  29   2.0000      -1.180487       -32.1227
  30   2.0000      -1.175046       -31.9746
  31   2.0000      -1.107770       -30.1440
  32   2.0000      -1.009612       -27.4729
  33   2.0000      -0.986785       -26.8518
  34   2.0000      -0.978476       -26.6257
  35   2.0000      -0.958252       -26.0753
  36   2.0000      -0.945074       -25.7168
  37   2.0000      -0.933984       -25.4150
  38   2.0000      -0.889982       -24.2177
  39   2.0000      -0.860591       -23.4179
  40   2.0000      -0.790377       -21.5073
  41   2.0000      -0.788089       -21.4450
  42   2.0000      -0.786109       -21.3911
  43   2.0000      -0.777153       -21.1474
  44   2.0000      -0.765065       -20.8185
  45   2.0000      -0.738871       -20.1057
  46   2.0000      -0.727970       -19.8091
  47   2.0000      -0.706438       -19.2232
  48   2.0000      -0.680437       -18.5156
  49   2.0000      -0.659462       -17.9449
  50   2.0000      -0.652411       -17.7530
  51   2.0000      -0.648105       -17.6358
  52   2.0000      -0.641362       -17.4523
  53   2.0000      -0.637327       -17.3425
  54   2.0000      -0.630978       -17.1698
  55   2.0000      -0.627911       -17.0863
  56   2.0000      -0.612285       -16.6611
  57   2.0000      -0.609408       -16.5828
  58   2.0000      -0.608067       -16.5463
  59   2.0000      -0.600144       -16.3308
  60   2.0000      -0.588711       -16.0196
  61   2.0000      -0.585705       -15.9379
  62   2.0000      -0.565464       -15.3870
  63   2.0000      -0.560538       -15.2530
  64   2.0000      -0.553944       -15.0736
  65   2.0000      -0.550126       -14.9697
  66   2.0000      -0.546780       -14.8786
  67   2.0000      -0.540716       -14.7136
  68   2.0000      -0.531345       -14.4586
  69   2.0000      -0.523245       -14.2382
  70   2.0000      -0.520490       -14.1632
  71   2.0000      -0.512077       -13.9343
  72   2.0000      -0.504864       -13.7380
  73   2.0000      -0.502912       -13.6849
  74   2.0000      -0.477346       -12.9892
  75   2.0000      -0.473040       -12.8721
  76   2.0000      -0.463487       -12.6121
  77   2.0000      -0.451446       -12.2845
  78   2.0000      -0.435227       -11.8431
  79   2.0000      -0.419689       -11.4203
  80   2.0000      -0.412469       -11.2239
  81   2.0000      -0.391171       -10.6443
  82   0.0000      -0.220193        -5.9917
  83   0.0000      -0.180468        -4.9108
  84   0.0000      -0.147577        -4.0158
  85   0.0000      -0.082216        -2.2372
  86   0.0000      -0.079334        -2.1588

MULLIKEN ATOMIC CHARGES
-----------------------
   0 Ir:    0.657256
   1 C :   -0.270859
   2 C :   -0.193520
   3 C :   -0.246844
   4 C :   -0.197189
   5 C :   -0.205668
   6 N :   -0.485021
   7 C :   -0.130398
   8 C :   -0.633193
   9 H :    0.246664
  10 H :    0.221970
  11 H :    0.269994
  12 C :   -0.667355
  13 H :    0.262114
  14 H :    0.262289
  15 H :    0.229186
  16 H :    0.246095
  17 C :    0.101590
  18 C :   -0.264642
  19 H :    0.270378
  20 C :   -0.271156
  21 C :   -0.167388
  22 S :    0.318133
  23 C :   -0.400816
  24 H :    0.370465
  25 H :    0.263295
  26 H :    0.294961
  27 H :    0.289688
  28 H :    0.300081
  29 H :    0.294316
  30 O :   -0.497004
  31 O :   -0.550333
  32 C :    0.645941
  33 C :   -0.753220
  34 H :    0.272999
  35 H :    0.276417
  36 H :    0.263354
  37 H :    0.291175
  38 H :    0.286246
Sum of atomic charges:    1.0000000

LOEWDIN ATOMIC CHARGES
----------------------
   0 Ir:   -0.138113
   1 C :   -0.025524
   2 C :   -0.017080
   3 C :   -0.018691
   4 C :   -0.069109
   5 C :   -0.072346
   6 N :   -0.045383
   7 C :   -0.054290
   8 C :   -0.352879
   9 H :    0.147652
  10 H :    0.134305
  11 H :    0.148410
  12 C :   -0.359915
  13 H :    0.146784
  14 H :    0.154192
  15 H :    0.133780
  16 H :    0.138018
  17 C :    0.028476
  18 C :   -0.216502
  19 H :    0.152900
  20 C :   -0.156741
  21 C :   -0.159713
  22 S :    0.470238
  23 C :   -0.258027
  24 H :    0.227216
  25 H :    0.155988
  26 H :    0.168539
  27 H :    0.185580
  28 H :    0.192075
  29 H :    0.186914
  30 O :   -0.283533
  31 O :   -0.242105
  32 C :    0.207034
  33 C :   -0.376118
  34 H :    0.168776
  35 H :    0.173783
  36 H :    0.154922
  37 H :    0.186900
  38 H :    0.183586

  Mayer bond orders larger than 0.100000
B(  0-Ir,  1-C ) :   0.5531 B(  0-Ir,  2-C ) :   0.4226 B(  0-Ir,  3-C ) :   0.4929
B(  0-Ir,  4-C ) :   0.3908 B(  0-Ir,  5-C ) :   0.4562 B(  0-Ir,  6-N ) :   0.4949
B(  0-Ir, 30-O ) :   0.2220 B(  0-Ir, 31-O ) :   0.6064 B(  1-C ,  2-C ) :   1.1342
B(  1-C ,  4-C ) :   1.1355 B(  1-C , 27-H ) :   0.9173 B(  2-C ,  5-C ) :   1.2294
B(  2-C , 28-H ) :   0.9063 B(  3-C ,  4-C ) :   1.2268 B(  3-C ,  5-C ) :   1.0999
B(  3-C , 37-H ) :   0.9140 B(  4-C , 38-H ) :   0.9155 B(  5-C , 29-H ) :   0.9096
B(  6-N ,  7-C ) :   0.8688 B(  6-N , 17-C ) :   1.6256 B(  7-C ,  8-C ) :   0.9815
B(  7-C , 12-C ) :   0.9860 B(  7-C , 13-H ) :   0.8924 B(  8-C ,  9-H ) :   0.9076
B(  8-C , 10-H ) :   0.9189 B(  8-C , 11-H ) :   0.9003 B( 12-C , 14-H ) :   0.9063
B( 12-C , 15-H ) :   0.9131 B( 12-C , 16-H ) :   0.9159 B( 17-C , 18-C ) :   1.1208
B( 17-C , 19-H ) :   0.8808 B( 18-C , 20-C ) :   1.3671 B( 18-C , 22-S ) :   1.1882
B( 20-C , 21-C ) :   1.3112 B( 20-C , 24-H ) :   0.7786 B( 21-C , 23-C ) :   1.5016
B( 21-C , 25-H ) :   0.9035 B( 22-S , 23-C ) :   1.2422 B( 23-C , 26-H ) :   0.8927
B( 30-O , 32-C ) :   1.6411 B( 31-O , 32-C ) :   1.2406 B( 32-C , 33-C ) :   0.9547
B( 33-C , 34-H ) :   0.8989 B( 33-C , 35-H ) :   0.8936 B( 33-C , 36-H ) :   0.9040

Dispersion correction           -0.029299813
FINAL SINGLE POINT ENERGY     -1288.356144838452
Dispersion correction            ... done

DIPOLE MOMENT
-------------
                                X             Y             Z
Electronic contribution:     24.52345     -67.84533     114.34548
Nuclear contribution   :    -24.80930      66.60617    -114.64901
                        -----------------------------------------
Total Dipole Moment    :     -0.28585      -1.23915      -0.30353
                        -----------------------------------------
Magnitude (a.u.)       :      1.30742
Magnitude (Debye)      :      3.32319

Rotational constants in cm-1:     0.010802     0.007710     0.007088
Rotational constants in MHz :   323.847982   231.151995   212.503793

                             ****ORCA TERMINATED NORMALLY****
TOTAL RUN TIME: 0 days 0 hours 21 minutes 55 seconds 143 msec
