                         Program Version 5.0.3 -  RELEASE  -
|  1> ! EnGrad PBEh-3c
|  2> %output
|  3> xyzfile=True
|  4> end
|  5> %scf
|  6> maxiter 250
|  7> end
|  8> %output
|  9> Print[P_Hirshfeld] = 1
| 10> end
| 11> % maxcore
| 12> 4000
| 13> *xyz 1 1
| 14> Ir   0.45819415  -0.69379557   0.91103475
| 15> C   -0.08603961  -2.72800493   1.61994993
| 16> C    0.76713295  -2.09767994   2.57824225
| 17> C    1.90108493  -2.30479905   0.60135675
| 18> C    0.63108460  -2.85830055   0.39894572
| 19> C    1.99191625  -1.83050351   1.95602878
| 20> N   -0.98573684  -0.00207567  -0.43457938
| 21> C   -2.42599878   0.06587852   0.02316325
| 22> C   -2.88193646   1.47678564   0.35001280
| 23> H   -3.91438568   1.44928023   0.70089300
| 24> H   -2.83147196   2.12297257  -0.52350669
| 25> H   -2.30766313   1.91004380   1.15304590
| 26> C   -3.38023783  -0.59060254  -0.97256258
| 27> H   -2.45177799  -0.51763701   0.93788606
| 28> H   -4.36213665  -0.68323669  -0.50120794
| 29> H   -3.53479296   0.00525028  -1.87159418
| 30> H   -3.06086307  -1.58782391  -1.25804849
| 31> C   -0.70902838   0.29161174  -1.65477372
| 32> C    0.60119580   0.19945375  -2.25483757
| 33> H   -1.52819814   0.57156788  -2.30414138
| 34> C    1.88425599   0.22053503  -1.63320911
| 35> C    2.87424037  -0.00351696  -2.61697528
| 36> S    0.72515312   0.10550590  -3.98736139
| 37> C    2.42016361  -0.02923559  -3.90730434
| 38> H    2.18475535   0.91495505  -0.84128941
| 39> H    3.92418128   0.01799332  -2.37341854
| 40> H    3.02516752  -0.13841892  -4.79305107
| 41> H   -0.96805413  -3.30808166   1.87100706
| 42> H    0.51292198  -1.96109323   3.62098920
| 43> H    2.87937604  -1.44110027   2.41380910
| 44> O    1.74402810   1.71691202   0.71951519
| 45> O    0.01058335   1.03628177   1.95156674
| 46> C    0.83946924   1.98389704   1.56976681
| 47> C    0.74465497   3.37006526   2.15482767
| 48> H    0.82032622   4.11433129   1.35988100
| 49> H    1.60462157   3.53540627   2.81111844
| 50> H   -0.16399766   3.51748596   2.72548142
| 51> H    2.74642170  -2.40630453  -0.06012400
| 52> H    0.30035290  -3.44314503  -0.43968116
| 53> *
| 54>
| 55>                          ****END OF INPUT****

CARTESIAN COORDINATES (ANGSTROEM)
---------------------------------
  Ir     0.458194   -0.693796    0.911035
  C     -0.086040   -2.728005    1.619950
  C      0.767133   -2.097680    2.578242
  C      1.901085   -2.304799    0.601357
  C      0.631085   -2.858301    0.398946
  C      1.991916   -1.830504    1.956029
  N     -0.985737   -0.002076   -0.434579
  C     -2.425999    0.065879    0.023163
  C     -2.881936    1.476786    0.350013
  H     -3.914386    1.449280    0.700893
  H     -2.831472    2.122973   -0.523507
  H     -2.307663    1.910044    1.153046
  C     -3.380238   -0.590603   -0.972563
  H     -2.451778   -0.517637    0.937886
  H     -4.362137   -0.683237   -0.501208
  H     -3.534793    0.005250   -1.871594
  H     -3.060863   -1.587824   -1.258048
  C     -0.709028    0.291612   -1.654774
  C      0.601196    0.199454   -2.254838
  H     -1.528198    0.571568   -2.304141
  C      1.884256    0.220535   -1.633209
  C      2.874240   -0.003517   -2.616975
  S      0.725153    0.105506   -3.987361
  C      2.420164   -0.029236   -3.907304
  H      2.184755    0.914955   -0.841289
  H      3.924181    0.017993   -2.373419
  H      3.025168   -0.138419   -4.793051
  H     -0.968054   -3.308082    1.871007
  H      0.512922   -1.961093    3.620989
  H      2.879376   -1.441100    2.413809
  O      1.744028    1.716912    0.719515
  O      0.010583    1.036282    1.951567
  C      0.839469    1.983897    1.569767
  C      0.744655    3.370065    2.154828
  H      0.820326    4.114331    1.359881
  H      1.604622    3.535406    2.811118
  H     -0.163998    3.517486    2.725481
  H      2.746422   -2.406305   -0.060124
  H      0.300353   -3.443145   -0.439681

 Total Charge           Charge          ....    1
 Multiplicity           Mult            ....    1
 Number of Electrons    NEL             ....  164
 Basis Dimension        Dim             ....  358

ORBITAL ENERGIES
----------------

  NO   OCC          E(Eh)            E(eV)
   0   2.0000     -89.751254     -2442.2558
   1   2.0000     -19.625721      -534.0430
   2   2.0000     -19.589491      -533.0572
   3   2.0000     -14.827168      -403.4677
   4   2.0000     -10.685985      -290.7804
   5   2.0000     -10.651947      -289.8542
   6   2.0000     -10.645142      -289.6690
   7   2.0000     -10.639798      -289.5236
   8   2.0000     -10.637795      -289.4691
   9   2.0000     -10.628815      -289.2248
  10   2.0000     -10.622614      -289.0560
  11   2.0000     -10.618070      -288.9324
  12   2.0000     -10.610800      -288.7345
  13   2.0000     -10.601875      -288.4917
  14   2.0000     -10.577519      -287.8289
  15   2.0000     -10.570120      -287.6276
  16   2.0000     -10.548535      -287.0402
  17   2.0000     -10.540375      -286.8182
  18   2.0000     -10.536943      -286.7248
  19   2.0000      -8.390252      -228.3104
  20   2.0000      -6.280305      -170.8958
  21   2.0000      -6.276850      -170.8018
  22   2.0000      -6.274876      -170.7481
  23   2.0000      -4.032156      -109.7205
  24   2.0000      -2.351460       -63.9865
  25   2.0000      -2.314689       -62.9859
  26   2.0000      -2.314332       -62.9762
  27   2.0000      -1.287996       -35.0482
  28   2.0000      -1.190493       -32.3950
  29   2.0000      -1.184901       -32.2428
  30   2.0000      -1.177162       -32.0322
  31   2.0000      -1.108815       -30.1724
  32   2.0000      -1.009866       -27.4799
  33   2.0000      -0.987911       -26.8824
  34   2.0000      -0.980287       -26.6750
  35   2.0000      -0.957068       -26.0431
  36   2.0000      -0.947137       -25.7729
  37   2.0000      -0.929064       -25.2811
  38   2.0000      -0.890230       -24.2244
  39   2.0000      -0.860395       -23.4125
  40   2.0000      -0.790400       -21.5079
  41   2.0000      -0.789559       -21.4850
  42   2.0000      -0.787241       -21.4219
  43   2.0000      -0.778463       -21.1831
  44   2.0000      -0.765617       -20.8335
  45   2.0000      -0.739569       -20.1247
  46   2.0000      -0.729552       -19.8521
  47   2.0000      -0.709216       -19.2987
  48   2.0000      -0.680749       -18.5241
  49   2.0000      -0.659375       -17.9425
  50   2.0000      -0.653138       -17.7728
  51   2.0000      -0.649490       -17.6735
  52   2.0000      -0.642403       -17.4807
  53   2.0000      -0.638317       -17.3695
  54   2.0000      -0.632126       -17.2010
  55   2.0000      -0.629315       -17.1245
  56   2.0000      -0.613327       -16.6895
  57   2.0000      -0.611027       -16.6269
  58   2.0000      -0.609806       -16.5937
  59   2.0000      -0.600342       -16.3361
  60   2.0000      -0.588458       -16.0127
  61   2.0000      -0.585759       -15.9393
  62   2.0000      -0.565218       -15.3804
  63   2.0000      -0.560972       -15.2648
  64   2.0000      -0.555914       -15.1272
  65   2.0000      -0.550763       -14.9870
  66   2.0000      -0.547546       -14.8995
  67   2.0000      -0.541193       -14.7266
  68   2.0000      -0.531908       -14.4740
  69   2.0000      -0.522886       -14.2285
  70   2.0000      -0.521058       -14.1787
  71   2.0000      -0.512685       -13.9509
  72   2.0000      -0.505378       -13.7520
  73   2.0000      -0.504117       -13.7177
  74   2.0000      -0.478505       -13.0208
  75   2.0000      -0.473669       -12.8892
  76   2.0000      -0.463093       -12.6014
  77   2.0000      -0.452717       -12.3191
  78   2.0000      -0.436751       -11.8846
  79   2.0000      -0.420739       -11.4489
  80   2.0000      -0.411989       -11.2108
  81   2.0000      -0.392443       -10.6789
  82   0.0000      -0.221337        -6.0229
  83   0.0000      -0.178363        -4.8535
  84   0.0000      -0.149786        -4.0759
  85   0.0000      -0.082978        -2.2580
  86   0.0000      -0.080970        -2.2033

MULLIKEN ATOMIC CHARGES
-----------------------
   0 Ir:    0.650102
   1 C :   -0.273920
   2 C :   -0.189110
   3 C :   -0.237328
   4 C :   -0.197440
   5 C :   -0.213938
   6 N :   -0.482623
   7 C :   -0.130936
   8 C :   -0.631976
   9 H :    0.247573
  10 H :    0.222115
  11 H :    0.269047
  12 C :   -0.666660
  13 H :    0.260557
  14 H :    0.263600
  15 H :    0.228785
  16 H :    0.244836
  17 C :    0.095695
  18 C :   -0.264505
  19 H :    0.271396
  20 C :   -0.264666
  21 C :   -0.169346
  22 S :    0.313573
  23 C :   -0.402973
  24 H :    0.374821
  25 H :    0.263254
  26 H :    0.294708
  27 H :    0.290340
  28 H :    0.300947
  29 H :    0.295744
  30 O :   -0.496552
  31 O :   -0.538469
  32 C :    0.640136
  33 C :   -0.752543
  34 H :    0.271804
  35 H :    0.274747
  36 H :    0.258898
  37 H :    0.292730
  38 H :    0.287580
Sum of atomic charges:    1.0000000

LOEWDIN ATOMIC CHARGES
----------------------
   0 Ir:   -0.135416
   1 C :   -0.026511
   2 C :   -0.015760
   3 C :   -0.015261
   4 C :   -0.068496
   5 C :   -0.072897
   6 N :   -0.046612
   7 C :   -0.055212
   8 C :   -0.352539
   9 H :    0.147857
  10 H :    0.134503
  11 H :    0.148617
  12 C :   -0.359821
  13 H :    0.146383
  14 H :    0.154225
  15 H :    0.133674
  16 H :    0.137976
  17 C :    0.030637
  18 C :   -0.216880
  19 H :    0.153589
  20 C :   -0.152208
  21 C :   -0.161310
  22 S :    0.465052
  23 C :   -0.256665
  24 H :    0.221969
  25 H :    0.155763
  26 H :    0.168407
  27 H :    0.185884
  28 H :    0.191850
  29 H :    0.188038
  30 O :   -0.282462
  31 O :   -0.224774
  32 C :    0.192273
  33 C :   -0.377129
  34 H :    0.167108
  35 H :    0.171685
  36 H :    0.152903
  37 H :    0.187139
  38 H :    0.184418

  Mayer bond orders larger than 0.100000
B(  0-Ir,  1-C ) :   0.5534 B(  0-Ir,  2-C ) :   0.4271 B(  0-Ir,  3-C ) :   0.4900
B(  0-Ir,  4-C ) :   0.3899 B(  0-Ir,  5-C ) :   0.4558 B(  0-Ir,  6-N ) :   0.4943
B(  0-Ir, 30-O ) :   0.2294 B(  0-Ir, 31-O ) :   0.5985 B(  1-C ,  2-C ) :   1.1318
B(  1-C ,  4-C ) :   1.1361 B(  1-C , 27-H ) :   0.9170 B(  2-C ,  5-C ) :   1.2280
B(  2-C , 28-H ) :   0.9060 B(  3-C ,  4-C ) :   1.2274 B(  3-C ,  5-C ) :   1.1023
B(  3-C , 37-H ) :   0.9128 B(  4-C , 38-H ) :   0.9147 B(  5-C , 29-H ) :   0.9089
B(  6-N ,  7-C ) :   0.8691 B(  6-N , 17-C ) :   1.6314 B(  7-C ,  8-C ) :   0.9809
B(  7-C , 12-C ) :   0.9854 B(  7-C , 13-H ) :   0.8925 B(  8-C ,  9-H ) :   0.9071
B(  8-C , 10-H ) :   0.9186 B(  8-C , 11-H ) :   0.9009 B( 12-C , 14-H ) :   0.9057
B( 12-C , 15-H ) :   0.9130 B( 12-C , 16-H ) :   0.9165 B( 17-C , 18-C ) :   1.1146
B( 17-C , 19-H ) :   0.8800 B( 18-C , 20-C ) :   1.3880 B( 18-C , 22-S ) :   1.1787
B( 20-C , 21-C ) :   1.3115 B( 20-C , 24-H ) :   0.7779 B( 21-C , 23-C ) :   1.4998
B( 21-C , 25-H ) :   0.9041 B( 22-S , 23-C ) :   1.2466 B( 23-C , 26-H ) :   0.8927
B( 30-O , 32-C ) :   1.6355 B( 31-O , 32-C ) :   1.2652 B( 32-C , 33-C ) :   0.9499
B( 33-C , 34-H ) :   0.9002 B( 33-C , 35-H ) :   0.8953 B( 33-C , 36-H ) :   0.9060

Dispersion correction           -0.029291673
FINAL SINGLE POINT ENERGY     -1288.364637758979
Dispersion correction            ... done

DIPOLE MOMENT
-------------
                                X             Y             Z
Electronic contribution:     24.24621     -67.90110     114.92176
Nuclear contribution   :    -24.55635      66.57339    -115.19367
                        -----------------------------------------
Total Dipole Moment    :     -0.31014      -1.32771      -0.27192
                        -----------------------------------------
Magnitude (a.u.)       :      1.39030
Magnitude (Debye)      :      3.53387

Rotational constants in cm-1:     0.010802     0.007709     0.007087
Rotational constants in MHz :   323.836570   231.096541   212.454233

                             ****ORCA TERMINATED NORMALLY****
TOTAL RUN TIME: 0 days 0 hours 17 minutes 37 seconds 652 msec
