                         Program Version 5.0.3 -  RELEASE  -
|  1> ! EnGrad PBEh-3c
|  2> %output
|  3> xyzfile=True
|  4> end
|  5> %scf
|  6> maxiter 250
|  7> end
|  8> %output
|  9> Print[P_Hirshfeld] = 1
| 10> end
| 11> % maxcore
| 12> 4000
| 13> *xyz 1 1
| 14> Ir   0.44768545  -0.69869368   0.94166642
| 15> C   -0.08509509  -2.72730493   1.60053592
| 16> C    0.76017421  -2.10739800   2.58181002
| 17> C    1.93165640  -2.33448358   0.63390411
| 18> C    0.65724718  -2.87454891   0.40064787
| 19> C    1.99464826  -1.82711103   1.97265474
| 20> N   -0.99737806  -0.01042020  -0.44632337
| 21> C   -2.42641475   0.06256642   0.02046018
| 22> C   -2.88034585   1.47579443   0.36735380
| 23> H   -3.91616490   1.43490732   0.69962109
| 24> H   -2.83227077   2.12699559  -0.50792137
| 25> H   -2.28700588   1.90101571   1.17842415
| 26> C   -3.38595623  -0.58596544  -0.97233095
| 27> H   -2.45115724  -0.53829094   0.94085573
| 28> H   -4.35781314  -0.67991444  -0.50310886
| 29> H   -3.53860049   0.01746361  -1.87138266
| 30> H   -3.06437043  -1.59059373  -1.27556097
| 31> C   -0.69602904   0.29232069  -1.66017714
| 32> C    0.63890285   0.20649104  -2.21759850
| 33> H   -1.54369691   0.57457193  -2.31404402
| 34> C    1.87402065   0.31765521  -1.70689637
| 35> C    2.87777526  -0.00700426  -2.61232919
| 36> S    0.72238766   0.08921257  -3.96701000
| 37> C    2.41055566  -0.04502316  -3.89735694
| 38> H    2.12698044   0.82035142  -0.82580699
| 39> H    3.92121421   0.00811093  -2.36763868
| 40> H    3.01910356  -0.13105933  -4.79657687
| 41> H   -0.99413291  -3.27228553   1.83604162
| 42> H    0.48239160  -1.93903881   3.60524507
| 43> H    2.87579918  -1.41971589   2.45171511
| 44> O    1.74802533   1.70917045   0.71528817
| 45> O    0.03895689   1.06698966   1.93421691
| 46> C    0.84011386   1.95399471   1.56798695
| 47> C    0.75021653   3.35141875   2.14170543
| 48> H    0.81739074   4.11495288   1.35680340
| 49> H    1.60458775   3.53512771   2.79856459
| 50> H   -0.16727091   3.52431230   2.72598788
| 51> H    2.75748536  -2.36373888  -0.05794427
| 52> H    0.32418156  -3.42805858  -0.46985030
| 53> *
| 54>
| 55>                          ****END OF INPUT****

CARTESIAN COORDINATES (ANGSTROEM)
---------------------------------
  Ir     0.447685   -0.698694    0.941666
  C     -0.085095   -2.727305    1.600536
  C      0.760174   -2.107398    2.581810
  C      1.931656   -2.334484    0.633904
  C      0.657247   -2.874549    0.400648
  C      1.994648   -1.827111    1.972655
  N     -0.997378   -0.010420   -0.446323
  C     -2.426415    0.062566    0.020460
  C     -2.880346    1.475794    0.367354
  H     -3.916165    1.434907    0.699621
  H     -2.832271    2.126996   -0.507921
  H     -2.287006    1.901016    1.178424
  C     -3.385956   -0.585965   -0.972331
  H     -2.451157   -0.538291    0.940856
  H     -4.357813   -0.679914   -0.503109
  H     -3.538600    0.017464   -1.871383
  H     -3.064370   -1.590594   -1.275561
  C     -0.696029    0.292321   -1.660177
  C      0.638903    0.206491   -2.217598
  H     -1.543697    0.574572   -2.314044
  C      1.874021    0.317655   -1.706896
  C      2.877775   -0.007004   -2.612329
  S      0.722388    0.089213   -3.967010
  C      2.410556   -0.045023   -3.897357
  H      2.126980    0.820351   -0.825807
  H      3.921214    0.008111   -2.367639
  H      3.019104   -0.131059   -4.796577
  H     -0.994133   -3.272286    1.836042
  H      0.482392   -1.939039    3.605245
  H      2.875799   -1.419716    2.451715
  O      1.748025    1.709170    0.715288
  O      0.038957    1.066990    1.934217
  C      0.840114    1.953995    1.567987
  C      0.750217    3.351419    2.141705
  H      0.817391    4.114953    1.356803
  H      1.604588    3.535128    2.798565
  H     -0.167271    3.524312    2.725988
  H      2.757485   -2.363739   -0.057944
  H      0.324182   -3.428059   -0.469850

 Total Charge           Charge          ....    1
 Multiplicity           Mult            ....    1
 Number of Electrons    NEL             ....  164
 Basis Dimension        Dim             ....  358

ORBITAL ENERGIES
----------------

  NO   OCC          E(Eh)            E(eV)
   0   2.0000     -89.741269     -2441.9841
   1   2.0000     -19.632815      -534.2361
   2   2.0000     -19.583101      -532.8833
   3   2.0000     -14.828490      -403.5037
   4   2.0000     -10.680050      -290.6189
   5   2.0000     -10.657339      -290.0009
   6   2.0000     -10.648717      -289.7663
   7   2.0000     -10.647043      -289.7208
   8   2.0000     -10.643864      -289.6343
   9   2.0000     -10.636253      -289.4272
  10   2.0000     -10.630376      -289.2672
  11   2.0000     -10.613954      -288.8204
  12   2.0000     -10.607414      -288.6424
  13   2.0000     -10.599510      -288.4273
  14   2.0000     -10.564007      -287.4612
  15   2.0000     -10.563369      -287.4439
  16   2.0000     -10.550526      -287.0944
  17   2.0000     -10.541187      -286.8403
  18   2.0000     -10.537840      -286.7492
  19   2.0000      -8.380777      -228.0525
  20   2.0000      -6.270927      -170.6406
  21   2.0000      -6.267473      -170.5466
  22   2.0000      -6.265134      -170.4830
  23   2.0000      -4.036605      -109.8416
  24   2.0000      -2.356008       -64.1102
  25   2.0000      -2.319020       -63.1038
  26   2.0000      -2.318546       -63.0908
  27   2.0000      -1.314097       -35.7584
  28   2.0000      -1.193680       -32.4817
  29   2.0000      -1.190536       -32.3961
  30   2.0000      -1.181942       -32.1623
  31   2.0000      -1.115623       -30.3576
  32   2.0000      -1.010875       -27.5073
  33   2.0000      -0.992238       -27.0002
  34   2.0000      -0.985575       -26.8189
  35   2.0000      -0.954357       -25.9694
  36   2.0000      -0.952661       -25.9232
  37   2.0000      -0.922431       -25.1006
  38   2.0000      -0.890724       -24.2378
  39   2.0000      -0.861321       -23.4377
  40   2.0000      -0.795187       -21.6381
  41   2.0000      -0.793290       -21.5865
  42   2.0000      -0.787077       -21.4175
  43   2.0000      -0.781355       -21.2618
  44   2.0000      -0.765840       -20.8396
  45   2.0000      -0.744767       -20.2661
  46   2.0000      -0.732668       -19.9369
  47   2.0000      -0.718633       -19.5550
  48   2.0000      -0.681539       -18.5456
  49   2.0000      -0.661079       -17.9889
  50   2.0000      -0.656329       -17.8596
  51   2.0000      -0.653671       -17.7873
  52   2.0000      -0.644485       -17.5373
  53   2.0000      -0.642854       -17.4930
  54   2.0000      -0.638728       -17.3807
  55   2.0000      -0.632527       -17.2119
  56   2.0000      -0.617929       -16.8147
  57   2.0000      -0.615374       -16.7452
  58   2.0000      -0.614318       -16.7164
  59   2.0000      -0.604321       -16.4444
  60   2.0000      -0.587579       -15.9888
  61   2.0000      -0.584427       -15.9031
  62   2.0000      -0.566813       -15.4238
  63   2.0000      -0.563445       -15.3321
  64   2.0000      -0.557484       -15.1699
  65   2.0000      -0.550445       -14.9784
  66   2.0000      -0.547908       -14.9093
  67   2.0000      -0.542002       -14.7486
  68   2.0000      -0.533599       -14.5200
  69   2.0000      -0.523848       -14.2546
  70   2.0000      -0.517927       -14.0935
  71   2.0000      -0.516348       -14.0505
  72   2.0000      -0.508569       -13.8389
  73   2.0000      -0.504193       -13.7198
  74   2.0000      -0.480424       -13.0730
  75   2.0000      -0.474930       -12.9235
  76   2.0000      -0.463042       -12.6000
  77   2.0000      -0.457121       -12.4389
  78   2.0000      -0.439939       -11.9713
  79   2.0000      -0.422549       -11.4981
  80   2.0000      -0.410856       -11.1800
  81   2.0000      -0.396089       -10.7781
  82   0.0000      -0.224651        -6.1131
  83   0.0000      -0.170804        -4.6478
  84   0.0000      -0.155387        -4.2283
  85   0.0000      -0.085485        -2.3262
  86   0.0000      -0.084748        -2.3061

MULLIKEN ATOMIC CHARGES
-----------------------
   0 Ir:    0.623705
   1 C :   -0.283723
   2 C :   -0.180431
   3 C :   -0.200179
   4 C :   -0.201514
   5 C :   -0.242749
   6 N :   -0.470136
   7 C :   -0.132054
   8 C :   -0.626875
   9 H :    0.248575
  10 H :    0.223058
  11 H :    0.265633
  12 C :   -0.664921
  13 H :    0.255652
  14 H :    0.266064
  15 H :    0.228248
  16 H :    0.241987
  17 C :    0.058332
  18 C :   -0.250588
  19 H :    0.273621
  20 C :   -0.241255
  21 C :   -0.160802
  22 S :    0.290096
  23 C :   -0.418385
  24 H :    0.389217
  25 H :    0.262923
  26 H :    0.293993
  27 H :    0.292746
  28 H :    0.305017
  29 H :    0.300609
  30 O :   -0.502041
  31 O :   -0.499166
  32 C :    0.628557
  33 C :   -0.760114
  34 H :    0.270948
  35 H :    0.272803
  36 H :    0.250140
  37 H :    0.299840
  38 H :    0.293168
Sum of atomic charges:    1.0000000

LOEWDIN ATOMIC CHARGES
----------------------
   0 Ir:   -0.125168
   1 C :   -0.031185
   2 C :   -0.015620
   3 C :   -0.002288
   4 C :   -0.066369
   5 C :   -0.073193
   6 N :   -0.051888
   7 C :   -0.058643
   8 C :   -0.350799
   9 H :    0.148057
  10 H :    0.135214
  11 H :    0.149159
  12 C :   -0.359857
  13 H :    0.144945
  14 H :    0.153882
  15 H :    0.133649
  16 H :    0.138106
  17 C :    0.037251
  18 C :   -0.219695
  19 H :    0.156691
  20 C :   -0.132829
  21 C :   -0.170456
  22 S :    0.441136
  23 C :   -0.247776
  24 H :    0.200660
  25 H :    0.156075
  26 H :    0.167780
  27 H :    0.186988
  28 H :    0.192163
  29 H :    0.191871
  30 O :   -0.288933
  31 O :   -0.172015
  32 C :    0.153680
  33 C :   -0.380286
  34 H :    0.165349
  35 H :    0.168823
  36 H :    0.149223
  37 H :    0.188541
  38 H :    0.187758

  Mayer bond orders larger than 0.100000
B(  0-Ir,  1-C ) :   0.5620 B(  0-Ir,  2-C ) :   0.4453 B(  0-Ir,  3-C ) :   0.4675
B(  0-Ir,  4-C ) :   0.3849 B(  0-Ir,  5-C ) :   0.4593 B(  0-Ir,  6-N ) :   0.4922
B(  0-Ir, 30-O ) :   0.2538 B(  0-Ir, 31-O ) :   0.5775 B(  1-C ,  2-C ) :   1.1225
B(  1-C ,  4-C ) :   1.1313 B(  1-C , 27-H ) :   0.9156 B(  2-C ,  5-C ) :   1.2207
B(  2-C , 28-H ) :   0.9025 B(  3-C ,  4-C ) :   1.2391 B(  3-C ,  5-C ) :   1.1100
B(  3-C , 37-H ) :   0.9041 B(  4-C , 38-H ) :   0.9107 B(  5-C , 29-H ) :   0.9072
B(  6-N ,  7-C ) :   0.8713 B(  6-N , 17-C ) :   1.6518 B(  7-C ,  8-C ) :   0.9780
B(  7-C , 12-C ) :   0.9833 B(  7-C , 13-H ) :   0.8929 B(  8-C ,  9-H ) :   0.9059
B(  8-C , 10-H ) :   0.9176 B(  8-C , 11-H ) :   0.9026 B( 12-C , 14-H ) :   0.9042
B( 12-C , 15-H ) :   0.9126 B( 12-C , 16-H ) :   0.9180 B( 17-C , 18-C ) :   1.0983
B( 17-C , 19-H ) :   0.8783 B( 18-C , 20-C ) :   1.4445 B( 18-C , 22-S ) :   1.1457
B( 20-C , 21-C ) :   1.3098 B( 20-C , 24-H ) :   0.7656 B( 21-C , 23-C ) :   1.4894
B( 21-C , 25-H ) :   0.9051 B( 22-S , 23-C ) :   1.2615 B( 23-C , 26-H ) :   0.8929
B( 30-O , 32-C ) :   1.6078 B( 31-O , 32-C ) :   1.3407 B( 32-C , 33-C ) :   0.9405
B( 33-C , 34-H ) :   0.9018 B( 33-C , 35-H ) :   0.8968 B( 33-C , 36-H ) :   0.9100

Dispersion correction           -0.029211442
FINAL SINGLE POINT ENERGY     -1288.372810020499
Dispersion correction            ... done

DIPOLE MOMENT
-------------
                                X             Y             Z
Electronic contribution:     22.91147     -68.46256     117.99784
Nuclear contribution   :    -23.29640      66.94580    -118.08415
                        -----------------------------------------
Total Dipole Moment    :     -0.38493      -1.51676      -0.08631
                        -----------------------------------------
Magnitude (a.u.)       :      1.56722
Magnitude (Debye)      :      3.98356

Rotational constants in cm-1:     0.010798     0.007694     0.007073
Rotational constants in MHz :   323.708079   230.657771   212.037308

                             ****ORCA TERMINATED NORMALLY****
TOTAL RUN TIME: 0 days 0 hours 17 minutes 36 seconds 806 msec
