                         Program Version 5.0.3 -  RELEASE  -
|  1> ! EnGrad PBEh-3c
|  2> %output
|  3> xyzfile=True
|  4> end
|  5> %scf
|  6> maxiter 250
|  7> end
|  8> %output
|  9> Print[P_Hirshfeld] = 1
| 10> end
| 11> % maxcore
| 12> 4000
| 13> *xyz 1 1
| 14> Ir   0.44562541  -0.71495254   0.94802876
| 15> C   -0.08534350  -2.72678139   1.58912795
| 16> C    0.75142012  -2.10735777   2.58688856
| 17> C    1.95200512  -2.33704171   0.64668503
| 18> C    0.66898650  -2.88207259   0.40327622
| 19> C    1.99298673  -1.82798635   1.98180821
| 20> N   -1.00043860  -0.01226276  -0.44658223
| 21> C   -2.42108569   0.05632974   0.01541534
| 22> C   -2.87790878   1.46871215   0.37636285
| 23> H   -3.91636262   1.42820716   0.70278941
| 24> H   -2.83130470   2.12925717  -0.49511314
| 25> H   -2.27924005   1.89369090   1.19210112
| 26> C   -3.38895543  -0.58213329  -0.97265229
| 27> H   -2.45150991  -0.54817335   0.93846832
| 28> H   -4.35882863  -0.67888039  -0.50433748
| 29> H   -3.54116929   0.02495872  -1.87024682
| 30> H   -3.06771326  -1.58786324  -1.28526134
| 31> C   -0.69463922   0.29064304  -1.65382501
| 32> C    0.62316221   0.22132233  -2.22056486
| 33> H   -1.54240601   0.57404982  -2.31814826
| 34> C    1.86830612   0.32977714  -1.75139495
| 35> C    2.88730500   0.00707738  -2.61675019
| 36> S    0.72310568   0.07774750  -3.95234554
| 37> C    2.40945158  -0.05754592  -3.89761694
| 38> H    2.10886598   0.79218371  -0.79287730
| 39> H    3.92203987   0.00108453  -2.36448340
| 40> H    3.01290218  -0.12891489  -4.79378020
| 41> H   -1.00682474  -3.25252592   1.81237976
| 42> H    0.46163309  -1.92855332   3.59647482
| 43> H    2.86982937  -1.40848444   2.47463636
| 44> O    1.72774526   1.70686878   0.73676044
| 45> O    0.05034299   1.07017452   1.92636110
| 46> C    0.86544352   1.95565360   1.54296911
| 47> C    0.75326463   3.34676881   2.13548107
| 48> H    0.81591461   4.11158959   1.35527607
| 49> H    1.60479188   3.53484628   2.79017479
| 50> H   -0.16316350   3.52389052   2.72154501
| 51> H    2.76537798  -2.34104523  -0.05059719
| 52> H    0.34363691  -3.41831114  -0.48478491
| 53> *
| 54>
| 55>                          ****END OF INPUT****

CARTESIAN COORDINATES (ANGSTROEM)
---------------------------------
  Ir     0.445625   -0.714953    0.948029
  C     -0.085343   -2.726781    1.589128
  C      0.751420   -2.107358    2.586889
  C      1.952005   -2.337042    0.646685
  C      0.668987   -2.882073    0.403276
  C      1.992987   -1.827986    1.981808
  N     -1.000439   -0.012263   -0.446582
  C     -2.421086    0.056330    0.015415
  C     -2.877909    1.468712    0.376363
  H     -3.916363    1.428207    0.702789
  H     -2.831305    2.129257   -0.495113
  H     -2.279240    1.893691    1.192101
  C     -3.388955   -0.582133   -0.972652
  H     -2.451510   -0.548173    0.938468
  H     -4.358829   -0.678880   -0.504337
  H     -3.541169    0.024959   -1.870247
  H     -3.067713   -1.587863   -1.285261
  C     -0.694639    0.290643   -1.653825
  C      0.623162    0.221322   -2.220565
  H     -1.542406    0.574050   -2.318148
  C      1.868306    0.329777   -1.751395
  C      2.887305    0.007077   -2.616750
  S      0.723106    0.077747   -3.952346
  C      2.409452   -0.057546   -3.897617
  H      2.108866    0.792184   -0.792877
  H      3.922040    0.001085   -2.364483
  H      3.012902   -0.128915   -4.793780
  H     -1.006825   -3.252526    1.812380
  H      0.461633   -1.928553    3.596475
  H      2.869829   -1.408484    2.474636
  O      1.727745    1.706869    0.736760
  O      0.050343    1.070175    1.926361
  C      0.865444    1.955654    1.542969
  C      0.753265    3.346769    2.135481
  H      0.815915    4.111590    1.355276
  H      1.604792    3.534846    2.790175
  H     -0.163163    3.523891    2.721545
  H      2.765378   -2.341045   -0.050597
  H      0.343637   -3.418311   -0.484785

 Total Charge           Charge          ....    1
 Multiplicity           Mult            ....    1
 Number of Electrons    NEL             ....  164
 Basis Dimension        Dim             ....  358

ORBITAL ENERGIES
----------------

  NO   OCC          E(Eh)            E(eV)
   0   2.0000     -89.740779     -2441.9707
   1   2.0000     -19.621824      -533.9370
   2   2.0000     -19.584720      -532.9273
   3   2.0000     -14.828694      -403.5093
   4   2.0000     -10.671914      -290.3975
   5   2.0000     -10.657974      -290.0182
   6   2.0000     -10.650092      -289.8037
   7   2.0000     -10.649822      -289.7964
   8   2.0000     -10.644975      -289.6645
   9   2.0000     -10.637650      -289.4652
  10   2.0000     -10.633132      -289.3422
  11   2.0000     -10.613754      -288.8149
  12   2.0000     -10.604994      -288.5766
  13   2.0000     -10.600152      -288.4448
  14   2.0000     -10.566376      -287.5257
  15   2.0000     -10.563646      -287.4514
  16   2.0000     -10.550455      -287.0925
  17   2.0000     -10.541086      -286.8375
  18   2.0000     -10.533397      -286.6283
  19   2.0000      -8.380607      -228.0479
  20   2.0000      -6.270683      -170.6340
  21   2.0000      -6.267276      -170.5412
  22   2.0000      -6.265047      -170.4806
  23   2.0000      -4.037533      -109.8669
  24   2.0000      -2.357168       -64.1418
  25   2.0000      -2.319967       -63.1295
  26   2.0000      -2.319348       -63.1127
  27   2.0000      -1.320000       -35.9190
  28   2.0000      -1.209010       -32.8988
  29   2.0000      -1.193916       -32.4881
  30   2.0000      -1.182790       -32.1854
  31   2.0000      -1.121194       -30.5092
  32   2.0000      -1.012133       -27.5415
  33   2.0000      -0.992596       -27.0099
  34   2.0000      -0.988223       -26.8909
  35   2.0000      -0.959052       -26.0971
  36   2.0000      -0.951239       -25.8845
  37   2.0000      -0.918971       -25.0065
  38   2.0000      -0.889550       -24.2059
  39   2.0000      -0.863770       -23.5044
  40   2.0000      -0.797627       -21.7045
  41   2.0000      -0.795107       -21.6360
  42   2.0000      -0.789176       -21.4746
  43   2.0000      -0.781827       -21.2746
  44   2.0000      -0.768416       -20.9097
  45   2.0000      -0.739089       -20.1116
  46   2.0000      -0.731526       -19.9058
  47   2.0000      -0.716340       -19.4926
  48   2.0000      -0.682526       -18.5725
  49   2.0000      -0.661222       -17.9928
  50   2.0000      -0.659802       -17.9541
  51   2.0000      -0.656061       -17.8523
  52   2.0000      -0.647274       -17.6132
  53   2.0000      -0.643709       -17.5162
  54   2.0000      -0.640580       -17.4311
  55   2.0000      -0.633034       -17.2257
  56   2.0000      -0.620348       -16.8805
  57   2.0000      -0.617674       -16.8078
  58   2.0000      -0.615784       -16.7563
  59   2.0000      -0.608360       -16.5543
  60   2.0000      -0.588352       -16.0099
  61   2.0000      -0.582135       -15.8407
  62   2.0000      -0.569045       -15.4845
  63   2.0000      -0.561074       -15.2676
  64   2.0000      -0.558639       -15.2014
  65   2.0000      -0.547964       -14.9109
  66   2.0000      -0.545224       -14.8363
  67   2.0000      -0.542995       -14.7757
  68   2.0000      -0.532901       -14.5010
  69   2.0000      -0.524258       -14.2658
  70   2.0000      -0.518957       -14.1215
  71   2.0000      -0.515001       -14.0139
  72   2.0000      -0.508946       -13.8491
  73   2.0000      -0.503598       -13.7036
  74   2.0000      -0.482533       -13.1304
  75   2.0000      -0.478773       -13.0281
  76   2.0000      -0.463018       -12.5994
  77   2.0000      -0.458292       -12.4707
  78   2.0000      -0.440228       -11.9792
  79   2.0000      -0.424103       -11.5404
  80   2.0000      -0.413330       -11.2473
  81   2.0000      -0.398230       -10.8364
  82   0.0000      -0.225505        -6.1363
  83   0.0000      -0.170693        -4.6448
  84   0.0000      -0.154406        -4.2016
  85   0.0000      -0.085602        -2.3293
  86   0.0000      -0.085102        -2.3158

MULLIKEN ATOMIC CHARGES
-----------------------
   0 Ir:    0.611650
   1 C :   -0.284397
   2 C :   -0.175186
   3 C :   -0.189225
   4 C :   -0.206742
   5 C :   -0.249881
   6 N :   -0.465798
   7 C :   -0.132413
   8 C :   -0.627451
   9 H :    0.247972
  10 H :    0.221885
  11 H :    0.267677
  12 C :   -0.664472
  13 H :    0.253751
  14 H :    0.267144
  15 H :    0.228165
  16 H :    0.240174
  17 C :    0.050041
  18 C :   -0.219104
  19 H :    0.272373
  20 C :   -0.259988
  21 C :   -0.142361
  22 S :    0.291957
  23 C :   -0.429523
  24 H :    0.372314
  25 H :    0.265418
  26 H :    0.294965
  27 H :    0.293661
  28 H :    0.306602
  29 H :    0.301861
  30 O :   -0.453749
  31 O :   -0.518626
  32 C :    0.613426
  33 C :   -0.765126
  34 H :    0.265912
  35 H :    0.269660
  36 H :    0.251602
  37 H :    0.301134
  38 H :    0.294699
Sum of atomic charges:    1.0000000

LOEWDIN ATOMIC CHARGES
----------------------
   0 Ir:   -0.124409
   1 C :   -0.028781
   2 C :   -0.013018
   3 C :    0.003163
   4 C :   -0.068280
   5 C :   -0.072162
   6 N :   -0.049932
   7 C :   -0.060690
   8 C :   -0.351070
   9 H :    0.147502
  10 H :    0.134481
  11 H :    0.150592
  12 C :   -0.359660
  13 H :    0.144601
  14 H :    0.154144
  15 H :    0.133618
  16 H :    0.137522
  17 C :    0.036739
  18 C :   -0.230668
  19 H :    0.156832
  20 C :   -0.134599
  21 C :   -0.172619
  22 S :    0.447904
  23 C :   -0.245506
  24 H :    0.201958
  25 H :    0.157436
  26 H :    0.167462
  27 H :    0.187464
  28 H :    0.192384
  29 H :    0.192920
  30 O :   -0.233091
  31 O :   -0.194504
  32 C :    0.120782
  33 C :   -0.383026
  34 H :    0.161972
  35 H :    0.166286
  36 H :    0.149324
  37 H :    0.188532
  38 H :    0.188396

  Mayer bond orders larger than 0.100000
B(  0-Ir,  1-C ) :   0.5728 B(  0-Ir,  2-C ) :   0.4594 B(  0-Ir,  3-C ) :   0.4709
B(  0-Ir,  4-C ) :   0.3850 B(  0-Ir,  5-C ) :   0.4627 B(  0-Ir,  6-N ) :   0.4882
B(  0-Ir, 30-O ) :   0.2233 B(  0-Ir, 31-O ) :   0.6021 B(  1-C ,  2-C ) :   1.1135
B(  1-C ,  4-C ) :   1.1335 B(  1-C , 27-H ) :   0.9146 B(  2-C ,  5-C ) :   1.2166
B(  2-C , 28-H ) :   0.9017 B(  3-C ,  4-C ) :   1.2356 B(  3-C ,  5-C ) :   1.1099
B(  3-C , 37-H ) :   0.9020 B(  4-C , 38-H ) :   0.9088 B(  5-C , 29-H ) :   0.9060
B(  6-N ,  7-C ) :   0.8764 B(  6-N , 17-C ) :   1.6558 B(  7-C ,  8-C ) :   0.9760
B(  7-C , 12-C ) :   0.9827 B(  7-C , 13-H ) :   0.8933 B(  8-C ,  9-H ) :   0.9060
B(  8-C , 10-H ) :   0.9176 B(  8-C , 11-H ) :   0.9015 B( 12-C , 14-H ) :   0.9039
B( 12-C , 15-H ) :   0.9125 B( 12-C , 16-H ) :   0.9187 B( 17-C , 18-C ) :   1.0992
B( 17-C , 19-H ) :   0.8784 B( 18-C , 20-C ) :   1.4221 B( 18-C , 22-S ) :   1.1426
B( 20-C , 21-C ) :   1.3285 B( 20-C , 24-H ) :   0.7744 B( 21-C , 23-C ) :   1.4631
B( 21-C , 25-H ) :   0.9045 B( 22-S , 23-C ) :   1.2802 B( 23-C , 26-H ) :   0.8927
B( 30-O , 32-C ) :   1.6972 B( 31-O , 32-C ) :   1.2909 B( 32-C , 33-C ) :   0.9348
B( 33-C , 34-H ) :   0.9040 B( 33-C , 35-H ) :   0.8990 B( 33-C , 36-H ) :   0.9115

Dispersion correction           -0.029160577
FINAL SINGLE POINT ENERGY     -1288.375923481665
Dispersion correction            ... done

DIPOLE MOMENT
-------------
                                X             Y             Z
Electronic contribution:     22.75920     -69.99774     118.51151
Nuclear contribution   :    -23.03768      68.43766    -118.66051
                        -----------------------------------------
Total Dipole Moment    :     -0.27848      -1.56008      -0.14901
                        -----------------------------------------
Magnitude (a.u.)       :      1.59173
Magnitude (Debye)      :      4.04585

Rotational constants in cm-1:     0.010789     0.007691     0.007071
Rotational constants in MHz :   323.459924   230.566184   211.968925

                             ****ORCA TERMINATED NORMALLY****
TOTAL RUN TIME: 0 days 0 hours 22 minutes 40 seconds 796 msec
