                         Program Version 5.0.3 -  RELEASE  -
|  1> ! EnGrad PBEh-3c
|  2> %output
|  3> xyzfile=True
|  4> end
|  5> %scf
|  6> maxiter 250
|  7> end
|  8> %output
|  9> Print[P_Hirshfeld] = 1
| 10> end
| 11> % maxcore
| 12> 4000
| 13> *xyz 1 1
| 14> Ir   0.44248413  -0.72277689   0.95792018
| 15> C   -0.08502125  -2.72712108   1.57868673
| 16> C    0.74405522  -2.11067926   2.58345770
| 17> C    1.96656742  -2.34835575   0.66429660
| 18> C    0.69039926  -2.89161740   0.40062701
| 19> C    1.99467348  -1.82575192   2.00125927
| 20> N   -1.00101893  -0.01895193  -0.44769604
| 21> C   -2.42264013   0.05015123   0.01807349
| 22> C   -2.87149237   1.46576230   0.38954424
| 23> H   -3.91670569   1.41832372   0.70607443
| 24> H   -2.83041213   2.13090433  -0.47883356
| 25> H   -2.27092777   1.88263181   1.20653689
| 26> C   -3.38886259  -0.58153334  -0.97886769
| 27> H   -2.45120028  -0.55999493   0.93372573
| 28> H   -4.36095454  -0.67702445  -0.50419245
| 29> H   -3.54456402   0.03409826  -1.86819196
| 30> H   -3.07292396  -1.58294027  -1.29687058
| 31> C   -0.70095829   0.29415358  -1.65365443
| 32> C    0.60301286   0.22995257  -2.23383081
| 33> H   -1.53986256   0.57242584  -2.32017956
| 34> C    1.88769846   0.37722139  -1.74605598
| 35> C    2.89383973   0.01328000  -2.62998045
| 36> S    0.71788436   0.06483822  -3.94651300
| 37> C    2.40876938  -0.06941978  -3.90086703
| 38> H    2.07571384   0.73799434  -0.77679318
| 39> H    3.92354056  -0.00639777  -2.35807631
| 40> H    3.00556552  -0.12626169  -4.79241192
| 41> H   -1.02417932  -3.22899536   1.78352973
| 42> H    0.43513053  -1.91431907   3.58931149
| 43> H    2.85998744  -1.39537067   2.50133587
| 44> O    1.73909886   1.70103688   0.72868077
| 45> O    0.04490072   1.05840996   1.92639595
| 46> C    0.88472622   1.96700486   1.53130980
| 47> C    0.75201644   3.34567560   2.13020385
| 48> H    0.81442249   4.10858765   1.35262523
| 49> H    1.60640537   3.53406459   2.78028732
| 50> H   -0.15737346   3.52377915   2.71577437
| 51> H    2.77738130  -2.31209958  -0.04367960
| 52> H    0.36742754  -3.40572445  -0.50133829
| 53> *
| 54>
| 55>                          ****END OF INPUT****

CARTESIAN COORDINATES (ANGSTROEM)
---------------------------------
  Ir     0.442484   -0.722777    0.957920
  C     -0.085021   -2.727121    1.578687
  C      0.744055   -2.110679    2.583458
  C      1.966567   -2.348356    0.664297
  C      0.690399   -2.891617    0.400627
  C      1.994673   -1.825752    2.001259
  N     -1.001019   -0.018952   -0.447696
  C     -2.422640    0.050151    0.018073
  C     -2.871492    1.465762    0.389544
  H     -3.916706    1.418324    0.706074
  H     -2.830412    2.130904   -0.478834
  H     -2.270928    1.882632    1.206537
  C     -3.388863   -0.581533   -0.978868
  H     -2.451200   -0.559995    0.933726
  H     -4.360955   -0.677024   -0.504192
  H     -3.544564    0.034098   -1.868192
  H     -3.072924   -1.582940   -1.296871
  C     -0.700958    0.294154   -1.653654
  C      0.603013    0.229953   -2.233831
  H     -1.539863    0.572426   -2.320180
  C      1.887698    0.377221   -1.746056
  C      2.893840    0.013280   -2.629980
  S      0.717884    0.064838   -3.946513
  C      2.408769   -0.069420   -3.900867
  H      2.075714    0.737994   -0.776793
  H      3.923541   -0.006398   -2.358076
  H      3.005566   -0.126262   -4.792412
  H     -1.024179   -3.228995    1.783530
  H      0.435131   -1.914319    3.589311
  H      2.859987   -1.395371    2.501336
  O      1.739099    1.701037    0.728681
  O      0.044901    1.058410    1.926396
  C      0.884726    1.967005    1.531310
  C      0.752016    3.345676    2.130204
  H      0.814422    4.108588    1.352625
  H      1.606405    3.534065    2.780287
  H     -0.157373    3.523779    2.715774
  H      2.777381   -2.312100   -0.043680
  H      0.367428   -3.405724   -0.501338

 Total Charge           Charge          ....    1
 Multiplicity           Mult            ....    1
 Number of Electrons    NEL             ....  164
 Basis Dimension        Dim             ....  358

ORBITAL ENERGIES
----------------

  NO   OCC          E(Eh)            E(eV)
   0   2.0000     -89.741946     -2442.0025
   1   2.0000     -19.619520      -533.8743
   2   2.0000     -19.589204      -533.0493
   3   2.0000     -14.827445      -403.4753
   4   2.0000     -10.675811      -290.5036
   5   2.0000     -10.655826      -289.9598
   6   2.0000     -10.651655      -289.8463
   7   2.0000     -10.649922      -289.7991
   8   2.0000     -10.644246      -289.6446
   9   2.0000     -10.637740      -289.4676
  10   2.0000     -10.634198      -289.3712
  11   2.0000     -10.613153      -288.7986
  12   2.0000     -10.606607      -288.6205
  13   2.0000     -10.599626      -288.4305
  14   2.0000     -10.569817      -287.6193
  15   2.0000     -10.565477      -287.5012
  16   2.0000     -10.550002      -287.0801
  17   2.0000     -10.540867      -286.8316
  18   2.0000     -10.535037      -286.6729
  19   2.0000      -8.381752      -228.0791
  20   2.0000      -6.271796      -170.6642
  21   2.0000      -6.268390      -170.5716
  22   2.0000      -6.266304      -170.5148
  23   2.0000      -4.036714      -109.8446
  24   2.0000      -2.356379       -64.1203
  25   2.0000      -2.319247       -63.1099
  26   2.0000      -2.318471       -63.0888
  27   2.0000      -1.313069       -35.7304
  28   2.0000      -1.203824       -32.7577
  29   2.0000      -1.192143       -32.4399
  30   2.0000      -1.181767       -32.1575
  31   2.0000      -1.117549       -30.4101
  32   2.0000      -1.011210       -27.5164
  33   2.0000      -0.992725       -27.0134
  34   2.0000      -0.987240       -26.8642
  35   2.0000      -0.960746       -26.1432
  36   2.0000      -0.947586       -25.7851
  37   2.0000      -0.923661       -25.1341
  38   2.0000      -0.888797       -24.1854
  39   2.0000      -0.863391       -23.4941
  40   2.0000      -0.796815       -21.6824
  41   2.0000      -0.794783       -21.6271
  42   2.0000      -0.790058       -21.4986
  43   2.0000      -0.781105       -21.2549
  44   2.0000      -0.766884       -20.8680
  45   2.0000      -0.740803       -20.1583
  46   2.0000      -0.731101       -19.8943
  47   2.0000      -0.715297       -19.4642
  48   2.0000      -0.682008       -18.5584
  49   2.0000      -0.660543       -17.9743
  50   2.0000      -0.659825       -17.9547
  51   2.0000      -0.656065       -17.8524
  52   2.0000      -0.644882       -17.5481
  53   2.0000      -0.642374       -17.4799
  54   2.0000      -0.637696       -17.3526
  55   2.0000      -0.631522       -17.1846
  56   2.0000      -0.619321       -16.8526
  57   2.0000      -0.617210       -16.7951
  58   2.0000      -0.615624       -16.7520
  59   2.0000      -0.606704       -16.5093
  60   2.0000      -0.588786       -16.0217
  61   2.0000      -0.579684       -15.7740
  62   2.0000      -0.569934       -15.5087
  63   2.0000      -0.564692       -15.3661
  64   2.0000      -0.558066       -15.1857
  65   2.0000      -0.550396       -14.9770
  66   2.0000      -0.545788       -14.8517
  67   2.0000      -0.543092       -14.7783
  68   2.0000      -0.532501       -14.4901
  69   2.0000      -0.524700       -14.2778
  70   2.0000      -0.519844       -14.1457
  71   2.0000      -0.516189       -14.0462
  72   2.0000      -0.509323       -13.8594
  73   2.0000      -0.503801       -13.7091
  74   2.0000      -0.483807       -13.1651
  75   2.0000      -0.478326       -13.0159
  76   2.0000      -0.464649       -12.6438
  77   2.0000      -0.458471       -12.4756
  78   2.0000      -0.438338       -11.9278
  79   2.0000      -0.423973       -11.5369
  80   2.0000      -0.414474       -11.2784
  81   2.0000      -0.396079       -10.7779
  82   0.0000      -0.224606        -6.1118
  83   0.0000      -0.171836        -4.6759
  84   0.0000      -0.151900        -4.1334
  85   0.0000      -0.084962        -2.3119
  86   0.0000      -0.084161        -2.2901

MULLIKEN ATOMIC CHARGES
-----------------------
   0 Ir:    0.606772
   1 C :   -0.285980
   2 C :   -0.176523
   3 C :   -0.182466
   4 C :   -0.207990
   5 C :   -0.255004
   6 N :   -0.463048
   7 C :   -0.131489
   8 C :   -0.627442
   9 H :    0.245916
  10 H :    0.221931
  11 H :    0.269180
  12 C :   -0.665456
  13 H :    0.253361
  14 H :    0.265336
  15 H :    0.229115
  16 H :    0.241414
  17 C :    0.056205
  18 C :   -0.231963
  19 H :    0.270799
  20 C :   -0.248189
  21 C :   -0.142048
  22 S :    0.301155
  23 C :   -0.426916
  24 H :    0.356122
  25 H :    0.264617
  26 H :    0.295462
  27 H :    0.294319
  28 H :    0.308517
  29 H :    0.302617
  30 O :   -0.441999
  31 O :   -0.542630
  32 C :    0.617776
  33 C :   -0.766930
  34 H :    0.267642
  35 H :    0.270869
  36 H :    0.258038
  37 H :    0.302828
  38 H :    0.296081
Sum of atomic charges:    1.0000000

LOEWDIN ATOMIC CHARGES
----------------------
   0 Ir:   -0.124904
   1 C :   -0.028010
   2 C :   -0.015540
   3 C :    0.005216
   4 C :   -0.069744
   5 C :   -0.071453
   6 N :   -0.051065
   7 C :   -0.059699
   8 C :   -0.351098
   9 H :    0.146911
  10 H :    0.134284
  11 H :    0.151377
  12 C :   -0.360249
  13 H :    0.144245
  14 H :    0.153884
  15 H :    0.133924
  16 H :    0.137820
  17 C :    0.033179
  18 C :   -0.238632
  19 H :    0.155724
  20 C :   -0.122114
  21 C :   -0.171655
  22 S :    0.456216
  23 C :   -0.247405
  24 H :    0.187760
  25 H :    0.157306
  26 H :    0.167526
  27 H :    0.187803
  28 H :    0.193282
  29 H :    0.193534
  30 O :   -0.222642
  31 O :   -0.222594
  32 C :    0.138891
  33 C :   -0.382835
  34 H :    0.163088
  35 H :    0.167725
  36 H :    0.152225
  37 H :    0.188857
  38 H :    0.188862

  Mayer bond orders larger than 0.100000
B(  0-Ir,  1-C ) :   0.5842 B(  0-Ir,  2-C ) :   0.4647 B(  0-Ir,  3-C ) :   0.4612
B(  0-Ir,  4-C ) :   0.3782 B(  0-Ir,  5-C ) :   0.4658 B(  0-Ir,  6-N ) :   0.4866
B(  0-Ir, 30-O ) :   0.2047 B(  0-Ir, 31-O ) :   0.6250 B(  1-C ,  2-C ) :   1.1079
B(  1-C ,  4-C ) :   1.1315 B(  1-C , 27-H ) :   0.9132 B(  2-C ,  5-C ) :   1.2164
B(  2-C , 28-H ) :   0.8996 B(  3-C ,  4-C ) :   1.2446 B(  3-C ,  5-C ) :   1.1088
B(  3-C , 37-H ) :   0.8980 B(  4-C , 38-H ) :   0.9071 B(  5-C , 29-H ) :   0.9056
B(  6-N ,  7-C ) :   0.8760 B(  6-N , 17-C ) :   1.6558 B(  7-C ,  8-C ) :   0.9758
B(  7-C , 12-C ) :   0.9829 B(  7-C , 13-H ) :   0.8936 B(  8-C ,  9-H ) :   0.9065
B(  8-C , 10-H ) :   0.9175 B(  8-C , 11-H ) :   0.9003 B( 12-C , 14-H ) :   0.9047
B( 12-C , 15-H ) :   0.9125 B( 12-C , 16-H ) :   0.9181 B( 17-C , 18-C ) :   1.1046
B( 17-C , 19-H ) :   0.8788 B( 18-C , 20-C ) :   1.3987 B( 18-C , 22-S ) :   1.1516
B( 20-C , 21-C ) :   1.3352 B( 20-C , 24-H ) :   0.7922 B( 21-C , 23-C ) :   1.4542
B( 21-C , 25-H ) :   0.9051 B( 22-S , 23-C ) :   1.2796 B( 23-C , 26-H ) :   0.8934
B( 30-O , 32-C ) :   1.7325 B( 31-O , 32-C ) :   1.2388 B( 32-C , 33-C ) :   0.9398
B( 33-C , 34-H ) :   0.9022 B( 33-C , 35-H ) :   0.8975 B( 33-C , 36-H ) :   0.9093

Dispersion correction           -0.029190718
FINAL SINGLE POINT ENERGY     -1288.380515761181
Dispersion correction            ... done

DIPOLE MOMENT
-------------
                                X             Y             Z
Electronic contribution:     22.40358     -70.57642     119.46744
Nuclear contribution   :    -22.64494      69.09170    -119.62516
                        -----------------------------------------
Total Dipole Moment    :     -0.24136      -1.48473      -0.15772
                        -----------------------------------------
Magnitude (a.u.)       :      1.51246
Magnitude (Debye)      :      3.84438

Rotational constants in cm-1:     0.010767     0.007671     0.007057
Rotational constants in MHz :   322.799773   229.980842   211.550656

                             ****ORCA TERMINATED NORMALLY****
TOTAL RUN TIME: 0 days 0 hours 18 minutes 17 seconds 830 msec
