                         Program Version 5.0.3 -  RELEASE  -
|  1> ! EnGrad PBEh-3c
|  2> %output
|  3> xyzfile=True
|  4> end
|  5> %scf
|  6> maxiter 250
|  7> end
|  8> %output
|  9> Print[P_Hirshfeld] = 1
| 10> end
| 11> % maxcore
| 12> 4000
| 13> *xyz 1 1
| 14> Ir   0.43745118  -0.74851225   0.97166408
| 15> C   -0.08396461  -2.72809711   1.55549292
| 16> C    0.72289586  -2.11439670   2.57602807
| 17> C    1.99642621  -2.36067328   0.70024558
| 18> C    0.74042754  -2.91013491   0.39610429
| 19> C    1.99752432  -1.82329829   2.04608630
| 20> N   -1.00044965  -0.03354631  -0.44039729
| 21> C   -2.42174367   0.03440482   0.02243868
| 22> C   -2.85772634   1.45303087   0.41850551
| 23> H   -3.91390482   1.39692250   0.71712648
| 24> H   -2.82619873   2.13409423  -0.43773050
| 25> H   -2.25558279   1.85468836   1.23821178
| 26> C   -3.39116782  -0.57822933  -0.99090600
| 27> H   -2.45110302  -0.58603564   0.91979844
| 28> H   -4.36604248  -0.67343611  -0.50518002
| 29> H   -3.55243441   0.05589733  -1.86331543
| 30> H   -3.08552284  -1.56923423  -1.32396645
| 31> C   -0.72209117   0.29970300  -1.65242213
| 32> C    0.59982842   0.26637174  -2.25589552
| 33> H   -1.53185013   0.56790503  -2.32308554
| 34> C    1.87770660   0.42963405  -1.78006132
| 35> C    2.89896644   0.04740118  -2.64909614
| 36> S    0.70784576   0.03231141  -3.94130287
| 37> C    2.40198285  -0.09652849  -3.90553024
| 38> H    2.01671052   0.63863047  -0.70662295
| 39> H    3.93475936  -0.02415207  -2.34552174
| 40> H    2.99009819  -0.12483957  -4.79492313
| 41> H   -1.06243811  -3.17332182   1.71309267
| 42> H    0.37116625  -1.88268412   3.57433530
| 43> H    2.83180448  -1.36653226   2.56254319
| 44> O    1.76742725   1.69063211   0.71413612
| 45> O    0.05892906   1.05019938   1.91409774
| 46> C    0.89786948   1.97186648   1.51722905
| 47> C    0.75248186   3.34499938   2.11735297
| 48> H    0.81121202   4.10250634   1.34372974
| 49> H    1.61171035   3.53292598   2.75818525
| 50> H   -0.14230776   3.51860192   2.69984517
| 51> H    2.80667984  -2.24662790  -0.02225565
| 52> H    0.42753421  -3.37554980  -0.53693672
| 53> *
| 54>
| 55>                          ****END OF INPUT****

CARTESIAN COORDINATES (ANGSTROEM)
---------------------------------
  Ir     0.437451   -0.748512    0.971664
  C     -0.083965   -2.728097    1.555493
  C      0.722896   -2.114397    2.576028
  C      1.996426   -2.360673    0.700246
  C      0.740428   -2.910135    0.396104
  C      1.997524   -1.823298    2.046086
  N     -1.000450   -0.033546   -0.440397
  C     -2.421744    0.034405    0.022439
  C     -2.857726    1.453031    0.418506
  H     -3.913905    1.396922    0.717126
  H     -2.826199    2.134094   -0.437731
  H     -2.255583    1.854688    1.238212
  C     -3.391168   -0.578229   -0.990906
  H     -2.451103   -0.586036    0.919798
  H     -4.366042   -0.673436   -0.505180
  H     -3.552434    0.055897   -1.863315
  H     -3.085523   -1.569234   -1.323966
  C     -0.722091    0.299703   -1.652422
  C      0.599828    0.266372   -2.255896
  H     -1.531850    0.567905   -2.323086
  C      1.877707    0.429634   -1.780061
  C      2.898966    0.047401   -2.649096
  S      0.707846    0.032311   -3.941303
  C      2.401983   -0.096528   -3.905530
  H      2.016711    0.638630   -0.706623
  H      3.934759   -0.024152   -2.345522
  H      2.990098   -0.124840   -4.794923
  H     -1.062438   -3.173322    1.713093
  H      0.371166   -1.882684    3.574335
  H      2.831804   -1.366532    2.562543
  O      1.767427    1.690632    0.714136
  O      0.058929    1.050199    1.914098
  C      0.897869    1.971866    1.517229
  C      0.752482    3.344999    2.117353
  H      0.811212    4.102506    1.343730
  H      1.611710    3.532926    2.758185
  H     -0.142308    3.518602    2.699845
  H      2.806680   -2.246628   -0.022256
  H      0.427534   -3.375550   -0.536937

 Total Charge           Charge          ....    1
 Multiplicity           Mult            ....    1
 Number of Electrons    NEL             ....  164
 Basis Dimension        Dim             ....  358

ORBITAL ENERGIES
----------------

  NO   OCC          E(Eh)            E(eV)
   0   2.0000     -89.737947     -2441.8937
   1   2.0000     -19.621113      -533.9176
   2   2.0000     -19.588058      -533.0181
   3   2.0000     -14.830623      -403.5618
   4   2.0000     -10.678862      -290.5866
   5   2.0000     -10.658375      -290.0291
   6   2.0000     -10.658327      -290.0278
   7   2.0000     -10.652901      -289.8802
   8   2.0000     -10.646874      -289.7162
   9   2.0000     -10.641806      -289.5783
  10   2.0000     -10.639531      -289.5164
  11   2.0000     -10.614313      -288.8301
  12   2.0000     -10.603720      -288.5419
  13   2.0000     -10.594575      -288.2930
  14   2.0000     -10.568334      -287.5790
  15   2.0000     -10.565360      -287.4981
  16   2.0000     -10.551448      -287.1195
  17   2.0000     -10.542815      -286.8846
  18   2.0000     -10.535298      -286.6800
  19   2.0000      -8.378172      -227.9817
  20   2.0000      -6.268187      -170.5660
  21   2.0000      -6.264753      -170.4726
  22   2.0000      -6.262805      -170.4196
  23   2.0000      -4.039609      -109.9233
  24   2.0000      -2.359626       -64.2087
  25   2.0000      -2.322106       -63.1877
  26   2.0000      -2.321574       -63.1732
  27   2.0000      -1.305762       -35.5316
  28   2.0000      -1.199314       -32.6350
  29   2.0000      -1.191647       -32.4264
  30   2.0000      -1.183046       -32.1923
  31   2.0000      -1.117066       -30.3969
  32   2.0000      -1.009638       -27.4736
  33   2.0000      -0.996557       -27.1177
  34   2.0000      -0.988829       -26.9074
  35   2.0000      -0.959239       -26.1022
  36   2.0000      -0.941730       -25.6258
  37   2.0000      -0.928018       -25.2527
  38   2.0000      -0.890195       -24.2234
  39   2.0000      -0.864473       -23.5235
  40   2.0000      -0.798460       -21.7272
  41   2.0000      -0.796856       -21.6836
  42   2.0000      -0.790112       -21.5000
  43   2.0000      -0.782188       -21.2844
  44   2.0000      -0.764526       -20.8038
  45   2.0000      -0.739555       -20.1243
  46   2.0000      -0.731275       -19.8990
  47   2.0000      -0.710279       -19.3277
  48   2.0000      -0.683149       -18.5894
  49   2.0000      -0.661602       -18.0031
  50   2.0000      -0.659189       -17.9374
  51   2.0000      -0.658650       -17.9228
  52   2.0000      -0.644277       -17.5317
  53   2.0000      -0.642279       -17.4773
  54   2.0000      -0.636255       -17.3134
  55   2.0000      -0.630584       -17.1591
  56   2.0000      -0.620513       -16.8850
  57   2.0000      -0.618260       -16.8237
  58   2.0000      -0.616687       -16.7809
  59   2.0000      -0.604951       -16.4615
  60   2.0000      -0.590634       -16.0720
  61   2.0000      -0.575471       -15.6594
  62   2.0000      -0.570713       -15.5299
  63   2.0000      -0.564380       -15.3576
  64   2.0000      -0.557902       -15.1813
  65   2.0000      -0.550553       -14.9813
  66   2.0000      -0.547126       -14.8880
  67   2.0000      -0.544191       -14.8082
  68   2.0000      -0.534128       -14.5344
  69   2.0000      -0.525939       -14.3115
  70   2.0000      -0.524953       -14.2847
  71   2.0000      -0.513294       -13.9674
  72   2.0000      -0.511068       -13.9069
  73   2.0000      -0.503197       -13.6927
  74   2.0000      -0.483017       -13.1436
  75   2.0000      -0.478792       -13.0286
  76   2.0000      -0.464011       -12.6264
  77   2.0000      -0.462449       -12.5839
  78   2.0000      -0.437309       -11.8998
  79   2.0000      -0.424653       -11.5554
  80   2.0000      -0.412732       -11.2310
  81   2.0000      -0.396394       -10.7864
  82   0.0000      -0.225114        -6.1257
  83   0.0000      -0.170635        -4.6432
  84   0.0000      -0.152448        -4.1483
  85   0.0000      -0.087016        -2.3678
  86   0.0000      -0.084617        -2.3025

MULLIKEN ATOMIC CHARGES
-----------------------
   0 Ir:    0.598742
   1 C :   -0.290949
   2 C :   -0.184949
   3 C :   -0.179378
   4 C :   -0.203300
   5 C :   -0.250185
   6 N :   -0.462644
   7 C :   -0.132616
   8 C :   -0.628078
   9 H :    0.244194
  10 H :    0.224016
  11 H :    0.270752
  12 C :   -0.668083
  13 H :    0.252360
  14 H :    0.263509
  15 H :    0.231516
  16 H :    0.244222
  17 C :    0.070156
  18 C :   -0.220126
  19 H :    0.275038
  20 C :   -0.225349
  21 C :   -0.150134
  22 S :    0.293109
  23 C :   -0.424208
  24 H :    0.309594
  25 H :    0.263754
  26 H :    0.292430
  27 H :    0.297863
  28 H :    0.313557
  29 H :    0.306841
  30 O :   -0.452559
  31 O :   -0.549369
  32 C :    0.620655
  33 C :   -0.766173
  34 H :    0.270997
  35 H :    0.272464
  36 H :    0.262381
  37 H :    0.308602
  38 H :    0.301350
Sum of atomic charges:    1.0000000

LOEWDIN ATOMIC CHARGES
----------------------
   0 Ir:   -0.126382
   1 C :   -0.028331
   2 C :   -0.018960
   3 C :    0.011397
   4 C :   -0.069207
   5 C :   -0.066259
   6 N :   -0.051408
   7 C :   -0.060387
   8 C :   -0.350968
   9 H :    0.146659
  10 H :    0.134812
  11 H :    0.152044
  12 C :   -0.361020
  13 H :    0.143037
  14 H :    0.153995
  15 H :    0.134908
  16 H :    0.138458
  17 C :    0.040295
  18 C :   -0.247357
  19 H :    0.155872
  20 C :   -0.127342
  21 C :   -0.171978
  22 S :    0.453578
  23 C :   -0.252966
  24 H :    0.189207
  25 H :    0.158278
  26 H :    0.165987
  27 H :    0.189459
  28 H :    0.196089
  29 H :    0.195731
  30 O :   -0.237979
  31 O :   -0.230136
  32 C :    0.152780
  33 C :   -0.382063
  34 H :    0.164565
  35 H :    0.169349
  36 H :    0.153049
  37 H :    0.192040
  38 H :    0.191157

  Mayer bond orders larger than 0.100000
B(  0-Ir,  1-C ) :   0.6014 B(  0-Ir,  2-C ) :   0.4835 B(  0-Ir,  3-C ) :   0.4533
B(  0-Ir,  4-C ) :   0.3778 B(  0-Ir,  5-C ) :   0.4691 B(  0-Ir,  6-N ) :   0.4785
B(  0-Ir, 30-O ) :   0.1856 B(  0-Ir, 31-O ) :   0.6303 B(  1-C ,  2-C ) :   1.0953
B(  1-C ,  4-C ) :   1.1291 B(  1-C , 27-H ) :   0.9082 B(  2-C ,  5-C ) :   1.2109
B(  2-C , 28-H ) :   0.8945 B(  3-C ,  4-C ) :   1.2490 B(  3-C ,  5-C ) :   1.1088
B(  3-C , 37-H ) :   0.8901 B(  4-C , 38-H ) :   0.9018 B(  5-C , 29-H ) :   0.9032
B(  6-N ,  7-C ) :   0.8769 B(  6-N , 17-C ) :   1.6692 B(  7-C ,  8-C ) :   0.9754
B(  7-C , 12-C ) :   0.9838 B(  7-C , 13-H ) :   0.8942 B(  8-C ,  9-H ) :   0.9070
B(  8-C , 10-H ) :   0.9167 B(  8-C , 11-H ) :   0.8991 B( 12-C , 14-H ) :   0.9057
B( 12-C , 15-H ) :   0.9122 B( 12-C , 16-H ) :   0.9167 B( 17-C , 18-C ) :   1.0916
B( 17-C , 19-H ) :   0.8762 B( 18-C , 20-C ) :   1.3921 B( 18-C , 22-S ) :   1.1514
B( 20-C , 21-C ) :   1.3235 B( 20-C , 24-H ) :   0.8207 B( 21-C , 23-C ) :   1.4624
B( 21-C , 25-H ) :   0.9051 B( 22-S , 23-C ) :   1.2737 B( 23-C , 26-H ) :   0.8949
B( 30-O , 32-C ) :   1.7355 B( 31-O , 32-C ) :   1.2241 B( 32-C , 33-C ) :   0.9453
B( 33-C , 34-H ) :   0.9004 B( 33-C , 35-H ) :   0.8965 B( 33-C , 36-H ) :   0.9068

Dispersion correction           -0.029172315
FINAL SINGLE POINT ENERGY     -1288.377980834409
Dispersion correction            ... done

DIPOLE MOMENT
-------------
                                X             Y             Z
Electronic contribution:     21.63834     -72.81641     121.04696
Nuclear contribution   :    -21.98475      71.33289    -121.06583
                        -----------------------------------------
Total Dipole Moment    :     -0.34642      -1.48352      -0.01887
                        -----------------------------------------
Magnitude (a.u.)       :      1.52354
Magnitude (Debye)      :      3.87254

Rotational constants in cm-1:     0.010738     0.007633     0.007031
Rotational constants in MHz :   321.923043   228.840399   210.782214

                             ****ORCA TERMINATED NORMALLY****
TOTAL RUN TIME: 0 days 0 hours 18 minutes 19 seconds 639 msec
