                         Program Version 5.0.3 -  RELEASE  -
|  1> ! EnGrad PBEh-3c
|  2> %output
|  3> xyzfile=True
|  4> end
|  5> %scf
|  6> maxiter 250
|  7> end
|  8> %output
|  9> Print[P_Hirshfeld] = 1
| 10> end
| 11> % maxcore
| 12> 4000
| 13> *xyz 1 1
| 14> Ir   0.44120745  -0.72930504   0.96140652
| 15> C   -0.08475321  -2.72736866   1.57280328
| 16> C    0.73868784  -2.11162225   2.58157306
| 17> C    1.97414154  -2.35148027   0.67341559
| 18> C    0.70308967  -2.89631464   0.39947975
| 19> C    1.99539663  -1.82512952   2.01263030
| 20> N   -1.00087453  -0.02265401  -0.44584460
| 21> C   -2.42241273   0.04615692   0.01918078
| 22> C   -2.86800042   1.46253279   0.39689069
| 23> H   -3.91599521   1.41289499   0.70887794
| 24> H   -2.82934334   2.13171350  -0.46840716
| 25> H   -2.26703529   1.87554354   1.21457169
| 26> C   -3.38944734  -0.58069523  -0.98192138
| 27> H   -2.45117561  -0.56660053   0.93019287
| 28> H   -4.36224517  -0.67611421  -0.50444296
| 29> H   -3.54656046   0.03962791  -1.86695496
| 30> H   -3.07611985  -1.57946354  -1.30374384
| 31> C   -0.70631895   0.29556128  -1.65334184
| 32> C    0.60220508   0.23919083  -2.23942784
| 33> H   -1.53783009   0.57127907  -2.32091670
| 34> C    1.88516388   0.39051663  -1.75468193
| 35> C    2.89514019   0.02193534  -2.63482942
| 36> S    0.71533792   0.05658732  -3.94519138
| 37> C    2.40704788  -0.07629630  -3.90204992
| 38> H    2.06074678   0.71278924  -0.75899347
| 39> H    3.92638637  -0.01090141  -2.35489166
| 40> H    3.00164200  -0.12590095  -4.79304893
| 41> H   -1.03388422  -3.21487295   1.76566234
| 42> H    0.41890505  -1.90629440   3.58551256
| 43> H    2.85283842  -1.38805538   2.51686201
| 44> O    1.74628477   1.69839755   0.72499131
| 45> O    0.04845921   1.05632723   1.92327633
| 46> C    0.88806020   1.96823808   1.52773801
| 47> C    0.75213450   3.34550407   2.12694404
| 48> H    0.81360810   4.10704504   1.35036876
| 49> H    1.60775106   3.53377576   2.77468081
| 50> H   -0.15355183   3.52246587   2.71173370
| 51> H    2.78481331  -2.29549173  -0.03824510
| 52> H    0.38267448  -3.39807021  -0.51036836
| 53> *
| 54>
| 55>                          ****END OF INPUT****

CARTESIAN COORDINATES (ANGSTROEM)
---------------------------------
  Ir     0.441207   -0.729305    0.961407
  C     -0.084753   -2.727369    1.572803
  C      0.738688   -2.111622    2.581573
  C      1.974142   -2.351480    0.673416
  C      0.703090   -2.896315    0.399480
  C      1.995397   -1.825130    2.012630
  N     -1.000875   -0.022654   -0.445845
  C     -2.422413    0.046157    0.019181
  C     -2.868000    1.462533    0.396891
  H     -3.915995    1.412895    0.708878
  H     -2.829343    2.131714   -0.468407
  H     -2.267035    1.875544    1.214572
  C     -3.389447   -0.580695   -0.981921
  H     -2.451176   -0.566601    0.930193
  H     -4.362245   -0.676114   -0.504443
  H     -3.546560    0.039628   -1.866955
  H     -3.076120   -1.579464   -1.303744
  C     -0.706319    0.295561   -1.653342
  C      0.602205    0.239191   -2.239428
  H     -1.537830    0.571279   -2.320917
  C      1.885164    0.390517   -1.754682
  C      2.895140    0.021935   -2.634829
  S      0.715338    0.056587   -3.945191
  C      2.407048   -0.076296   -3.902050
  H      2.060747    0.712789   -0.758993
  H      3.926386   -0.010901   -2.354892
  H      3.001642   -0.125901   -4.793049
  H     -1.033884   -3.214873    1.765662
  H      0.418905   -1.906294    3.585513
  H      2.852838   -1.388055    2.516862
  O      1.746285    1.698398    0.724991
  O      0.048459    1.056327    1.923276
  C      0.888060    1.968238    1.527738
  C      0.752134    3.345504    2.126944
  H      0.813608    4.107045    1.350369
  H      1.607751    3.533776    2.774681
  H     -0.153552    3.522466    2.711734
  H      2.784813   -2.295492   -0.038245
  H      0.382674   -3.398070   -0.510368

 Total Charge           Charge          ....    1
 Multiplicity           Mult            ....    1
 Number of Electrons    NEL             ....  164
 Basis Dimension        Dim             ....  358

ORBITAL ENERGIES
----------------

  NO   OCC          E(Eh)            E(eV)
   0   2.0000     -89.740856     -2441.9728
   1   2.0000     -19.619952      -533.8860
   2   2.0000     -19.588922      -533.0417
   3   2.0000     -14.828231      -403.4967
   4   2.0000     -10.676615      -290.5255
   5   2.0000     -10.656444      -289.9766
   6   2.0000     -10.653313      -289.8914
   7   2.0000     -10.650632      -289.8184
   8   2.0000     -10.644894      -289.6623
   9   2.0000     -10.638707      -289.4939
  10   2.0000     -10.635512      -289.4070
  11   2.0000     -10.613423      -288.8059
  12   2.0000     -10.605784      -288.5981
  13   2.0000     -10.598271      -288.3936
  14   2.0000     -10.569202      -287.6026
  15   2.0000     -10.565349      -287.4977
  16   2.0000     -10.550345      -287.0895
  17   2.0000     -10.541337      -286.8444
  18   2.0000     -10.535116      -286.6751
  19   2.0000      -8.380765      -228.0522
  20   2.0000      -6.270803      -170.6372
  21   2.0000      -6.267391      -170.5444
  22   2.0000      -6.265339      -170.4885
  23   2.0000      -4.037454      -109.8647
  24   2.0000      -2.357207       -64.1429
  25   2.0000      -2.319973       -63.1297
  26   2.0000      -2.319258       -63.1102
  27   2.0000      -1.311222       -35.6802
  28   2.0000      -1.202658       -32.7260
  29   2.0000      -1.192067       -32.4378
  30   2.0000      -1.182180       -32.1688
  31   2.0000      -1.117433       -30.4069
  32   2.0000      -1.010805       -27.5054
  33   2.0000      -0.993747       -27.0412
  34   2.0000      -0.987700       -26.8767
  35   2.0000      -0.960340       -26.1322
  36   2.0000      -0.946151       -25.7461
  37   2.0000      -0.924789       -25.1648
  38   2.0000      -0.889148       -24.1949
  39   2.0000      -0.863640       -23.5008
  40   2.0000      -0.797254       -21.6944
  41   2.0000      -0.795403       -21.6440
  42   2.0000      -0.790021       -21.4976
  43   2.0000      -0.781550       -21.2670
  44   2.0000      -0.766323       -20.8527
  45   2.0000      -0.740466       -20.1491
  46   2.0000      -0.731296       -19.8996
  47   2.0000      -0.714351       -19.4385
  48   2.0000      -0.682298       -18.5663
  49   2.0000      -0.660451       -17.9718
  50   2.0000      -0.659928       -17.9575
  51   2.0000      -0.656858       -17.8740
  52   2.0000      -0.644633       -17.5414
  53   2.0000      -0.642403       -17.4807
  54   2.0000      -0.637312       -17.3421
  55   2.0000      -0.631330       -17.1794
  56   2.0000      -0.619641       -16.8613
  57   2.0000      -0.617519       -16.8036
  58   2.0000      -0.616235       -16.7686
  59   2.0000      -0.606235       -16.4965
  60   2.0000      -0.589226       -16.0337
  61   2.0000      -0.578149       -15.7322
  62   2.0000      -0.570394       -15.5212
  63   2.0000      -0.564633       -15.3645
  64   2.0000      -0.558109       -15.1869
  65   2.0000      -0.550725       -14.9860
  66   2.0000      -0.546150       -14.8615
  67   2.0000      -0.543462       -14.7884
  68   2.0000      -0.532858       -14.4998
  69   2.0000      -0.525030       -14.2868
  70   2.0000      -0.521130       -14.1807
  71   2.0000      -0.515212       -14.0196
  72   2.0000      -0.510130       -13.8813
  73   2.0000      -0.503763       -13.7081
  74   2.0000      -0.483611       -13.1597
  75   2.0000      -0.478559       -13.0222
  76   2.0000      -0.464574       -12.6417
  77   2.0000      -0.459575       -12.5057
  78   2.0000      -0.438163       -11.9230
  79   2.0000      -0.424209       -11.5433
  80   2.0000      -0.414101       -11.2683
  81   2.0000      -0.396178       -10.7805
  82   0.0000      -0.224689        -6.1141
  83   0.0000      -0.171357        -4.6629
  84   0.0000      -0.151943        -4.1346
  85   0.0000      -0.085190        -2.3181
  86   0.0000      -0.084152        -2.2899

MULLIKEN ATOMIC CHARGES
-----------------------
   0 Ir:    0.604489
   1 C :   -0.287200
   2 C :   -0.178354
   3 C :   -0.181303
   4 C :   -0.206919
   5 C :   -0.254051
   6 N :   -0.462796
   7 C :   -0.131777
   8 C :   -0.627591
   9 H :    0.245471
  10 H :    0.222461
  11 H :    0.269566
  12 C :   -0.666127
  13 H :    0.253121
  14 H :    0.264864
  15 H :    0.229736
  16 H :    0.242122
  17 C :    0.058629
  18 C :   -0.228584
  19 H :    0.271795
  20 C :   -0.243491
  21 C :   -0.143078
  22 S :    0.299480
  23 C :   -0.426856
  24 H :    0.345449
  25 H :    0.264457
  26 H :    0.294712
  27 H :    0.295099
  28 H :    0.309793
  29 H :    0.303669
  30 O :   -0.444734
  31 O :   -0.544313
  32 C :    0.618388
  33 C :   -0.766791
  34 H :    0.268514
  35 H :    0.271280
  36 H :    0.259171
  37 H :    0.304333
  38 H :    0.297369
Sum of atomic charges:    1.0000000

LOEWDIN ATOMIC CHARGES
----------------------
   0 Ir:   -0.124780
   1 C :   -0.028033
   2 C :   -0.016327
   3 C :    0.006917
   4 C :   -0.069616
   5 C :   -0.070184
   6 N :   -0.051170
   7 C :   -0.059873
   8 C :   -0.351062
   9 H :    0.146840
  10 H :    0.134412
  11 H :    0.151537
  12 C :   -0.360451
  13 H :    0.143944
  14 H :    0.153913
  15 H :    0.134174
  16 H :    0.137983
  17 C :    0.035030
  18 C :   -0.240956
  19 H :    0.155757
  20 C :   -0.123285
  21 C :   -0.171766
  22 S :    0.455511
  23 C :   -0.248688
  24 H :    0.187636
  25 H :    0.157529
  26 H :    0.167116
  27 H :    0.188129
  28 H :    0.193966
  29 H :    0.194077
  30 O :   -0.226662
  31 O :   -0.224490
  32 C :    0.142470
  33 C :   -0.382637
  34 H :    0.163474
  35 H :    0.168138
  36 H :    0.152458
  37 H :    0.189577
  38 H :    0.189391

  Mayer bond orders larger than 0.100000
B(  0-Ir,  1-C ) :   0.5887 B(  0-Ir,  2-C ) :   0.4694 B(  0-Ir,  3-C ) :   0.4592
B(  0-Ir,  4-C ) :   0.3780 B(  0-Ir,  5-C ) :   0.4666 B(  0-Ir,  6-N ) :   0.4846
B(  0-Ir, 30-O ) :   0.1999 B(  0-Ir, 31-O ) :   0.6263 B(  1-C ,  2-C ) :   1.1047
B(  1-C ,  4-C ) :   1.1308 B(  1-C , 27-H ) :   0.9121 B(  2-C ,  5-C ) :   1.2150
B(  2-C , 28-H ) :   0.8984 B(  3-C ,  4-C ) :   1.2458 B(  3-C ,  5-C ) :   1.1088
B(  3-C , 37-H ) :   0.8960 B(  4-C , 38-H ) :   0.9058 B(  5-C , 29-H ) :   0.9050
B(  6-N ,  7-C ) :   0.8762 B(  6-N , 17-C ) :   1.6593 B(  7-C ,  8-C ) :   0.9757
B(  7-C , 12-C ) :   0.9831 B(  7-C , 13-H ) :   0.8938 B(  8-C ,  9-H ) :   0.9067
B(  8-C , 10-H ) :   0.9173 B(  8-C , 11-H ) :   0.9000 B( 12-C , 14-H ) :   0.9050
B( 12-C , 15-H ) :   0.9124 B( 12-C , 16-H ) :   0.9178 B( 17-C , 18-C ) :   1.1017
B( 17-C , 19-H ) :   0.8782 B( 18-C , 20-C ) :   1.3963 B( 18-C , 22-S ) :   1.1518
B( 20-C , 21-C ) :   1.3326 B( 20-C , 24-H ) :   0.7992 B( 21-C , 23-C ) :   1.4556
B( 21-C , 25-H ) :   0.9051 B( 22-S , 23-C ) :   1.2784 B( 23-C , 26-H ) :   0.8939
B( 30-O , 32-C ) :   1.7334 B( 31-O , 32-C ) :   1.2353 B( 32-C , 33-C ) :   0.9412
B( 33-C , 34-H ) :   0.9017 B( 33-C , 35-H ) :   0.8972 B( 33-C , 36-H ) :   0.9087

Dispersion correction           -0.029185579
FINAL SINGLE POINT ENERGY     -1288.381616094735
Dispersion correction            ... done

DIPOLE MOMENT
-------------
                                X             Y             Z
Electronic contribution:     22.20981     -71.14528     119.86985
Nuclear contribution   :    -22.47747      69.66021    -119.99061
                        -----------------------------------------
Total Dipole Moment    :     -0.26767      -1.48507      -0.12076
                        -----------------------------------------
Magnitude (a.u.)       :      1.51382
Magnitude (Debye)      :      3.84783

Rotational constants in cm-1:     0.010760     0.007662     0.007050
Rotational constants in MHz :   322.585804   229.697293   211.360388

                             ****ORCA TERMINATED NORMALLY****
TOTAL RUN TIME: 0 days 0 hours 18 minutes 26 seconds 970 msec
