                         Program Version 5.0.4 -  RELEASE  -
|  1> %pal nprocs 8 end
|  2>
|  3>  *xyzfile -1 1 DHSGS_ts_guess.xyz
|  4>
|  5>
|  6>                          ****END OF INPUT****
|  1>
|  2>
|  3>   ! PBEh-3c OptTS Freq pal8
|  4>
|  5>   %geom
|  6>    calc_hess true
|  7>    recalc_hess 20
|  8>    maxiter 600
|  9>   end
| 10>
| 11>
| 12>                          ****END OF INPUT****
 Total Charge           Charge          ....   -1
 Multiplicity           Mult            ....    1
 Number of Electrons    NEL             ....  164
Dispersion correction           -0.024870804
FINAL SINGLE POINT ENERGY     -2061.489797814277
Dispersion correction            ... done
Dispersion correction in the Hessian             ... done   (      0.7 sec)
Dispersion correction           -0.024973233
FINAL SINGLE POINT ENERGY     -2061.490772606362
Dispersion correction            ... done
Dispersion correction           -0.025025466
FINAL SINGLE POINT ENERGY     -2061.490921426788
FINAL SINGLE POINT ENERGY     -2061.490925522065
FINAL SINGLE POINT ENERGY     -2061.490944719079
Dispersion correction           -0.024988078
FINAL SINGLE POINT ENERGY     -2061.490969820481
Dispersion correction            ... done
                    ***********************HURRAY********************
Dispersion correction           -0.024992299
FINAL SINGLE POINT ENERGY     -2061.490964077435
Dispersion correction in the Hessian             ... done   (      0.7 sec)

VIBRATIONAL FREQUENCIES
-----------------------

Scaling factor for frequencies =  1.000000000  (already applied!)

   0:         0.00 cm**-1
   1:         0.00 cm**-1
   2:         0.00 cm**-1
   3:         0.00 cm**-1
   4:         0.00 cm**-1
   5:         0.00 cm**-1
   6:       -97.31 cm**-1 ***imaginary mode***
   7:        42.59 cm**-1
   8:        56.49 cm**-1
   9:        59.62 cm**-1
  10:        80.99 cm**-1
  11:       100.88 cm**-1
  12:       130.72 cm**-1
  13:       137.41 cm**-1
  14:       158.32 cm**-1
  15:       182.76 cm**-1
  16:       193.92 cm**-1
  17:       211.58 cm**-1
  18:       239.50 cm**-1
  19:       275.07 cm**-1
  20:       300.76 cm**-1
  21:       352.67 cm**-1
  22:       362.05 cm**-1
  23:       431.09 cm**-1
  24:       443.42 cm**-1
  25:       461.22 cm**-1
  26:       513.84 cm**-1
  27:       518.01 cm**-1
  28:       527.79 cm**-1
  29:       571.32 cm**-1
  30:       583.55 cm**-1
  31:       635.75 cm**-1
  32:       649.55 cm**-1
  33:       744.40 cm**-1
  34:       754.61 cm**-1
  35:       764.51 cm**-1
  36:       789.67 cm**-1
  37:       820.26 cm**-1
  38:       855.68 cm**-1
  39:       875.07 cm**-1
  40:       880.82 cm**-1
  41:       931.63 cm**-1
  42:       947.02 cm**-1
  43:       979.67 cm**-1
  44:       994.26 cm**-1
  45:      1017.59 cm**-1
  46:      1027.37 cm**-1
  47:      1031.80 cm**-1
  48:      1068.23 cm**-1
  49:      1114.04 cm**-1
  50:      1133.35 cm**-1
  51:      1161.44 cm**-1
  52:      1192.29 cm**-1
  53:      1202.50 cm**-1
  54:      1218.60 cm**-1
  55:      1268.73 cm**-1
  56:      1283.13 cm**-1
  57:      1286.02 cm**-1
  58:      1329.50 cm**-1
  59:      1385.54 cm**-1
  60:      1414.43 cm**-1
  61:      1437.27 cm**-1
  62:      1487.71 cm**-1
  63:      1504.25 cm**-1
  64:      1521.41 cm**-1
  65:      1535.94 cm**-1
  66:      1592.85 cm**-1
  67:      1615.35 cm**-1
  68:      1692.71 cm**-1
  69:      1704.15 cm**-1
  70:      1725.37 cm**-1
  71:      1742.61 cm**-1
  72:      2283.73 cm**-1
  73:      3249.93 cm**-1
  74:      3252.08 cm**-1
  75:      3260.15 cm**-1
  76:      3268.93 cm**-1
  77:      3271.94 cm**-1
  78:      3294.28 cm**-1
  79:      3296.61 cm**-1
  80:      3311.80 cm**-1

IR SPECTRUM
-----------

 Mode   freq       eps      Int      T**2         TX        TY        TZ
       cm**-1   L/(mol*cm) km/mol    a.u.
----------------------------------------------------------------------------
  7:     42.59   0.000637    3.22  0.004665  (-0.031231 -0.054137 -0.027553)
  8:     56.49   0.000419    2.12  0.002314  ( 0.030359  0.036964  0.005074)
  9:     59.62   0.000814    4.11  0.004260  (-0.038919  0.011094  0.051208)
 10:     80.99   0.000224    1.13  0.000863  ( 0.013641  0.023361 -0.011469)
 11:    100.88   0.001042    5.27  0.003224  (-0.050424  0.005423 -0.025543)
 12:    130.72   0.002317   11.71  0.005531  ( 0.007890 -0.044664  0.058943)
 13:    137.41   0.000477    2.41  0.001083  ( 0.016916 -0.024794  0.013510)
 14:    158.32   0.001358    6.86  0.002677  ( 0.029858 -0.027637  0.031967)
 15:    182.76   0.004750   24.00  0.008110  ( 0.024429 -0.056613  0.065639)
 16:    193.92   0.000183    0.92  0.000294  ( 0.002941  0.016711 -0.002546)
 17:    211.58   0.001373    6.94  0.002025  (-0.000110 -0.033183  0.030398)
 18:    239.50   0.001962    9.91  0.002556  (-0.028176  0.026554 -0.032515)
 19:    275.07   0.001128    5.70  0.001280  (-0.008757  0.021629 -0.027124)
 20:    300.76   0.000971    4.91  0.001008  (-0.027827  0.014937  0.003179)
 21:    352.67   0.007249   36.63  0.006414  (-0.074886  0.017351  0.022479)
 22:    362.05   0.008575   43.33  0.007391  ( 0.052066  0.059090  0.034478)
 23:    431.09   0.001049    5.30  0.000759  (-0.026377 -0.002864 -0.007442)
 24:    443.42   0.000806    4.07  0.000567  (-0.005852  0.010551 -0.020540)
 25:    461.22   0.001060    5.35  0.000717  (-0.014124  0.001754 -0.022679)
 26:    513.84   0.000554    2.80  0.000336  ( 0.008621 -0.014846 -0.006459)
 27:    518.01   0.000576    2.91  0.000347  ( 0.003932 -0.018158  0.001335)
 28:    527.79   0.000718    3.63  0.000425  (-0.013063  0.012757 -0.009558)
 29:    571.32   0.001455    7.35  0.000795  ( 0.012048 -0.017315  0.018698)
 30:    583.55   0.000149    0.76  0.000080  ( 0.000540  0.004099 -0.007926)
 31:    635.75   0.000421    2.13  0.000207  ( 0.004041 -0.007014  0.011875)
 32:    649.55   0.003516   17.77  0.001689  ( 0.011515 -0.037508  0.012247)
 33:    744.40   0.000199    1.00  0.000083  ( 0.007395  0.005352 -0.000015)
 34:    754.61   0.003158   15.96  0.001306  ( 0.028588 -0.021058 -0.006717)
 35:    764.51   0.004896   24.74  0.001998  (-0.030119  0.019424 -0.026720)
 36:    789.67   0.006871   34.72  0.002715  (-0.041998  0.023485 -0.019993)
 37:    820.26   0.000484    2.44  0.000184  (-0.008511 -0.004383  0.009612)
 38:    855.68   0.019827  100.20  0.007231  ( 0.062432 -0.036460  0.044763)
 39:    875.07   0.001448    7.32  0.000516  (-0.011906  0.003124 -0.019103)
 40:    880.82   0.006521   32.96  0.002310  ( 0.035876 -0.024575  0.020478)
 41:    931.63   0.003502   17.70  0.001173  (-0.017429  0.019291 -0.022294)
 42:    947.02   0.001325    6.70  0.000437  ( 0.019744  0.003060 -0.006118)
 43:    979.67   0.012688   64.12  0.004042  ( 0.041753 -0.025581  0.040544)
 44:    994.26   0.000132    0.67  0.000041  ( 0.004113 -0.004937 -0.000311)
 45:   1017.59   0.000301    1.52  0.000092  (-0.003569  0.003245 -0.008314)
 46:   1027.37   0.000079    0.40  0.000024  ( 0.004907 -0.000199  0.000081)
 47:   1031.80   0.000264    1.34  0.000080  (-0.001220 -0.000865 -0.008815)
 48:   1068.23   0.000190    0.96  0.000056  ( 0.001994 -0.000336  0.007174)
 49:   1114.04   0.001438    7.27  0.000403  ( 0.019744 -0.001540 -0.003269)
 50:   1133.35   0.000753    3.81  0.000207  (-0.008643  0.007394  0.008836)
 51:   1161.44   0.000962    4.86  0.000259  (-0.002185 -0.015004 -0.005356)
 52:   1192.29   0.000888    4.49  0.000233  (-0.000420  0.004881  0.014440)
 53:   1202.50   0.000518    2.62  0.000134  (-0.006031 -0.008789 -0.004564)
 54:   1218.60   0.001411    7.13  0.000361  (-0.014965 -0.001055  0.011676)
 55:   1268.73   0.000446    2.25  0.000110  ( 0.002105  0.010255  0.000302)
 56:   1283.13   0.000487    2.46  0.000118  ( 0.002768  0.005471  0.008986)
 57:   1286.02   0.000571    2.89  0.000139  ( 0.004130 -0.005136 -0.009757)
 58:   1329.50   0.000570    2.88  0.000134  (-0.001141 -0.004794 -0.010462)
 59:   1385.54   0.001580    7.98  0.000356  (-0.006631 -0.016547 -0.006171)
 60:   1414.43   0.002228   11.26  0.000492  (-0.015921 -0.009430  0.012215)
 61:   1437.27   0.000631    3.19  0.000137  ( 0.003107  0.003334 -0.010782)
 62:   1487.71   0.001051    5.31  0.000221  ( 0.002113  0.004325 -0.014049)
 63:   1504.25   0.007217   36.47  0.001497  (-0.014415  0.002798  0.035799)
 64:   1521.41   0.002095   10.59  0.000430  ( 0.005029 -0.002877 -0.019905)
 65:   1535.94   0.003131   15.82  0.000636  ( 0.007678 -0.020162 -0.013068)
 66:   1592.85   0.001419    7.17  0.000278  (-0.009366  0.002704  0.013525)
 67:   1615.35   0.002223   11.24  0.000430  ( 0.014899  0.008507  0.011627)
 68:   1692.71   0.002183   11.03  0.000402  ( 0.010809  0.015431 -0.006887)
 69:   1704.15   0.001229    6.21  0.000225  (-0.009785 -0.005367  0.010025)
 70:   1725.37   0.000856    4.33  0.000155  (-0.010271 -0.001061  0.006949)
 71:   1742.61   0.001096    5.54  0.000196  (-0.000859  0.007843  0.011580)
 72:   2283.73   0.129148  652.66  0.017648  ( 0.036759 -0.082434  0.097473)
 73:   3249.93   0.000156    0.79  0.000015  ( 0.000698  0.002271  0.003063)
 74:   3252.08   0.000834    4.21  0.000080  (-0.005302 -0.006262  0.003564)
 75:   3260.15   0.001396    7.06  0.000134  ( 0.004744  0.009141  0.005254)
 76:   3268.93   0.005133   25.94  0.000490  ( 0.013262  0.017722 -0.000217)
 77:   3271.94   0.006208   31.37  0.000592  ( 0.012092  0.000170 -0.021115)
 78:   3294.28   0.001589    8.03  0.000151  ( 0.003382 -0.005759 -0.010292)
 79:   3296.61   0.000875    4.42  0.000083  ( 0.004026 -0.002173 -0.007865)
 80:   3311.80   0.001576    7.97  0.000149  (-0.007509 -0.007764 -0.005646)

--------------------------
THERMOCHEMISTRY AT 298.15K
--------------------------

Temperature         ... 298.15 K
Pressure            ... 1.00 atm
Total Mass          ... 391.98 AMU

Throughout the following assumptions are being made:
  (1) The electronic state is orbitally nondegenerate
  (2) There are no thermally accessible electronically excited states
  (3) Hindered rotations indicated by low frequency modes are not
      treated as such but are treated as vibrations and this may
      cause some error
  (4) All equations used are the standard statistical mechanics
      equations for an ideal gas
  (5) All vibrations are strictly harmonic

freq.      42.59  E(vib)   ...       0.53
freq.      56.49  E(vib)   ...       0.52
freq.      59.62  E(vib)   ...       0.51
freq.      80.99  E(vib)   ...       0.48
freq.     100.88  E(vib)   ...       0.46
freq.     130.72  E(vib)   ...       0.43
freq.     137.41  E(vib)   ...       0.42
freq.     158.32  E(vib)   ...       0.39
freq.     182.76  E(vib)   ...       0.37
freq.     193.92  E(vib)   ...       0.36
freq.     211.58  E(vib)   ...       0.34
freq.     239.50  E(vib)   ...       0.31
freq.     275.07  E(vib)   ...       0.28
freq.     300.76  E(vib)   ...       0.26
freq.     352.67  E(vib)   ...       0.22
freq.     362.05  E(vib)   ...       0.22
freq.     431.09  E(vib)   ...       0.18
freq.     443.42  E(vib)   ...       0.17
freq.     461.22  E(vib)   ...       0.16
freq.     513.84  E(vib)   ...       0.13
freq.     518.01  E(vib)   ...       0.13
freq.     527.79  E(vib)   ...       0.13
freq.     571.32  E(vib)   ...       0.11
freq.     583.55  E(vib)   ...       0.11
freq.     635.75  E(vib)   ...       0.09
freq.     649.55  E(vib)   ...       0.08
freq.     744.40  E(vib)   ...       0.06
freq.     754.61  E(vib)   ...       0.06
freq.     764.51  E(vib)   ...       0.06
freq.     789.67  E(vib)   ...       0.05
freq.     820.26  E(vib)   ...       0.05
freq.     855.68  E(vib)   ...       0.04
freq.     875.07  E(vib)   ...       0.04
freq.     880.82  E(vib)   ...       0.04
freq.     931.63  E(vib)   ...       0.03
freq.     947.02  E(vib)   ...       0.03
freq.     979.67  E(vib)   ...       0.03
freq.     994.26  E(vib)   ...       0.02
freq.    1017.59  E(vib)   ...       0.02
freq.    1027.37  E(vib)   ...       0.02
freq.    1031.80  E(vib)   ...       0.02
freq.    1068.23  E(vib)   ...       0.02
freq.    1114.04  E(vib)   ...       0.01
freq.    1133.35  E(vib)   ...       0.01
freq.    1161.44  E(vib)   ...       0.01
freq.    1192.29  E(vib)   ...       0.01
freq.    1202.50  E(vib)   ...       0.01
freq.    1218.60  E(vib)   ...       0.01
freq.    1268.73  E(vib)   ...       0.01
freq.    1283.13  E(vib)   ...       0.01
freq.    1286.02  E(vib)   ...       0.01
freq.    1329.50  E(vib)   ...       0.01
freq.    1385.54  E(vib)   ...       0.00
freq.    1414.43  E(vib)   ...       0.00
freq.    1437.27  E(vib)   ...       0.00
freq.    1487.71  E(vib)   ...       0.00
freq.    1504.25  E(vib)   ...       0.00
freq.    1521.41  E(vib)   ...       0.00
freq.    1535.94  E(vib)   ...       0.00
freq.    1592.85  E(vib)   ...       0.00
freq.    1615.35  E(vib)   ...       0.00
freq.    1692.71  E(vib)   ...       0.00
freq.    1704.15  E(vib)   ...       0.00
freq.    1725.37  E(vib)   ...       0.00
freq.    1742.61  E(vib)   ...       0.00
freq.    2283.73  E(vib)   ...       0.00
freq.    3249.93  E(vib)   ...       0.00
freq.    3252.08  E(vib)   ...       0.00
freq.    3260.15  E(vib)   ...       0.00
freq.    3268.93  E(vib)   ...       0.00
freq.    3271.94  E(vib)   ...       0.00
freq.    3294.28  E(vib)   ...       0.00
freq.    3296.61  E(vib)   ...       0.00
freq.    3311.80  E(vib)   ...       0.00

------------
INNER ENERGY
------------

The inner energy is: U= E(el) + E(ZPE) + E(vib) + E(rot) + E(trans)
    E(el)   - is the total energy from the electronic structure calculation
              = E(kin-el) + E(nuc-el) + E(el-el) + E(nuc-nuc)
    E(ZPE)  - the the zero temperature vibrational energy from the frequency calculation
    E(vib)  - the the finite temperature correction to E(ZPE) due to population
              of excited vibrational states
    E(rot)  - is the rotational thermal energy
    E(trans)- is the translational thermal energy

Summary of contributions to the inner energy U:
Electronic energy                ...  -2061.49096408 Eh
Zero point energy                ...      0.19077849 Eh     119.72 kcal/mol
Thermal vibrational correction   ...      0.01292752 Eh       8.11 kcal/mol
Thermal rotational correction    ...      0.00141627 Eh       0.89 kcal/mol
Thermal translational correction ...      0.00141627 Eh       0.89 kcal/mol
-----------------------------------------------------------------------
Total thermal energy                  -2061.28442553 Eh

Summary of corrections to the electronic energy:
(perhaps to be used in another calculation)
Total thermal correction                  0.01576006 Eh       9.89 kcal/mol
Non-thermal (ZPE) correction              0.19077849 Eh     119.72 kcal/mol
-----------------------------------------------------------------------
Total correction                          0.20653855 Eh     129.60 kcal/mol

--------
ENTHALPY
--------

The enthalpy is H = U + kB*T
                kB is Boltzmann's constant
Total free energy                 ...  -2061.28442553 Eh
Thermal Enthalpy correction       ...      0.00094421 Eh       0.59 kcal/mol
-----------------------------------------------------------------------
Total Enthalpy                    ...  -2061.28348132 Eh

Note: Only C1 symmetry has been detected, increase convergence thresholds
      if your molecule has a higher symmetry. Symmetry factor of 1.0 is
      used for the rotational entropy correction.

Note: Rotational entropy computed according to Herzberg
Infrared and Raman Spectra, Chapter V,1, Van Nostrand Reinhold, 1945
Point Group:  C1, Symmetry Number:   1
Rotational constants in cm-1:     0.011817     0.008490     0.006372

Vibrational entropy computed according to the QRRHO of S. Grimme
Chem.Eur.J. 2012 18 9955

-------
ENTROPY
-------

The entropy contributions are T*S = T*(S(el)+S(vib)+S(rot)+S(trans))
     S(el)   - electronic entropy
     S(vib)  - vibrational entropy
     S(rot)  - rotational entropy
     S(trans)- translational entropy
The entropies will be listed as multiplied by the temperature to get
units of energy

|  1>
|  2>
|  3>   ! PBEh-3c IRC pal8
|  4>   %irc
|  5>     maxiter 600
|  6>     inithess read
|  7>     hess_filename "reaction-2-dhsgs_optts_Compound_1.hess"
|  8>   end
|  9>
| 10>
| 11>                          ****END OF INPUT****

CARTESIAN COORDINATES (ANGSTROEM)
---------------------------------
  Pd    -2.150811   -1.545037    0.295299
  Cl    -3.109075   -3.117449   -1.043916
  Cl     0.059661   -2.930476    1.980727
  Cl    -4.165018   -0.832453    1.102183
  N     -1.134628   -0.068696    1.294999
  C     -1.501697    0.473865    2.434392
  C     -0.844460    1.587759    2.964030
  C      0.163478    2.178879    2.244479
  C     -0.074707    0.428689    0.623563
  C      0.558645    1.614695    1.024104
  H      0.647897    3.079829    2.601805
  H     -2.359439    0.034526    2.922305
  H     -1.168506    1.991214    3.912753
  C      0.339292   -0.245493   -0.567459
  C      1.518508    2.206948    0.144054
  C      1.788358    1.655988   -1.062237
  C      1.204071    0.410627   -1.458582
  H      1.996709    3.131113    0.445119
  H      2.478773    2.143619   -1.740186
  C     -0.125482   -1.547848   -0.838365
  C      1.479296   -0.205968   -2.690676
  C      0.142826   -2.113903   -2.066048
  C      0.927618   -1.429440   -3.000038
  H      2.132654    0.291515   -3.397654
  H      1.132532   -1.882661   -3.961576
  H     -0.295850   -2.246646    0.066784
  H     -0.245667   -3.100109   -2.279460

 Multiplicity           Mult            ....    1
 Number of Electrons    NEL             ....  164
 Basis Dimension        Dim             ....  313

ORBITAL ENERGIES
----------------

  NO   OCC          E(Eh)            E(eV)
   0   2.0000    -102.107195     -2778.4780
   1   2.0000    -102.095623     -2778.1632
   2   2.0000    -102.007810     -2775.7736
   3   2.0000     -14.602166      -397.3451
   4   2.0000     -10.417248      -283.4677
   5   2.0000     -10.407602      -283.2052
   6   2.0000     -10.397044      -282.9179
   7   2.0000     -10.392612      -282.7973
   8   2.0000     -10.384881      -282.5870
   9   2.0000     -10.384227      -282.5692
  10   2.0000     -10.383829      -282.5584
  11   2.0000     -10.382587      -282.5245
  12   2.0000     -10.378037      -282.4007
  13   2.0000     -10.375364      -282.3280
  14   2.0000     -10.370535      -282.1966
  15   2.0000     -10.361838      -281.9599
  16   2.0000     -10.358325      -281.8644
  17   2.0000      -9.571298      -260.4483
  18   2.0000      -9.560190      -260.1460
  19   2.0000      -9.471461      -257.7316
  20   2.0000      -7.257551      -197.4880
  21   2.0000      -7.252047      -197.3382
  22   2.0000      -7.251875      -197.3336
  23   2.0000      -7.246310      -197.1821
  24   2.0000      -7.240940      -197.0360
  25   2.0000      -7.240830      -197.0330
  26   2.0000      -7.155011      -194.6978
  27   2.0000      -7.154058      -194.6718
  28   2.0000      -7.153667      -194.6612
  29   2.0000      -3.534299       -96.1732
  30   2.0000      -2.184276       -59.4372
  31   2.0000      -2.178062       -59.2681
  32   2.0000      -2.143005       -58.3141
  33   2.0000      -0.998534       -27.1715
  34   2.0000      -0.899891       -24.4873
  35   2.0000      -0.858541       -23.3621
  36   2.0000      -0.823677       -22.4134
  37   2.0000      -0.794330       -21.6148
  38   2.0000      -0.755698       -20.5636
  39   2.0000      -0.740965       -20.1627
  40   2.0000      -0.698416       -19.0049
  41   2.0000      -0.685629       -18.6569
  42   2.0000      -0.656795       -17.8723
  43   2.0000      -0.651166       -17.7191
  44   2.0000      -0.626755       -17.0549
  45   2.0000      -0.605109       -16.4658
  46   2.0000      -0.592320       -16.1179
  47   2.0000      -0.545822       -14.8526
  48   2.0000      -0.529439       -14.4068
  49   2.0000      -0.505497       -13.7553
  50   2.0000      -0.477220       -12.9858
  51   2.0000      -0.471478       -12.8296
  52   2.0000      -0.443148       -12.0587
  53   2.0000      -0.424044       -11.5388
  54   2.0000      -0.419623       -11.4185
  55   2.0000      -0.416711       -11.3393
  56   2.0000      -0.405371       -11.0307
  57   2.0000      -0.401475       -10.9247
  58   2.0000      -0.382173       -10.3994
  59   2.0000      -0.359219        -9.7748
  60   2.0000      -0.355923        -9.6852
  61   2.0000      -0.332882        -9.0582
  62   2.0000      -0.325676        -8.8621
  63   2.0000      -0.310835        -8.4582
  64   2.0000      -0.306321        -8.3354
  65   2.0000      -0.279481        -7.6051
  66   2.0000      -0.272981        -7.4282
  67   2.0000      -0.265479        -7.2241
  68   2.0000      -0.250988        -6.8297
  69   2.0000      -0.238051        -6.4777
  70   2.0000      -0.230906        -6.2833
  71   2.0000      -0.226935        -6.1752
  72   2.0000      -0.197867        -5.3842
  73   2.0000      -0.186983        -5.0881
  74   2.0000      -0.180076        -4.9001
  75   2.0000      -0.170703        -4.6451
  76   2.0000      -0.166660        -4.5351
  77   2.0000      -0.156555        -4.2601
  78   2.0000      -0.152571        -4.1517
  79   2.0000      -0.108690        -2.9576
  80   2.0000      -0.106787        -2.9058
  81   2.0000      -0.100050        -2.7225
  82   0.0000       0.039871         1.0849
  83   0.0000       0.041161         1.1201
  84   0.0000       0.067810         1.8452
  85   0.0000       0.101472         2.7612
  86   0.0000       0.130373         3.5476

MULLIKEN ATOMIC CHARGES
-----------------------
   0 Pd:    0.220137
   1 Cl:   -0.343507
   2 Cl:   -0.668323
   3 Cl:   -0.351394
   4 N :   -0.563533
   5 C :    0.065748
   6 C :   -0.324892
   7 C :   -0.158730
   8 C :    0.393487
   9 C :    0.049903
  10 H :    0.212247
  11 H :    0.287727
  12 H :    0.223014
  13 C :    0.084058
  14 C :   -0.292225
  15 C :   -0.299297
  16 C :    0.130141
  17 H :    0.199556
  18 H :    0.199842
  19 C :   -0.373872
  20 C :   -0.296470
  21 C :   -0.217510
  22 C :   -0.209061
  23 H :    0.197093
  24 H :    0.205656
  25 H :    0.378526
  26 H :    0.251681
Sum of atomic charges:   -1.0000000

LOEWDIN ATOMIC CHARGES
----------------------
   0 Pd:   -0.839090
   1 Cl:   -0.072389
   2 Cl:   -0.596405
   3 Cl:   -0.075455
   4 N :    0.055682
   5 C :    0.022088
   6 C :   -0.155622
   7 C :   -0.086959
   8 C :    0.097353
   9 C :   -0.049466
  10 H :    0.136174
  11 H :    0.171863
  12 H :    0.142438
  13 C :    0.005357
  14 C :   -0.132121
  15 C :   -0.118300
  16 C :   -0.034324
  17 H :    0.132698
  18 H :    0.133052
  19 C :   -0.088822
  20 C :   -0.125580
  21 C :   -0.077082
  22 C :   -0.129298
  23 H :    0.129564
  24 H :    0.132199
  25 H :    0.260332
  26 H :    0.162117

  Mayer bond orders larger than 0.100000
B(  0-Pd,  1-Cl) :   0.9089 B(  0-Pd,  2-Cl) :   0.2477 B(  0-Pd,  3-Cl) :   0.8756
B(  0-Pd,  4-N ) :   0.4006 B(  0-Pd, 19-C ) :   0.2666 B(  2-Cl, 25-H ) :   0.2793
B(  4-N ,  5-C ) :   1.4899 B(  4-N ,  8-C ) :   1.1466 B(  5-C ,  6-C ) :   1.3035
B(  5-C , 11-H ) :   0.8742 B(  6-C ,  7-C ) :   1.4691 B(  6-C , 12-H ) :   0.9196
B(  7-C ,  9-C ) :   1.2701 B(  7-C , 10-H ) :   0.9285 B(  8-C ,  9-C ) :   1.2494
B(  8-C , 13-C ) :   1.1403 B(  9-C , 14-C ) :   1.1617 B( 13-C , 16-C ) :   1.3117
B( 13-C , 19-C ) :   1.1980 B( 14-C , 15-C ) :   1.6552 B( 14-C , 17-H ) :   0.9289
B( 15-C , 16-C ) :   1.1531 B( 15-C , 18-H ) :   0.9278 B( 16-C , 20-C ) :   1.2624
B( 19-C , 21-C ) :   1.4618 B( 19-C , 25-H ) :   0.5492 B( 20-C , 22-C ) :   1.4852
B( 20-C , 23-H ) :   0.9309 B( 21-C , 22-C ) :   1.3357 B( 21-C , 26-H ) :   0.9033
B( 22-C , 24-H ) :   0.9237

Dispersion correction           -0.024992299
FINAL SINGLE POINT ENERGY     -2061.490964130110
Dispersion correction            ... done

DIPOLE MOMENT
-------------
                                X             Y             Z
Electronic contribution:    -86.38224     -56.07920       7.69407
Nuclear contribution   :     88.71021      60.43087      -8.91356
                        -----------------------------------------
Total Dipole Moment    :      2.32796       4.35166      -1.21949
                        -----------------------------------------
Magnitude (a.u.)       :      5.08366
Magnitude (Debye)      :     12.92162

Rotational constants in cm-1:     0.011817     0.008490     0.006372
Rotational constants in MHz :   354.256974   254.538456   191.027836

                      ***********************HURRAY********************
                             ****ORCA TERMINATED NORMALLY****
TOTAL RUN TIME: 0 days 7 hours 36 minutes 16 seconds 731 msec
