                         Program Version 5.0.3 -  RELEASE  -
|  1> ! EnGrad PBEh-3c
|  2> %output
|  3> xyzfile=True
|  4> end
|  5> %scf
|  6> maxiter 250
|  7> end
|  8> %output
|  9> Print[P_Hirshfeld] = 1
| 10> end
| 11> % maxcore
| 12> 4000
| 13> *xyz 0 1
| 14> Lu   0.44307569   0.50239078  -0.32564162
| 15> C    0.45687293   1.00686534   2.51318537
| 16> C    1.33633145  -0.03991540   2.19917240
| 17> C    2.32883708   0.47607483   1.36170705
| 18> C    2.02668016   1.81185931   1.08663123
| 19> C    0.76426363   2.06270738   1.64871768
| 20> H    2.51947831   2.46608291   0.38465085
| 21> H    0.21473020   2.98851563   1.61875129
| 22> H   -0.36034065   0.98924666   3.21785319
| 23> H    1.31958964  -1.01551292   2.65829992
| 24> H    3.17604143  -0.08854901   1.01464634
| 25> C    1.06363552  -0.14845506  -2.66178707
| 26> C   -0.25105541  -0.64342119  -2.60518708
| 27> C    1.01719810  -1.95049741  -1.28401945
| 28> C    1.84730620  -0.97065229  -1.84239314
| 29> H    1.33256069   0.78565545  -3.13142148
| 30> C   -0.23113699  -1.87031818  -1.92889157
| 31> H   -1.09775053  -0.28187925  -3.16495263
| 32> H    2.88573010  -0.84452580  -1.58565120
| 33> H    1.31233500  -2.77454784  -0.65284707
| 34> H   -1.06553344  -2.54792609  -1.81155323
| 35> C   -2.59763124  -1.75851922   1.47324960
| 36> H   -2.37690876  -1.53398077   2.50789138
| 37> H   -2.64172363  -2.76954833   1.10578933
| 38> H   -3.39473936  -1.15664546   1.08087847
| 39> C   -1.92962421   1.79785201  -0.74123767
| 40> H   -1.52978169  -0.65622792   0.59682368
| 41> H   -1.40911621   2.55603236  -1.33442402
| 42> H   -2.53018782   2.31809397   0.00753845
| 43> H   -2.62914622   1.28974717  -1.40577778
| 44> *
| 45>
| 46>                          ****END OF INPUT****

CARTESIAN COORDINATES (ANGSTROEM)
---------------------------------
  Lu     0.443076    0.502391   -0.325642
  C      0.456873    1.006865    2.513185
  C      1.336331   -0.039915    2.199172
  C      2.328837    0.476075    1.361707
  C      2.026680    1.811859    1.086631
  C      0.764264    2.062707    1.648718
  H      2.519478    2.466083    0.384651
  H      0.214730    2.988516    1.618751
  H     -0.360341    0.989247    3.217853
  H      1.319590   -1.015513    2.658300
  H      3.176041   -0.088549    1.014646
  C      1.063636   -0.148455   -2.661787
  C     -0.251055   -0.643421   -2.605187
  C      1.017198   -1.950497   -1.284019
  C      1.847306   -0.970652   -1.842393
  H      1.332561    0.785655   -3.131421
  C     -0.231137   -1.870318   -1.928892
  H     -1.097751   -0.281879   -3.164953
  H      2.885730   -0.844526   -1.585651
  H      1.312335   -2.774548   -0.652847
  H     -1.065533   -2.547926   -1.811553
  C     -2.597631   -1.758519    1.473250
  H     -2.376909   -1.533981    2.507891
  H     -2.641724   -2.769548    1.105789
  H     -3.394739   -1.156645    1.080878
  C     -1.929624    1.797852   -0.741238
  H     -1.529782   -0.656228    0.596824
  H     -1.409116    2.556032   -1.334424
  H     -2.530188    2.318094    0.007538
  H     -2.629146    1.289747   -1.405778

 Total Charge           Charge          ....    0
 Multiplicity           Mult            ....    1
 Number of Electrons    NEL             ....  132
 Basis Dimension        Dim             ....  295

ORBITAL ENERGIES
----------------

  NO   OCC          E(Eh)            E(eV)
   0   2.0000     -19.269091      -524.3386
   1   2.0000     -12.641910      -344.0039
   2   2.0000     -12.638921      -343.9225
   3   2.0000     -12.638678      -343.9159
   4   2.0000     -10.479527      -285.1624
   5   2.0000     -10.447570      -284.2928
   6   2.0000     -10.447551      -284.2923
   7   2.0000     -10.446262      -284.2573
   8   2.0000     -10.446201      -284.2556
   9   2.0000     -10.445301      -284.2311
  10   2.0000     -10.444600      -284.2120
  11   2.0000     -10.444356      -284.2054
  12   2.0000     -10.441746      -284.1343
  13   2.0000     -10.438726      -284.0522
  14   2.0000     -10.437654      -284.0230
  15   2.0000     -10.370506      -282.1958
  16   2.0000      -5.910925      -160.8444
  17   2.0000      -5.910310      -160.8277
  18   2.0000      -5.910292      -160.8272
  19   2.0000      -5.908295      -160.7729
  20   2.0000      -5.908186      -160.7699
  21   2.0000      -2.452185       -66.7273
  22   2.0000      -1.289555       -35.0906
  23   2.0000      -1.288086       -35.0506
  24   2.0000      -1.277224       -34.7550
  25   2.0000      -0.988287       -26.8927
  26   2.0000      -0.978703       -26.6319
  27   2.0000      -0.799893       -21.7662
  28   2.0000      -0.796302       -21.6685
  29   2.0000      -0.795902       -21.6576
  30   2.0000      -0.792299       -21.5595
  31   2.0000      -0.771840       -21.0028
  32   2.0000      -0.691669       -18.8213
  33   2.0000      -0.619186       -16.8489
  34   2.0000      -0.615836       -16.7577
  35   2.0000      -0.612423       -16.6649
  36   2.0000      -0.608960       -16.5707
  37   2.0000      -0.601066       -16.3558
  38   2.0000      -0.595208       -16.1964
  39   2.0000      -0.578341       -15.7375
  40   2.0000      -0.577455       -15.7133
  41   2.0000      -0.576802       -15.6956
  42   2.0000      -0.575650       -15.6642
  43   2.0000      -0.575414       -15.6578
  44   2.0000      -0.573000       -15.5921
  45   2.0000      -0.572349       -15.5744
  46   2.0000      -0.493079       -13.4174
  47   2.0000      -0.472884       -12.8678
  48   2.0000      -0.470075       -12.7914
  49   2.0000      -0.458332       -12.4718
  50   2.0000      -0.455398       -12.3920
  51   2.0000      -0.451139       -12.2761
  52   2.0000      -0.447721       -12.1831
  53   2.0000      -0.440348       -11.9825
  54   2.0000      -0.437447       -11.9035
  55   2.0000      -0.433975       -11.8091
  56   2.0000      -0.430184       -11.7059
  57   2.0000      -0.425557       -11.5800
  58   2.0000      -0.395455       -10.7609
  59   2.0000      -0.385352       -10.4860
  60   2.0000      -0.347906        -9.4670
  61   2.0000      -0.288517        -7.8510
  62   2.0000      -0.284058        -7.7296
  63   2.0000      -0.276311        -7.5188
  64   2.0000      -0.271638        -7.3916
  65   2.0000      -0.222664        -6.0590
  66   0.0000      -0.052198        -1.4204
  67   0.0000      -0.014472        -0.3938
  68   0.0000       0.021598         0.5877
  69   0.0000       0.039666         1.0794
  70   0.0000       0.049375         1.3436

MULLIKEN ATOMIC CHARGES
-----------------------
   0 Lu:    0.775753
   1 C :   -0.129074
   2 C :   -0.327197
   3 C :   -0.333142
   4 C :   -0.241471
   5 C :   -0.409931
   6 H :    0.238931
   7 H :    0.250568
   8 H :    0.231000
   9 H :    0.229800
  10 H :    0.245289
  11 C :   -0.296714
  12 C :   -0.360553
  13 C :   -0.380484
  14 C :   -0.286149
  15 H :    0.244228
  16 C :   -0.116235
  17 H :    0.237602
  18 H :    0.242732
  19 H :    0.228512
  20 H :    0.228904
  21 C :   -0.746538
  22 H :    0.246879
  23 H :    0.239798
  24 H :    0.270494
  25 C :   -0.951806
  26 H :    0.087636
  27 H :    0.178737
  28 H :    0.201462
  29 H :    0.200970
Sum of atomic charges:   -0.0000000

LOEWDIN ATOMIC CHARGES
----------------------
   0 Lu:    0.009841
   1 C :   -0.102290
   2 C :   -0.148821
   3 C :   -0.149611
   4 C :   -0.157278
   5 C :   -0.154724
   6 H :    0.160265
   7 H :    0.160412
   8 H :    0.149878
   9 H :    0.150606
  10 H :    0.156726
  11 C :   -0.166558
  12 C :   -0.143532
  13 C :   -0.160576
  14 C :   -0.149331
  15 H :    0.160582
  16 C :   -0.108470
  17 H :    0.155813
  18 H :    0.156727
  19 H :    0.150077
  20 H :    0.147687
  21 C :   -0.414115
  22 H :    0.144080
  23 H :    0.142708
  24 H :    0.148025
  25 C :   -0.635935
  26 H :    0.140287
  27 H :    0.119050
  28 H :    0.119660
  29 H :    0.118816

  Mayer bond orders larger than 0.100000
B(  0-Lu,  1-C ) :   0.1806 B(  0-Lu,  2-C ) :   0.2296 B(  0-Lu,  3-C ) :   0.2947
B(  0-Lu,  4-C ) :   0.3198 B(  0-Lu,  5-C ) :   0.2617 B(  0-Lu, 11-C ) :   0.3204
B(  0-Lu, 12-C ) :   0.2231 B(  0-Lu, 13-C ) :   0.2476 B(  0-Lu, 14-C ) :   0.3010
B(  0-Lu, 16-C ) :   0.1753 B(  0-Lu, 21-C ) :   0.1363 B(  0-Lu, 25-C ) :   0.7757
B(  0-Lu, 26-H ) :   0.1801 B(  1-C ,  2-C ) :   1.3249 B(  1-C ,  5-C ) :   1.3263
B(  1-C ,  8-H ) :   0.9202 B(  2-C ,  3-C ) :   1.2903 B(  2-C ,  9-H ) :   0.9234
B(  3-C ,  4-C ) :   1.2550 B(  3-C , 10-H ) :   0.9095 B(  4-C ,  5-C ) :   1.2310
B(  4-C ,  6-H ) :   0.8988 B(  5-C ,  7-H ) :   0.9141 B( 11-C , 12-C ) :   1.2574
B( 11-C , 14-C ) :   1.2558 B( 11-C , 15-H ) :   0.8977 B( 12-C , 16-C ) :   1.3413
B( 12-C , 17-H ) :   0.9221 B( 13-C , 14-C ) :   1.2750 B( 13-C , 16-C ) :   1.3086
B( 13-C , 19-H ) :   0.9243 B( 14-C , 18-H ) :   0.9061 B( 16-C , 20-H ) :   0.9184
B( 21-C , 22-H ) :   0.9100 B( 21-C , 23-H ) :   0.9143 B( 21-C , 24-H ) :   0.8997
B( 21-C , 26-H ) :   0.7815 B( 25-C , 27-H ) :   0.9023 B( 25-C , 28-H ) :   0.9276
B( 25-C , 29-H ) :   0.9232

Dispersion correction           -0.017047602
FINAL SINGLE POINT ENERGY     -1702.230002292084
Dispersion correction            ... done

DIPOLE MOMENT
-------------
                                X             Y             Z
Electronic contribution:     14.92446      24.76625     -14.87119
Nuclear contribution   :    -14.51680     -25.25346      15.17617
                        -----------------------------------------
Total Dipole Moment    :      0.40766      -0.48721       0.30498
                        -----------------------------------------
Magnitude (a.u.)       :      0.70468
Magnitude (Debye)      :      1.79115

Rotational constants in cm-1:     0.025521     0.018098     0.015772
Rotational constants in MHz :   765.093710   542.553470   472.827546

                             ****ORCA TERMINATED NORMALLY****
TOTAL RUN TIME: 0 days 0 hours 9 minutes 26 seconds 53 msec
