                         Program Version 5.0.3 -  RELEASE  -
|  1> ! EnGrad PBEh-3c
|  2> %output
|  3> xyzfile=True
|  4> end
|  5> %scf
|  6> maxiter 250
|  7> end
|  8> %output
|  9> Print[P_Hirshfeld] = 1
| 10> end
| 11> % maxcore
| 12> 4000
| 13> *xyz 0 1
| 14> Lu  -0.09711014   0.15974539  -0.02589614
| 15> C    0.43173023   0.77301796   2.49310012
| 16> C    1.42930297  -0.22324382   2.15544848
| 17> C    2.27141291   0.41616299   1.21838365
| 18> C    1.77836168   1.68766082   0.94372997
| 19> C    0.59683278   1.83833369   1.66110668
| 20> H    2.25576092   2.40623014   0.28533972
| 21> H    0.11148011   2.83210147   1.81201950
| 22> H   -0.36608460   0.58003462   3.21096671
| 23> H    1.65489063  -1.08366758   2.68818333
| 24> H    3.24133211   0.05393417   0.90776167
| 25> C    0.87081138  -0.08002085  -2.41208991
| 26> C   -0.38532020  -0.72085919  -2.34491734
| 27> C    1.06543880  -1.97764417  -1.12079498
| 28> C    1.76358374  -0.87785558  -1.66866447
| 29> H    1.14664608   0.78879175  -2.95724402
| 30> C   -0.25841340  -1.90199129  -1.68149871
| 31> H   -1.23229932  -0.41517587  -2.97646123
| 32> H    2.81741004  -0.70159658  -1.61938315
| 33> H    1.53972295  -2.83983980  -0.74035276
| 34> H   -1.04959852  -2.61898455  -1.43944753
| 35> C   -2.48223484  -1.30343897   1.14841383
| 36> H   -2.20983817  -1.08095052   2.21860781
| 37> H   -1.63864596  -2.06791448   0.77017891
| 38> H   -3.56647367  -1.59098079   0.97518221
| 39> C   -1.70525008   1.81981176  -0.86754127
| 40> H   -2.29232733  -0.33314813   0.57841586
| 41> H   -1.01942263   2.54544814  -1.33966771
| 42> H   -2.33164964   2.44990867  -0.21540471
| 43> H   -2.36598096   1.52077919  -1.69986727
| 44> *
| 45>
| 46>                          ****END OF INPUT****

CARTESIAN COORDINATES (ANGSTROEM)
---------------------------------
  Lu    -0.097110    0.159745   -0.025896
  C      0.431730    0.773018    2.493100
  C      1.429303   -0.223244    2.155448
  C      2.271413    0.416163    1.218384
  C      1.778362    1.687661    0.943730
  C      0.596833    1.838334    1.661107
  H      2.255761    2.406230    0.285340
  H      0.111480    2.832101    1.812019
  H     -0.366085    0.580035    3.210967
  H      1.654891   -1.083668    2.688183
  H      3.241332    0.053934    0.907762
  C      0.870811   -0.080021   -2.412090
  C     -0.385320   -0.720859   -2.344917
  C      1.065439   -1.977644   -1.120795
  C      1.763584   -0.877856   -1.668664
  H      1.146646    0.788792   -2.957244
  C     -0.258413   -1.901991   -1.681499
  H     -1.232299   -0.415176   -2.976461
  H      2.817410   -0.701597   -1.619383
  H      1.539723   -2.839840   -0.740353
  H     -1.049599   -2.618985   -1.439448
  C     -2.482235   -1.303439    1.148414
  H     -2.209838   -1.080951    2.218608
  H     -1.638646   -2.067914    0.770179
  H     -3.566474   -1.590981    0.975182
  C     -1.705250    1.819812   -0.867541
  H     -2.292327   -0.333148    0.578416
  H     -1.019423    2.545448   -1.339668
  H     -2.331650    2.449909   -0.215405
  H     -2.365981    1.520779   -1.699867

 Total Charge           Charge          ....    0
 Multiplicity           Mult            ....    1
 Number of Electrons    NEL             ....  132
 Basis Dimension        Dim             ....  295

ORBITAL ENERGIES
----------------

  NO   OCC          E(Eh)            E(eV)
   0   2.0000     -19.252540      -523.8883
   1   2.0000     -12.624987      -343.5434
   2   2.0000     -12.622628      -343.4792
   3   2.0000     -12.622054      -343.4635
   4   2.0000     -10.482817      -285.2520
   5   2.0000     -10.445921      -284.2480
   6   2.0000     -10.445019      -284.2234
   7   2.0000     -10.442800      -284.1630
   8   2.0000     -10.442256      -284.1482
   9   2.0000     -10.439513      -284.0736
  10   2.0000     -10.438409      -284.0435
  11   2.0000     -10.438034      -284.0333
  12   2.0000     -10.435924      -283.9759
  13   2.0000     -10.434612      -283.9402
  14   2.0000     -10.433723      -283.9160
  15   2.0000     -10.362226      -281.9705
  16   2.0000      -5.894125      -160.3873
  17   2.0000      -5.893798      -160.3784
  18   2.0000      -5.893155      -160.3609
  19   2.0000      -5.891862      -160.3257
  20   2.0000      -5.891663      -160.3203
  21   2.0000      -2.435817       -66.2820
  22   2.0000      -1.274876       -34.6911
  23   2.0000      -1.274225       -34.6734
  24   2.0000      -1.261300       -34.3217
  25   2.0000      -0.981716       -26.7139
  26   2.0000      -0.971698       -26.4412
  27   2.0000      -0.802902       -21.8481
  28   2.0000      -0.796593       -21.6764
  29   2.0000      -0.791813       -21.5463
  30   2.0000      -0.789577       -21.4855
  31   2.0000      -0.786161       -21.3925
  32   2.0000      -0.693312       -18.8660
  33   2.0000      -0.616626       -16.7793
  34   2.0000      -0.610907       -16.6236
  35   2.0000      -0.606269       -16.4974
  36   2.0000      -0.603621       -16.4254
  37   2.0000      -0.593289       -16.1442
  38   2.0000      -0.588269       -16.0076
  39   2.0000      -0.561392       -15.2762
  40   2.0000      -0.560950       -15.2642
  41   2.0000      -0.560598       -15.2546
  42   2.0000      -0.559216       -15.2170
  43   2.0000      -0.558688       -15.2027
  44   2.0000      -0.557619       -15.1736
  45   2.0000      -0.555739       -15.1224
  46   2.0000      -0.496211       -13.5026
  47   2.0000      -0.479870       -13.0579
  48   2.0000      -0.468348       -12.7444
  49   2.0000      -0.462233       -12.5780
  50   2.0000      -0.453853       -12.3500
  51   2.0000      -0.450628       -12.2622
  52   2.0000      -0.450014       -12.2455
  53   2.0000      -0.447880       -12.1874
  54   2.0000      -0.434815       -11.8319
  55   2.0000      -0.429422       -11.6852
  56   2.0000      -0.428644       -11.6640
  57   2.0000      -0.416119       -11.3232
  58   2.0000      -0.413997       -11.2654
  59   2.0000      -0.382748       -10.4151
  60   2.0000      -0.381702       -10.3866
  61   2.0000      -0.298596        -8.1252
  62   2.0000      -0.276000        -7.5103
  63   2.0000      -0.273197        -7.4341
  64   2.0000      -0.260947        -7.1007
  65   2.0000      -0.250276        -6.8104
  66   0.0000      -0.011323        -0.3081
  67   0.0000       0.018295         0.4978
  68   0.0000       0.039418         1.0726
  69   0.0000       0.053585         1.4581
  70   0.0000       0.057316         1.5597

MULLIKEN ATOMIC CHARGES
-----------------------
   0 Lu:    0.775617
   1 C :   -0.180449
   2 C :   -0.351607
   3 C :   -0.250030
   4 C :   -0.227608
   5 C :   -0.396005
   6 H :    0.242656
   7 H :    0.233951
   8 H :    0.228357
   9 H :    0.223711
  10 H :    0.222828
  11 C :   -0.275734
  12 C :   -0.352112
  13 C :   -0.378192
  14 C :   -0.217132
  15 H :    0.243393
  16 C :   -0.170918
  17 H :    0.238170
  18 H :    0.227085
  19 H :    0.219278
  20 H :    0.227350
  21 C :   -0.925789
  22 H :    0.265639
  23 H :    0.228659
  24 H :    0.271596
  25 C :   -1.031060
  26 H :    0.284469
  27 H :    0.209099
  28 H :    0.209818
  29 H :    0.204959
Sum of atomic charges:   -0.0000000

LOEWDIN ATOMIC CHARGES
----------------------
   0 Lu:   -0.087582
   1 C :   -0.131194
   2 C :   -0.161794
   3 C :   -0.116228
   4 C :   -0.137557
   5 C :   -0.151997
   6 H :    0.157043
   7 H :    0.162722
   8 H :    0.148906
   9 H :    0.148463
  10 H :    0.146750
  11 C :   -0.141066
  12 C :   -0.141710
  13 C :   -0.166757
  14 C :   -0.110493
  15 H :    0.157093
  16 C :   -0.131347
  17 H :    0.161328
  18 H :    0.146220
  19 H :    0.150180
  20 H :    0.147992
  21 C :   -0.461920
  22 H :    0.152329
  23 H :    0.162897
  24 H :    0.164693
  25 C :   -0.640911
  26 H :    0.187856
  27 H :    0.137557
  28 H :    0.124627
  29 H :    0.123899

  Mayer bond orders larger than 0.100000
B(  0-Lu,  1-C ) :   0.2525 B(  0-Lu,  2-C ) :   0.2666 B(  0-Lu,  3-C ) :   0.2227
B(  0-Lu,  4-C ) :   0.2670 B(  0-Lu,  5-C ) :   0.2675 B(  0-Lu, 11-C ) :   0.2801
B(  0-Lu, 12-C ) :   0.2600 B(  0-Lu, 13-C ) :   0.2753 B(  0-Lu, 14-C ) :   0.2312
B(  0-Lu, 16-C ) :   0.2519 B(  0-Lu, 21-C ) :   0.1699 B(  0-Lu, 25-C ) :   0.8177
B(  1-C ,  2-C ) :   1.2552 B(  1-C ,  5-C ) :   1.2995 B(  1-C ,  8-H ) :   0.9124
B(  2-C ,  3-C ) :   1.3151 B(  2-C ,  9-H ) :   0.9335 B(  3-C ,  4-C ) :   1.3227
B(  3-C , 10-H ) :   0.9270 B(  4-C ,  5-C ) :   1.2428 B(  4-C ,  6-H ) :   0.9124
B(  5-C ,  7-H ) :   0.9292 B( 11-C , 12-C ) :   1.2455 B( 11-C , 14-C ) :   1.3206
B( 11-C , 15-H ) :   0.9158 B( 12-C , 16-C ) :   1.3182 B( 12-C , 17-H ) :   0.9239
B( 13-C , 14-C ) :   1.3045 B( 13-C , 16-C ) :   1.2362 B( 13-C , 19-H ) :   0.9385
B( 14-C , 18-H ) :   0.9224 B( 16-C , 20-H ) :   0.9116 B( 21-C , 22-H ) :   0.8888
B( 21-C , 23-H ) :   0.8827 B( 21-C , 24-H ) :   0.9063 B( 21-C , 26-H ) :   0.7946
B( 25-C , 27-H ) :   0.8938 B( 25-C , 28-H ) :   0.9162 B( 25-C , 29-H ) :   0.9136

Dispersion correction           -0.017843099
FINAL SINGLE POINT ENERGY     -1702.343154649480
Dispersion correction            ... done

DIPOLE MOMENT
-------------
                                X             Y             Z
Electronic contribution:    -11.71107       7.71423      -0.02620
Nuclear contribution   :     11.70828      -8.58215       0.62712
                        -----------------------------------------
Total Dipole Moment    :     -0.00279      -0.86792       0.60092
                        -----------------------------------------
Magnitude (a.u.)       :      1.05566
Magnitude (Debye)      :      2.68326

Rotational constants in cm-1:     0.028674     0.020799     0.017887
Rotational constants in MHz :   859.618908   623.532571   536.247319

                             ****ORCA TERMINATED NORMALLY****
TOTAL RUN TIME: 0 days 0 hours 10 minutes 29 seconds 495 msec
