                         Program Version 5.0.3 -  RELEASE  -
|  1> ! EnGrad PBEh-3c
|  2> %output
|  3> xyzfile=True
|  4> end
|  5> %scf
|  6> maxiter 250
|  7> end
|  8> %output
|  9> Print[P_Hirshfeld] = 1
| 10> end
| 11> % maxcore
| 12> 4000
| 13> *xyz 0 1
| 14> Lu  -0.15558966   0.14083571  -0.01357740
| 15> C    0.42841577   0.79316551   2.48258314
| 16> C    1.42921219  -0.17599808   2.18768607
| 17> C    2.30683300   0.42358064   1.23859681
| 18> C    1.81598294   1.70651450   0.93329648
| 19> C    0.64131084   1.92353766   1.69244986
| 20> H    2.31256797   2.42420529   0.30750542
| 21> H    0.12823638   2.87997300   1.78782042
| 22> H   -0.36553233   0.64205992   3.21151276
| 23> H    1.59832755  -1.09273934   2.69167430
| 24> H    3.25896003   0.03033890   0.93506776
| 25> C    0.90647066  -0.07939540  -2.44323829
| 26> C   -0.36875228  -0.70923432  -2.42821642
| 27> C    1.06819735  -1.99865904  -1.18248732
| 28> C    1.79265680  -0.88266828  -1.69391184
| 29> H    1.18595798   0.78699158  -2.99825339
| 30> C   -0.25107983  -1.88246186  -1.69037563
| 31> H   -1.21479349  -0.39518113  -3.02695655
| 32> H    2.84836929  -0.73085382  -1.62896968
| 33> H    1.51403270  -2.85016726  -0.71992631
| 34> H   -1.05451222  -2.59984597  -1.49235875
| 35> C   -2.47581730  -1.38045039   1.19369148
| 36> H   -2.21281300  -1.18731694   2.23833409
| 37> H   -1.77407147  -2.24027642   0.86950389
| 38> H   -3.54698403  -1.48140455   0.97163629
| 39> C   -1.72435985   1.82484242  -0.85464271
| 40> H   -2.25143725  -0.40433093   0.63466173
| 41> H   -1.11693533   2.58987609  -1.36215340
| 42> H   -2.35483882   2.45047997  -0.21281741
| 43> H   -2.40180650   1.50856526  -1.65712031
| 44> *
| 45>
| 46>                          ****END OF INPUT****

CARTESIAN COORDINATES (ANGSTROEM)
---------------------------------
  Lu    -0.155590    0.140836   -0.013577
  C      0.428416    0.793166    2.482583
  C      1.429212   -0.175998    2.187686
  C      2.306833    0.423581    1.238597
  C      1.815983    1.706514    0.933296
  C      0.641311    1.923538    1.692450
  H      2.312568    2.424205    0.307505
  H      0.128236    2.879973    1.787820
  H     -0.365532    0.642060    3.211513
  H      1.598328   -1.092739    2.691674
  H      3.258960    0.030339    0.935068
  C      0.906471   -0.079395   -2.443238
  C     -0.368752   -0.709234   -2.428216
  C      1.068197   -1.998659   -1.182487
  C      1.792657   -0.882668   -1.693912
  H      1.185958    0.786992   -2.998253
  C     -0.251080   -1.882462   -1.690376
  H     -1.214793   -0.395181   -3.026957
  H      2.848369   -0.730854   -1.628970
  H      1.514033   -2.850167   -0.719926
  H     -1.054512   -2.599846   -1.492359
  C     -2.475817   -1.380450    1.193691
  H     -2.212813   -1.187317    2.238334
  H     -1.774071   -2.240276    0.869504
  H     -3.546984   -1.481405    0.971636
  C     -1.724360    1.824842   -0.854643
  H     -2.251437   -0.404331    0.634662
  H     -1.116935    2.589876   -1.362153
  H     -2.354839    2.450480   -0.212817
  H     -2.401807    1.508565   -1.657120

 Total Charge           Charge          ....    0
 Multiplicity           Mult            ....    1
 Number of Electrons    NEL             ....  132
 Basis Dimension        Dim             ....  295

ORBITAL ENERGIES
----------------

  NO   OCC          E(Eh)            E(eV)
   0   2.0000     -19.260064      -524.0930
   1   2.0000     -12.632464      -343.7468
   2   2.0000     -12.630171      -343.6844
   3   2.0000     -12.629756      -343.6731
   4   2.0000     -10.481045      -285.2037
   5   2.0000     -10.442713      -284.1607
   6   2.0000     -10.442515      -284.1553
   7   2.0000     -10.441617      -284.1308
   8   2.0000     -10.441397      -284.1249
   9   2.0000     -10.440638      -284.1042
  10   2.0000     -10.440024      -284.0875
  11   2.0000     -10.438173      -284.0371
  12   2.0000     -10.436904      -284.0026
  13   2.0000     -10.436639      -283.9954
  14   2.0000     -10.434846      -283.9466
  15   2.0000     -10.362235      -281.9707
  16   2.0000      -5.901688      -160.5931
  17   2.0000      -5.901329      -160.5833
  18   2.0000      -5.900807      -160.5691
  19   2.0000      -5.899575      -160.5356
  20   2.0000      -5.899357      -160.5297
  21   2.0000      -2.442913       -66.4750
  22   2.0000      -1.280857       -34.8539
  23   2.0000      -1.277709       -34.7682
  24   2.0000      -1.267593       -34.4929
  25   2.0000      -0.970411       -26.4062
  26   2.0000      -0.963768       -26.2255
  27   2.0000      -0.818966       -22.2852
  28   2.0000      -0.789555       -21.4849
  29   2.0000      -0.785789       -21.3824
  30   2.0000      -0.784587       -21.3497
  31   2.0000      -0.782732       -21.2992
  32   2.0000      -0.698562       -19.0088
  33   2.0000      -0.610634       -16.6162
  34   2.0000      -0.606474       -16.5030
  35   2.0000      -0.605113       -16.4660
  36   2.0000      -0.603087       -16.4108
  37   2.0000      -0.590402       -16.0657
  38   2.0000      -0.586312       -15.9544
  39   2.0000      -0.568661       -15.4741
  40   2.0000      -0.568455       -15.4684
  41   2.0000      -0.568213       -15.4619
  42   2.0000      -0.566742       -15.4218
  43   2.0000      -0.566315       -15.4102
  44   2.0000      -0.565011       -15.3747
  45   2.0000      -0.563572       -15.3356
  46   2.0000      -0.513500       -13.9730
  47   2.0000      -0.486114       -13.2278
  48   2.0000      -0.480826       -13.0839
  49   2.0000      -0.454330       -12.3629
  50   2.0000      -0.448620       -12.2076
  51   2.0000      -0.446477       -12.1493
  52   2.0000      -0.446180       -12.1412
  53   2.0000      -0.443836       -12.0774
  54   2.0000      -0.430811       -11.7230
  55   2.0000      -0.427949       -11.6451
  56   2.0000      -0.425059       -11.5664
  57   2.0000      -0.420171       -11.4334
  58   2.0000      -0.418413       -11.3856
  59   2.0000      -0.384306       -10.4575
  60   2.0000      -0.380126       -10.3438
  61   2.0000      -0.290397        -7.9021
  62   2.0000      -0.273013        -7.4291
  63   2.0000      -0.271617        -7.3911
  64   2.0000      -0.259391        -7.0584
  65   2.0000      -0.251389        -6.8407
  66   0.0000      -0.008929        -0.2430
  67   0.0000       0.018273         0.4972
  68   0.0000       0.038066         1.0358
  69   0.0000       0.047146         1.2829
  70   0.0000       0.053524         1.4565

MULLIKEN ATOMIC CHARGES
-----------------------
   0 Lu:    0.806199
   1 C :   -0.260837
   2 C :   -0.323657
   3 C :   -0.241419
   4 C :   -0.272700
   5 C :   -0.322683
   6 H :    0.235623
   7 H :    0.237569
   8 H :    0.228909
   9 H :    0.227439
  10 H :    0.221738
  11 C :   -0.287631
  12 C :   -0.310666
  13 C :   -0.331126
  14 C :   -0.228696
  15 H :    0.237557
  16 C :   -0.248960
  17 H :    0.240012
  18 H :    0.223866
  19 H :    0.223329
  20 H :    0.226582
  21 C :   -0.928025
  22 H :    0.277207
  23 H :    0.248691
  24 H :    0.280033
  25 C :   -1.049253
  26 H :    0.253911
  27 H :    0.217270
  28 H :    0.212002
  29 H :    0.207715
Sum of atomic charges:    0.0000000

LOEWDIN ATOMIC CHARGES
----------------------
   0 Lu:   -0.020095
   1 C :   -0.156091
   2 C :   -0.162245
   3 C :   -0.126345
   4 C :   -0.143163
   5 C :   -0.145203
   6 H :    0.152631
   7 H :    0.160235
   8 H :    0.148529
   9 H :    0.148182
  10 H :    0.146160
  11 C :   -0.141071
  12 C :   -0.143776
  13 C :   -0.161349
  14 C :   -0.122948
  15 H :    0.153715
  16 C :   -0.152421
  17 H :    0.160108
  18 H :    0.145714
  19 H :    0.149444
  20 H :    0.147258
  21 C :   -0.454146
  22 H :    0.154468
  23 H :    0.165135
  24 H :    0.164737
  25 C :   -0.641902
  26 H :    0.185888
  27 H :    0.138446
  28 H :    0.125090
  29 H :    0.125012

  Mayer bond orders larger than 0.100000
B(  0-Lu,  1-C ) :   0.2696 B(  0-Lu,  2-C ) :   0.2572 B(  0-Lu,  3-C ) :   0.2119
B(  0-Lu,  4-C ) :   0.2575 B(  0-Lu,  5-C ) :   0.2521 B(  0-Lu, 11-C ) :   0.2648
B(  0-Lu, 12-C ) :   0.2564 B(  0-Lu, 13-C ) :   0.2562 B(  0-Lu, 14-C ) :   0.2210
B(  0-Lu, 16-C ) :   0.2732 B(  0-Lu, 21-C ) :   0.1706 B(  0-Lu, 25-C ) :   0.8235
B(  1-C ,  2-C ) :   1.2648 B(  1-C ,  5-C ) :   1.2957 B(  1-C ,  8-H ) :   0.9148
B(  2-C ,  3-C ) :   1.3208 B(  2-C ,  9-H ) :   0.9248 B(  3-C ,  4-C ) :   1.3240
B(  3-C , 10-H ) :   0.9272 B(  4-C ,  5-C ) :   1.2737 B(  4-C ,  6-H ) :   0.9193
B(  5-C ,  7-H ) :   0.9257 B( 11-C , 12-C ) :   1.2696 B( 11-C , 14-C ) :   1.3243
B( 11-C , 15-H ) :   0.9196 B( 12-C , 16-C ) :   1.2979 B( 12-C , 17-H ) :   0.9218
B( 13-C , 14-C ) :   1.3125 B( 13-C , 16-C ) :   1.2618 B( 13-C , 19-H ) :   0.9303
B( 14-C , 18-H ) :   0.9247 B( 16-C , 20-H ) :   0.9138 B( 21-C , 22-H ) :   0.8865
B( 21-C , 23-H ) :   0.8910 B( 21-C , 24-H ) :   0.9017 B( 21-C , 26-H ) :   0.8046
B( 25-C , 27-H ) :   0.8989 B( 25-C , 28-H ) :   0.9148 B( 25-C , 29-H ) :   0.9107

Dispersion correction           -0.017515158
FINAL SINGLE POINT ENERGY     -1702.359529251344
Dispersion correction            ... done

DIPOLE MOMENT
-------------
                                X             Y             Z
Electronic contribution:    -15.11236       6.56469       0.73400
Nuclear contribution   :     14.85290      -7.52109      -0.08440
                        -----------------------------------------
Total Dipole Moment    :     -0.25946      -0.95641       0.64961
                        -----------------------------------------
Magnitude (a.u.)       :      1.18492
Magnitude (Debye)      :      3.01182

Rotational constants in cm-1:     0.027839     0.020254     0.017349
Rotational constants in MHz :   834.589544   607.203401   520.105504

                             ****ORCA TERMINATED NORMALLY****
TOTAL RUN TIME: 0 days 0 hours 10 minutes 20 seconds 21 msec
