                         Program Version 5.0.3 -  RELEASE  -
|  1> ! EnGrad PBEh-3c
|  2> %output
|  3> xyzfile=True
|  4> end
|  5> %scf
|  6> maxiter 250
|  7> end
|  8> %output
|  9> Print[P_Hirshfeld] = 1
| 10> end
| 11> % maxcore
| 12> 4000
| 13> *xyz 0 1
| 14> Lu   0.00072501   0.19731686  -0.06642695
| 15> C    0.43182759   0.68874642   2.50183857
| 16> C    1.39641984  -0.16769763   2.13135364
| 17> C    2.26927888   0.40353451   1.21915809
| 18> C    1.78837486   1.67915482   0.91927640
| 19> C    0.55694918   1.89976606   1.67065178
| 20> H    2.22697930   2.39196195   0.28309244
| 21> H    0.10979497   2.78084675   1.80134715
| 22> H   -0.36518353   0.57417324   3.20754052
| 23> H    1.67172966  -1.11418853   2.69882107
| 24> H    3.21835682   0.05303486   0.88798721
| 25> C    0.87552691  -0.09874214  -2.38162009
| 26> C   -0.42721602  -0.69732402  -2.38309422
| 27> C    1.02952298  -1.94858923  -1.13488739
| 28> C    1.74262405  -0.86660898  -1.66443754
| 29> H    1.13056437   0.80066661  -2.94713753
| 30> C   -0.23815686  -1.93642709  -1.62682614
| 31> H   -1.22466839  -0.42102940  -2.93348787
| 32> H    2.80877506  -0.68923602  -1.60017397
| 33> H    1.54622717  -2.84308187  -0.72447643
| 34> H   -1.04786652  -2.62526996  -1.43703006
| 35> C   -2.42591987  -1.18980553   1.11988359
| 36> H   -2.23706180  -1.04884898   2.19994733
| 37> H   -1.65523660  -2.01804312   0.72966817
| 38> H   -3.53380095  -1.63599567   0.98757184
| 39> C   -1.70278421   1.79104564  -0.85648232
| 40> H   -2.30953577  -0.32994612   0.55537074
| 41> H   -0.97315895   2.51017025  -1.31868142
| 42> H   -2.32405032   2.42454410  -0.19374899
| 43> H   -2.35480511   1.50510721  -1.69612749
| 44> *
| 45>
| 46>                          ****END OF INPUT****

CARTESIAN COORDINATES (ANGSTROEM)
---------------------------------
  Lu     0.000725    0.197317   -0.066427
  C      0.431828    0.688746    2.501839
  C      1.396420   -0.167698    2.131354
  C      2.269279    0.403535    1.219158
  C      1.788375    1.679155    0.919276
  C      0.556949    1.899766    1.670652
  H      2.226979    2.391962    0.283092
  H      0.109795    2.780847    1.801347
  H     -0.365184    0.574173    3.207541
  H      1.671730   -1.114189    2.698821
  H      3.218357    0.053035    0.887987
  C      0.875527   -0.098742   -2.381620
  C     -0.427216   -0.697324   -2.383094
  C      1.029523   -1.948589   -1.134887
  C      1.742624   -0.866609   -1.664438
  H      1.130564    0.800667   -2.947138
  C     -0.238157   -1.936427   -1.626826
  H     -1.224668   -0.421029   -2.933488
  H      2.808775   -0.689236   -1.600174
  H      1.546227   -2.843082   -0.724476
  H     -1.047867   -2.625270   -1.437030
  C     -2.425920   -1.189806    1.119884
  H     -2.237062   -1.048849    2.199947
  H     -1.655237   -2.018043    0.729668
  H     -3.533801   -1.635996    0.987572
  C     -1.702784    1.791046   -0.856482
  H     -2.309536   -0.329946    0.555371
  H     -0.973159    2.510170   -1.318681
  H     -2.324050    2.424544   -0.193749
  H     -2.354805    1.505107   -1.696127

 Total Charge           Charge          ....    0
 Multiplicity           Mult            ....    1
 Number of Electrons    NEL             ....  132
 Basis Dimension        Dim             ....  295

ORBITAL ENERGIES
----------------

  NO   OCC          E(Eh)            E(eV)
   0   2.0000     -19.245573      -523.6987
   1   2.0000     -12.618122      -343.3566
   2   2.0000     -12.615591      -343.2877
   3   2.0000     -12.614915      -343.2693
   4   2.0000     -10.464590      -284.7560
   5   2.0000     -10.448541      -284.3193
   6   2.0000     -10.447853      -284.3005
   7   2.0000     -10.445144      -284.2268
   8   2.0000     -10.443152      -284.1726
   9   2.0000     -10.441923      -284.1392
  10   2.0000     -10.441302      -284.1223
  11   2.0000     -10.440356      -284.0965
  12   2.0000     -10.439409      -284.0708
  13   2.0000     -10.436545      -283.9928
  14   2.0000     -10.434010      -283.9238
  15   2.0000     -10.362997      -281.9915
  16   2.0000      -5.887146      -160.1974
  17   2.0000      -5.886818      -160.1885
  18   2.0000      -5.886122      -160.1695
  19   2.0000      -5.884696      -160.1307
  20   2.0000      -5.884507      -160.1256
  21   2.0000      -2.429146       -66.1004
  22   2.0000      -1.269678       -34.5497
  23   2.0000      -1.268949       -34.5299
  24   2.0000      -1.256161       -34.1819
  25   2.0000      -0.983136       -26.7525
  26   2.0000      -0.973295       -26.4847
  27   2.0000      -0.802757       -21.8441
  28   2.0000      -0.801259       -21.8034
  29   2.0000      -0.797810       -21.7095
  30   2.0000      -0.790471       -21.5098
  31   2.0000      -0.786476       -21.4011
  32   2.0000      -0.689229       -18.7549
  33   2.0000      -0.626279       -17.0419
  34   2.0000      -0.619945       -16.8696
  35   2.0000      -0.611072       -16.6281
  36   2.0000      -0.603150       -16.4125
  37   2.0000      -0.596565       -16.2334
  38   2.0000      -0.592885       -16.1332
  39   2.0000      -0.554886       -15.0992
  40   2.0000      -0.553730       -15.0678
  41   2.0000      -0.553580       -15.0637
  42   2.0000      -0.552210       -15.0264
  43   2.0000      -0.551635       -15.0108
  44   2.0000      -0.550490       -14.9796
  45   2.0000      -0.548795       -14.9335
  46   2.0000      -0.499000       -13.5785
  47   2.0000      -0.472294       -12.8518
  48   2.0000      -0.467851       -12.7309
  49   2.0000      -0.463275       -12.6064
  50   2.0000      -0.456635       -12.4257
  51   2.0000      -0.456517       -12.4225
  52   2.0000      -0.450987       -12.2720
  53   2.0000      -0.450335       -12.2543
  54   2.0000      -0.442232       -12.0337
  55   2.0000      -0.436291       -11.8721
  56   2.0000      -0.426424       -11.6036
  57   2.0000      -0.413874       -11.2621
  58   2.0000      -0.410240       -11.1632
  59   2.0000      -0.382837       -10.4175
  60   2.0000      -0.381525       -10.3818
  61   2.0000      -0.290871        -7.9150
  62   2.0000      -0.288990        -7.8638
  63   2.0000      -0.284745        -7.7483
  64   2.0000      -0.256773        -6.9872
  65   2.0000      -0.244149        -6.6436
  66   0.0000      -0.011778        -0.3205
  67   0.0000       0.018019         0.4903
  68   0.0000       0.041279         1.1233
  69   0.0000       0.052735         1.4350
  70   0.0000       0.056108         1.5268

MULLIKEN ATOMIC CHARGES
-----------------------
   0 Lu:    0.752958
   1 C :   -0.178990
   2 C :   -0.329136
   3 C :   -0.239019
   4 C :   -0.269544
   5 C :   -0.374196
   6 H :    0.246997
   7 H :    0.230079
   8 H :    0.234579
   9 H :    0.219715
  10 H :    0.231491
  11 C :   -0.296155
  12 C :   -0.327299
  13 C :   -0.359245
  14 C :   -0.218755
  15 H :    0.246164
  16 C :   -0.181170
  17 H :    0.235972
  18 H :    0.233431
  19 H :    0.218950
  20 H :    0.231783
  21 C :   -0.955922
  22 H :    0.260308
  23 H :    0.218251
  24 H :    0.249167
  25 C :   -1.017997
  26 H :    0.329462
  27 H :    0.194692
  28 H :    0.208110
  29 H :    0.205319
Sum of atomic charges:    0.0000000

LOEWDIN ATOMIC CHARGES
----------------------
   0 Lu:   -0.113944
   1 C :   -0.122637
   2 C :   -0.145904
   3 C :   -0.126334
   4 C :   -0.127540
   5 C :   -0.145695
   6 H :    0.155260
   7 H :    0.154450
   8 H :    0.151778
   9 H :    0.151776
  10 H :    0.152427
  11 C :   -0.129053
  12 C :   -0.137020
  13 C :   -0.153290
  14 C :   -0.124424
  15 H :    0.158633
  16 C :   -0.123812
  17 H :    0.155509
  18 H :    0.152598
  19 H :    0.152999
  20 H :    0.148559
  21 C :   -0.475585
  22 H :    0.149313
  23 H :    0.157558
  24 H :    0.157420
  25 C :   -0.637128
  26 H :    0.182014
  27 H :    0.136049
  28 H :    0.123660
  29 H :    0.122362

  Mayer bond orders larger than 0.100000
B(  0-Lu,  1-C ) :   0.2398 B(  0-Lu,  2-C ) :   0.2508 B(  0-Lu,  3-C ) :   0.2491
B(  0-Lu,  4-C ) :   0.2849 B(  0-Lu,  5-C ) :   0.2925 B(  0-Lu, 11-C ) :   0.2864
B(  0-Lu, 12-C ) :   0.2757 B(  0-Lu, 13-C ) :   0.2700 B(  0-Lu, 14-C ) :   0.2574
B(  0-Lu, 16-C ) :   0.2452 B(  0-Lu, 21-C ) :   0.1427 B(  0-Lu, 25-C ) :   0.8138
B(  1-C ,  2-C ) :   1.3172 B(  1-C ,  5-C ) :   1.2563 B(  1-C ,  8-H ) :   0.9148
B(  2-C ,  3-C ) :   1.2750 B(  2-C ,  9-H ) :   0.9275 B(  3-C ,  4-C ) :   1.3128
B(  3-C , 10-H ) :   0.9237 B(  4-C ,  5-C ) :   1.2567 B(  4-C ,  6-H ) :   0.9108
B(  5-C ,  7-H ) :   0.9425 B( 11-C , 12-C ) :   1.2598 B( 11-C , 14-C ) :   1.3168
B( 11-C , 15-H ) :   0.9118 B( 12-C , 16-C ) :   1.2809 B( 12-C , 17-H ) :   0.9307
B( 13-C , 14-C ) :   1.2550 B( 13-C , 16-C ) :   1.2996 B( 13-C , 19-H ) :   0.9333
B( 14-C , 18-H ) :   0.9194 B( 16-C , 20-H ) :   0.9123 B( 21-C , 22-H ) :   0.8969
B( 21-C , 23-H ) :   0.8906 B( 21-C , 24-H ) :   0.9184 B( 21-C , 26-H ) :   0.7907
B( 25-C , 27-H ) :   0.8903 B( 25-C , 28-H ) :   0.9172 B( 25-C , 29-H ) :   0.9139

Dispersion correction           -0.018016953
FINAL SINGLE POINT ENERGY     -1702.328065815359
Dispersion correction            ... done

DIPOLE MOMENT
-------------
                                X             Y             Z
Electronic contribution:     -6.51128       9.42936      -2.04997
Nuclear contribution   :      6.75612     -10.29458       2.61833
                        -----------------------------------------
Total Dipole Moment    :      0.24484      -0.86522       0.56836
                        -----------------------------------------
Magnitude (a.u.)       :      1.06376
Magnitude (Debye)      :      2.70386

Rotational constants in cm-1:     0.029564     0.021009     0.018206
Rotational constants in MHz :   886.315497   629.848479   545.798693

                             ****ORCA TERMINATED NORMALLY****
TOTAL RUN TIME: 0 days 0 hours 10 minutes 33 seconds 50 msec
