                         Program Version 5.0.3 -  RELEASE  -
|  1> ! EnGrad PBEh-3c
|  2> %output
|  3> xyzfile=True
|  4> end
|  5> %scf
|  6> maxiter 250
|  7> end
|  8> %output
|  9> Print[P_Hirshfeld] = 1
| 10> end
| 11> % maxcore
| 12> 4000
| 13> *xyz 0 1
| 14> Lu  -0.10735748   0.15826344  -0.02988456
| 15> C    0.42946851   0.76094614   2.48852456
| 16> C    1.41909384  -0.17343691   2.17030423
| 17> C    2.29524536   0.41739524   1.23259884
| 18> C    1.80746424   1.69807245   0.92897047
| 19> C    0.61528036   1.91620274   1.68572388
| 20> H    2.28615888   2.41425634   0.29997259
| 21> H    0.12254613   2.84938678   1.79199421
| 22> H   -0.36542470   0.62111293   3.21028709
| 23> H    1.62097637  -1.09935766   2.69387950
| 24> H    3.24643158   0.03734192   0.92054067
| 25> C    0.89692271  -0.08536500  -2.42422549
| 26> C   -0.38679175  -0.70555930  -2.41429359
| 27> C    1.05626405  -1.98320959  -1.16779997
| 28> C    1.77721878  -0.87771305  -1.68481730
| 29> H    1.16886582   0.79121112  -2.98248117
| 30> C   -0.24709234  -1.89911328  -1.67076691
| 31> H   -1.21784047  -0.40315683  -2.99811602
| 32> H    2.83615216  -0.71801230  -1.62008453
| 33> H    1.52396657  -2.84798101  -0.72133028
| 34> H   -1.05246163  -2.60769075  -1.47528663
| 35> C   -2.46042104  -1.32162535   1.17091745
| 36> H   -2.22029517  -1.14459151   2.22648954
| 37> H   -1.73740399  -2.17170450   0.82635642
| 38> H   -3.54291628  -1.52910492   0.97655333
| 39> C   -1.71770251   1.81441414  -0.85521034
| 40> H   -2.26936403  -0.38137888   0.61019584
| 41> H   -1.07257194   2.56528219  -1.34873976
| 42> H   -2.34533877   2.44247725  -0.20693369
| 43> H   -2.38730384   1.50749825  -1.66915630
| 44> *
| 45>
| 46>                          ****END OF INPUT****

CARTESIAN COORDINATES (ANGSTROEM)
---------------------------------
  Lu    -0.107357    0.158263   -0.029885
  C      0.429469    0.760946    2.488525
  C      1.419094   -0.173437    2.170304
  C      2.295245    0.417395    1.232599
  C      1.807464    1.698072    0.928970
  C      0.615280    1.916203    1.685724
  H      2.286159    2.414256    0.299973
  H      0.122546    2.849387    1.791994
  H     -0.365425    0.621113    3.210287
  H      1.620976   -1.099358    2.693879
  H      3.246432    0.037342    0.920541
  C      0.896923   -0.085365   -2.424225
  C     -0.386792   -0.705559   -2.414294
  C      1.056264   -1.983210   -1.167800
  C      1.777219   -0.877713   -1.684817
  H      1.168866    0.791211   -2.982481
  C     -0.247092   -1.899113   -1.670767
  H     -1.217840   -0.403157   -2.998116
  H      2.836152   -0.718012   -1.620085
  H      1.523967   -2.847981   -0.721330
  H     -1.052462   -2.607691   -1.475287
  C     -2.460421   -1.321625    1.170917
  H     -2.220295   -1.144592    2.226490
  H     -1.737404   -2.171705    0.826356
  H     -3.542916   -1.529105    0.976553
  C     -1.717703    1.814414   -0.855210
  H     -2.269364   -0.381379    0.610196
  H     -1.072572    2.565282   -1.348740
  H     -2.345339    2.442477   -0.206934
  H     -2.387304    1.507498   -1.669156

 Total Charge           Charge          ....    0
 Multiplicity           Mult            ....    1
 Number of Electrons    NEL             ....  132
 Basis Dimension        Dim             ....  295

ORBITAL ENERGIES
----------------

  NO   OCC          E(Eh)            E(eV)
   0   2.0000     -19.255546      -523.9700
   1   2.0000     -12.627999      -343.6253
   2   2.0000     -12.625630      -343.5609
   3   2.0000     -12.625135      -343.5474
   4   2.0000     -10.473820      -285.0071
   5   2.0000     -10.444319      -284.2044
   6   2.0000     -10.444286      -284.2035
   7   2.0000     -10.442228      -284.1475
   8   2.0000     -10.441526      -284.1284
   9   2.0000     -10.441305      -284.1224
  10   2.0000     -10.440368      -284.0968
  11   2.0000     -10.439810      -284.0817
  12   2.0000     -10.437685      -284.0239
  13   2.0000     -10.436932      -284.0034
  14   2.0000     -10.434559      -283.9388
  15   2.0000     -10.362058      -281.9659
  16   2.0000      -5.897164      -160.4700
  17   2.0000      -5.896818      -160.4606
  18   2.0000      -5.896239      -160.4448
  19   2.0000      -5.894949      -160.4097
  20   2.0000      -5.894736      -160.4039
  21   2.0000      -2.438589       -66.3574
  22   2.0000      -1.277043       -34.7501
  23   2.0000      -1.274861       -34.6907
  24   2.0000      -1.263873       -34.3917
  25   2.0000      -0.974117       -26.5071
  26   2.0000      -0.966655       -26.3040
  27   2.0000      -0.812599       -22.1120
  28   2.0000      -0.792240       -21.5579
  29   2.0000      -0.790235       -21.5034
  30   2.0000      -0.787241       -21.4219
  31   2.0000      -0.784058       -21.3353
  32   2.0000      -0.695670       -18.9301
  33   2.0000      -0.611235       -16.6325
  34   2.0000      -0.609837       -16.5945
  35   2.0000      -0.608645       -16.5621
  36   2.0000      -0.604084       -16.4380
  37   2.0000      -0.593178       -16.1412
  38   2.0000      -0.589341       -16.0368
  39   2.0000      -0.564340       -15.3565
  40   2.0000      -0.563912       -15.3448
  41   2.0000      -0.563675       -15.3384
  42   2.0000      -0.562232       -15.2991
  43   2.0000      -0.561746       -15.2859
  44   2.0000      -0.560485       -15.2516
  45   2.0000      -0.559015       -15.2116
  46   2.0000      -0.498748       -13.5716
  47   2.0000      -0.488139       -13.2829
  48   2.0000      -0.475732       -12.9453
  49   2.0000      -0.457517       -12.4497
  50   2.0000      -0.451380       -12.2827
  51   2.0000      -0.448667       -12.2089
  52   2.0000      -0.447815       -12.1857
  53   2.0000      -0.445752       -12.1295
  54   2.0000      -0.432066       -11.7571
  55   2.0000      -0.429527       -11.6880
  56   2.0000      -0.425294       -11.5729
  57   2.0000      -0.424570       -11.5531
  58   2.0000      -0.420850       -11.4519
  59   2.0000      -0.383787       -10.4434
  60   2.0000      -0.380688       -10.3591
  61   2.0000      -0.290556        -7.9064
  62   2.0000      -0.277249        -7.5443
  63   2.0000      -0.277056        -7.5391
  64   2.0000      -0.255886        -6.9630
  65   2.0000      -0.252112        -6.8603
  66   0.0000      -0.009335        -0.2540
  67   0.0000       0.020587         0.5602
  68   0.0000       0.038303         1.0423
  69   0.0000       0.053374         1.4524
  70   0.0000       0.054852         1.4926

MULLIKEN ATOMIC CHARGES
-----------------------
   0 Lu:    0.789207
   1 C :   -0.233728
   2 C :   -0.326181
   3 C :   -0.240469
   4 C :   -0.269816
   5 C :   -0.343267
   6 H :    0.239222
   7 H :    0.237295
   8 H :    0.230657
   9 H :    0.226221
  10 H :    0.224484
  11 C :   -0.289937
  12 C :   -0.318364
  13 C :   -0.340720
  14 C :   -0.224162
  15 H :    0.240159
  16 C :   -0.225976
  17 H :    0.240223
  18 H :    0.226711
  19 H :    0.222318
  20 H :    0.228086
  21 C :   -0.943024
  22 H :    0.271615
  23 H :    0.237899
  24 H :    0.273641
  25 C :   -1.041194
  26 H :    0.279978
  27 H :    0.211066
  28 H :    0.210810
  29 H :    0.207247
Sum of atomic charges:    0.0000000

LOEWDIN ATOMIC CHARGES
----------------------
   0 Lu:   -0.047238
   1 C :   -0.146021
   2 C :   -0.156745
   3 C :   -0.126511
   4 C :   -0.137915
   5 C :   -0.146136
   6 H :    0.153281
   7 H :    0.159357
   8 H :    0.149348
   9 H :    0.149969
  10 H :    0.147915
  11 C :   -0.137159
  12 C :   -0.142501
  13 C :   -0.158546
  14 C :   -0.123054
  15 H :    0.155130
  16 C :   -0.143329
  17 H :    0.159356
  18 H :    0.147739
  19 H :    0.150776
  20 H :    0.147568
  21 C :   -0.463850
  22 H :    0.152533
  23 H :    0.161914
  24 H :    0.162516
  25 C :   -0.641014
  26 H :    0.185927
  27 H :    0.137739
  28 H :    0.124665
  29 H :    0.124285

  Mayer bond orders larger than 0.100000
B(  0-Lu,  1-C ) :   0.2612 B(  0-Lu,  2-C ) :   0.2553 B(  0-Lu,  3-C ) :   0.2235
B(  0-Lu,  4-C ) :   0.2667 B(  0-Lu,  5-C ) :   0.2651 B(  0-Lu, 11-C ) :   0.2722
B(  0-Lu, 12-C ) :   0.2629 B(  0-Lu, 13-C ) :   0.2612 B(  0-Lu, 14-C ) :   0.2331
B(  0-Lu, 16-C ) :   0.2649 B(  0-Lu, 21-C ) :   0.1609 B(  0-Lu, 25-C ) :   0.8206
B(  1-C ,  2-C ) :   1.2802 B(  1-C ,  5-C ) :   1.2842 B(  1-C ,  8-H ) :   0.9152
B(  2-C ,  3-C ) :   1.3071 B(  2-C ,  9-H ) :   0.9260 B(  3-C ,  4-C ) :   1.3204
B(  3-C , 10-H ) :   0.9264 B(  4-C ,  5-C ) :   1.2684 B(  4-C ,  6-H ) :   0.9171
B(  5-C ,  7-H ) :   0.9298 B( 11-C , 12-C ) :   1.2656 B( 11-C , 14-C ) :   1.3221
B( 11-C , 15-H ) :   0.9176 B( 12-C , 16-C ) :   1.2935 B( 12-C , 17-H ) :   0.9239
B( 13-C , 14-C ) :   1.2945 B( 13-C , 16-C ) :   1.2732 B( 13-C , 19-H ) :   0.9317
B( 14-C , 18-H ) :   0.9233 B( 16-C , 20-H ) :   0.9138 B( 21-C , 22-H ) :   0.8903
B( 21-C , 23-H ) :   0.8925 B( 21-C , 24-H ) :   0.9058 B( 21-C , 26-H ) :   0.8008
B( 25-C , 27-H ) :   0.8967 B( 25-C , 28-H ) :   0.9157 B( 25-C , 29-H ) :   0.9119

Dispersion correction           -0.017665085
FINAL SINGLE POINT ENERGY     -1702.366236491490
Dispersion correction            ... done

DIPOLE MOMENT
-------------
                                X             Y             Z
Electronic contribution:    -12.44497       7.45592      -0.13098
Nuclear contribution   :     12.35457      -8.37688       0.74955
                        -----------------------------------------
Total Dipole Moment    :     -0.09040      -0.92096       0.61857
                        -----------------------------------------
Magnitude (a.u.)       :      1.11309
Magnitude (Debye)      :      2.82925

Rotational constants in cm-1:     0.028393     0.020487     0.017619
Rotational constants in MHz :   851.206764   614.198982   528.198749

                             ****ORCA TERMINATED NORMALLY****
TOTAL RUN TIME: 0 days 0 hours 10 minutes 31 seconds 49 msec
