                         Program Version 5.0.3 -  RELEASE  -
|  1> ! EnGrad PBEh-3c
|  2> %output
|  3> xyzfile=True
|  4> end
|  5> %scf
|  6> maxiter 250
|  7> end
|  8> %output
|  9> Print[P_Hirshfeld] = 1
| 10> end
| 11> % maxcore
| 12> 4000
| 13> *xyz 0 1
| 14> Lu   0.04417449   0.22481590  -0.09385028
| 15> C    0.40990302   0.74042681   2.48784481
| 16> C    1.41058391  -0.18705511   2.14926630
| 17> C    2.27222697   0.41750359   1.22663842
| 18> C    1.78070547   1.68518527   0.94435845
| 19> C    0.60543760   1.87575490   1.67636298
| 20> H    2.25461891   2.40541099   0.28095381
| 21> H    0.09947261   2.81663359   1.78625908
| 22> H   -0.36507044   0.60256828   3.20843427
| 23> H    1.63927783  -1.09835810   2.68626433
| 24> H    3.21561295   0.03501262   0.89174549
| 25> C    0.87056884  -0.09529496  -2.41255750
| 26> C   -0.37749846  -0.71615164  -2.38386873
| 27> C    1.05038555  -1.96079352  -1.14592663
| 28> C    1.75597762  -0.87548539  -1.66987155
| 29> H    1.14551695   0.80097106  -2.95951323
| 30> C   -0.27097152  -1.91449917  -1.65408100
| 31> H   -1.23765481  -0.40107781  -2.95880605
| 32> H    2.81425673  -0.69934581  -1.59312907
| 33> H    1.52286811  -2.83042254  -0.71351236
| 34> H   -1.04377953  -2.61843814  -1.46574712
| 35> C   -2.42161617  -1.25831934   1.13364385
| 36> H   -2.25074138  -1.07872566   2.21865143
| 37> H   -1.75139940  -2.04420258   0.76181802
| 38> H   -3.49925599  -1.59643660   0.99746606
| 39> C   -1.70964709   1.78330563  -0.84207994
| 40> H   -2.26208974  -0.33425611   0.54783645
| 41> H   -1.00353369   2.50180886  -1.31167662
| 42> H   -2.33623127   2.40562275  -0.17161048
| 43> H   -2.37498008   1.48152705  -1.67007603
| 44> *
| 45>
| 46>                          ****END OF INPUT****

CARTESIAN COORDINATES (ANGSTROEM)
---------------------------------
  Lu     0.044174    0.224816   -0.093850
  C      0.409903    0.740427    2.487845
  C      1.410584   -0.187055    2.149266
  C      2.272227    0.417504    1.226638
  C      1.780705    1.685185    0.944358
  C      0.605438    1.875755    1.676363
  H      2.254619    2.405411    0.280954
  H      0.099473    2.816634    1.786259
  H     -0.365070    0.602568    3.208434
  H      1.639278   -1.098358    2.686264
  H      3.215613    0.035013    0.891745
  C      0.870569   -0.095295   -2.412558
  C     -0.377498   -0.716152   -2.383869
  C      1.050386   -1.960794   -1.145927
  C      1.755978   -0.875485   -1.669872
  H      1.145517    0.800971   -2.959513
  C     -0.270972   -1.914499   -1.654081
  H     -1.237655   -0.401078   -2.958806
  H      2.814257   -0.699346   -1.593129
  H      1.522868   -2.830423   -0.713512
  H     -1.043780   -2.618438   -1.465747
  C     -2.421616   -1.258319    1.133644
  H     -2.250741   -1.078726    2.218651
  H     -1.751399   -2.044203    0.761818
  H     -3.499256   -1.596437    0.997466
  C     -1.709647    1.783306   -0.842080
  H     -2.262090   -0.334256    0.547836
  H     -1.003534    2.501809   -1.311677
  H     -2.336231    2.405623   -0.171610
  H     -2.374980    1.481527   -1.670076

 Total Charge           Charge          ....    0
 Multiplicity           Mult            ....    1
 Number of Electrons    NEL             ....  132
 Basis Dimension        Dim             ....  295

ORBITAL ENERGIES
----------------

  NO   OCC          E(Eh)            E(eV)
   0   2.0000     -19.246803      -523.7321
   1   2.0000     -12.619225      -343.3866
   2   2.0000     -12.616887      -343.3230
   3   2.0000     -12.616216      -343.3047
   4   2.0000     -10.451086      -284.3885
   5   2.0000     -10.446775      -284.2712
   6   2.0000     -10.446148      -284.2541
   7   2.0000     -10.443984      -284.1952
   8   2.0000     -10.442874      -284.1650
   9   2.0000     -10.442537      -284.1559
  10   2.0000     -10.442141      -284.1451
  11   2.0000     -10.440594      -284.1030
  12   2.0000     -10.438701      -284.0515
  13   2.0000     -10.437816      -284.0274
  14   2.0000     -10.437484      -284.0184
  15   2.0000     -10.363066      -281.9934
  16   2.0000      -5.888278      -160.2282
  17   2.0000      -5.888021      -160.2212
  18   2.0000      -5.887316      -160.2020
  19   2.0000      -5.886011      -160.1665
  20   2.0000      -5.885829      -160.1615
  21   2.0000      -2.430506       -66.1374
  22   2.0000      -1.271741       -34.6058
  23   2.0000      -1.270065       -34.5602
  24   2.0000      -1.257415       -34.2160
  25   2.0000      -0.986437       -26.8423
  26   2.0000      -0.975949       -26.5569
  27   2.0000      -0.800114       -21.7722
  28   2.0000      -0.797905       -21.7121
  29   2.0000      -0.795639       -21.6505
  30   2.0000      -0.794243       -21.6124
  31   2.0000      -0.791698       -21.5432
  32   2.0000      -0.691329       -18.8120
  33   2.0000      -0.618652       -16.8344
  34   2.0000      -0.615595       -16.7512
  35   2.0000      -0.611716       -16.6456
  36   2.0000      -0.606691       -16.5089
  37   2.0000      -0.598677       -16.2908
  38   2.0000      -0.594011       -16.1639
  39   2.0000      -0.556139       -15.1333
  40   2.0000      -0.554812       -15.0972
  41   2.0000      -0.554561       -15.0904
  42   2.0000      -0.553544       -15.0627
  43   2.0000      -0.552842       -15.0436
  44   2.0000      -0.551962       -15.0197
  45   2.0000      -0.549993       -14.9661
  46   2.0000      -0.482660       -13.1338
  47   2.0000      -0.474769       -12.9191
  48   2.0000      -0.467801       -12.7295
  49   2.0000      -0.460997       -12.5444
  50   2.0000      -0.456287       -12.4162
  51   2.0000      -0.454042       -12.3551
  52   2.0000      -0.450724       -12.2648
  53   2.0000      -0.449379       -12.2282
  54   2.0000      -0.434562       -11.8250
  55   2.0000      -0.434331       -11.8187
  56   2.0000      -0.430240       -11.7074
  57   2.0000      -0.429595       -11.6899
  58   2.0000      -0.428193       -11.6517
  59   2.0000      -0.385378       -10.4867
  60   2.0000      -0.382126       -10.3982
  61   2.0000      -0.294718        -8.0197
  62   2.0000      -0.286279        -7.7900
  63   2.0000      -0.281908        -7.6711
  64   2.0000      -0.264565        -7.1992
  65   2.0000      -0.244999        -6.6667
  66   0.0000      -0.012928        -0.3518
  67   0.0000       0.014835         0.4037
  68   0.0000       0.044902         1.2218
  69   0.0000       0.053628         1.4593
  70   0.0000       0.057352         1.5606

MULLIKEN ATOMIC CHARGES
-----------------------
   0 Lu:    0.761321
   1 C :   -0.199391
   2 C :   -0.328004
   3 C :   -0.251938
   4 C :   -0.271763
   5 C :   -0.353220
   6 H :    0.247400
   7 H :    0.240972
   8 H :    0.234183
   9 H :    0.224961
  10 H :    0.231037
  11 C :   -0.298829
  12 C :   -0.309567
  13 C :   -0.347807
  14 C :   -0.237769
  15 H :    0.249550
  16 C :   -0.201499
  17 H :    0.242443
  18 H :    0.234227
  19 H :    0.221990
  20 H :    0.234343
  21 C :   -0.960268
  22 H :    0.250818
  23 H :    0.241118
  24 H :    0.257322
  25 C :   -1.023307
  26 H :    0.298995
  27 H :    0.197698
  28 H :    0.209314
  29 H :    0.205669
Sum of atomic charges:   -0.0000000

LOEWDIN ATOMIC CHARGES
----------------------
   0 Lu:   -0.092391
   1 C :   -0.126229
   2 C :   -0.147648
   3 C :   -0.122821
   4 C :   -0.141041
   5 C :   -0.139710
   6 H :    0.159689
   7 H :    0.161880
   8 H :    0.151229
   9 H :    0.150855
  10 H :    0.151339
  11 C :   -0.141870
  12 C :   -0.126406
  13 C :   -0.148447
  14 C :   -0.123065
  15 H :    0.161542
  16 C :   -0.132040
  17 H :    0.160656
  18 H :    0.151841
  19 H :    0.151170
  20 H :    0.149670
  21 C :   -0.485908
  22 H :    0.146608
  23 H :    0.150084
  24 H :    0.152762
  25 C :   -0.643610
  26 H :    0.187247
  27 H :    0.136577
  28 H :    0.124714
  29 H :    0.123323

  Mayer bond orders larger than 0.100000
B(  0-Lu,  1-C ) :   0.2449 B(  0-Lu,  2-C ) :   0.2562 B(  0-Lu,  3-C ) :   0.2510
B(  0-Lu,  4-C ) :   0.2946 B(  0-Lu,  5-C ) :   0.2686 B(  0-Lu, 11-C ) :   0.2995
B(  0-Lu, 12-C ) :   0.2537 B(  0-Lu, 13-C ) :   0.2714 B(  0-Lu, 14-C ) :   0.2630
B(  0-Lu, 16-C ) :   0.2505 B(  0-Lu, 21-C ) :   0.1272 B(  0-Lu, 25-C ) :   0.8119
B(  1-C ,  2-C ) :   1.2884 B(  1-C ,  5-C ) :   1.2959 B(  1-C ,  8-H ) :   0.9168
B(  2-C ,  3-C ) :   1.3020 B(  2-C ,  9-H ) :   0.9292 B(  3-C ,  4-C ) :   1.2924
B(  3-C , 10-H ) :   0.9229 B(  4-C ,  5-C ) :   1.2543 B(  4-C ,  6-H ) :   0.9085
B(  5-C ,  7-H ) :   0.9270 B( 11-C , 12-C ) :   1.2667 B( 11-C , 14-C ) :   1.2828
B( 11-C , 15-H ) :   0.9098 B( 12-C , 16-C ) :   1.3092 B( 12-C , 17-H ) :   0.9203
B( 13-C , 14-C ) :   1.2913 B( 13-C , 16-C ) :   1.2717 B( 13-C , 19-H ) :   0.9336
B( 14-C , 18-H ) :   0.9191 B( 16-C , 20-H ) :   0.9143 B( 21-C , 22-H ) :   0.9063
B( 21-C , 23-H ) :   0.8905 B( 21-C , 24-H ) :   0.9145 B( 21-C , 26-H ) :   0.8102
B( 25-C , 27-H ) :   0.8871 B( 25-C , 28-H ) :   0.9177 B( 25-C , 29-H ) :   0.9144

Dispersion correction           -0.017923997
FINAL SINGLE POINT ENERGY     -1702.372743559876
Dispersion correction            ... done

DIPOLE MOMENT
-------------
                                X             Y             Z
Electronic contribution:     -4.41181      10.95368      -3.48584
Nuclear contribution   :      4.70290     -11.74303       3.97708
                        -----------------------------------------
Total Dipole Moment    :      0.29109      -0.78935       0.49124
                        -----------------------------------------
Magnitude (a.u.)       :      0.97423
Magnitude (Debye)      :      2.47629

Rotational constants in cm-1:     0.029505     0.020791     0.018116
Rotational constants in MHz :   884.539460   623.293510   543.095129

                             ****ORCA TERMINATED NORMALLY****
TOTAL RUN TIME: 0 days 0 hours 10 minutes 26 seconds 98 msec
