                         Program Version 5.0.3 -  RELEASE  -
|  1> ! EnGrad PBEh-3c
|  2> %output
|  3> xyzfile=True
|  4> end
|  5> %scf
|  6> maxiter 250
|  7> end
|  8> %output
|  9> Print[P_Hirshfeld] = 1
| 10> end
| 11> % maxcore
| 12> 4000
| 13> *xyz 0 1
| 14> Lu   0.28833694   0.41461538  -0.26784133
| 15> C    0.41881645   0.95453432   2.45897596
| 16> C    1.34086921  -0.05584780   2.25158822
| 17> C    2.37977464   0.44478644   1.34122304
| 18> C    1.98618060   1.80937368   1.01333197
| 19> C    0.76118901   2.12095443   1.72661359
| 20> H    2.51273908   2.47033975   0.37821929
| 21> H    0.20709816   2.98305926   1.63419948
| 22> H   -0.35953337   0.95045067   3.21818189
| 23> H    1.34988546  -1.03077317   2.65781607
| 24> H    3.19983326  -0.07644233   1.00796816
| 25> C    1.03666541  -0.10376388  -2.62697636
| 26> C   -0.28642771  -0.68818148  -2.65474720
| 27> C    1.01883346  -2.02120834  -1.31020652
| 28> C    1.88665400  -0.94256564  -1.80257443
| 29> H    1.32767668   0.78681950  -3.13019103
| 30> C   -0.24922689  -1.82061304  -1.83773607
| 31> H   -1.10894192  -0.28987262  -3.15327150
| 32> H    2.89545447  -0.83399901  -1.59848004
| 33> H    1.33979807  -2.78149358  -0.65494310
| 34> H   -1.06148387  -2.55153120  -1.77931659
| 35> C   -2.46824045  -1.57328006   1.34778706
| 36> H   -2.36036769  -1.53594055   2.48610579
| 37> H   -2.56392379  -2.77159521   1.11367874
| 38> H   -3.41238502  -1.18294639   1.06498818
| 39> C   -1.85289624   1.78062690  -0.75383898
| 40> H   -1.71769830  -0.70537001   0.67445848
| 41> H   -1.39562000   2.58460933  -1.35032606
| 42> H   -2.51455182   2.34741531  -0.01315620
| 43> H   -2.60920710   1.31345571  -1.44159549
| 44> *
| 45>
| 46>                          ****END OF INPUT****

CARTESIAN COORDINATES (ANGSTROEM)
---------------------------------
  Lu     0.288337    0.414615   -0.267841
  C      0.418816    0.954534    2.458976
  C      1.340869   -0.055848    2.251588
  C      2.379775    0.444786    1.341223
  C      1.986181    1.809374    1.013332
  C      0.761189    2.120954    1.726614
  H      2.512739    2.470340    0.378219
  H      0.207098    2.983059    1.634199
  H     -0.359533    0.950451    3.218182
  H      1.349885   -1.030773    2.657816
  H      3.199833   -0.076442    1.007968
  C      1.036665   -0.103764   -2.626976
  C     -0.286428   -0.688181   -2.654747
  C      1.018833   -2.021208   -1.310207
  C      1.886654   -0.942566   -1.802574
  H      1.327677    0.786820   -3.130191
  C     -0.249227   -1.820613   -1.837736
  H     -1.108942   -0.289873   -3.153271
  H      2.895454   -0.833999   -1.598480
  H      1.339798   -2.781494   -0.654943
  H     -1.061484   -2.551531   -1.779317
  C     -2.468240   -1.573280    1.347787
  H     -2.360368   -1.535941    2.486106
  H     -2.563924   -2.771595    1.113679
  H     -3.412385   -1.182946    1.064988
  C     -1.852896    1.780627   -0.753839
  H     -1.717698   -0.705370    0.674458
  H     -1.395620    2.584609   -1.350326
  H     -2.514552    2.347415   -0.013156
  H     -2.609207    1.313456   -1.441595

 Total Charge           Charge          ....    0
 Multiplicity           Mult            ....    1
 Number of Electrons    NEL             ....  132
 Basis Dimension        Dim             ....  295

ORBITAL ENERGIES
----------------

  NO   OCC          E(Eh)            E(eV)
   0   2.0000     -19.270754      -524.3839
   1   2.0000     -12.643489      -344.0468
   2   2.0000     -12.640643      -343.9694
   3   2.0000     -12.640436      -343.9637
   4   2.0000     -10.475183      -285.0442
   5   2.0000     -10.453857      -284.4639
   6   2.0000     -10.453701      -284.4597
   7   2.0000     -10.453048      -284.4419
   8   2.0000     -10.451952      -284.4121
   9   2.0000     -10.451071      -284.3881
  10   2.0000     -10.450404      -284.3700
  11   2.0000     -10.449000      -284.3317
  12   2.0000     -10.448352      -284.3141
  13   2.0000     -10.445941      -284.2485
  14   2.0000     -10.445142      -284.2268
  15   2.0000     -10.375732      -282.3380
  16   2.0000      -5.912556      -160.8888
  17   2.0000      -5.912150      -160.8778
  18   2.0000      -5.911801      -160.8683
  19   2.0000      -5.910084      -160.8216
  20   2.0000      -5.909939      -160.8176
  21   2.0000      -2.453693       -66.7684
  22   2.0000      -1.291250       -35.1367
  23   2.0000      -1.287495       -35.0345
  24   2.0000      -1.277489       -34.7623
  25   2.0000      -0.969129       -26.3713
  26   2.0000      -0.961388       -26.1607
  27   2.0000      -0.795242       -21.6396
  28   2.0000      -0.794769       -21.6268
  29   2.0000      -0.792597       -21.5676
  30   2.0000      -0.790372       -21.5071
  31   2.0000      -0.768167       -20.9029
  32   2.0000      -0.688992       -18.7484
  33   2.0000      -0.629532       -17.1304
  34   2.0000      -0.625419       -17.0185
  35   2.0000      -0.614148       -16.7118
  36   2.0000      -0.612151       -16.6575
  37   2.0000      -0.598294       -16.2804
  38   2.0000      -0.595307       -16.1991
  39   2.0000      -0.580248       -15.7893
  40   2.0000      -0.578920       -15.7532
  41   2.0000      -0.578268       -15.7355
  42   2.0000      -0.577296       -15.7090
  43   2.0000      -0.577242       -15.7076
  44   2.0000      -0.575262       -15.6537
  45   2.0000      -0.574084       -15.6216
  46   2.0000      -0.471291       -12.8245
  47   2.0000      -0.463112       -12.6019
  48   2.0000      -0.460312       -12.5257
  49   2.0000      -0.458396       -12.4736
  50   2.0000      -0.458178       -12.4677
  51   2.0000      -0.457346       -12.4450
  52   2.0000      -0.441326       -12.0091
  53   2.0000      -0.440240       -11.9796
  54   2.0000      -0.438159       -11.9229
  55   2.0000      -0.430141       -11.7047
  56   2.0000      -0.422783       -11.5045
  57   2.0000      -0.419022       -11.4022
  58   2.0000      -0.416199       -11.3254
  59   2.0000      -0.386804       -10.5255
  60   2.0000      -0.372833       -10.1453
  61   2.0000      -0.289504        -7.8778
  62   2.0000      -0.283123        -7.7042
  63   2.0000      -0.280331        -7.6282
  64   2.0000      -0.265760        -7.2317
  65   2.0000      -0.247639        -6.7386
  66   0.0000      -0.033954        -0.9239
  67   0.0000      -0.004958        -0.1349
  68   0.0000       0.037015         1.0072
  69   0.0000       0.046771         1.2727
  70   0.0000       0.051305         1.3961

MULLIKEN ATOMIC CHARGES
-----------------------
   0 Lu:    0.817414
   1 C :   -0.292140
   2 C :   -0.262940
   3 C :   -0.290053
   4 C :   -0.377170
   5 C :   -0.233278
   6 H :    0.249769
   7 H :    0.260779
   8 H :    0.228123
   9 H :    0.237611
  10 H :    0.239716
  11 C :   -0.365633
  12 C :   -0.219009
  13 C :   -0.255122
  14 C :   -0.312664
  15 H :    0.251813
  16 C :   -0.295420
  17 H :    0.253481
  18 H :    0.241869
  19 H :    0.239196
  20 H :    0.227647
  21 C :   -0.819269
  22 H :    0.230350
  23 H :    0.206170
  24 H :    0.272489
  25 C :   -0.996382
  26 H :    0.176822
  27 H :    0.193687
  28 H :    0.195207
  29 H :    0.196936
Sum of atomic charges:   -0.0000000

LOEWDIN ATOMIC CHARGES
----------------------
   0 Lu:    0.060858
   1 C :   -0.134077
   2 C :   -0.147070
   3 C :   -0.143463
   4 C :   -0.163759
   5 C :   -0.135501
   6 H :    0.156348
   7 H :    0.159595
   8 H :    0.151972
   9 H :    0.150412
  10 H :    0.151431
  11 C :   -0.162023
  12 C :   -0.128554
  13 C :   -0.145487
  14 C :   -0.147116
  15 H :    0.158255
  16 C :   -0.137960
  17 H :    0.158704
  18 H :    0.153322
  19 H :    0.150783
  20 H :    0.151423
  21 C :   -0.465213
  22 H :    0.139176
  23 H :    0.139050
  24 H :    0.141040
  25 C :   -0.648541
  26 H :    0.171532
  27 H :    0.125044
  28 H :    0.120279
  29 H :    0.119541

  Mayer bond orders larger than 0.100000
B(  0-Lu,  1-C ) :   0.2162 B(  0-Lu,  2-C ) :   0.2362 B(  0-Lu,  3-C ) :   0.2827
B(  0-Lu,  4-C ) :   0.3215 B(  0-Lu,  5-C ) :   0.2394 B(  0-Lu, 11-C ) :   0.3211
B(  0-Lu, 12-C ) :   0.2252 B(  0-Lu, 13-C ) :   0.2441 B(  0-Lu, 14-C ) :   0.2965
B(  0-Lu, 16-C ) :   0.2195 B(  0-Lu, 25-C ) :   0.8125 B(  1-C ,  2-C ) :   1.3213
B(  1-C ,  5-C ) :   1.3175 B(  1-C ,  8-H ) :   0.9286 B(  2-C ,  3-C ) :   1.2833
B(  2-C ,  9-H ) :   0.9163 B(  3-C ,  4-C ) :   1.2607 B(  3-C , 10-H ) :   0.9159
B(  4-C ,  5-C ) :   1.2648 B(  4-C ,  6-H ) :   0.9071 B(  5-C ,  7-H ) :   0.9023
B( 11-C , 12-C ) :   1.2725 B( 11-C , 14-C ) :   1.2548 B( 11-C , 15-H ) :   0.9040
B( 12-C , 16-C ) :   1.3238 B( 12-C , 17-H ) :   0.9086 B( 13-C , 14-C ) :   1.2761
B( 13-C , 16-C ) :   1.3163 B( 13-C , 19-H ) :   0.9142 B( 14-C , 18-H ) :   0.9155
B( 16-C , 20-H ) :   0.9269 B( 21-C , 22-H ) :   0.9160 B( 21-C , 23-H ) :   0.9307
B( 21-C , 24-H ) :   0.8924 B( 21-C , 26-H ) :   0.8612 B( 25-C , 27-H ) :   0.8966
B( 25-C , 28-H ) :   0.9255 B( 25-C , 29-H ) :   0.9175

Dispersion correction           -0.016655944
FINAL SINGLE POINT ENERGY     -1702.295449628137
Dispersion correction            ... done

DIPOLE MOMENT
-------------
                                X             Y             Z
Electronic contribution:      6.96967      20.10494     -11.92860
Nuclear contribution   :     -6.65982     -20.72842      12.21968
                        -----------------------------------------
Total Dipole Moment    :      0.30985      -0.62348       0.29107
                        -----------------------------------------
Magnitude (a.u.)       :      0.75462
Magnitude (Debye)      :      1.91810

Rotational constants in cm-1:     0.026606     0.018342     0.016172
Rotational constants in MHz :   797.619029   549.880245   484.814860

                             ****ORCA TERMINATED NORMALLY****
TOTAL RUN TIME: 0 days 0 hours 9 minutes 22 seconds 744 msec
