                         Program Version 5.0.3 -  RELEASE  -
|  1> ! EnGrad PBEh-3c
|  2> %output
|  3> xyzfile=True
|  4> end
|  5> %scf
|  6> maxiter 250
|  7> end
|  8> %output
|  9> Print[P_Hirshfeld] = 1
| 10> end
| 11> % maxcore
| 12> 4000
| 13> *xyz 0 1
| 14> Lu   0.13554813   0.31996844  -0.19828277
| 15> C    0.37696722   0.92576405   2.43069611
| 16> C    1.39622961  -0.05906270   2.25152807
| 17> C    2.34114818   0.46244293   1.34978036
| 18> C    1.92565270   1.76995612   0.98006874
| 19> C    0.79883544   2.09431404   1.77479783
| 20> H    2.50007004   2.48310171   0.35671692
| 21> H    0.17227951   3.00227445   1.65721682
| 22> H   -0.35524953   0.89606008   3.21769495
| 23> H    1.38722054  -1.06426482   2.67030024
| 24> H    3.25803986  -0.08023709   0.98588936
| 25> C    1.00158303  -0.10198888  -2.57058299
| 26> C   -0.26600325  -0.71717064  -2.65763820
| 27> C    1.05875456  -2.02971592  -1.34195495
| 28> C    1.83323606  -0.93348731  -1.77805998
| 29> H    1.31423017   0.80031930  -3.12521570
| 30> C   -0.28560925  -1.80660251  -1.76397618
| 31> H   -1.14918431  -0.29853601  -3.14864756
| 32> H    2.93530967  -0.81573796  -1.60516750
| 33> H    1.37530332  -2.81026712  -0.64965864
| 34> H   -1.05258641  -2.55297233  -1.73231502
| 35> C   -2.33257921  -1.44562442   1.23942952
| 36> H   -2.33849857  -1.51539777   2.42274177
| 37> H   -2.45107413  -2.70648351   1.12035899
| 38> H   -3.43452149  -1.21382694   1.03836456
| 39> C   -1.80978748   1.77907290  -0.76718432
| 40> H   -1.93291085  -0.73470515   0.75166750
| 41> H   -1.36598178   2.61293254  -1.36660608
| 42> H   -2.48440071   2.37724254  -0.06162412
| 43> H   -2.57262686   1.35660253  -1.48183324
| 44> *
| 45>
| 46>                          ****END OF INPUT****

CARTESIAN COORDINATES (ANGSTROEM)
---------------------------------
  Lu     0.135548    0.319968   -0.198283
  C      0.376967    0.925764    2.430696
  C      1.396230   -0.059063    2.251528
  C      2.341148    0.462443    1.349780
  C      1.925653    1.769956    0.980069
  C      0.798835    2.094314    1.774798
  H      2.500070    2.483102    0.356717
  H      0.172280    3.002274    1.657217
  H     -0.355250    0.896060    3.217695
  H      1.387221   -1.064265    2.670300
  H      3.258040   -0.080237    0.985889
  C      1.001583   -0.101989   -2.570583
  C     -0.266003   -0.717171   -2.657638
  C      1.058755   -2.029716   -1.341955
  C      1.833236   -0.933487   -1.778060
  H      1.314230    0.800319   -3.125216
  C     -0.285609   -1.806603   -1.763976
  H     -1.149184   -0.298536   -3.148648
  H      2.935310   -0.815738   -1.605168
  H      1.375303   -2.810267   -0.649659
  H     -1.052586   -2.552972   -1.732315
  C     -2.332579   -1.445624    1.239430
  H     -2.338499   -1.515398    2.422742
  H     -2.451074   -2.706484    1.120359
  H     -3.434521   -1.213827    1.038365
  C     -1.809787    1.779073   -0.767184
  H     -1.932911   -0.734705    0.751668
  H     -1.365982    2.612933   -1.366606
  H     -2.484401    2.377243   -0.061624
  H     -2.572627    1.356603   -1.481833

 Total Charge           Charge          ....    0
 Multiplicity           Mult            ....    1
 Number of Electrons    NEL             ....  132
 Basis Dimension        Dim             ....  295

ORBITAL ENERGIES
----------------

  NO   OCC          E(Eh)            E(eV)
   0   2.0000     -19.272164      -524.4222
   1   2.0000     -12.644594      -344.0769
   2   2.0000     -12.642205      -344.0119
   3   2.0000     -12.642041      -344.0074
   4   2.0000     -10.462328      -284.6944
   5   2.0000     -10.453770      -284.4615
   6   2.0000     -10.453379      -284.4509
   7   2.0000     -10.452518      -284.4275
   8   2.0000     -10.449637      -284.3491
   9   2.0000     -10.449329      -284.3407
  10   2.0000     -10.449186      -284.3368
  11   2.0000     -10.448394      -284.3153
  12   2.0000     -10.446621      -284.2670
  13   2.0000     -10.444288      -284.2035
  14   2.0000     -10.442207      -284.1469
  15   2.0000     -10.377530      -282.3870
  16   2.0000      -5.913780      -160.9221
  17   2.0000      -5.913474      -160.9138
  18   2.0000      -5.913141      -160.9047
  19   2.0000      -5.911766      -160.8673
  20   2.0000      -5.911569      -160.8620
  21   2.0000      -2.454997       -66.8039
  22   2.0000      -1.291881       -35.1539
  23   2.0000      -1.288238       -35.0547
  24   2.0000      -1.279227       -34.8095
  25   2.0000      -0.977200       -26.5910
  26   2.0000      -0.970300       -26.4032
  27   2.0000      -0.800056       -21.7706
  28   2.0000      -0.792377       -21.5617
  29   2.0000      -0.790858       -21.5203
  30   2.0000      -0.789036       -21.4708
  31   2.0000      -0.786700       -21.4072
  32   2.0000      -0.692563       -18.8456
  33   2.0000      -0.610700       -16.6180
  34   2.0000      -0.609080       -16.5739
  35   2.0000      -0.606028       -16.4909
  36   2.0000      -0.604392       -16.4463
  37   2.0000      -0.591344       -16.0913
  38   2.0000      -0.585699       -15.9377
  39   2.0000      -0.581402       -15.8208
  40   2.0000      -0.580184       -15.7876
  41   2.0000      -0.578913       -15.7530
  42   2.0000      -0.578648       -15.7458
  43   2.0000      -0.578511       -15.7421
  44   2.0000      -0.576891       -15.6980
  45   2.0000      -0.575189       -15.6517
  46   2.0000      -0.538256       -14.6467
  47   2.0000      -0.464853       -12.6493
  48   2.0000      -0.449126       -12.2213
  49   2.0000      -0.448356       -12.2004
  50   2.0000      -0.445969       -12.1354
  51   2.0000      -0.444069       -12.0837
  52   2.0000      -0.440190       -11.9782
  53   2.0000      -0.432883       -11.7793
  54   2.0000      -0.430400       -11.7118
  55   2.0000      -0.427203       -11.6248
  56   2.0000      -0.425002       -11.5649
  57   2.0000      -0.421581       -11.4718
  58   2.0000      -0.404418       -11.0048
  59   2.0000      -0.382688       -10.4135
  60   2.0000      -0.373523       -10.1641
  61   2.0000      -0.289115        -7.8672
  62   2.0000      -0.287317        -7.8183
  63   2.0000      -0.277314        -7.5461
  64   2.0000      -0.266511        -7.2521
  65   2.0000      -0.263684        -7.1752
  66   0.0000      -0.024404        -0.6641
  67   0.0000       0.002116         0.0576
  68   0.0000       0.042981         1.1696
  69   0.0000       0.051612         1.4044
  70   0.0000       0.052328         1.4239

MULLIKEN ATOMIC CHARGES
-----------------------
   0 Lu:    0.892298
   1 C :   -0.399132
   2 C :   -0.237786
   3 C :   -0.249909
   4 C :   -0.432564
   5 C :   -0.143981
   6 H :    0.243208
   7 H :    0.251771
   8 H :    0.228354
   9 H :    0.236054
  10 H :    0.230581
  11 C :   -0.381256
  12 C :   -0.150451
  13 C :   -0.184928
  14 C :   -0.315270
  15 H :    0.248525
  16 C :   -0.422462
  17 H :    0.252299
  18 H :    0.234237
  19 H :    0.237354
  20 H :    0.229012
  21 C :   -0.938585
  22 H :    0.236190
  23 H :    0.221058
  24 H :    0.255960
  25 C :   -1.039527
  26 H :    0.289836
  27 H :    0.203389
  28 H :    0.203396
  29 H :    0.202327
Sum of atomic charges:    0.0000000

LOEWDIN ATOMIC CHARGES
----------------------
   0 Lu:    0.089860
   1 C :   -0.169339
   2 C :   -0.147743
   3 C :   -0.135296
   4 C :   -0.180650
   5 C :   -0.115316
   6 H :    0.158219
   7 H :    0.160967
   8 H :    0.152461
   9 H :    0.150337
  10 H :    0.152757
  11 C :   -0.166747
  12 C :   -0.111926
  13 C :   -0.132514
  14 C :   -0.145348
  15 H :    0.160611
  16 C :   -0.171840
  17 H :    0.160254
  18 H :    0.155262
  19 H :    0.150988
  20 H :    0.152839
  21 C :   -0.499537
  22 H :    0.147414
  23 H :    0.153569
  24 H :    0.150162
  25 C :   -0.650347
  26 H :    0.152364
  27 H :    0.131178
  28 H :    0.124180
  29 H :    0.123182

  Mayer bond orders larger than 0.100000
B(  0-Lu,  1-C ) :   0.2540 B(  0-Lu,  2-C ) :   0.2326 B(  0-Lu,  3-C ) :   0.2414
B(  0-Lu,  4-C ) :   0.3054 B(  0-Lu,  5-C ) :   0.2087 B(  0-Lu, 11-C ) :   0.3007
B(  0-Lu, 12-C ) :   0.2149 B(  0-Lu, 13-C ) :   0.2276 B(  0-Lu, 14-C ) :   0.2613
B(  0-Lu, 16-C ) :   0.2720 B(  0-Lu, 25-C ) :   0.8169 B(  1-C ,  2-C ) :   1.2565
B(  1-C ,  5-C ) :   1.3156 B(  1-C ,  8-H ) :   0.9310 B(  2-C ,  3-C ) :   1.3422
B(  2-C ,  9-H ) :   0.9117 B(  3-C ,  4-C ) :   1.2450 B(  3-C , 10-H ) :   0.9158
B(  4-C ,  5-C ) :   1.2724 B(  4-C ,  6-H ) :   0.9146 B(  5-C ,  7-H ) :   0.8999
B( 11-C , 12-C ) :   1.2936 B( 11-C , 14-C ) :   1.2411 B( 11-C , 15-H ) :   0.9103
B( 12-C , 16-C ) :   1.2917 B( 12-C , 17-H ) :   0.9028 B( 13-C , 14-C ) :   1.3257
B( 13-C , 16-C ) :   1.2618 B( 13-C , 19-H ) :   0.9092 B( 14-C , 18-H ) :   0.9177
B( 16-C , 20-H ) :   0.9318 B( 21-C , 22-H ) :   0.9198 B( 21-C , 23-H ) :   0.9286
B( 21-C , 24-H ) :   0.9126 B( 21-C , 26-H ) :   0.8401 B( 25-C , 27-H ) :   0.8974
B( 25-C , 28-H ) :   0.9197 B( 25-C , 29-H ) :   0.9109

Dispersion correction           -0.016768467
FINAL SINGLE POINT ENERGY     -1702.291444891361
Dispersion correction            ... done

DIPOLE MOMENT
-------------
                                X             Y             Z
Electronic contribution:     -0.88844      15.21592      -8.42538
Nuclear contribution   :      1.00567     -15.98503       8.75348
                        -----------------------------------------
Total Dipole Moment    :      0.11722      -0.76911       0.32809
                        -----------------------------------------
Magnitude (a.u.)       :      0.84435
Magnitude (Debye)      :      2.14616

Rotational constants in cm-1:     0.027827     0.018754     0.016541
Rotational constants in MHz :   834.226609   562.232996   495.896920

                             ****ORCA TERMINATED NORMALLY****
TOTAL RUN TIME: 0 days 0 hours 9 minutes 26 seconds 638 msec
