                         Program Version 5.0.3 -  RELEASE  -
|  1> ! EnGrad PBEh-3c
|  2> %output
|  3> xyzfile=True
|  4> end
|  5> %scf
|  6> maxiter 250
|  7> end
|  8> %output
|  9> Print[P_Hirshfeld] = 1
| 10> end
| 11> % maxcore
| 12> 4000
| 13> *xyz 0 1
| 14> Lu   0.23319896   0.38045947  -0.24273924
| 15> C    0.40371402   0.94415179   2.44877041
| 16> C    1.36084751  -0.05700799   2.25156651
| 17> C    2.36583523   0.45115826   1.34431118
| 18> C    1.96433746   1.79514879   1.00132803
| 19> C    0.77477474   2.11134052   1.74400217
| 20> H    2.50816711   2.47494525   0.37045958
| 21> H    0.19453291   2.98999358   1.64250591
| 22> H   -0.35798743   0.93082235   3.21800617
| 23> H    1.36335884  -1.04285954   2.66232132
| 24> H    3.22083869  -0.07781177   1.00000043
| 25> C    1.02400499  -0.10312332  -2.60662529
| 26> C   -0.27905699  -0.69864300  -2.65579050
| 27> C    1.03324007  -2.02427853  -1.32166380
| 28> C    1.86737669  -0.93928948  -1.79372773
| 29> H    1.32282414   0.79169127  -3.12839555
| 30> C   -0.26235645  -1.81555696  -1.81111781
| 31> H   -1.12346447  -0.29299904  -3.15160283
| 32> H    2.90983730  -0.82740901  -1.60089339
| 33> H    1.35261110  -2.79187729  -0.65303606
| 34> H   -1.05827298  -2.55205127  -1.76235480
| 35> C   -2.41928342  -1.52721206   1.30868330
| 36> H   -2.35247563  -1.52852713   2.46323917
| 37> H   -2.52319893  -2.74809789   1.11608949
| 38> H   -3.42037357  -1.19409047   1.05538032
| 39> C   -1.83733928   1.78006609  -0.75865501
| 40> H   -1.79536358  -0.71595639   0.70232145
| 41> H   -1.38492425   2.59483052  -1.35620115
| 42> H   -2.50367097   2.35817928  -0.03064716
| 43> H   -2.59600613   1.32902641  -1.45611637
| 44> *
| 45>
| 46>                          ****END OF INPUT****

CARTESIAN COORDINATES (ANGSTROEM)
---------------------------------
  Lu     0.233199    0.380459   -0.242739
  C      0.403714    0.944152    2.448770
  C      1.360848   -0.057008    2.251567
  C      2.365835    0.451158    1.344311
  C      1.964337    1.795149    1.001328
  C      0.774775    2.111341    1.744002
  H      2.508167    2.474945    0.370460
  H      0.194533    2.989994    1.642506
  H     -0.357987    0.930822    3.218006
  H      1.363359   -1.042860    2.662321
  H      3.220839   -0.077812    1.000000
  C      1.024005   -0.103123   -2.606625
  C     -0.279057   -0.698643   -2.655791
  C      1.033240   -2.024279   -1.321664
  C      1.867377   -0.939289   -1.793728
  H      1.322824    0.791691   -3.128396
  C     -0.262356   -1.815557   -1.811118
  H     -1.123464   -0.292999   -3.151603
  H      2.909837   -0.827409   -1.600893
  H      1.352611   -2.791877   -0.653036
  H     -1.058273   -2.552051   -1.762355
  C     -2.419283   -1.527212    1.308683
  H     -2.352476   -1.528527    2.463239
  H     -2.523199   -2.748098    1.116089
  H     -3.420374   -1.194090    1.055380
  C     -1.837339    1.780066   -0.758655
  H     -1.795364   -0.715956    0.702321
  H     -1.384924    2.594831   -1.356201
  H     -2.503671    2.358179   -0.030647
  H     -2.596006    1.329026   -1.456116

 Total Charge           Charge          ....    0
 Multiplicity           Mult            ....    1
 Number of Electrons    NEL             ....  132
 Basis Dimension        Dim             ....  295

ORBITAL ENERGIES
----------------

  NO   OCC          E(Eh)            E(eV)
   0   2.0000     -19.271654      -524.4084
   1   2.0000     -12.644291      -344.0687
   2   2.0000     -12.641611      -343.9957
   3   2.0000     -12.641385      -343.9896
   4   2.0000     -10.469150      -284.8801
   5   2.0000     -10.453938      -284.4661
   6   2.0000     -10.453892      -284.4649
   7   2.0000     -10.451407      -284.3973
   8   2.0000     -10.450860      -284.3824
   9   2.0000     -10.450845      -284.3820
  10   2.0000     -10.450743      -284.3792
  11   2.0000     -10.447359      -284.2871
  12   2.0000     -10.447276      -284.2848
  13   2.0000     -10.446621      -284.2670
  14   2.0000     -10.446586      -284.2660
  15   2.0000     -10.376354      -282.3550
  16   2.0000      -5.913397      -160.9117
  17   2.0000      -5.913038      -160.9019
  18   2.0000      -5.912669      -160.8919
  19   2.0000      -5.911075      -160.8485
  20   2.0000      -5.910912      -160.8441
  21   2.0000      -2.454562       -66.7920
  22   2.0000      -1.291920       -35.1549
  23   2.0000      -1.288187       -35.0533
  24   2.0000      -1.278434       -34.7880
  25   2.0000      -0.972343       -26.4588
  26   2.0000      -0.964844       -26.2548
  27   2.0000      -0.794144       -21.6098
  28   2.0000      -0.792634       -21.5687
  29   2.0000      -0.792156       -21.5557
  30   2.0000      -0.789956       -21.4958
  31   2.0000      -0.774129       -21.0651
  32   2.0000      -0.690436       -18.7877
  33   2.0000      -0.621878       -16.9222
  34   2.0000      -0.617904       -16.8140
  35   2.0000      -0.611797       -16.6478
  36   2.0000      -0.610638       -16.6163
  37   2.0000      -0.596478       -16.2310
  38   2.0000      -0.592765       -16.1300
  39   2.0000      -0.581093       -15.8123
  40   2.0000      -0.579761       -15.7761
  41   2.0000      -0.578930       -15.7535
  42   2.0000      -0.578220       -15.7342
  43   2.0000      -0.578102       -15.7310
  44   2.0000      -0.576274       -15.6812
  45   2.0000      -0.574952       -15.6452
  46   2.0000      -0.486425       -13.2363
  47   2.0000      -0.461738       -12.5645
  48   2.0000      -0.455758       -12.4018
  49   2.0000      -0.454140       -12.3578
  50   2.0000      -0.454023       -12.3546
  51   2.0000      -0.452861       -12.3230
  52   2.0000      -0.443750       -12.0751
  53   2.0000      -0.438561       -11.9339
  54   2.0000      -0.435764       -11.8577
  55   2.0000      -0.433431       -11.7943
  56   2.0000      -0.425910       -11.5896
  57   2.0000      -0.421506       -11.4698
  58   2.0000      -0.414958       -11.2916
  59   2.0000      -0.385568       -10.4918
  60   2.0000      -0.373394       -10.1606
  61   2.0000      -0.289547        -7.8790
  62   2.0000      -0.285255        -7.7622
  63   2.0000      -0.279592        -7.6081
  64   2.0000      -0.266289        -7.2461
  65   2.0000      -0.253963        -6.9107
  66   0.0000      -0.029817        -0.8114
  67   0.0000      -0.001981        -0.0539
  68   0.0000       0.040015         1.0889
  69   0.0000       0.050359         1.3703
  70   0.0000       0.053441         1.4542

MULLIKEN ATOMIC CHARGES
-----------------------
   0 Lu:    0.844740
   1 C :   -0.336968
   2 C :   -0.250844
   3 C :   -0.275978
   4 C :   -0.402837
   5 C :   -0.195428
   6 H :    0.248807
   7 H :    0.259747
   8 H :    0.228518
   9 H :    0.237858
  10 H :    0.237982
  11 C :   -0.373645
  12 C :   -0.189652
  13 C :   -0.224524
  14 C :   -0.316256
  15 H :    0.251511
  16 C :   -0.348264
  17 H :    0.254483
  18 H :    0.240331
  19 H :    0.239583
  20 H :    0.228590
  21 C :   -0.857196
  22 H :    0.230741
  23 H :    0.207849
  24 H :    0.266414
  25 C :   -1.012302
  26 H :    0.212296
  27 H :    0.196935
  28 H :    0.198396
  29 H :    0.199116
Sum of atomic charges:    0.0000000

LOEWDIN ATOMIC CHARGES
----------------------
   0 Lu:    0.073784
   1 C :   -0.146980
   2 C :   -0.147444
   3 C :   -0.140795
   4 C :   -0.170141
   5 C :   -0.128838
   6 H :    0.157354
   7 H :    0.160942
   8 H :    0.152402
   9 H :    0.150548
  10 H :    0.152924
  11 C :   -0.163842
  12 C :   -0.123035
  13 C :   -0.140938
  14 C :   -0.146669
  15 H :    0.159311
  16 C :   -0.150271
  17 H :    0.159714
  18 H :    0.154775
  19 H :    0.151091
  20 H :    0.152309
  21 C :   -0.481656
  22 H :    0.140409
  23 H :    0.141504
  24 H :    0.142824
  25 C :   -0.650093
  26 H :    0.170901
  27 H :    0.127265
  28 H :    0.121751
  29 H :    0.120892

  Mayer bond orders larger than 0.100000
B(  0-Lu,  1-C ) :   0.2308 B(  0-Lu,  2-C ) :   0.2370 B(  0-Lu,  3-C ) :   0.2681
B(  0-Lu,  4-C ) :   0.3169 B(  0-Lu,  5-C ) :   0.2279 B(  0-Lu, 11-C ) :   0.3149
B(  0-Lu, 12-C ) :   0.2222 B(  0-Lu, 13-C ) :   0.2395 B(  0-Lu, 14-C ) :   0.2847
B(  0-Lu, 16-C ) :   0.2387 B(  0-Lu, 25-C ) :   0.8168 B(  1-C ,  2-C ) :   1.2983
B(  1-C ,  5-C ) :   1.3184 B(  1-C ,  8-H ) :   0.9297 B(  2-C ,  3-C ) :   1.3022
B(  2-C ,  9-H ) :   0.9141 B(  3-C ,  4-C ) :   1.2565 B(  3-C , 10-H ) :   0.9155
B(  4-C ,  5-C ) :   1.2672 B(  4-C ,  6-H ) :   0.9100 B(  5-C ,  7-H ) :   0.9000
B( 11-C , 12-C ) :   1.2785 B( 11-C , 14-C ) :   1.2511 B( 11-C , 15-H ) :   0.9063
B( 12-C , 16-C ) :   1.3141 B( 12-C , 17-H ) :   0.9056 B( 13-C , 14-C ) :   1.2916
B( 13-C , 16-C ) :   1.2986 B( 13-C , 19-H ) :   0.9117 B( 14-C , 18-H ) :   0.9164
B( 16-C , 20-H ) :   0.9288 B( 21-C , 22-H ) :   0.9182 B( 21-C , 23-H ) :   0.9319
B( 21-C , 24-H ) :   0.8992 B( 21-C , 26-H ) :   0.8635 B( 25-C , 27-H ) :   0.8968
B( 25-C , 28-H ) :   0.9234 B( 25-C , 29-H ) :   0.9150

Dispersion correction           -0.016676749
FINAL SINGLE POINT ENERGY     -1702.323786653255
Dispersion correction            ... done

DIPOLE MOMENT
-------------
                                X             Y             Z
Electronic contribution:      4.16210      18.35508     -10.67662
Nuclear contribution   :     -3.89352     -19.01664      10.96880
                        -----------------------------------------
Total Dipole Moment    :      0.26858      -0.66156       0.29219
                        -----------------------------------------
Magnitude (a.u.)       :      0.77147
Magnitude (Debye)      :      1.96093

Rotational constants in cm-1:     0.027076     0.018486     0.016322
Rotational constants in MHz :   811.729424   554.205637   489.319407

                             ****ORCA TERMINATED NORMALLY****
TOTAL RUN TIME: 0 days 0 hours 9 minutes 25 seconds 625 msec
