                         Program Version 5.0.3 -  RELEASE  -
|  1> ! EnGrad PBEh-3c
|  2> %output
|  3> xyzfile=True
|  4> end
|  5> %scf
|  6> maxiter 250
|  7> end
|  8> %output
|  9> Print[P_Hirshfeld] = 1
| 10> end
| 11> % maxcore
| 12> 4000
| 13> *xyz 0 1
| 14> Lu   0.12673473   0.31466692  -0.18832362
| 15> C    0.38525283   0.92763927   2.44437836
| 16> C    1.41048587  -0.05715004   2.23078825
| 17> C    2.32436886   0.46484678   1.35020202
| 18> C    1.92378237   1.76307097   0.98988034
| 19> C    0.79580536   2.07323714   1.75502783
| 20> H    2.48959728   2.47959936   0.35532566
| 21> H    0.16904133   2.99794218   1.66477108
| 22> H   -0.35732235   0.88451879   3.21772040
| 23> H    1.39498533  -1.06907550   2.67487072
| 24> H    3.25637266  -0.07370067   0.98546740
| 25> C    0.99909708  -0.11069770  -2.56733768
| 26> C   -0.25840971  -0.70419287  -2.63468203
| 27> C    1.06873754  -2.00559122  -1.33470610
| 28> C    1.81785877  -0.94034083  -1.77697622
| 29> H    1.30648770   0.79853990  -3.11775322
| 30> C   -0.28180598  -1.82346558  -1.77327097
| 31> H   -1.15553837  -0.30371090  -3.14592377
| 32> H    2.92875636  -0.81260171  -1.60717992
| 33> H    1.38104160  -2.81727651  -0.65128853
| 34> H   -1.05442862  -2.55444944  -1.71985937
| 35> C   -2.36688781  -1.48921511   1.26534205
| 36> H   -2.32974447  -1.49498305   2.38664626
| 37> H   -2.41709293  -2.65296972   1.11191837
| 38> H   -3.42627546  -1.22291375   1.03529166
| 39> C   -1.82610849   1.79023966  -0.77024339
| 40> H   -1.93882892  -0.71908127   0.74553971
| 41> H   -1.35556580   2.60971297  -1.36511986
| 42> H   -2.47179640   2.37528035  -0.07835411
| 43> H   -2.55969022   1.36824613  -1.48499122
| 44> *
| 45>
| 46>                          ****END OF INPUT****

CARTESIAN COORDINATES (ANGSTROEM)
---------------------------------
  Lu     0.126735    0.314667   -0.188324
  C      0.385253    0.927639    2.444378
  C      1.410486   -0.057150    2.230788
  C      2.324369    0.464847    1.350202
  C      1.923782    1.763071    0.989880
  C      0.795805    2.073237    1.755028
  H      2.489597    2.479599    0.355326
  H      0.169041    2.997942    1.664771
  H     -0.357322    0.884519    3.217720
  H      1.394985   -1.069076    2.674871
  H      3.256373   -0.073701    0.985467
  C      0.999097   -0.110698   -2.567338
  C     -0.258410   -0.704193   -2.634682
  C      1.068738   -2.005591   -1.334706
  C      1.817859   -0.940341   -1.776976
  H      1.306488    0.798540   -3.117753
  C     -0.281806   -1.823466   -1.773271
  H     -1.155538   -0.303711   -3.145924
  H      2.928756   -0.812602   -1.607180
  H      1.381042   -2.817277   -0.651289
  H     -1.054429   -2.554449   -1.719859
  C     -2.366888   -1.489215    1.265342
  H     -2.329744   -1.494983    2.386646
  H     -2.417093   -2.652970    1.111918
  H     -3.426275   -1.222914    1.035292
  C     -1.826108    1.790240   -0.770243
  H     -1.938829   -0.719081    0.745540
  H     -1.355566    2.609713   -1.365120
  H     -2.471796    2.375280   -0.078354
  H     -2.559690    1.368246   -1.484991

 Total Charge           Charge          ....    0
 Multiplicity           Mult            ....    1
 Number of Electrons    NEL             ....  132
 Basis Dimension        Dim             ....  295

ORBITAL ENERGIES
----------------

  NO   OCC          E(Eh)            E(eV)
   0   2.0000     -19.272361      -524.4276
   1   2.0000     -12.644772      -344.0817
   2   2.0000     -12.642404      -344.0173
   3   2.0000     -12.642267      -344.0136
   4   2.0000     -10.451270      -284.3935
   5   2.0000     -10.450461      -284.3715
   6   2.0000     -10.449887      -284.3559
   7   2.0000     -10.449671      -284.3500
   8   2.0000     -10.447852      -284.3005
   9   2.0000     -10.447525      -284.2916
  10   2.0000     -10.447293      -284.2853
  11   2.0000     -10.445283      -284.2306
  12   2.0000     -10.443774      -284.1895
  13   2.0000     -10.443225      -284.1746
  14   2.0000     -10.441321      -284.1228
  15   2.0000     -10.371950      -282.2351
  16   2.0000      -5.913966      -160.9272
  17   2.0000      -5.913659      -160.9189
  18   2.0000      -5.913345      -160.9103
  19   2.0000      -5.911990      -160.8734
  20   2.0000      -5.911787      -160.8679
  21   2.0000      -2.455183       -66.8089
  22   2.0000      -1.291928       -35.1551
  23   2.0000      -1.288607       -35.0648
  24   2.0000      -1.279434       -34.8152
  25   2.0000      -0.983886       -26.7729
  26   2.0000      -0.977512       -26.5995
  27   2.0000      -0.801780       -21.8175
  28   2.0000      -0.795362       -21.6429
  29   2.0000      -0.792987       -21.5783
  30   2.0000      -0.790277       -21.5045
  31   2.0000      -0.787130       -21.4189
  32   2.0000      -0.696240       -18.9456
  33   2.0000      -0.610789       -16.6204
  34   2.0000      -0.607812       -16.5394
  35   2.0000      -0.605433       -16.4747
  36   2.0000      -0.602516       -16.3953
  37   2.0000      -0.591512       -16.0959
  38   2.0000      -0.586007       -15.9461
  39   2.0000      -0.581559       -15.8250
  40   2.0000      -0.580406       -15.7936
  41   2.0000      -0.579100       -15.7581
  42   2.0000      -0.578977       -15.7548
  43   2.0000      -0.578695       -15.7471
  44   2.0000      -0.577169       -15.7056
  45   2.0000      -0.575368       -15.6566
  46   2.0000      -0.527352       -14.3500
  47   2.0000      -0.468652       -12.7527
  48   2.0000      -0.450536       -12.2597
  49   2.0000      -0.448983       -12.2174
  50   2.0000      -0.448188       -12.1958
  51   2.0000      -0.447174       -12.1682
  52   2.0000      -0.444199       -12.0873
  53   2.0000      -0.441273       -12.0077
  54   2.0000      -0.434426       -11.8213
  55   2.0000      -0.427095       -11.6218
  56   2.0000      -0.423116       -11.5136
  57   2.0000      -0.421779       -11.4772
  58   2.0000      -0.419060       -11.4032
  59   2.0000      -0.384152       -10.4533
  60   2.0000      -0.380332       -10.3493
  61   2.0000      -0.290721        -7.9109
  62   2.0000      -0.285909        -7.7800
  63   2.0000      -0.276752        -7.5308
  64   2.0000      -0.269766        -7.3407
  65   2.0000      -0.259794        -7.0694
  66   0.0000      -0.022851        -0.6218
  67   0.0000       0.002749         0.0748
  68   0.0000       0.043394         1.1808
  69   0.0000       0.052505         1.4287
  70   0.0000       0.055656         1.5145

MULLIKEN ATOMIC CHARGES
-----------------------
   0 Lu:    0.876532
   1 C :   -0.382789
   2 C :   -0.247222
   3 C :   -0.247036
   4 C :   -0.413250
   5 C :   -0.161950
   6 H :    0.243140
   7 H :    0.249991
   8 H :    0.229189
   9 H :    0.233356
  10 H :    0.228733
  11 C :   -0.364447
  12 C :   -0.175074
  13 C :   -0.200246
  14 C :   -0.306412
  15 H :    0.247898
  16 C :   -0.396968
  17 H :    0.249239
  18 H :    0.232241
  19 H :    0.234530
  20 H :    0.229340
  21 C :   -0.933910
  22 H :    0.245092
  23 H :    0.236486
  24 H :    0.258105
  25 C :   -1.040246
  26 H :    0.258271
  27 H :    0.200312
  28 H :    0.210846
  29 H :    0.206249
Sum of atomic charges:   -0.0000000

LOEWDIN ATOMIC CHARGES
----------------------
   0 Lu:    0.089285
   1 C :   -0.168025
   2 C :   -0.148754
   3 C :   -0.135280
   4 C :   -0.179331
   5 C :   -0.117014
   6 H :    0.158859
   7 H :    0.160753
   8 H :    0.152425
   9 H :    0.150409
  10 H :    0.152580
  11 C :   -0.166899
  12 C :   -0.114809
  13 C :   -0.135053
  14 C :   -0.145227
  15 H :    0.160885
  16 C :   -0.170247
  17 H :    0.159872
  18 H :    0.154744
  19 H :    0.150990
  20 H :    0.152243
  21 C :   -0.499474
  22 H :    0.145150
  23 H :    0.153255
  24 H :    0.149695
  25 C :   -0.653521
  26 H :    0.163015
  27 H :    0.130587
  28 H :    0.125159
  29 H :    0.123730

  Mayer bond orders larger than 0.100000
B(  0-Lu,  1-C ) :   0.2584 B(  0-Lu,  2-C ) :   0.2353 B(  0-Lu,  3-C ) :   0.2392
B(  0-Lu,  4-C ) :   0.3042 B(  0-Lu,  5-C ) :   0.2129 B(  0-Lu, 11-C ) :   0.2985
B(  0-Lu, 12-C ) :   0.2190 B(  0-Lu, 13-C ) :   0.2299 B(  0-Lu, 14-C ) :   0.2575
B(  0-Lu, 16-C ) :   0.2746 B(  0-Lu, 25-C ) :   0.8232 B(  1-C ,  2-C ) :   1.2526
B(  1-C ,  5-C ) :   1.3219 B(  1-C ,  8-H ) :   0.9295 B(  2-C ,  3-C ) :   1.3517
B(  2-C ,  9-H ) :   0.9128 B(  3-C ,  4-C ) :   1.2465 B(  3-C , 10-H ) :   0.9165
B(  4-C ,  5-C ) :   1.2796 B(  4-C ,  6-H ) :   0.9137 B(  5-C ,  7-H ) :   0.9022
B( 11-C , 12-C ) :   1.3011 B( 11-C , 14-C ) :   1.2422 B( 11-C , 15-H ) :   0.9097
B( 12-C , 16-C ) :   1.2985 B( 12-C , 17-H ) :   0.9055 B( 13-C , 14-C ) :   1.3369
B( 13-C , 16-C ) :   1.2605 B( 13-C , 19-H ) :   0.9115 B( 14-C , 18-H ) :   0.9174
B( 16-C , 20-H ) :   0.9304 B( 21-C , 22-H ) :   0.9168 B( 21-C , 23-H ) :   0.9234
B( 21-C , 24-H ) :   0.9121 B( 21-C , 26-H ) :   0.8525 B( 25-C , 27-H ) :   0.9003
B( 25-C , 28-H ) :   0.9184 B( 25-C , 29-H ) :   0.9111

Dispersion correction           -0.016768649
FINAL SINGLE POINT ENERGY     -1702.329638866262
Dispersion correction            ... done

DIPOLE MOMENT
-------------
                                X             Y             Z
Electronic contribution:     -1.25803      15.01508      -7.94867
Nuclear contribution   :      1.38356     -15.78283       8.29760
                        -----------------------------------------
Total Dipole Moment    :      0.12552      -0.76774       0.34893
                        -----------------------------------------
Magnitude (a.u.)       :      0.85261
Magnitude (Debye)      :      2.16716

Rotational constants in cm-1:     0.027707     0.018807     0.016558
Rotational constants in MHz :   830.641281   563.811004   496.387236

                             ****ORCA TERMINATED NORMALLY****
TOTAL RUN TIME: 0 days 0 hours 9 minutes 24 seconds 164 msec
