                         Program Version 5.0.3 -  RELEASE  -
|  1> ! EnGrad PBEh-3c
|  2> %output
|  3> xyzfile=True
|  4> end
|  5> %scf
|  6> maxiter 250
|  7> end
|  8> %output
|  9> Print[P_Hirshfeld] = 1
| 10> end
| 11> % maxcore
| 12> 4000
| 13> *xyz 0 1
| 14> Lu   0.05581897   0.27427862  -0.15206356
| 15> C    0.38662241   0.90683578   2.44135657
| 16> C    1.41668868  -0.07238741   2.23565193
| 17> C    2.33424564   0.45677851   1.33363422
| 18> C    1.90871488   1.75832719   0.96938273
| 19> C    0.78135504   2.06940083   1.75957940
| 20> H    2.47025315   2.47409908   0.35150378
| 21> H    0.16289996   2.98913718   1.68166998
| 22> H   -0.36024615   0.85265373   3.21873664
| 23> H    1.41966052  -1.07660482   2.67828018
| 24> H    3.26263732  -0.06052602   0.98166068
| 25> C    0.98805854  -0.09847943  -2.55157117
| 26> C   -0.27478626  -0.70714084  -2.62154121
| 27> C    1.07230591  -2.01679021  -1.32395092
| 28> C    1.82472847  -0.92915610  -1.76339527
| 29> H    1.29285293   0.79508773  -3.10486803
| 30> C   -0.27687055  -1.82236796  -1.75242784
| 31> H   -1.16533987  -0.31510621  -3.13605550
| 32> H    2.92186836  -0.80395473  -1.61365813
| 33> H    1.39987097  -2.82541071  -0.65817923
| 34> H   -1.05737213  -2.56067662  -1.68941347
| 35> C   -2.37542813  -1.50360905   1.26510771
| 36> H   -2.31131840  -1.46523048   2.33511218
| 37> H   -2.33769662  -2.57979006   1.10050313
| 38> H   -3.42593048  -1.24545503   1.02416197
| 39> C   -1.81202352   1.79874275  -0.78161871
| 40> H   -2.00572060  -0.68913277   0.74851251
| 41> H   -1.33495336   2.61519837  -1.36863283
| 42> H   -2.45092432   2.38633536  -0.10676597
| 43> H   -2.53566872   1.39281069  -1.50565730
| 44> *
| 45>
| 46>                          ****END OF INPUT****

CARTESIAN COORDINATES (ANGSTROEM)
---------------------------------
  Lu     0.055819    0.274279   -0.152064
  C      0.386622    0.906836    2.441357
  C      1.416689   -0.072387    2.235652
  C      2.334246    0.456779    1.333634
  C      1.908715    1.758327    0.969383
  C      0.781355    2.069401    1.759579
  H      2.470253    2.474099    0.351504
  H      0.162900    2.989137    1.681670
  H     -0.360246    0.852654    3.218737
  H      1.419661   -1.076605    2.678280
  H      3.262637   -0.060526    0.981661
  C      0.988059   -0.098479   -2.551571
  C     -0.274786   -0.707141   -2.621541
  C      1.072306   -2.016790   -1.323951
  C      1.824728   -0.929156   -1.763395
  H      1.292853    0.795088   -3.104868
  C     -0.276871   -1.822368   -1.752428
  H     -1.165340   -0.315106   -3.136055
  H      2.921868   -0.803955   -1.613658
  H      1.399871   -2.825411   -0.658179
  H     -1.057372   -2.560677   -1.689413
  C     -2.375428   -1.503609    1.265108
  H     -2.311318   -1.465230    2.335112
  H     -2.337697   -2.579790    1.100503
  H     -3.425930   -1.245455    1.024162
  C     -1.812024    1.798743   -0.781619
  H     -2.005721   -0.689133    0.748513
  H     -1.334953    2.615198   -1.368633
  H     -2.450924    2.386335   -0.106766
  H     -2.535669    1.392811   -1.505657

 Total Charge           Charge          ....    0
 Multiplicity           Mult            ....    1
 Number of Electrons    NEL             ....  132
 Basis Dimension        Dim             ....  295

ORBITAL ENERGIES
----------------

  NO   OCC          E(Eh)            E(eV)
   0   2.0000     -19.270322      -524.3721
   1   2.0000     -12.642654      -344.0241
   2   2.0000     -12.640403      -343.9629
   3   2.0000     -12.640264      -343.9591
   4   2.0000     -10.450016      -284.3594
   5   2.0000     -10.449665      -284.3498
   6   2.0000     -10.449246      -284.3385
   7   2.0000     -10.447465      -284.2900
   8   2.0000     -10.447303      -284.2856
   9   2.0000     -10.447212      -284.2831
  10   2.0000     -10.444697      -284.2147
  11   2.0000     -10.443433      -284.1803
  12   2.0000     -10.443372      -284.1786
  13   2.0000     -10.443280      -284.1761
  14   2.0000     -10.441520      -284.1282
  15   2.0000     -10.368864      -282.1511
  16   2.0000      -5.911893      -160.8708
  17   2.0000      -5.911589      -160.8625
  18   2.0000      -5.911268      -160.8538
  19   2.0000      -5.910010      -160.8195
  20   2.0000      -5.909794      -160.8137
  21   2.0000      -2.453045       -66.7508
  22   2.0000      -1.289557       -35.0906
  23   2.0000      -1.286126       -34.9973
  24   2.0000      -1.277338       -34.7581
  25   2.0000      -0.976824       -26.5807
  26   2.0000      -0.970391       -26.4057
  27   2.0000      -0.817667       -22.2499
  28   2.0000      -0.792193       -21.5567
  29   2.0000      -0.789430       -21.4815
  30   2.0000      -0.787682       -21.4339
  31   2.0000      -0.784497       -21.3472
  32   2.0000      -0.699623       -19.0377
  33   2.0000      -0.608391       -16.5552
  34   2.0000      -0.607476       -16.5303
  35   2.0000      -0.604535       -16.4502
  36   2.0000      -0.603029       -16.4093
  37   2.0000      -0.590131       -16.0583
  38   2.0000      -0.584713       -15.9109
  39   2.0000      -0.579341       -15.7647
  40   2.0000      -0.578360       -15.7380
  41   2.0000      -0.577373       -15.7111
  42   2.0000      -0.576900       -15.6983
  43   2.0000      -0.576631       -15.6909
  44   2.0000      -0.575379       -15.6569
  45   2.0000      -0.573549       -15.6071
  46   2.0000      -0.537077       -14.6146
  47   2.0000      -0.465073       -12.6553
  48   2.0000      -0.462673       -12.5900
  49   2.0000      -0.449515       -12.2319
  50   2.0000      -0.447273       -12.1709
  51   2.0000      -0.445477       -12.1220
  52   2.0000      -0.442715       -12.0469
  53   2.0000      -0.437677       -11.9098
  54   2.0000      -0.435713       -11.8564
  55   2.0000      -0.429910       -11.6985
  56   2.0000      -0.425168       -11.5694
  57   2.0000      -0.423617       -11.5272
  58   2.0000      -0.421047       -11.4573
  59   2.0000      -0.385317       -10.4850
  60   2.0000      -0.381631       -10.3847
  61   2.0000      -0.288902        -7.8614
  62   2.0000      -0.283017        -7.7013
  63   2.0000      -0.275441        -7.4951
  64   2.0000      -0.264490        -7.1971
  65   2.0000      -0.262359        -7.1391
  66   0.0000      -0.018809        -0.5118
  67   0.0000       0.004755         0.1294
  68   0.0000       0.044032         1.1982
  69   0.0000       0.052836         1.4377
  70   0.0000       0.054815         1.4916

MULLIKEN ATOMIC CHARGES
-----------------------
   0 Lu:    0.885670
   1 C :   -0.401104
   2 C :   -0.244548
   3 C :   -0.242893
   4 C :   -0.413420
   5 C :   -0.154431
   6 H :    0.239392
   7 H :    0.250098
   8 H :    0.229038
   9 H :    0.232902
  10 H :    0.228061
  11 C :   -0.360334
  12 C :   -0.171273
  13 C :   -0.193722
  14 C :   -0.303218
  15 H :    0.245034
  16 C :   -0.416139
  17 H :    0.249214
  18 H :    0.230270
  19 H :    0.234020
  20 H :    0.228958
  21 C :   -0.948386
  22 H :    0.258137
  23 H :    0.257993
  24 H :    0.258413
  25 C :   -1.055160
  26 H :    0.247552
  27 H :    0.206366
  28 H :    0.215251
  29 H :    0.208260
Sum of atomic charges:    0.0000000

LOEWDIN ATOMIC CHARGES
----------------------
   0 Lu:    0.081466
   1 C :   -0.173656
   2 C :   -0.150594
   3 C :   -0.133501
   4 C :   -0.175843
   5 C :   -0.117104
   6 H :    0.156538
   7 H :    0.160348
   8 H :    0.151873
   9 H :    0.149638
  10 H :    0.151278
  11 C :   -0.162207
  12 C :   -0.117184
  13 C :   -0.135978
  14 C :   -0.142727
  15 H :    0.158659
  16 C :   -0.174750
  17 H :    0.159889
  18 H :    0.152878
  19 H :    0.150349
  20 H :    0.151833
  21 C :   -0.496808
  22 H :    0.146735
  23 H :    0.155831
  24 H :    0.154080
  25 C :   -0.654245
  26 H :    0.168738
  27 H :    0.133396
  28 H :    0.126206
  29 H :    0.124862

  Mayer bond orders larger than 0.100000
B(  0-Lu,  1-C ) :   0.2671 B(  0-Lu,  2-C ) :   0.2354 B(  0-Lu,  3-C ) :   0.2299
B(  0-Lu,  4-C ) :   0.2945 B(  0-Lu,  5-C ) :   0.2106 B(  0-Lu, 11-C ) :   0.2897
B(  0-Lu, 12-C ) :   0.2204 B(  0-Lu, 13-C ) :   0.2271 B(  0-Lu, 14-C ) :   0.2477
B(  0-Lu, 16-C ) :   0.2846 B(  0-Lu, 21-C ) :   0.1000 B(  0-Lu, 25-C ) :   0.8221
B(  1-C ,  2-C ) :   1.2485 B(  1-C ,  5-C ) :   1.3136 B(  1-C ,  8-H ) :   0.9279
B(  2-C ,  3-C ) :   1.3507 B(  2-C ,  9-H ) :   0.9129 B(  3-C ,  4-C ) :   1.2560
B(  3-C , 10-H ) :   0.9186 B(  4-C ,  5-C ) :   1.2807 B(  4-C ,  6-H ) :   0.9185
B(  5-C ,  7-H ) :   0.9026 B( 11-C , 12-C ) :   1.3005 B( 11-C , 14-C ) :   1.2541
B( 11-C , 15-H ) :   0.9137 B( 12-C , 16-C ) :   1.2883 B( 12-C , 17-H ) :   0.9060
B( 13-C , 14-C ) :   1.3363 B( 13-C , 16-C ) :   1.2571 B( 13-C , 19-H ) :   0.9120
B( 14-C , 18-H ) :   0.9205 B( 16-C , 20-H ) :   0.9284 B( 21-C , 22-H ) :   0.9124
B( 21-C , 23-H ) :   0.9145 B( 21-C , 24-H ) :   0.9139 B( 21-C , 26-H ) :   0.8542
B( 25-C , 27-H ) :   0.9013 B( 25-C , 28-H ) :   0.9163 B( 25-C , 29-H ) :   0.9098

Dispersion correction           -0.016834263
FINAL SINGLE POINT ENERGY     -1702.344368343268
Dispersion correction            ... done

DIPOLE MOMENT
-------------
                                X             Y             Z
Electronic contribution:     -4.88562      12.99707      -6.12186
Nuclear contribution   :      4.87802     -13.83607       6.53443
                        -----------------------------------------
Total Dipole Moment    :     -0.00760      -0.83900       0.41258
                        -----------------------------------------
Magnitude (a.u.)       :      0.93499
Magnitude (Debye)      :      2.37655

Rotational constants in cm-1:     0.027598     0.018949     0.016616
Rotational constants in MHz :   827.374949   568.061925   498.148357

                             ****ORCA TERMINATED NORMALLY****
TOTAL RUN TIME: 0 days 0 hours 9 minutes 35 seconds 14 msec
