                         Program Version 5.0.3 -  RELEASE  -
|  1> ! EnGrad PBEh-3c
|  2> %output
|  3> xyzfile=True
|  4> end
|  5> %scf
|  6> maxiter 250
|  7> end
|  8> %output
|  9> Print[P_Hirshfeld] = 1
| 10> end
| 11> % maxcore
| 12> 4000
| 13> *xyz 0 1
| 14> Lu  -0.13264446   0.16393893  -0.04730127
| 15> C    0.40373617   0.84127016   2.45367068
| 16> C    1.43797817  -0.10966755   2.22500289
| 17> C    2.34309796   0.43262061   1.28657244
| 18> C    1.85911265   1.73580374   0.93289461
| 19> C    0.72787194   2.03694786   1.74321752
| 20> H    2.40335994   2.45477359   0.33513208
| 21> H    0.14681274   2.94906869   1.73692015
| 22> H   -0.36591207   0.75035820   3.21731057
| 23> H    1.50125052  -1.09788028   2.69028703
| 24> H    3.27238477  -0.01546886   0.96810384
| 25> C    0.94943118  -0.08372652  -2.49691550
| 26> C   -0.32049245  -0.70251185  -2.55640562
| 27> C    1.08423356  -2.01804918  -1.28060752
| 28> C    1.82609271  -0.90442522  -1.72489738
| 29> H    1.24682930   0.78978046  -3.06123322
| 30> C   -0.26368203  -1.84551345  -1.70603614
| 31> H   -1.19254475  -0.35472116  -3.09697165
| 32> H    2.89177911  -0.77438170  -1.63060873
| 33> H    1.45950874  -2.85122004  -0.68209179
| 34> H   -1.05872461  -2.57455529  -1.59115915
| 35> C   -2.44004034  -1.49297376   1.24264453
| 36> H   -2.25332398  -1.35683653   2.24427377
| 37> H   -2.07686573  -2.42169026   1.03067619
| 38> H   -3.43541069  -1.33307351   0.99556132
| 39> C   -1.76072808   1.82561672  -0.82470662
| 40> H   -2.16603690  -0.54782181   0.71610910
| 41> H   -1.25821806   2.62018043  -1.37305971
| 42> H   -2.39799388   2.42728768  -0.18112242
| 43> H   -2.46700143   1.46471590  -1.57756854
| 44> *
| 45>
| 46>                          ****END OF INPUT****

CARTESIAN COORDINATES (ANGSTROEM)
---------------------------------
  Lu    -0.132644    0.163939   -0.047301
  C      0.403736    0.841270    2.453671
  C      1.437978   -0.109668    2.225003
  C      2.343098    0.432621    1.286572
  C      1.859113    1.735804    0.932895
  C      0.727872    2.036948    1.743218
  H      2.403360    2.454774    0.335132
  H      0.146813    2.949069    1.736920
  H     -0.365912    0.750358    3.217311
  H      1.501251   -1.097880    2.690287
  H      3.272385   -0.015469    0.968104
  C      0.949431   -0.083727   -2.496915
  C     -0.320492   -0.702512   -2.556406
  C      1.084234   -2.018049   -1.280608
  C      1.826093   -0.904425   -1.724897
  H      1.246829    0.789780   -3.061233
  C     -0.263682   -1.845513   -1.706036
  H     -1.192545   -0.354721   -3.096972
  H      2.891779   -0.774382   -1.630609
  H      1.459509   -2.851220   -0.682092
  H     -1.058725   -2.574555   -1.591159
  C     -2.440040   -1.492974    1.242645
  H     -2.253324   -1.356837    2.244274
  H     -2.076866   -2.421690    1.030676
  H     -3.435411   -1.333074    0.995561
  C     -1.760728    1.825617   -0.824707
  H     -2.166037   -0.547822    0.716109
  H     -1.258218    2.620180   -1.373060
  H     -2.397994    2.427288   -0.181122
  H     -2.467001    1.464716   -1.577569

 Total Charge           Charge          ....    0
 Multiplicity           Mult            ....    1
 Number of Electrons    NEL             ....  132
 Basis Dimension        Dim             ....  295

ORBITAL ENERGIES
----------------

  NO   OCC          E(Eh)            E(eV)
   0   2.0000     -19.267120      -524.2850
   1   2.0000     -12.639325      -343.9335
   2   2.0000     -12.637221      -343.8763
   3   2.0000     -12.637137      -343.8740
   4   2.0000     -10.451227      -284.3923
   5   2.0000     -10.446195      -284.2554
   6   2.0000     -10.445336      -284.2320
   7   2.0000     -10.444017      -284.1962
   8   2.0000     -10.443617      -284.1853
   9   2.0000     -10.443066      -284.1703
  10   2.0000     -10.441915      -284.1390
  11   2.0000     -10.441050      -284.1154
  12   2.0000     -10.440576      -284.1025
  13   2.0000     -10.440323      -284.0956
  14   2.0000     -10.440289      -284.0947
  15   2.0000     -10.362488      -281.9776
  16   2.0000      -5.908657      -160.7827
  17   2.0000      -5.908287      -160.7727
  18   2.0000      -5.907994      -160.7647
  19   2.0000      -5.906887      -160.7346
  20   2.0000      -5.906648      -160.7281
  21   2.0000      -2.449681       -66.6592
  22   2.0000      -1.286190       -34.9990
  23   2.0000      -1.282082       -34.8872
  24   2.0000      -1.274148       -34.6713
  25   2.0000      -0.964998       -26.2589
  26   2.0000      -0.958442       -26.0805
  27   2.0000      -0.844494       -22.9799
  28   2.0000      -0.786263       -21.3953
  29   2.0000      -0.783042       -21.3076
  30   2.0000      -0.781622       -21.2690
  31   2.0000      -0.778516       -21.1845
  32   2.0000      -0.705284       -19.1917
  33   2.0000      -0.606406       -16.5011
  34   2.0000      -0.605139       -16.4667
  35   2.0000      -0.603125       -16.4119
  36   2.0000      -0.600939       -16.3524
  37   2.0000      -0.586801       -15.9677
  38   2.0000      -0.582668       -15.8552
  39   2.0000      -0.575491       -15.6599
  40   2.0000      -0.575291       -15.6545
  41   2.0000      -0.575061       -15.6482
  42   2.0000      -0.573547       -15.6070
  43   2.0000      -0.573407       -15.6032
  44   2.0000      -0.572148       -15.5689
  45   2.0000      -0.570815       -15.5327
  46   2.0000      -0.550186       -14.9713
  47   2.0000      -0.499319       -13.5872
  48   2.0000      -0.472355       -12.8534
  49   2.0000      -0.450983       -12.2719
  50   2.0000      -0.447118       -12.1667
  51   2.0000      -0.445905       -12.1337
  52   2.0000      -0.440694       -11.9919
  53   2.0000      -0.438560       -11.9338
  54   2.0000      -0.426244       -11.5987
  55   2.0000      -0.425069       -11.5667
  56   2.0000      -0.423130       -11.5139
  57   2.0000      -0.421546       -11.4708
  58   2.0000      -0.419639       -11.4190
  59   2.0000      -0.386784       -10.5249
  60   2.0000      -0.382109       -10.3977
  61   2.0000      -0.285497        -7.7688
  62   2.0000      -0.273203        -7.4342
  63   2.0000      -0.271335        -7.3834
  64   2.0000      -0.266394        -7.2490
  65   2.0000      -0.250652        -6.8206
  66   0.0000      -0.009262        -0.2520
  67   0.0000       0.010240         0.2786
  68   0.0000       0.038813         1.0562
  69   0.0000       0.044211         1.2030
  70   0.0000       0.052048         1.4163

MULLIKEN ATOMIC CHARGES
-----------------------
   0 Lu:    0.874760
   1 C :   -0.415679
   2 C :   -0.250046
   3 C :   -0.235327
   4 C :   -0.378857
   5 C :   -0.174500
   6 H :    0.228771
   7 H :    0.247855
   8 H :    0.229885
   9 H :    0.228856
  10 H :    0.224362
  11 C :   -0.331179
  12 C :   -0.199468
  13 C :   -0.211720
  14 C :   -0.275174
  15 H :    0.235122
  16 C :   -0.419130
  17 H :    0.245863
  18 H :    0.223939
  19 H :    0.228586
  20 H :    0.230056
  21 C :   -0.937801
  22 H :    0.280496
  23 H :    0.279156
  24 H :    0.279889
  25 C :   -1.072322
  26 H :    0.213370
  27 H :    0.225159
  28 H :    0.216409
  29 H :    0.208665
Sum of atomic charges:    0.0000000

LOEWDIN ATOMIC CHARGES
----------------------
   0 Lu:    0.055664
   1 C :   -0.186061
   2 C :   -0.153682
   3 C :   -0.135391
   4 C :   -0.160844
   5 C :   -0.124336
   6 H :    0.150767
   7 H :    0.158658
   8 H :    0.149778
   9 H :    0.147476
  10 H :    0.147680
  11 C :   -0.148866
  12 C :   -0.128694
  13 C :   -0.141729
  14 C :   -0.139062
  15 H :    0.153177
  16 C :   -0.183645
  17 H :    0.159138
  18 H :    0.148032
  19 H :    0.148344
  20 H :    0.149379
  21 C :   -0.462267
  22 H :    0.151474
  23 H :    0.158539
  24 H :    0.161185
  25 C :   -0.650369
  26 H :    0.183977
  27 H :    0.139004
  28 H :    0.126547
  29 H :    0.126128

  Mayer bond orders larger than 0.100000
B(  0-Lu,  1-C ) :   0.2892 B(  0-Lu,  2-C ) :   0.2362 B(  0-Lu,  3-C ) :   0.2071
B(  0-Lu,  4-C ) :   0.2636 B(  0-Lu,  5-C ) :   0.2140 B(  0-Lu, 11-C ) :   0.2638
B(  0-Lu, 12-C ) :   0.2300 B(  0-Lu, 13-C ) :   0.2255 B(  0-Lu, 14-C ) :   0.2194
B(  0-Lu, 16-C ) :   0.3056 B(  0-Lu, 21-C ) :   0.1449 B(  0-Lu, 25-C ) :   0.8249
B(  1-C ,  2-C ) :   1.2501 B(  1-C ,  5-C ) :   1.2894 B(  1-C ,  8-H ) :   0.9209
B(  2-C ,  3-C ) :   1.3469 B(  2-C ,  9-H ) :   0.9151 B(  3-C ,  4-C ) :   1.2861
B(  3-C , 10-H ) :   0.9240 B(  4-C ,  5-C ) :   1.3000 B(  4-C ,  6-H ) :   0.9265
B(  5-C ,  7-H ) :   0.9083 B( 11-C , 12-C ) :   1.3063 B( 11-C , 14-C ) :   1.2886
B( 11-C , 15-H ) :   0.9212 B( 12-C , 16-C ) :   1.2714 B( 12-C , 17-H ) :   0.9110
B( 13-C , 14-C ) :   1.3403 B( 13-C , 16-C ) :   1.2571 B( 13-C , 19-H ) :   0.9168
B( 14-C , 18-H ) :   0.9263 B( 16-C , 20-H ) :   0.9201 B( 21-C , 22-H ) :   0.8976
B( 21-C , 23-H ) :   0.8989 B( 21-C , 24-H ) :   0.9004 B( 21-C , 26-H ) :   0.8452
B( 25-C , 27-H ) :   0.9012 B( 25-C , 28-H ) :   0.9141 B( 25-C , 29-H ) :   0.9088

Dispersion correction           -0.017093167
FINAL SINGLE POINT ENERGY     -1702.344674570824
Dispersion correction            ... done

DIPOLE MOMENT
-------------
                                X             Y             Z
Electronic contribution:    -14.43139       7.50744      -0.82192
Nuclear contribution   :     14.06700      -8.50264       1.42899
                        -----------------------------------------
Total Dipole Moment    :     -0.36439      -0.99520       0.60707
                        -----------------------------------------
Magnitude (a.u.)       :      1.22137
Magnitude (Debye)      :      3.10446

Rotational constants in cm-1:     0.027222     0.019468     0.016770
Rotational constants in MHz :   816.081025   583.639757   502.753313

                             ****ORCA TERMINATED NORMALLY****
TOTAL RUN TIME: 0 days 0 hours 9 minutes 32 seconds 127 msec
