                         Program Version 5.0.3 -  RELEASE  -
|  1> ! EnGrad PBEh-3c
|  2> %output
|  3> xyzfile=True
|  4> end
|  5> %scf
|  6> maxiter 250
|  7> end
|  8> %output
|  9> Print[P_Hirshfeld] = 1
| 10> end
| 11> % maxcore
| 12> 4000
| 13> *xyz 0 1
| 14> Lu  -0.18038878   0.13552296  -0.01450707
| 15> C    0.42064883   0.82116858   2.46506239
| 16> C    1.43337456  -0.14824705   2.21851598
| 17> C    2.33295836   0.43224951   1.25753904
| 18> C    1.84332106   1.72443959   0.92637328
| 19> C    0.68619983   1.98365979   1.72315947
| 20> H    2.36074804   2.43920687   0.32519530
| 21> H    0.13817583   2.92287416   1.76412392
| 22> H   -0.36659417   0.69612924   3.21488615
| 23> H    1.54779664  -1.09374518   2.69043572
| 24> H    3.27133554   0.00746452   0.95588003
| 25> C    0.93450540  -0.07481245  -2.47369537
| 26> C   -0.34939757  -0.70881152  -2.49568902
| 27> C    1.07480525  -2.02294127  -1.23188106
| 28> C    1.81697350  -0.88763411  -1.71315347
| 29> H    1.21826903   0.78429151  -3.03101878
| 30> C   -0.24781605  -1.85475052  -1.70074125
| 31> H   -1.20291975  -0.37502891  -3.06872404
| 32> H    2.87262263  -0.75544918  -1.63393041
| 33> H    1.48751277  -2.85188043  -0.70306221
| 34> H   -1.06038796  -2.58766615  -1.54012095
| 35> C   -2.46907297  -1.42866396   1.22555395
| 36> H   -2.22416195  -1.27975360   2.24604247
| 37> H   -1.90865891  -2.37415664   0.95473653
| 38> H   -3.50338648  -1.39338419   0.97638544
| 39> C   -1.74262363   1.82704608  -0.84131049
| 40> H   -2.21549099  -0.47576229   0.68314025
| 41> H   -1.19718549   2.61829483  -1.37526791
| 42> H   -2.37562081   2.44510985  -0.20505720
| 43> H   -2.43367760   1.49306119  -1.61735711
| 44> *
| 45>
| 46>                          ****END OF INPUT****

CARTESIAN COORDINATES (ANGSTROEM)
---------------------------------
  Lu    -0.180389    0.135523   -0.014507
  C      0.420649    0.821169    2.465062
  C      1.433375   -0.148247    2.218516
  C      2.332958    0.432250    1.257539
  C      1.843321    1.724440    0.926373
  C      0.686200    1.983660    1.723159
  H      2.360748    2.439207    0.325195
  H      0.138176    2.922874    1.764124
  H     -0.366594    0.696129    3.214886
  H      1.547797   -1.093745    2.690436
  H      3.271336    0.007465    0.955880
  C      0.934505   -0.074812   -2.473695
  C     -0.349398   -0.708812   -2.495689
  C      1.074805   -2.022941   -1.231881
  C      1.816973   -0.887634   -1.713153
  H      1.218269    0.784292   -3.031019
  C     -0.247816   -1.854751   -1.700741
  H     -1.202920   -0.375029   -3.068724
  H      2.872623   -0.755449   -1.633930
  H      1.487513   -2.851880   -0.703062
  H     -1.060388   -2.587666   -1.540121
  C     -2.469073   -1.428664    1.225554
  H     -2.224162   -1.279754    2.246042
  H     -1.908659   -2.374157    0.954737
  H     -3.503386   -1.393384    0.976385
  C     -1.742624    1.827046   -0.841310
  H     -2.215491   -0.475762    0.683140
  H     -1.197185    2.618295   -1.375268
  H     -2.375621    2.445110   -0.205057
  H     -2.433678    1.493061   -1.617357

 Total Charge           Charge          ....    0
 Multiplicity           Mult            ....    1
 Number of Electrons    NEL             ....  132
 Basis Dimension        Dim             ....  295

ORBITAL ENERGIES
----------------

  NO   OCC          E(Eh)            E(eV)
   0   2.0000     -19.265806      -524.2492
   1   2.0000     -12.638133      -343.9011
   2   2.0000     -12.635914      -343.8407
   3   2.0000     -12.635658      -343.8337
   4   2.0000     -10.473887      -285.0089
   5   2.0000     -10.443046      -284.1697
   6   2.0000     -10.442411      -284.1525
   7   2.0000     -10.442182      -284.1462
   8   2.0000     -10.442048      -284.1426
   9   2.0000     -10.441639      -284.1314
  10   2.0000     -10.441086      -284.1164
  11   2.0000     -10.439966      -284.0859
  12   2.0000     -10.438370      -284.0425
  13   2.0000     -10.437877      -284.0291
  14   2.0000     -10.437128      -284.0087
  15   2.0000     -10.362718      -281.9839
  16   2.0000      -5.907423      -160.7492
  17   2.0000      -5.907041      -160.7388
  18   2.0000      -5.906634      -160.7277
  19   2.0000      -5.905456      -160.6956
  20   2.0000      -5.905227      -160.6894
  21   2.0000      -2.448424       -66.6250
  22   2.0000      -1.285598       -34.9829
  23   2.0000      -1.281307       -34.8661
  24   2.0000      -1.272658       -34.6308
  25   2.0000      -0.963595       -26.2208
  26   2.0000      -0.957597       -26.0575
  27   2.0000      -0.833124       -22.6704
  28   2.0000      -0.785288       -21.3688
  29   2.0000      -0.782446       -21.2914
  30   2.0000      -0.781470       -21.2649
  31   2.0000      -0.779524       -21.2119
  32   2.0000      -0.703093       -19.1321
  33   2.0000      -0.609417       -16.5831
  34   2.0000      -0.605225       -16.4690
  35   2.0000      -0.603120       -16.4117
  36   2.0000      -0.601407       -16.3651
  37   2.0000      -0.587623       -15.9900
  38   2.0000      -0.583423       -15.8757
  39   2.0000      -0.574239       -15.6258
  40   2.0000      -0.574033       -15.6202
  41   2.0000      -0.573970       -15.6185
  42   2.0000      -0.572368       -15.5749
  43   2.0000      -0.572031       -15.5658
  44   2.0000      -0.570741       -15.5307
  45   2.0000      -0.569414       -15.4945
  46   2.0000      -0.533543       -14.5184
  47   2.0000      -0.493433       -13.4270
  48   2.0000      -0.480403       -13.0724
  49   2.0000      -0.450638       -12.2625
  50   2.0000      -0.448249       -12.1975
  51   2.0000      -0.445678       -12.1275
  52   2.0000      -0.444137       -12.0856
  53   2.0000      -0.441138       -12.0040
  54   2.0000      -0.428006       -11.6466
  55   2.0000      -0.425775       -11.5859
  56   2.0000      -0.420438       -11.4407
  57   2.0000      -0.418223       -11.3804
  58   2.0000      -0.416992       -11.3469
  59   2.0000      -0.386441       -10.5156
  60   2.0000      -0.379411       -10.3243
  61   2.0000      -0.287157        -7.8139
  62   2.0000      -0.270297        -7.3552
  63   2.0000      -0.269175        -7.3246
  64   2.0000      -0.265300        -7.2192
  65   2.0000      -0.247530        -6.7356
  66   0.0000      -0.008704        -0.2369
  67   0.0000       0.014856         0.4043
  68   0.0000       0.036996         1.0067
  69   0.0000       0.041220         1.1217
  70   0.0000       0.052035         1.4159

MULLIKEN ATOMIC CHARGES
-----------------------
   0 Lu:    0.844893
   1 C :   -0.353673
   2 C :   -0.285009
   3 C :   -0.238847
   4 C :   -0.326269
   5 C :   -0.237041
   6 H :    0.230117
   7 H :    0.242640
   8 H :    0.229484
   9 H :    0.229718
  10 H :    0.221407
  11 C :   -0.305956
  12 C :   -0.252501
  13 C :   -0.266649
  14 C :   -0.254174
  15 H :    0.234322
  16 C :   -0.344163
  17 H :    0.242699
  18 H :    0.221828
  19 H :    0.227563
  20 H :    0.226984
  21 C :   -0.928165
  22 H :    0.284456
  23 H :    0.259056
  24 H :    0.283556
  25 C :   -1.064146
  26 H :    0.231168
  27 H :    0.222057
  28 H :    0.214918
  29 H :    0.209731
Sum of atomic charges:    0.0000000

LOEWDIN ATOMIC CHARGES
----------------------
   0 Lu:    0.031433
   1 C :   -0.173942
   2 C :   -0.162674
   3 C :   -0.130420
   4 C :   -0.152154
   5 C :   -0.136724
   6 H :    0.150566
   7 H :    0.159306
   8 H :    0.148666
   9 H :    0.147433
  10 H :    0.145520
  11 C :   -0.143935
  12 C :   -0.141420
  13 C :   -0.155954
  14 C :   -0.130457
  15 H :    0.151817
  16 C :   -0.168551
  17 H :    0.159755
  18 H :    0.145211
  19 H :    0.148879
  20 H :    0.147436
  21 C :   -0.452924
  22 H :    0.154298
  23 H :    0.166371
  24 H :    0.163587
  25 C :   -0.645412
  26 H :    0.183136
  27 H :    0.139212
  28 H :    0.125951
  29 H :    0.125988

  Mayer bond orders larger than 0.100000
B(  0-Lu,  1-C ) :   0.2813 B(  0-Lu,  2-C ) :   0.2494 B(  0-Lu,  3-C ) :   0.2045
B(  0-Lu,  4-C ) :   0.2539 B(  0-Lu,  5-C ) :   0.2310 B(  0-Lu, 11-C ) :   0.2581
B(  0-Lu, 12-C ) :   0.2455 B(  0-Lu, 13-C ) :   0.2404 B(  0-Lu, 14-C ) :   0.2151
B(  0-Lu, 16-C ) :   0.2898 B(  0-Lu, 21-C ) :   0.1629 B(  0-Lu, 25-C ) :   0.8262
B(  1-C ,  2-C ) :   1.2597 B(  1-C ,  5-C ) :   1.2996 B(  1-C ,  8-H ) :   0.9166
B(  2-C ,  3-C ) :   1.3275 B(  2-C ,  9-H ) :   0.9189 B(  3-C ,  4-C ) :   1.3201
B(  3-C , 10-H ) :   0.9264 B(  4-C ,  5-C ) :   1.2852 B(  4-C ,  6-H ) :   0.9252
B(  5-C ,  7-H ) :   0.9165 B( 11-C , 12-C ) :   1.2802 B( 11-C , 14-C ) :   1.3244
B( 11-C , 15-H ) :   0.9223 B( 12-C , 16-C ) :   1.2887 B( 12-C , 17-H ) :   0.9166
B( 13-C , 14-C ) :   1.3191 B( 13-C , 16-C ) :   1.2677 B( 13-C , 19-H ) :   0.9228
B( 14-C , 18-H ) :   0.9266 B( 16-C , 20-H ) :   0.9153 B( 21-C , 22-H ) :   0.8872
B( 21-C , 23-H ) :   0.8989 B( 21-C , 24-H ) :   0.8992 B( 21-C , 26-H ) :   0.8206
B( 25-C , 27-H ) :   0.9020 B( 25-C , 28-H ) :   0.9134 B( 25-C , 29-H ) :   0.9083

Dispersion correction           -0.017271991
FINAL SINGLE POINT ENERGY     -1702.351612339937
Dispersion correction            ... done

DIPOLE MOMENT
-------------
                                X             Y             Z
Electronic contribution:    -16.71157       6.13653       0.78951
Nuclear contribution   :     16.29204      -7.14707      -0.12355
                        -----------------------------------------
Total Dipole Moment    :     -0.41953      -1.01054       0.66597
                        -----------------------------------------
Magnitude (a.u.)       :      1.28090
Magnitude (Debye)      :      3.25580

Rotational constants in cm-1:     0.027269     0.019825     0.016946
Rotational constants in MHz :   817.518676   594.328386   508.027081

                             ****ORCA TERMINATED NORMALLY****
TOTAL RUN TIME: 0 days 0 hours 10 minutes 10 seconds 682 msec
