                         Program Version 5.0.3 -  RELEASE  -
|  1> ! EnGrad PBEh-3c
|  2> %output
|  3> xyzfile=True
|  4> end
|  5> %scf
|  6> maxiter 250
|  7> end
|  8> %output
|  9> Print[P_Hirshfeld] = 1
| 10> end
| 11> % maxcore
| 12> 4000
| 13> *xyz 0 1
| 14> Lu  -0.19023901   0.12364245   0.00734045
| 15> C    0.44053069   0.76203675   2.50525756
| 16> C    1.41986124  -0.16508099   2.16881122
| 17> C    2.30324256   0.41575167   1.22762158
| 18> C    1.81307851   1.69570896   0.93264464
| 19> C    0.61006155   1.92092746   1.67247189
| 20> H    2.29291102   2.41852485   0.30229119
| 21> H    0.13189309   2.85831857   1.80321509
| 22> H   -0.36233675   0.61735840   3.20488295
| 23> H    1.62356081  -1.10440233   2.69976025
| 24> H    3.25855989   0.04483852   0.93081328
| 25> C    0.89902067  -0.08858059  -2.42352098
| 26> C   -0.38622138  -0.69237208  -2.40642202
| 27> C    1.05779643  -1.97709298  -1.16762382
| 28> C    1.78335174  -0.87904650  -1.68998148
| 29> H    1.17463611   0.79021113  -2.98852484
| 30> C   -0.24707520  -1.91389136  -1.68102569
| 31> H   -1.21427004  -0.40916871  -3.01182819
| 32> H    2.84209226  -0.72121404  -1.63266802
| 33> H    1.53339301  -2.86218738  -0.72597576
| 34> H   -1.04903127  -2.59750016  -1.46766196
| 35> C   -2.48091817  -1.39165270   1.19249608
| 36> H   -2.19225056  -1.14558989   2.25147568
| 37> H   -1.68354834  -2.20786909   0.83293980
| 38> H   -3.61363312  -1.50844334   0.95569676
| 39> C   -1.71319682   1.82766743  -0.86440099
| 40> H   -2.26838816  -0.35522483   0.61348507
| 41> H   -1.08862362   2.59500131  -1.36755512
| 42> H   -2.34434824   2.46323957  -0.22603072
| 43> H   -2.38612060   1.52417835  -1.67967579
| 44> *
| 45>
| 46>                          ****END OF INPUT****

CARTESIAN COORDINATES (ANGSTROEM)
---------------------------------
  Lu    -0.190239    0.123642    0.007340
  C      0.440531    0.762037    2.505258
  C      1.419861   -0.165081    2.168811
  C      2.303243    0.415752    1.227622
  C      1.813079    1.695709    0.932645
  C      0.610062    1.920927    1.672472
  H      2.292911    2.418525    0.302291
  H      0.131893    2.858319    1.803215
  H     -0.362337    0.617358    3.204883
  H      1.623561   -1.104402    2.699760
  H      3.258560    0.044839    0.930813
  C      0.899021   -0.088581   -2.423521
  C     -0.386221   -0.692372   -2.406422
  C      1.057796   -1.977093   -1.167624
  C      1.783352   -0.879046   -1.689981
  H      1.174636    0.790211   -2.988525
  C     -0.247075   -1.913891   -1.681026
  H     -1.214270   -0.409169   -3.011828
  H      2.842092   -0.721214   -1.632668
  H      1.533393   -2.862187   -0.725976
  H     -1.049031   -2.597500   -1.467662
  C     -2.480918   -1.391653    1.192496
  H     -2.192251   -1.145590    2.251476
  H     -1.683548   -2.207869    0.832940
  H     -3.613633   -1.508443    0.955697
  C     -1.713197    1.827667   -0.864401
  H     -2.268388   -0.355225    0.613485
  H     -1.088624    2.595001   -1.367555
  H     -2.344348    2.463240   -0.226031
  H     -2.386121    1.524178   -1.679676

 Total Charge           Charge          ....    0
 Multiplicity           Mult            ....    1
 Number of Electrons    NEL             ....  132
 Basis Dimension        Dim             ....  295

ORBITAL ENERGIES
----------------

  NO   OCC          E(Eh)            E(eV)
   0   2.0000     -19.259010      -524.0643
   1   2.0000     -12.631496      -343.7205
   2   2.0000     -12.629088      -343.6550
   3   2.0000     -12.628614      -343.6421
   4   2.0000     -10.504352      -285.8379
   5   2.0000     -10.442378      -284.1516
   6   2.0000     -10.442059      -284.1429
   7   2.0000     -10.441345      -284.1234
   8   2.0000     -10.440094      -284.0894
   9   2.0000     -10.439273      -284.0671
  10   2.0000     -10.438379      -284.0427
  11   2.0000     -10.438353      -284.0420
  12   2.0000     -10.436072      -283.9800
  13   2.0000     -10.434979      -283.9502
  14   2.0000     -10.432402      -283.8801
  15   2.0000     -10.363796      -282.0132
  16   2.0000      -5.900686      -160.5658
  17   2.0000      -5.900292      -160.5551
  18   2.0000      -5.899751      -160.5404
  19   2.0000      -5.898439      -160.5047
  20   2.0000      -5.898222      -160.4988
  21   2.0000      -2.441853       -66.4462
  22   2.0000      -1.280303       -34.8388
  23   2.0000      -1.276438       -34.7336
  24   2.0000      -1.266695       -34.4685
  25   2.0000      -0.969606       -26.3843
  26   2.0000      -0.963138       -26.2083
  27   2.0000      -0.808572       -22.0024
  28   2.0000      -0.789949       -21.4956
  29   2.0000      -0.787313       -21.4239
  30   2.0000      -0.782750       -21.2997
  31   2.0000      -0.779457       -21.2101
  32   2.0000      -0.696573       -18.9547
  33   2.0000      -0.609553       -16.5868
  34   2.0000      -0.607439       -16.5293
  35   2.0000      -0.605981       -16.4896
  36   2.0000      -0.599941       -16.3252
  37   2.0000      -0.588612       -16.0169
  38   2.0000      -0.585350       -15.9282
  39   2.0000      -0.567660       -15.4468
  40   2.0000      -0.567486       -15.4421
  41   2.0000      -0.567221       -15.4349
  42   2.0000      -0.565640       -15.3918
  43   2.0000      -0.565300       -15.3826
  44   2.0000      -0.563705       -15.3392
  45   2.0000      -0.562446       -15.3049
  46   2.0000      -0.508122       -13.8267
  47   2.0000      -0.480717       -13.0810
  48   2.0000      -0.476298       -12.9607
  49   2.0000      -0.453272       -12.3342
  50   2.0000      -0.451006       -12.2725
  51   2.0000      -0.445444       -12.1211
  52   2.0000      -0.442981       -12.0541
  53   2.0000      -0.441876       -12.0241
  54   2.0000      -0.428941       -11.6721
  55   2.0000      -0.425781       -11.5861
  56   2.0000      -0.422188       -11.4883
  57   2.0000      -0.420757       -11.4494
  58   2.0000      -0.417249       -11.3539
  59   2.0000      -0.383438       -10.4339
  60   2.0000      -0.377534       -10.2732
  61   2.0000      -0.288143        -7.8408
  62   2.0000      -0.274798        -7.4776
  63   2.0000      -0.272733        -7.4214
  64   2.0000      -0.259272        -7.0552
  65   2.0000      -0.246893        -6.7183
  66   0.0000      -0.008510        -0.2316
  67   0.0000       0.015482         0.4213
  68   0.0000       0.035394         0.9631
  69   0.0000       0.044921         1.2224
  70   0.0000       0.052048         1.4163

MULLIKEN ATOMIC CHARGES
-----------------------
   0 Lu:    0.797082
   1 C :   -0.221993
   2 C :   -0.341050
   3 C :   -0.238169
   4 C :   -0.242938
   5 C :   -0.374972
   6 H :    0.235087
   7 H :    0.232454
   8 H :    0.227850
   9 H :    0.223844
  10 H :    0.222123
  11 C :   -0.269278
  12 C :   -0.353026
  13 C :   -0.364526
  14 C :   -0.208100
  15 H :    0.235834
  16 C :   -0.210357
  17 H :    0.236718
  18 H :    0.224188
  19 H :    0.218926
  20 H :    0.225939
  21 C :   -0.899092
  22 H :    0.277959
  23 H :    0.247458
  24 H :    0.275436
  25 C :   -1.040267
  26 H :    0.249657
  27 H :    0.215875
  28 H :    0.210313
  29 H :    0.207025
Sum of atomic charges:    0.0000000

LOEWDIN ATOMIC CHARGES
----------------------
   0 Lu:   -0.048957
   1 C :   -0.152878
   2 C :   -0.159102
   3 C :   -0.133473
   4 C :   -0.130933
   5 C :   -0.155681
   6 H :    0.150595
   7 H :    0.157979
   8 H :    0.147630
   9 H :    0.148566
  10 H :    0.147022
  11 C :   -0.133773
  12 C :   -0.151560
  13 C :   -0.162786
  14 C :   -0.126027
  15 H :    0.152921
  16 C :   -0.149656
  17 H :    0.158328
  18 H :    0.146342
  19 H :    0.149369
  20 H :    0.146105
  21 C :   -0.447026
  22 H :    0.157593
  23 H :    0.172299
  24 H :    0.173403
  25 C :   -0.634936
  26 H :    0.191087
  27 H :    0.138594
  28 H :    0.124422
  29 H :    0.124534

  Mayer bond orders larger than 0.100000
B(  0-Lu,  1-C ) :   0.2630 B(  0-Lu,  2-C ) :   0.2547 B(  0-Lu,  3-C ) :   0.2077
B(  0-Lu,  4-C ) :   0.2426 B(  0-Lu,  5-C ) :   0.2703 B(  0-Lu, 11-C ) :   0.2512
B(  0-Lu, 12-C ) :   0.2692 B(  0-Lu, 13-C ) :   0.2580 B(  0-Lu, 14-C ) :   0.2129
B(  0-Lu, 16-C ) :   0.2673 B(  0-Lu, 21-C ) :   0.1950 B(  0-Lu, 25-C ) :   0.8219
B(  1-C ,  2-C ) :   1.2858 B(  1-C ,  5-C ) :   1.2649 B(  1-C ,  8-H ) :   0.9131
B(  2-C ,  3-C ) :   1.3037 B(  2-C ,  9-H ) :   0.9249 B(  3-C ,  4-C ) :   1.3385
B(  3-C , 10-H ) :   0.9279 B(  4-C ,  5-C ) :   1.2753 B(  4-C ,  6-H ) :   0.9182
B(  5-C ,  7-H ) :   0.9341 B( 11-C , 12-C ) :   1.2707 B( 11-C , 14-C ) :   1.3375
B( 11-C , 15-H ) :   0.9191 B( 12-C , 16-C ) :   1.2788 B( 12-C , 17-H ) :   0.9272
B( 13-C , 14-C ) :   1.2986 B( 13-C , 16-C ) :   1.2705 B( 13-C , 19-H ) :   0.9315
B( 14-C , 18-H ) :   0.9237 B( 16-C , 20-H ) :   0.9115 B( 21-C , 22-H ) :   0.8786
B( 21-C , 23-H ) :   0.8791 B( 21-C , 24-H ) :   0.9008 B( 21-C , 26-H ) :   0.7881
B( 25-C , 27-H ) :   0.8994 B( 25-C , 28-H ) :   0.9142 B( 25-C , 29-H ) :   0.9104

Dispersion correction           -0.017594554
FINAL SINGLE POINT ENERGY     -1702.338154862346
Dispersion correction            ... done

DIPOLE MOMENT
-------------
                                X             Y             Z
Electronic contribution:    -16.79961       5.75082       1.77647
Nuclear contribution   :     16.48235      -6.72435      -1.08711
                        -----------------------------------------
Total Dipole Moment    :     -0.31726      -0.97354       0.68936
                        -----------------------------------------
Magnitude (a.u.)       :      1.23436
Magnitude (Debye)      :      3.13749

Rotational constants in cm-1:     0.027779     0.020382     0.017415
Rotational constants in MHz :   832.793374   611.051616   522.102938

                             ****ORCA TERMINATED NORMALLY****
TOTAL RUN TIME: 0 days 0 hours 10 minutes 20 seconds 956 msec
