                         Program Version 5.0.3 -  RELEASE  -
|  1> ! EnGrad PBEh-3c
|  2> %output
|  3> xyzfile=True
|  4> end
|  5> %scf
|  6> maxiter 250
|  7> end
|  8> %output
|  9> Print[P_Hirshfeld] = 1
| 10> end
| 11> % maxcore
| 12> 4000
| 13> *xyz 0 1
| 14> Lu  -0.18345437   0.13182550  -0.00770768
| 15> C    0.42683647   0.80276555   2.47757195
| 16> C    1.42916894  -0.15348612   2.20304685
| 17> C    2.32371019   0.42711505   1.24822812
| 18> C    1.83390896   1.71549804   0.92832506
| 19> C    0.66250405   1.96413621   1.70738447
| 20> H    2.33963577   2.43277020   0.31806707
| 21> H    0.13622051   2.90278315   1.77628989
| 22> H   -0.36526917   0.67161415   3.21177295
| 23> H    1.57137600  -1.09706191   2.69333770
| 24> H    3.26735950   0.01909607   0.94807875
| 25> C    0.92346183  -0.07909738  -2.45808008
| 26> C   -0.36085789  -0.70369523  -2.46790731
| 27> C    1.06951175  -2.00867235  -1.21188290
| 28> C    1.80650973  -0.88496147  -1.70594187
| 29> H    1.20468958   0.78613382  -3.01779380
| 30> C   -0.24758548  -1.87315635  -1.69460536
| 31> H   -1.20645219  -0.38565391  -3.05101689
| 32> H    2.86312095  -0.74479451  -1.63353753
| 33> H    1.50179163  -2.85508816  -0.71019337
| 34> H   -1.05685353  -2.59072669  -1.51757023
| 35> C   -2.47275943  -1.41714530   1.21526567
| 36> H   -2.21423047  -1.23799912   2.24773340
| 37> H   -1.83859991  -2.32240457   0.91683090
| 38> H   -3.53769748  -1.42919294   0.96994670
| 39> C   -1.73346541   1.82723946  -0.84849673
| 40> H   -2.23195367  -0.43824857   0.66146214
| 41> H   -1.16339882   2.61104541  -1.37286753
| 42> H   -2.36588815   2.45075219  -0.21158459
| 43> H   -2.41887689   1.50274548  -1.63675195
| 44> *
| 45>
| 46>                          ****END OF INPUT****

CARTESIAN COORDINATES (ANGSTROEM)
---------------------------------
  Lu    -0.183454    0.131826   -0.007708
  C      0.426836    0.802766    2.477572
  C      1.429169   -0.153486    2.203047
  C      2.323710    0.427115    1.248228
  C      1.833909    1.715498    0.928325
  C      0.662504    1.964136    1.707384
  H      2.339636    2.432770    0.318067
  H      0.136221    2.902783    1.776290
  H     -0.365269    0.671614    3.211773
  H      1.571376   -1.097062    2.693338
  H      3.267359    0.019096    0.948079
  C      0.923462   -0.079097   -2.458080
  C     -0.360858   -0.703695   -2.467907
  C      1.069512   -2.008672   -1.211883
  C      1.806510   -0.884961   -1.705942
  H      1.204690    0.786134   -3.017794
  C     -0.247585   -1.873156   -1.694605
  H     -1.206452   -0.385654   -3.051017
  H      2.863121   -0.744795   -1.633538
  H      1.501792   -2.855088   -0.710193
  H     -1.056854   -2.590727   -1.517570
  C     -2.472759   -1.417145    1.215266
  H     -2.214230   -1.237999    2.247733
  H     -1.838600   -2.322405    0.916831
  H     -3.537697   -1.429193    0.969947
  C     -1.733465    1.827239   -0.848497
  H     -2.231954   -0.438249    0.661462
  H     -1.163399    2.611045   -1.372868
  H     -2.365888    2.450752   -0.211585
  H     -2.418877    1.502745   -1.636752

 Total Charge           Charge          ....    0
 Multiplicity           Mult            ....    1
 Number of Electrons    NEL             ....  132
 Basis Dimension        Dim             ....  295

ORBITAL ENERGIES
----------------

  NO   OCC          E(Eh)            E(eV)
   0   2.0000     -19.263718      -524.1924
   1   2.0000     -12.636094      -343.8456
   2   2.0000     -12.633824      -343.7838
   3   2.0000     -12.633491      -343.7748
   4   2.0000     -10.482579      -285.2455
   5   2.0000     -10.441944      -284.1397
   6   2.0000     -10.441905      -284.1387
   7   2.0000     -10.441360      -284.1239
   8   2.0000     -10.441184      -284.1191
   9   2.0000     -10.441063      -284.1158
  10   2.0000     -10.440620      -284.1037
  11   2.0000     -10.438627      -284.0495
  12   2.0000     -10.438078      -284.0346
  13   2.0000     -10.437140      -284.0090
  14   2.0000     -10.435521      -283.9650
  15   2.0000     -10.362831      -281.9870
  16   2.0000      -5.905354      -160.6928
  17   2.0000      -5.904973      -160.6825
  18   2.0000      -5.904517      -160.6701
  19   2.0000      -5.903304      -160.6371
  20   2.0000      -5.903079      -160.6309
  21   2.0000      -2.446404       -66.5700
  22   2.0000      -1.283952       -34.9381
  23   2.0000      -1.279783       -34.8247
  24   2.0000      -1.270795       -34.5801
  25   2.0000      -0.965436       -26.2709
  26   2.0000      -0.959363       -26.1056
  27   2.0000      -0.825772       -22.4704
  28   2.0000      -0.786485       -21.4013
  29   2.0000      -0.783833       -21.3292
  30   2.0000      -0.782245       -21.2860
  31   2.0000      -0.779598       -21.2140
  32   2.0000      -0.701070       -19.0771
  33   2.0000      -0.608119       -16.5478
  34   2.0000      -0.605313       -16.4714
  35   2.0000      -0.603420       -16.4199
  36   2.0000      -0.603023       -16.4091
  37   2.0000      -0.588352       -16.0099
  38   2.0000      -0.584613       -15.9081
  39   2.0000      -0.572223       -15.5710
  40   2.0000      -0.572028       -15.5657
  41   2.0000      -0.571907       -15.5624
  42   2.0000      -0.570334       -15.5196
  43   2.0000      -0.569986       -15.5101
  44   2.0000      -0.568587       -15.4721
  45   2.0000      -0.567311       -15.4373
  46   2.0000      -0.524642       -14.2762
  47   2.0000      -0.489791       -13.3279
  48   2.0000      -0.481403       -13.0996
  49   2.0000      -0.450843       -12.2681
  50   2.0000      -0.447274       -12.1709
  51   2.0000      -0.445779       -12.1303
  52   2.0000      -0.444727       -12.1016
  53   2.0000      -0.442107       -12.0303
  54   2.0000      -0.427158       -11.6236
  55   2.0000      -0.425091       -11.5673
  56   2.0000      -0.422255       -11.4902
  57   2.0000      -0.420829       -11.4513
  58   2.0000      -0.418519       -11.3885
  59   2.0000      -0.385472       -10.4892
  60   2.0000      -0.378889       -10.3101
  61   2.0000      -0.287314        -7.8182
  62   2.0000      -0.271270        -7.3816
  63   2.0000      -0.270439        -7.3590
  64   2.0000      -0.263442        -7.1686
  65   2.0000      -0.247274        -6.7287
  66   0.0000      -0.008305        -0.2260
  67   0.0000       0.015651         0.4259
  68   0.0000       0.037144         1.0108
  69   0.0000       0.042339         1.1521
  70   0.0000       0.052328         1.4239

MULLIKEN ATOMIC CHARGES
-----------------------
   0 Lu:    0.826447
   1 C :   -0.308926
   2 C :   -0.303687
   3 C :   -0.238617
   4 C :   -0.298523
   5 C :   -0.282547
   6 H :    0.231681
   7 H :    0.239801
   8 H :    0.229352
   9 H :    0.228176
  10 H :    0.221491
  11 C :   -0.294096
  12 C :   -0.286385
  13 C :   -0.300039
  14 C :   -0.238404
  15 H :    0.234790
  16 C :   -0.297344
  17 H :    0.240896
  18 H :    0.222484
  19 H :    0.225011
  20 H :    0.226796
  21 C :   -0.922134
  22 H :    0.282674
  23 H :    0.256707
  24 H :    0.281306
  25 C :   -1.057050
  26 H :    0.237577
  27 H :    0.220281
  28 H :    0.213336
  29 H :    0.208947
Sum of atomic charges:   -0.0000000

LOEWDIN ATOMIC CHARGES
----------------------
   0 Lu:    0.008936
   1 C :   -0.167432
   2 C :   -0.161811
   3 C :   -0.131429
   4 C :   -0.145721
   5 C :   -0.142641
   6 H :    0.150603
   7 H :    0.158950
   8 H :    0.148419
   9 H :    0.147897
  10 H :    0.145915
  11 C :   -0.140873
  12 C :   -0.144929
  13 C :   -0.158258
  14 C :   -0.129141
  15 H :    0.152196
  16 C :   -0.162599
  17 H :    0.159330
  18 H :    0.145534
  19 H :    0.149106
  20 H :    0.147087
  21 C :   -0.450206
  22 H :    0.155145
  23 H :    0.167147
  24 H :    0.165949
  25 C :   -0.642432
  26 H :    0.185266
  27 H :    0.139008
  28 H :    0.125431
  29 H :    0.125552

  Mayer bond orders larger than 0.100000
B(  0-Lu,  1-C ) :   0.2765 B(  0-Lu,  2-C ) :   0.2517 B(  0-Lu,  3-C ) :   0.2061
B(  0-Lu,  4-C ) :   0.2515 B(  0-Lu,  5-C ) :   0.2433 B(  0-Lu, 11-C ) :   0.2567
B(  0-Lu, 12-C ) :   0.2533 B(  0-Lu, 13-C ) :   0.2464 B(  0-Lu, 14-C ) :   0.2151
B(  0-Lu, 16-C ) :   0.2831 B(  0-Lu, 21-C ) :   0.1716 B(  0-Lu, 25-C ) :   0.8255
B(  1-C ,  2-C ) :   1.2683 B(  1-C ,  5-C ) :   1.2924 B(  1-C ,  8-H ) :   0.9157
B(  2-C ,  3-C ) :   1.3209 B(  2-C ,  9-H ) :   0.9211 B(  3-C ,  4-C ) :   1.3253
B(  3-C , 10-H ) :   0.9270 B(  4-C ,  5-C ) :   1.2852 B(  4-C ,  6-H ) :   0.9229
B(  5-C ,  7-H ) :   0.9218 B( 11-C , 12-C ) :   1.2791 B( 11-C , 14-C ) :   1.3277
B( 11-C , 15-H ) :   0.9212 B( 12-C , 16-C ) :   1.2878 B( 12-C , 17-H ) :   0.9199
B( 13-C , 14-C ) :   1.3144 B( 13-C , 16-C ) :   1.2708 B( 13-C , 19-H ) :   0.9261
B( 14-C , 18-H ) :   0.9257 B( 16-C , 20-H ) :   0.9145 B( 21-C , 22-H ) :   0.8847
B( 21-C , 23-H ) :   0.8934 B( 21-C , 24-H ) :   0.9001 B( 21-C , 26-H ) :   0.8100
B( 25-C , 27-H ) :   0.9012 B( 25-C , 28-H ) :   0.9138 B( 25-C , 29-H ) :   0.9090

Dispersion correction           -0.017369412
FINAL SINGLE POINT ENERGY     -1702.355093549547
Dispersion correction            ... done

DIPOLE MOMENT
-------------
                                X             Y             Z
Electronic contribution:    -16.73969       6.01422       1.09879
Nuclear contribution   :     16.35127      -7.01551      -0.42343
                        -----------------------------------------
Total Dipole Moment    :     -0.38842      -1.00129       0.67536
                        -----------------------------------------
Magnitude (a.u.)       :      1.26869
Magnitude (Debye)      :      3.22475

Rotational constants in cm-1:     0.027431     0.019998     0.017092
Rotational constants in MHz :   822.347075   599.521563   512.395718

                             ****ORCA TERMINATED NORMALLY****
TOTAL RUN TIME: 0 days 0 hours 10 minutes 12 seconds 935 msec
