                         Program Version 5.0.3 -  RELEASE  -
|  1> ! EnGrad PBEh-3c
|  2> %output
|  3> xyzfile=True
|  4> end
|  5> %scf
|  6> maxiter 250
|  7> end
|  8> %output
|  9> Print[P_Hirshfeld] = 1
| 10> end
| 11> % maxcore
| 12> 4000
| 13> *xyz 0 1
| 14> C   -1.90098955   0.13810047  -0.14521207
| 15> C   -1.57771654  -0.60217083  -1.27142061
| 16> C   -0.78933167  -1.73447790  -1.15605107
| 17> C   -0.29963675  -2.11130854   0.08279356
| 18> C   -1.43197734  -0.26549495   1.09495894
| 19> C   -0.60058712  -1.36668968   1.21204513
| 20> H   -2.53823194   1.00510204  -0.26125708
| 21> H   -1.96337938  -0.31937149  -2.24166434
| 22> H   -0.57142060  -2.33383445  -2.03139173
| 23> H   -0.19070374  -1.66787008   2.16709225
| 24> H    0.31542474  -2.99734521   0.16580621
| 25> Pd   1.41765256   1.23630842   0.01449441
| 26> O    2.26634671   0.63136630  -1.73688253
| 27> O    2.61100500  -0.41682738   0.11790219
| 28> O    0.31019931   2.94127653  -0.08681342
| 29> C    0.17853977   2.97966563   1.15843408
| 30> O    0.73908314   2.08391431   1.84703712
| 31> H   -1.78339313   0.41261516   2.19227579
| 32> C    2.79586560  -0.32594462  -1.12140806
| 33> H    3.43660232  -1.04612916  -1.64180697
| 34> H   -0.42335021   3.75910542   1.64107061
| 35> *
| 36>
| 37>                          ****END OF INPUT****

CARTESIAN COORDINATES (ANGSTROEM)
---------------------------------
  C     -1.900990    0.138100   -0.145212
  C     -1.577717   -0.602171   -1.271421
  C     -0.789332   -1.734478   -1.156051
  C     -0.299637   -2.111309    0.082794
  C     -1.431977   -0.265495    1.094959
  C     -0.600587   -1.366690    1.212045
  H     -2.538232    1.005102   -0.261257
  H     -1.963379   -0.319371   -2.241664
  H     -0.571421   -2.333834   -2.031392
  H     -0.190704   -1.667870    2.167092
  H      0.315425   -2.997345    0.165806
  Pd     1.417653    1.236308    0.014494
  O      2.266347    0.631366   -1.736883
  O      2.611005   -0.416827    0.117902
  O      0.310199    2.941277   -0.086813
  C      0.178540    2.979666    1.158434
  O      0.739083    2.083914    1.847037
  H     -1.783393    0.412615    2.192276
  C      2.795866   -0.325945   -1.121408
  H      3.436602   -1.046129   -1.641807
  H     -0.423350    3.759105    1.641071

 Total Charge           Charge          ....    0
 Multiplicity           Mult            ....    1
 Number of Electrons    NEL             ....  106
 Basis Dimension        Dim             ....  227

ORBITAL ENERGIES
----------------

  NO   OCC          E(Eh)            E(eV)
   0   2.0000     -19.539175      -531.6880
   1   2.0000     -19.537822      -531.6512
   2   2.0000     -19.533956      -531.5460
   3   2.0000     -19.526748      -531.3498
   4   2.0000     -10.597585      -288.3750
   5   2.0000     -10.591443      -288.2078
   6   2.0000     -10.475373      -285.0494
   7   2.0000     -10.453451      -284.4529
   8   2.0000     -10.452044      -284.4146
   9   2.0000     -10.451818      -284.4084
  10   2.0000     -10.451367      -284.3962
  11   2.0000     -10.450507      -284.3727
  12   2.0000      -3.695257      -100.5531
  13   2.0000      -2.348120       -63.8956
  14   2.0000      -2.337262       -63.6001
  15   2.0000      -2.301879       -62.6373
  16   2.0000      -1.244459       -33.8635
  17   2.0000      -1.232162       -33.5288
  18   2.0000      -1.126425       -30.6516
  19   2.0000      -1.115448       -30.3529
  20   2.0000      -0.962618       -26.1942
  21   2.0000      -0.843656       -22.9570
  22   2.0000      -0.837875       -22.7997
  23   2.0000      -0.708181       -19.2706
  24   2.0000      -0.695291       -18.9198
  25   2.0000      -0.684423       -18.6241
  26   2.0000      -0.676041       -18.3960
  27   2.0000      -0.603318       -16.4171
  28   2.0000      -0.591424       -16.0935
  29   2.0000      -0.585306       -15.9270
  30   2.0000      -0.578496       -15.7417
  31   2.0000      -0.554590       -15.0912
  32   2.0000      -0.544910       -14.8277
  33   2.0000      -0.528742       -14.3878
  34   2.0000      -0.518537       -14.1101
  35   2.0000      -0.516602       -14.0575
  36   2.0000      -0.487394       -13.2627
  37   2.0000      -0.469130       -12.7657
  38   2.0000      -0.453124       -12.3301
  39   2.0000      -0.433920       -11.8076
  40   2.0000      -0.428773       -11.6675
  41   2.0000      -0.416454       -11.3323
  42   2.0000      -0.404028       -10.9942
  43   2.0000      -0.394784       -10.7426
  44   2.0000      -0.388704       -10.5772
  45   2.0000      -0.386131       -10.5071
  46   2.0000      -0.378902       -10.3105
  47   2.0000      -0.374039       -10.1781
  48   2.0000      -0.358786        -9.7631
  49   2.0000      -0.337603        -9.1866
  50   2.0000      -0.327244        -8.9048
  51   2.0000      -0.298518        -8.1231
  52   2.0000      -0.297581        -8.0976
  53   0.0000      -0.086891        -2.3644
  54   0.0000       0.007222         0.1965
  55   0.0000       0.015376         0.4184
  56   0.0000       0.021110         0.5744
  57   0.0000       0.027715         0.7542

MULLIKEN ATOMIC CHARGES
-----------------------
   0 C :   -0.217538
   1 C :   -0.219235
   2 C :   -0.227662
   3 C :   -0.223408
   4 C :   -0.225573
   5 C :   -0.209105
   6 H :    0.229239
   7 H :    0.227086
   8 H :    0.222154
   9 H :    0.235768
  10 H :    0.223606
  11 Pd:    0.534911
  12 O :   -0.452569
  13 O :   -0.453526
  14 O :   -0.456200
  15 C :    0.427232
  16 O :   -0.455627
  17 H :    0.185348
  18 C :    0.440662
  19 H :    0.208409
  20 H :    0.206028
Sum of atomic charges:   -0.0000000

LOEWDIN ATOMIC CHARGES
----------------------
   0 C :   -0.131429
   1 C :   -0.121657
   2 C :   -0.134015
   3 C :   -0.123459
   4 C :   -0.103181
   5 C :   -0.124398
   6 H :    0.144356
   7 H :    0.141426
   8 H :    0.137883
   9 H :    0.147822
  10 H :    0.139785
  11 Pd:   -0.138769
  12 O :   -0.130449
  13 O :   -0.133553
  14 O :   -0.134987
  15 C :    0.166234
  16 O :   -0.159173
  17 H :    0.133922
  18 C :    0.175514
  19 H :    0.125245
  20 H :    0.122882

  Mayer bond orders larger than 0.100000
B(  0-C ,  1-C ) :   1.4258 B(  0-C ,  4-C ) :   1.4034 B(  0-C ,  6-H ) :   0.9167
B(  1-C ,  2-C ) :   1.4259 B(  1-C ,  7-H ) :   0.9171 B(  2-C ,  3-C ) :   1.4251
B(  2-C ,  8-H ) :   0.9195 B(  3-C ,  5-C ) :   1.4240 B(  3-C , 10-H ) :   0.9184
B(  4-C ,  5-C ) :   1.4184 B(  4-C , 17-H ) :   0.9232 B(  5-C ,  9-H ) :   0.9145
B( 11-Pd, 12-O ) :   0.5871 B( 11-Pd, 13-O ) :   0.5786 B( 11-Pd, 14-O ) :   0.5823
B( 11-Pd, 16-O ) :   0.5409 B( 12-O , 13-O ) :   0.1125 B( 12-O , 18-C ) :   1.4523
B( 13-O , 18-C ) :   1.4517 B( 14-O , 15-C ) :   1.4457 B( 14-O , 16-O ) :   0.1109
B( 15-C , 16-O ) :   1.4827 B( 15-C , 20-H ) :   0.8897 B( 18-C , 19-H ) :   0.8918

Dispersion correction           -0.013471162
FINAL SINGLE POINT ENERGY      -737.123589764647
Dispersion correction            ... done

DIPOLE MOMENT
-------------
                                X             Y             Z
Electronic contribution:     54.92027      47.75262       0.38619
Nuclear contribution   :    -55.04284     -48.01815      -0.53260
                        -----------------------------------------
Total Dipole Moment    :     -0.12257      -0.26553      -0.14641
                        -----------------------------------------
Magnitude (a.u.)       :      0.32705
Magnitude (Debye)      :      0.83131

Rotational constants in cm-1:     0.028158     0.020511     0.015322
Rotational constants in MHz :   844.162900   614.890301   459.334403

                             ****ORCA TERMINATED NORMALLY****
TOTAL RUN TIME: 0 days 0 hours 3 minutes 46 seconds 993 msec
