                         Program Version 5.0.3 -  RELEASE  -
|  1> ! EnGrad PBEh-3c
|  2> %output
|  3> xyzfile=True
|  4> end
|  5> %scf
|  6> maxiter 250
|  7> end
|  8> %output
|  9> Print[P_Hirshfeld] = 1
| 10> end
| 11> % maxcore
| 12> 4000
| 13> *xyz 0 1
| 14> C   -1.89528711   0.14779933  -0.14431585
| 15> C   -1.64818711  -0.64468649  -1.26643878
| 16> C   -0.90025898  -1.79488123  -1.14169897
| 17> C   -0.36049617  -2.15445309   0.07264479
| 18> C   -1.38009899  -0.23914359   1.07190946
| 19> C   -0.59319052  -1.36047734   1.19669131
| 20> H   -2.49542572   1.06782415  -0.23564646
| 21> H   -2.05361882  -0.32936753  -2.20977527
| 22> H   -0.74591818  -2.40775655  -1.98234319
| 23> H   -0.15261981  -1.62759911   2.17045669
| 24> H    0.24010770  -3.03699400   0.19337912
| 25> Pd   1.47614696   1.29020343   0.05573018
| 26> O    2.29766716   0.68863485  -1.68446294
| 27> O    2.62227784  -0.40004934   0.14410977
| 28> O    0.33158701   2.95023160  -0.09304429
| 29> C    0.17087550   2.95080970   1.15211495
| 30> O    0.71276130   2.03332955   1.82646150
| 31> H   -1.59173112   0.33976115   1.93939456
| 32> C    2.84525533  -0.26942797  -1.08338461
| 33> H    3.52528252  -0.94444895  -1.60824203
| 34> H   -0.42347480   3.74029566   1.63214943
| 35> *
| 36>
| 37>                          ****END OF INPUT****

CARTESIAN COORDINATES (ANGSTROEM)
---------------------------------
  C     -1.895287    0.147799   -0.144316
  C     -1.648187   -0.644686   -1.266439
  C     -0.900259   -1.794881   -1.141699
  C     -0.360496   -2.154453    0.072645
  C     -1.380099   -0.239144    1.071909
  C     -0.593191   -1.360477    1.196691
  H     -2.495426    1.067824   -0.235646
  H     -2.053619   -0.329368   -2.209775
  H     -0.745918   -2.407757   -1.982343
  H     -0.152620   -1.627599    2.170457
  H      0.240108   -3.036994    0.193379
  Pd     1.476147    1.290203    0.055730
  O      2.297667    0.688635   -1.684463
  O      2.622278   -0.400049    0.144110
  O      0.331587    2.950232   -0.093044
  C      0.170876    2.950810    1.152115
  O      0.712761    2.033330    1.826461
  H     -1.591731    0.339761    1.939395
  C      2.845255   -0.269428   -1.083385
  H      3.525283   -0.944449   -1.608242
  H     -0.423475    3.740296    1.632149

 Total Charge           Charge          ....    0
 Multiplicity           Mult            ....    1
 Number of Electrons    NEL             ....  106
 Basis Dimension        Dim             ....  227

ORBITAL ENERGIES
----------------

  NO   OCC          E(Eh)            E(eV)
   0   2.0000     -19.538251      -531.6628
   1   2.0000     -19.537785      -531.6502
   2   2.0000     -19.535664      -531.5924
   3   2.0000     -19.534464      -531.5598
   4   2.0000     -10.597217      -288.3649
   5   2.0000     -10.596308      -288.3402
   6   2.0000     -10.449543      -284.3465
   7   2.0000     -10.447693      -284.2962
   8   2.0000     -10.447070      -284.2792
   9   2.0000     -10.446616      -284.2669
  10   2.0000     -10.443483      -284.1816
  11   2.0000     -10.442953      -284.1672
  12   2.0000      -3.694969      -100.5452
  13   2.0000      -2.348599       -63.9086
  14   2.0000      -2.336961       -63.5919
  15   2.0000      -2.301538       -62.6280
  16   2.0000      -1.246069       -33.9073
  17   2.0000      -1.237433       -33.6723
  18   2.0000      -1.126232       -30.6463
  19   2.0000      -1.121904       -30.5286
  20   2.0000      -0.959947       -26.1215
  21   2.0000      -0.842866       -22.9356
  22   2.0000      -0.837184       -22.7809
  23   2.0000      -0.710524       -19.3343
  24   2.0000      -0.698303       -19.0018
  25   2.0000      -0.682084       -18.5604
  26   2.0000      -0.681675       -18.5493
  27   2.0000      -0.606460       -16.5026
  28   2.0000      -0.596675       -16.2363
  29   2.0000      -0.588551       -16.0153
  30   2.0000      -0.582788       -15.8585
  31   2.0000      -0.558598       -15.2002
  32   2.0000      -0.547809       -14.9067
  33   2.0000      -0.532515       -14.4905
  34   2.0000      -0.524600       -14.2751
  35   2.0000      -0.513418       -13.9708
  36   2.0000      -0.485868       -13.2211
  37   2.0000      -0.481138       -13.0924
  38   2.0000      -0.456345       -12.4178
  39   2.0000      -0.433200       -11.7880
  40   2.0000      -0.430493       -11.7143
  41   2.0000      -0.418893       -11.3987
  42   2.0000      -0.402923       -10.9641
  43   2.0000      -0.394614       -10.7380
  44   2.0000      -0.394573       -10.7369
  45   2.0000      -0.388259       -10.5651
  46   2.0000      -0.383103       -10.4248
  47   2.0000      -0.377538       -10.2733
  48   2.0000      -0.360091        -9.7986
  49   2.0000      -0.336571        -9.1586
  50   2.0000      -0.327448        -8.9103
  51   2.0000      -0.295623        -8.0443
  52   2.0000      -0.292680        -7.9642
  53   0.0000      -0.078761        -2.1432
  54   0.0000       0.007506         0.2043
  55   0.0000       0.018278         0.4974
  56   0.0000       0.020558         0.5594
  57   0.0000       0.027435         0.7466

MULLIKEN ATOMIC CHARGES
-----------------------
   0 C :   -0.224427
   1 C :   -0.223209
   2 C :   -0.218042
   3 C :   -0.227554
   4 C :   -0.233198
   5 C :   -0.216406
   6 H :    0.219809
   7 H :    0.223886
   8 H :    0.219921
   9 H :    0.227956
  10 H :    0.221182
  11 Pd:    0.532135
  12 O :   -0.457093
  13 O :   -0.454475
  14 O :   -0.454934
  15 C :    0.435692
  16 O :   -0.460378
  17 H :    0.228105
  18 C :    0.443635
  19 H :    0.208955
  20 H :    0.208440
Sum of atomic charges:   -0.0000000

LOEWDIN ATOMIC CHARGES
----------------------
   0 C :   -0.125847
   1 C :   -0.122586
   2 C :   -0.135244
   3 C :   -0.124115
   4 C :   -0.126038
   5 C :   -0.117775
   6 H :    0.140555
   7 H :    0.139203
   8 H :    0.136478
   9 H :    0.144807
  10 H :    0.138234
  11 Pd:   -0.146303
  12 O :   -0.129972
  13 O :   -0.134786
  14 O :   -0.131106
  15 C :    0.172685
  16 O :   -0.147444
  17 H :    0.141771
  18 C :    0.176612
  19 H :    0.125848
  20 H :    0.125023

  Mayer bond orders larger than 0.100000
B(  0-C ,  1-C ) :   1.4244 B(  0-C ,  4-C ) :   1.4200 B(  0-C ,  6-H ) :   0.9197
B(  1-C ,  2-C ) :   1.4290 B(  1-C ,  7-H ) :   0.9189 B(  2-C ,  3-C ) :   1.4284
B(  2-C ,  8-H ) :   0.9209 B(  3-C ,  5-C ) :   1.4216 B(  3-C , 10-H ) :   0.9201
B(  4-C ,  5-C ) :   1.4362 B(  4-C , 17-H ) :   0.9141 B(  5-C ,  9-H ) :   0.9170
B( 11-Pd, 12-O ) :   0.5954 B( 11-Pd, 13-O ) :   0.5716 B( 11-Pd, 14-O ) :   0.5843
B( 11-Pd, 16-O ) :   0.5562 B( 12-O , 13-O ) :   0.1127 B( 12-O , 18-C ) :   1.4392
B( 13-O , 18-C ) :   1.4600 B( 14-O , 15-C ) :   1.4473 B( 14-O , 16-O ) :   0.1122
B( 15-C , 16-O ) :   1.4600 B( 15-C , 20-H ) :   0.8912 B( 18-C , 19-H ) :   0.8928

Dispersion correction           -0.013330358
FINAL SINGLE POINT ENERGY      -737.150401421559
Dispersion correction            ... done

DIPOLE MOMENT
-------------
                                X             Y             Z
Electronic contribution:     57.74661      50.36125       2.20194
Nuclear contribution   :    -57.78909     -50.46535      -2.24861
                        -----------------------------------------
Total Dipole Moment    :     -0.04247      -0.10409      -0.04667
                        -----------------------------------------
Magnitude (a.u.)       :      0.12173
Magnitude (Debye)      :      0.30941

Rotational constants in cm-1:     0.028748     0.019754     0.015010
Rotational constants in MHz :   861.835549   592.195447   449.994826

                             ****ORCA TERMINATED NORMALLY****
TOTAL RUN TIME: 0 days 0 hours 4 minutes 4 seconds 164 msec
