                         Program Version 5.0.3 -  RELEASE  -
|  1> ! EnGrad PBEh-3c
|  2> %output
|  3> xyzfile=True
|  4> end
|  5> %scf
|  6> maxiter 250
|  7> end
|  8> %output
|  9> Print[P_Hirshfeld] = 1
| 10> end
| 11> % maxcore
| 12> 4000
| 13> *xyz 0 1
| 14> C   -1.89574727   0.14950962  -0.14664152
| 15> C   -1.66208570  -0.64575550  -1.27043033
| 16> C   -0.91672746  -1.80161882  -1.13734191
| 17> C   -0.36568369  -2.16582332   0.07547217
| 18> C   -1.37301572  -0.23915495   1.06502420
| 19> C   -0.59060691  -1.36235919   1.19485734
| 20> H   -2.48709234   1.07058260  -0.22634896
| 21> H   -2.07168178  -0.32816815  -2.22188256
| 22> H   -0.76638027  -2.42204183  -1.98390878
| 23> H   -0.15497590  -1.61874850   2.16814140
| 24> H    0.24034886  -3.05641217   0.19593933
| 25> Pd   1.48274534   1.29810597   0.06029451
| 26> O    2.29772747   0.69402427  -1.67849340
| 27> O    2.63029381  -0.39380735   0.15226392
| 28> O    0.33959490   2.95642540  -0.09550791
| 29> C    0.17095678   2.94824355   1.14866901
| 30> O    0.70908970   2.02443562   1.81943574
| 31> H   -1.56909337   0.35049404   1.93012325
| 32> C    2.84874881  -0.26145735  -1.07584266
| 33> H    3.53317199  -0.92867879  -1.60259328
| 34> H   -0.42179854   3.73308764   1.63468605
| 35> *
| 36>
| 37>                          ****END OF INPUT****

CARTESIAN COORDINATES (ANGSTROEM)
---------------------------------
  C     -1.895747    0.149510   -0.146642
  C     -1.662086   -0.645755   -1.270430
  C     -0.916727   -1.801619   -1.137342
  C     -0.365684   -2.165823    0.075472
  C     -1.373016   -0.239155    1.065024
  C     -0.590607   -1.362359    1.194857
  H     -2.487092    1.070583   -0.226349
  H     -2.071682   -0.328168   -2.221883
  H     -0.766380   -2.422042   -1.983909
  H     -0.154976   -1.618748    2.168141
  H      0.240349   -3.056412    0.195939
  Pd     1.482745    1.298106    0.060295
  O      2.297727    0.694024   -1.678493
  O      2.630294   -0.393807    0.152264
  O      0.339595    2.956425   -0.095508
  C      0.170957    2.948244    1.148669
  O      0.709090    2.024436    1.819436
  H     -1.569093    0.350494    1.930123
  C      2.848749   -0.261457   -1.075843
  H      3.533172   -0.928679   -1.602593
  H     -0.421799    3.733088    1.634686

 Total Charge           Charge          ....    0
 Multiplicity           Mult            ....    1
 Number of Electrons    NEL             ....  106
 Basis Dimension        Dim             ....  227

ORBITAL ENERGIES
----------------

  NO   OCC          E(Eh)            E(eV)
   0   2.0000     -19.539222      -531.6893
   1   2.0000     -19.537493      -531.6422
   2   2.0000     -19.535562      -531.5897
   3   2.0000     -19.535349      -531.5839
   4   2.0000     -10.598154      -288.3904
   5   2.0000     -10.595917      -288.3296
   6   2.0000     -10.449292      -284.3397
   7   2.0000     -10.448683      -284.3231
   8   2.0000     -10.448533      -284.3190
   9   2.0000     -10.447096      -284.2799
  10   2.0000     -10.445205      -284.2285
  11   2.0000     -10.442412      -284.1525
  12   2.0000      -3.694915      -100.5438
  13   2.0000      -2.348723       -63.9120
  14   2.0000      -2.336883       -63.5898
  15   2.0000      -2.301488       -62.6267
  16   2.0000      -1.246238       -33.9118
  17   2.0000      -1.237839       -33.6833
  18   2.0000      -1.126689       -30.6588
  19   2.0000      -1.122509       -30.5450
  20   2.0000      -0.959068       -26.0976
  21   2.0000      -0.841427       -22.8964
  22   2.0000      -0.837180       -22.7808
  23   2.0000      -0.711095       -19.3499
  24   2.0000      -0.698864       -19.0171
  25   2.0000      -0.681533       -18.5454
  26   2.0000      -0.680702       -18.5228
  27   2.0000      -0.607190       -16.5225
  28   2.0000      -0.595529       -16.2052
  29   2.0000      -0.588956       -16.0263
  30   2.0000      -0.583406       -15.8753
  31   2.0000      -0.559043       -15.2123
  32   2.0000      -0.548321       -14.9206
  33   2.0000      -0.532832       -14.4991
  34   2.0000      -0.523773       -14.2526
  35   2.0000      -0.512936       -13.9577
  36   2.0000      -0.483845       -13.1661
  37   2.0000      -0.481792       -13.1102
  38   2.0000      -0.456544       -12.4232
  39   2.0000      -0.434187       -11.8148
  40   2.0000      -0.430075       -11.7029
  41   2.0000      -0.419272       -11.4090
  42   2.0000      -0.403342       -10.9755
  43   2.0000      -0.394763       -10.7421
  44   2.0000      -0.393651       -10.7118
  45   2.0000      -0.387910       -10.5556
  46   2.0000      -0.383585       -10.4379
  47   2.0000      -0.378027       -10.2866
  48   2.0000      -0.360117        -9.7993
  49   2.0000      -0.336290        -9.1509
  50   2.0000      -0.327430        -8.9098
  51   2.0000      -0.294848        -8.0232
  52   2.0000      -0.292897        -7.9701
  53   0.0000      -0.077411        -2.1065
  54   0.0000       0.007007         0.1907
  55   0.0000       0.018108         0.4927
  56   0.0000       0.019993         0.5440
  57   0.0000       0.027303         0.7430

MULLIKEN ATOMIC CHARGES
-----------------------
   0 C :   -0.223778
   1 C :   -0.222599
   2 C :   -0.221561
   3 C :   -0.227242
   4 C :   -0.231803
   5 C :   -0.215555
   6 H :    0.220244
   7 H :    0.223625
   8 H :    0.219128
   9 H :    0.228557
  10 H :    0.221032
  11 Pd:    0.531482
  12 O :   -0.457892
  13 O :   -0.454620
  14 O :   -0.454575
  15 C :    0.437392
  16 O :   -0.461855
  17 H :    0.228015
  18 C :    0.444444
  19 H :    0.208399
  20 H :    0.209162
Sum of atomic charges:   -0.0000000

LOEWDIN ATOMIC CHARGES
----------------------
   0 C :   -0.126280
   1 C :   -0.123095
   2 C :   -0.134758
   3 C :   -0.124652
   4 C :   -0.126807
   5 C :   -0.117953
   6 H :    0.140289
   7 H :    0.139812
   8 H :    0.136182
   9 H :    0.144676
  10 H :    0.138884
  11 Pd:   -0.148576
  12 O :   -0.130114
  13 O :   -0.135417
  14 O :   -0.130024
  15 C :    0.174373
  16 O :   -0.146012
  17 H :    0.141647
  18 C :    0.176798
  19 H :    0.125515
  20 H :    0.125508

  Mayer bond orders larger than 0.100000
B(  0-C ,  1-C ) :   1.4223 B(  0-C ,  4-C ) :   1.4215 B(  0-C ,  6-H ) :   0.9193
B(  1-C ,  2-C ) :   1.4274 B(  1-C ,  7-H ) :   0.9192 B(  2-C ,  3-C ) :   1.4263
B(  2-C ,  8-H ) :   0.9213 B(  3-C ,  5-C ) :   1.4199 B(  3-C , 10-H ) :   0.9203
B(  4-C ,  5-C ) :   1.4373 B(  4-C , 17-H ) :   0.9135 B(  5-C ,  9-H ) :   0.9167
B( 11-Pd, 12-O ) :   0.5959 B( 11-Pd, 13-O ) :   0.5701 B( 11-Pd, 14-O ) :   0.5837
B( 11-Pd, 16-O ) :   0.5604 B( 12-O , 13-O ) :   0.1129 B( 12-O , 18-C ) :   1.4377
B( 13-O , 18-C ) :   1.4616 B( 14-O , 15-C ) :   1.4488 B( 14-O , 16-O ) :   0.1125
B( 15-C , 16-O ) :   1.4546 B( 15-C , 20-H ) :   0.8916 B( 18-C , 19-H ) :   0.8932

Dispersion correction           -0.013302616
FINAL SINGLE POINT ENERGY      -737.150904568497
Dispersion correction            ... done

DIPOLE MOMENT
-------------
                                X             Y             Z
Electronic contribution:     58.04947      50.73851       2.41596
Nuclear contribution   :    -58.09287     -50.81703      -2.44741
                        -----------------------------------------
Total Dipole Moment    :     -0.04340      -0.07852      -0.03145
                        -----------------------------------------
Magnitude (a.u.)       :      0.09507
Magnitude (Debye)      :      0.24166

Rotational constants in cm-1:     0.028824     0.019625     0.014967
Rotational constants in MHz :   864.108952   588.349265   448.692787

                             ****ORCA TERMINATED NORMALLY****
TOTAL RUN TIME: 0 days 0 hours 3 minutes 57 seconds 125 msec
