                         Program Version 5.0.3 -  RELEASE  -
|  1> ! EnGrad PBEh-3c
|  2> %output
|  3> xyzfile=True
|  4> end
|  5> %scf
|  6> maxiter 250
|  7> end
|  8> %output
|  9> Print[P_Hirshfeld] = 1
| 10> end
| 11> % maxcore
| 12> 4000
| 13> *xyz 0 1
| 14> C   -1.89833565   0.15110000  -0.15006533
| 15> C   -1.66905195  -0.63233939  -1.26499628
| 16> C   -0.91789246  -1.80334492  -1.13869159
| 17> C   -0.36365786  -2.16359233   0.09144022
| 18> C   -1.37560966  -0.23117477   1.07629029
| 19> C   -0.58931719  -1.36669726   1.19676801
| 20> H   -2.48063910   1.05984391  -0.22540671
| 21> H   -2.07593536  -0.33138988  -2.23677244
| 22> H   -0.76454527  -2.43457187  -2.00087399
| 23> H   -0.16038377  -1.61682893   2.15733348
| 24> H    0.24589800  -3.06947888   0.18969982
| 25> Pd   1.47787668   1.29751121   0.06548880
| 26> O    2.29545052   0.69299735  -1.68104823
| 27> O    2.63250444  -0.38933260   0.15526750
| 28> O    0.34391370   2.96043712  -0.09657136
| 29> C    0.17261050   2.94877395   1.15105981
| 30> O    0.70890548   2.02625067   1.81300838
| 31> H   -1.56893089   0.36391378   1.94488780
| 32> C    2.85305223  -0.25897170  -1.07425502
| 33> H    3.53333178  -0.93141569  -1.60441079
| 34> H   -0.42219837   3.73026410   1.63696071
| 35> *
| 36>
| 37>                          ****END OF INPUT****

CARTESIAN COORDINATES (ANGSTROEM)
---------------------------------
  C     -1.898336    0.151100   -0.150065
  C     -1.669052   -0.632339   -1.264996
  C     -0.917892   -1.803345   -1.138692
  C     -0.363658   -2.163592    0.091440
  C     -1.375610   -0.231175    1.076290
  C     -0.589317   -1.366697    1.196768
  H     -2.480639    1.059844   -0.225407
  H     -2.075935   -0.331390   -2.236772
  H     -0.764545   -2.434572   -2.000874
  H     -0.160384   -1.616829    2.157333
  H      0.245898   -3.069479    0.189700
  Pd     1.477877    1.297511    0.065489
  O      2.295451    0.692997   -1.681048
  O      2.632504   -0.389333    0.155267
  O      0.343914    2.960437   -0.096571
  C      0.172611    2.948774    1.151060
  O      0.708905    2.026251    1.813008
  H     -1.568931    0.363914    1.944888
  C      2.853052   -0.258972   -1.074255
  H      3.533332   -0.931416   -1.604411
  H     -0.422198    3.730264    1.636961

 Total Charge           Charge          ....    0
 Multiplicity           Mult            ....    1
 Number of Electrons    NEL             ....  106
 Basis Dimension        Dim             ....  227

ORBITAL ENERGIES
----------------

  NO   OCC          E(Eh)            E(eV)
   0   2.0000     -19.538614      -531.6727
   1   2.0000     -19.537155      -531.6330
   2   2.0000     -19.536433      -531.6134
   3   2.0000     -19.534754      -531.5677
   4   2.0000     -10.598351      -288.3958
   5   2.0000     -10.595756      -288.3252
   6   2.0000     -10.450800      -284.3807
   7   2.0000     -10.450405      -284.3700
   8   2.0000     -10.449861      -284.3552
   9   2.0000     -10.448066      -284.3063
  10   2.0000     -10.446376      -284.2603
  11   2.0000     -10.445755      -284.2434
  12   2.0000      -3.694575      -100.5345
  13   2.0000      -2.348393       -63.9030
  14   2.0000      -2.336540       -63.5805
  15   2.0000      -2.301147       -62.6174
  16   2.0000      -1.246178       -33.9102
  17   2.0000      -1.237425       -33.6720
  18   2.0000      -1.126709       -30.6593
  19   2.0000      -1.121821       -30.5263
  20   2.0000      -0.957100       -26.0440
  21   2.0000      -0.839891       -22.8546
  22   2.0000      -0.836529       -22.7631
  23   2.0000      -0.711157       -19.3516
  24   2.0000      -0.698653       -19.0113
  25   2.0000      -0.681699       -18.5500
  26   2.0000      -0.679001       -18.4766
  27   2.0000      -0.607052       -16.5187
  28   2.0000      -0.594090       -16.1660
  29   2.0000      -0.588600       -16.0166
  30   2.0000      -0.583464       -15.8769
  31   2.0000      -0.558816       -15.2062
  32   2.0000      -0.548284       -14.9196
  33   2.0000      -0.532421       -14.4879
  34   2.0000      -0.524036       -14.2598
  35   2.0000      -0.511455       -13.9174
  36   2.0000      -0.484726       -13.1901
  37   2.0000      -0.480380       -13.0718
  38   2.0000      -0.456789       -12.4299
  39   2.0000      -0.433877       -11.8064
  40   2.0000      -0.429039       -11.6747
  41   2.0000      -0.419124       -11.4049
  42   2.0000      -0.398836       -10.8529
  43   2.0000      -0.398311       -10.8386
  44   2.0000      -0.394930       -10.7466
  45   2.0000      -0.387590       -10.5469
  46   2.0000      -0.383798       -10.4437
  47   2.0000      -0.377424       -10.2702
  48   2.0000      -0.359853        -9.7921
  49   2.0000      -0.335907        -9.1405
  50   2.0000      -0.326834        -8.8936
  51   2.0000      -0.296051        -8.0559
  52   2.0000      -0.291162        -7.9229
  53   0.0000      -0.076841        -2.0909
  54   0.0000       0.007329         0.1994
  55   0.0000       0.016330         0.4444
  56   0.0000       0.020871         0.5679
  57   0.0000       0.025735         0.7003

MULLIKEN ATOMIC CHARGES
-----------------------
   0 C :   -0.218178
   1 C :   -0.221057
   2 C :   -0.228609
   3 C :   -0.225464
   4 C :   -0.240312
   5 C :   -0.209944
   6 H :    0.221394
   7 H :    0.222605
   8 H :    0.219806
   9 H :    0.229479
  10 H :    0.219810
  11 Pd:    0.532038
  12 O :   -0.458226
  13 O :   -0.456080
  14 O :   -0.457615
  15 C :    0.437759
  16 O :   -0.458304
  17 H :    0.228773
  18 C :    0.444159
  19 H :    0.208567
  20 H :    0.209399
Sum of atomic charges:    0.0000000

LOEWDIN ATOMIC CHARGES
----------------------
   0 C :   -0.127908
   1 C :   -0.124041
   2 C :   -0.132372
   3 C :   -0.125508
   4 C :   -0.123920
   5 C :   -0.119763
   6 H :    0.140132
   7 H :    0.140065
   8 H :    0.136458
   9 H :    0.144367
  10 H :    0.138976
  11 Pd:   -0.150255
  12 O :   -0.133080
  13 O :   -0.137152
  14 O :   -0.132979
  15 C :    0.173798
  16 O :   -0.138735
  17 H :    0.142375
  18 C :    0.178165
  19 H :    0.125676
  20 H :    0.125699

  Mayer bond orders larger than 0.100000
B(  0-C ,  1-C ) :   1.4264 B(  0-C ,  4-C ) :   1.4189 B(  0-C ,  6-H ) :   0.9189
B(  1-C ,  2-C ) :   1.4227 B(  1-C ,  7-H ) :   0.9196 B(  2-C ,  3-C ) :   1.4211
B(  2-C ,  8-H ) :   0.9206 B(  3-C ,  5-C ) :   1.4249 B(  3-C , 10-H ) :   0.9207
B(  4-C ,  5-C ) :   1.4336 B(  4-C , 17-H ) :   0.9137 B(  5-C ,  9-H ) :   0.9164
B( 11-Pd, 12-O ) :   0.5938 B( 11-Pd, 13-O ) :   0.5690 B( 11-Pd, 14-O ) :   0.5878
B( 11-Pd, 16-O ) :   0.5595 B( 12-O , 13-O ) :   0.1129 B( 12-O , 18-C ) :   1.4387
B( 13-O , 18-C ) :   1.4603 B( 14-O , 15-C ) :   1.4416 B( 14-O , 16-O ) :   0.1124
B( 15-C , 16-O ) :   1.4606 B( 15-C , 20-H ) :   0.8919 B( 18-C , 19-H ) :   0.8926

Dispersion correction           -0.013291930
FINAL SINGLE POINT ENERGY      -737.152381267627
Dispersion correction            ... done

DIPOLE MOMENT
-------------
                                X             Y             Z
Electronic contribution:     57.81572      50.65928       2.64755
Nuclear contribution   :    -57.87219     -50.73642      -2.64901
                        -----------------------------------------
Total Dipole Moment    :     -0.05647      -0.07715      -0.00146
                        -----------------------------------------
Magnitude (a.u.)       :      0.09562
Magnitude (Debye)      :      0.24304

Rotational constants in cm-1:     0.028784     0.019627     0.014974
Rotational constants in MHz :   862.926745   588.406509   448.903306

                             ****ORCA TERMINATED NORMALLY****
TOTAL RUN TIME: 0 days 0 hours 4 minutes 11 seconds 462 msec
