                         Program Version 5.0.3 -  RELEASE  -
|  1> ! EnGrad PBEh-3c
|  2> %output
|  3> xyzfile=True
|  4> end
|  5> %scf
|  6> maxiter 250
|  7> end
|  8> %output
|  9> Print[P_Hirshfeld] = 1
| 10> end
| 11> % maxcore
| 12> 4000
| 13> *xyz 0 1
| 14> C   -1.89986411   0.15319091  -0.14982592
| 15> C   -1.67461799  -0.63038957  -1.26553782
| 16> C   -0.92333612  -1.80423171  -1.13581031
| 17> C   -0.36464997  -2.16662891   0.09519078
| 18> C   -1.37205506  -0.23009403   1.07396550
| 19> C   -0.58973909  -1.36751580   1.19911571
| 20> H   -2.47571008   1.05693823  -0.22563746
| 21> H   -2.07835074  -0.33718046  -2.23447557
| 22> H   -0.77094971  -2.44560795  -2.00935607
| 23> H   -0.16035089  -1.61538533   2.15124336
| 24> H    0.23928561  -3.06991962   0.18585655
| 25> Pd   1.47804103   1.29727839   0.06791503
| 26> O    2.29556615   0.69483447  -1.67938600
| 27> O    2.63346257  -0.38541399   0.15742874
| 28> O    0.34661506   2.96349660  -0.09533329
| 29> C    0.17300363   2.94929589   1.15200371
| 30> O    0.70784273   2.02614301   1.80983361
| 31> H   -1.56209813   0.37059446   1.94666369
| 32> C    2.85883396  -0.25432049  -1.07206120
| 33> H    3.53813857  -0.93071512  -1.60470806
| 34> H   -0.42316986   3.72839427   1.63755350
| 35> *
| 36>
| 37>                          ****END OF INPUT****

CARTESIAN COORDINATES (ANGSTROEM)
---------------------------------
  C     -1.899864    0.153191   -0.149826
  C     -1.674618   -0.630390   -1.265538
  C     -0.923336   -1.804232   -1.135810
  C     -0.364650   -2.166629    0.095191
  C     -1.372055   -0.230094    1.073965
  C     -0.589739   -1.367516    1.199116
  H     -2.475710    1.056938   -0.225637
  H     -2.078351   -0.337180   -2.234476
  H     -0.770950   -2.445608   -2.009356
  H     -0.160351   -1.615385    2.151243
  H      0.239286   -3.069920    0.185857
  Pd     1.478041    1.297278    0.067915
  O      2.295566    0.694834   -1.679386
  O      2.633463   -0.385414    0.157429
  O      0.346615    2.963497   -0.095333
  C      0.173004    2.949296    1.152004
  O      0.707843    2.026143    1.809834
  H     -1.562098    0.370594    1.946664
  C      2.858834   -0.254320   -1.072061
  H      3.538139   -0.930715   -1.604708
  H     -0.423170    3.728394    1.637554

 Total Charge           Charge          ....    0
 Multiplicity           Mult            ....    1
 Number of Electrons    NEL             ....  106
 Basis Dimension        Dim             ....  227

ORBITAL ENERGIES
----------------

  NO   OCC          E(Eh)            E(eV)
   0   2.0000     -19.537987      -531.6556
   1   2.0000     -19.537172      -531.6335
   2   2.0000     -19.536447      -531.6138
   3   2.0000     -19.534868      -531.5708
   4   2.0000     -10.597888      -288.3832
   5   2.0000     -10.596286      -288.3396
   6   2.0000     -10.451960      -284.4123
   7   2.0000     -10.450357      -284.3687
   8   2.0000     -10.450002      -284.3590
   9   2.0000     -10.447524      -284.2916
  10   2.0000     -10.446517      -284.2642
  11   2.0000     -10.445429      -284.2346
  12   2.0000      -3.694395      -100.5296
  13   2.0000      -2.348249       -63.8991
  14   2.0000      -2.336351       -63.5754
  15   2.0000      -2.300969       -62.6126
  16   2.0000      -1.246636       -33.9227
  17   2.0000      -1.237487       -33.6737
  18   2.0000      -1.126759       -30.6607
  19   2.0000      -1.121540       -30.5187
  20   2.0000      -0.956611       -26.0307
  21   2.0000      -0.840681       -22.8761
  22   2.0000      -0.835316       -22.7301
  23   2.0000      -0.711185       -19.3523
  24   2.0000      -0.698462       -19.0061
  25   2.0000      -0.680696       -18.5227
  26   2.0000      -0.680026       -18.5045
  27   2.0000      -0.607074       -16.5193
  28   2.0000      -0.594128       -16.1671
  29   2.0000      -0.588602       -16.0167
  30   2.0000      -0.583679       -15.8827
  31   2.0000      -0.558846       -15.2070
  32   2.0000      -0.548475       -14.9248
  33   2.0000      -0.532435       -14.4883
  34   2.0000      -0.524668       -14.2769
  35   2.0000      -0.511121       -13.9083
  36   2.0000      -0.486510       -13.2386
  37   2.0000      -0.478660       -13.0250
  38   2.0000      -0.457077       -12.4377
  39   2.0000      -0.433685       -11.8012
  40   2.0000      -0.428737       -11.6665
  41   2.0000      -0.419051       -11.4030
  42   2.0000      -0.399811       -10.8794
  43   2.0000      -0.397662       -10.8209
  44   2.0000      -0.395148       -10.7525
  45   2.0000      -0.387387       -10.5413
  46   2.0000      -0.383790       -10.4435
  47   2.0000      -0.377019       -10.2592
  48   2.0000      -0.359691        -9.7877
  49   2.0000      -0.335649        -9.1335
  50   2.0000      -0.326603        -8.8873
  51   2.0000      -0.296250        -8.0614
  52   2.0000      -0.290593        -7.9074
  53   0.0000      -0.076262        -2.0752
  54   0.0000       0.007454         0.2028
  55   0.0000       0.016258         0.4424
  56   0.0000       0.020721         0.5638
  57   0.0000       0.025632         0.6975

MULLIKEN ATOMIC CHARGES
-----------------------
   0 C :   -0.216492
   1 C :   -0.219675
   2 C :   -0.232112
   3 C :   -0.224175
   4 C :   -0.243183
   5 C :   -0.208383
   6 H :    0.222116
   7 H :    0.223577
   8 H :    0.217861
   9 H :    0.230228
  10 H :    0.220738
  11 Pd:    0.532610
  12 O :   -0.458198
  13 O :   -0.456828
  14 O :   -0.458116
  15 C :    0.437424
  16 O :   -0.457622
  17 H :    0.227858
  18 C :    0.444122
  19 H :    0.209019
  20 H :    0.209231
Sum of atomic charges:   -0.0000000

LOEWDIN ATOMIC CHARGES
----------------------
   0 C :   -0.128089
   1 C :   -0.124583
   2 C :   -0.131333
   3 C :   -0.125998
   4 C :   -0.123346
   5 C :   -0.120033
   6 H :    0.140169
   7 H :    0.140151
   8 H :    0.136078
   9 H :    0.144326
  10 H :    0.139039
  11 Pd:   -0.151216
  12 O :   -0.133327
  13 O :   -0.137398
  14 O :   -0.133742
  15 C :    0.172626
  16 O :   -0.136603
  17 H :    0.142389
  18 C :    0.179164
  19 H :    0.126150
  20 H :    0.125574

  Mayer bond orders larger than 0.100000
B(  0-C ,  1-C ) :   1.4270 B(  0-C ,  4-C ) :   1.4188 B(  0-C ,  6-H ) :   0.9187
B(  1-C ,  2-C ) :   1.4222 B(  1-C ,  7-H ) :   0.9192 B(  2-C ,  3-C ) :   1.4204
B(  2-C ,  8-H ) :   0.9212 B(  3-C ,  5-C ) :   1.4257 B(  3-C , 10-H ) :   0.9203
B(  4-C ,  5-C ) :   1.4337 B(  4-C , 17-H ) :   0.9141 B(  5-C ,  9-H ) :   0.9161
B( 11-Pd, 12-O ) :   0.5933 B( 11-Pd, 13-O ) :   0.5696 B( 11-Pd, 14-O ) :   0.5879
B( 11-Pd, 16-O ) :   0.5595 B( 12-O , 13-O ) :   0.1129 B( 12-O , 18-C ) :   1.4385
B( 13-O , 18-C ) :   1.4585 B( 14-O , 15-C ) :   1.4411 B( 14-O , 16-O ) :   0.1122
B( 15-C , 16-O ) :   1.4618 B( 15-C , 20-H ) :   0.8922 B( 18-C , 19-H ) :   0.8921

Dispersion correction           -0.013286032
FINAL SINGLE POINT ENERGY      -737.152261479201
Dispersion correction            ... done

DIPOLE MOMENT
-------------
                                X             Y             Z
Electronic contribution:     57.83010      50.61589       2.74217
Nuclear contribution   :    -57.88066     -50.69723      -2.74038
                        -----------------------------------------
Total Dipole Moment    :     -0.05056      -0.08134       0.00179
                        -----------------------------------------
Magnitude (a.u.)       :      0.09579
Magnitude (Debye)      :      0.24347

Rotational constants in cm-1:     0.028798     0.019603     0.014964
Rotational constants in MHz :   863.339192   587.676937   448.616602

                             ****ORCA TERMINATED NORMALLY****
TOTAL RUN TIME: 0 days 0 hours 4 minutes 7 seconds 753 msec
