                         Program Version 5.0.3 -  RELEASE  -
|  1> ! EnGrad PBEh-3c
|  2> %output
|  3> xyzfile=True
|  4> end
|  5> %scf
|  6> maxiter 250
|  7> end
|  8> %output
|  9> Print[P_Hirshfeld] = 1
| 10> end
| 11> % maxcore
| 12> 4000
| 13> *xyz 0 1
| 14> C   -1.89907441   0.15104121  -0.15120957
| 15> C   -1.67246104  -0.63507703  -1.26627624
| 16> C   -0.92287243  -1.80545776  -1.13793364
| 17> C   -0.36691497  -2.16635695   0.09039009
| 18> C   -1.37268723  -0.22536648   1.07993176
| 19> C   -0.59133715  -1.36897719   1.19729516
| 20> H   -2.47571431   1.05598531  -0.22766735
| 21> H   -2.07608869  -0.34380171  -2.23060335
| 22> H   -0.77128192  -2.44797127  -2.01239958
| 23> H   -0.15953635  -1.61723903   2.15006298
| 24> H    0.23361659  -3.06605681   0.18041484
| 25> Pd   1.47546970   1.29408981   0.06523923
| 26> O    2.29513940   0.69361619  -1.67893615
| 27> O    2.63524580  -0.38173197   0.15749734
| 28> O    0.34837402   2.96707194  -0.09375970
| 29> C    0.17360069   2.95269645   1.15238864
| 30> O    0.70861036   2.02762631   1.81076594
| 31> H   -1.56265761   0.37887112   1.95679559
| 32> C    2.86243450  -0.25288284  -1.07207062
| 33> H    3.53868873  -0.93422788  -1.60555332
| 34> H   -0.42516898   3.72807837   1.63917148
| 35> *
| 36>
| 37>                          ****END OF INPUT****

CARTESIAN COORDINATES (ANGSTROEM)
---------------------------------
  C     -1.899074    0.151041   -0.151210
  C     -1.672461   -0.635077   -1.266276
  C     -0.922872   -1.805458   -1.137934
  C     -0.366915   -2.166357    0.090390
  C     -1.372687   -0.225366    1.079932
  C     -0.591337   -1.368977    1.197295
  H     -2.475714    1.055985   -0.227667
  H     -2.076089   -0.343802   -2.230603
  H     -0.771282   -2.447971   -2.012400
  H     -0.159536   -1.617239    2.150063
  H      0.233617   -3.066057    0.180415
  Pd     1.475470    1.294090    0.065239
  O      2.295139    0.693616   -1.678936
  O      2.635246   -0.381732    0.157497
  O      0.348374    2.967072   -0.093760
  C      0.173601    2.952696    1.152389
  O      0.708610    2.027626    1.810766
  H     -1.562658    0.378871    1.956796
  C      2.862434   -0.252883   -1.072071
  H      3.538689   -0.934228   -1.605553
  H     -0.425169    3.728078    1.639171

 Total Charge           Charge          ....    0
 Multiplicity           Mult            ....    1
 Number of Electrons    NEL             ....  106
 Basis Dimension        Dim             ....  227

ORBITAL ENERGIES
----------------

  NO   OCC          E(Eh)            E(eV)
   0   2.0000     -19.537576      -531.6445
   1   2.0000     -19.536838      -531.6244
   2   2.0000     -19.536195      -531.6069
   3   2.0000     -19.535221      -531.5804
   4   2.0000     -10.597343      -288.3684
   5   2.0000     -10.596791      -288.3534
   6   2.0000     -10.451509      -284.4000
   7   2.0000     -10.449689      -284.3505
   8   2.0000     -10.449312      -284.3402
   9   2.0000     -10.448426      -284.3161
  10   2.0000     -10.447835      -284.3001
  11   2.0000     -10.446182      -284.2551
  12   2.0000      -3.694246      -100.5256
  13   2.0000      -2.348063       -63.8940
  14   2.0000      -2.336211       -63.5715
  15   2.0000      -2.300818       -62.6084
  16   2.0000      -1.246184       -33.9104
  17   2.0000      -1.237650       -33.6782
  18   2.0000      -1.126057       -30.6416
  19   2.0000      -1.121499       -30.5176
  20   2.0000      -0.956386       -26.0246
  21   2.0000      -0.840174       -22.8623
  22   2.0000      -0.835739       -22.7416
  23   2.0000      -0.711046       -19.3486
  24   2.0000      -0.698474       -19.0064
  25   2.0000      -0.680542       -18.5185
  26   2.0000      -0.680224       -18.5098
  27   2.0000      -0.606718       -16.5096
  28   2.0000      -0.594024       -16.1642
  29   2.0000      -0.588502       -16.0140
  30   2.0000      -0.583492       -15.8776
  31   2.0000      -0.558713       -15.2033
  32   2.0000      -0.548134       -14.9155
  33   2.0000      -0.532433       -14.4882
  34   2.0000      -0.524818       -14.2810
  35   2.0000      -0.511068       -13.9069
  36   2.0000      -0.485875       -13.2213
  37   2.0000      -0.479421       -13.0457
  38   2.0000      -0.457243       -12.4422
  39   2.0000      -0.433221       -11.7885
  40   2.0000      -0.428606       -11.6630
  41   2.0000      -0.418827       -11.3969
  42   2.0000      -0.399321       -10.8661
  43   2.0000      -0.398294       -10.8381
  44   2.0000      -0.395332       -10.7575
  45   2.0000      -0.387165       -10.5353
  46   2.0000      -0.383661       -10.4399
  47   2.0000      -0.376673       -10.2498
  48   2.0000      -0.359573        -9.7845
  49   2.0000      -0.335505        -9.1296
  50   2.0000      -0.326543        -8.8857
  51   2.0000      -0.295875        -8.0512
  52   2.0000      -0.290909        -7.9160
  53   0.0000      -0.076241        -2.0746
  54   0.0000       0.007529         0.2049
  55   0.0000       0.016137         0.4391
  56   0.0000       0.020660         0.5622
  57   0.0000       0.025483         0.6934

MULLIKEN ATOMIC CHARGES
-----------------------
   0 C :   -0.219387
   1 C :   -0.217240
   2 C :   -0.231793
   3 C :   -0.221887
   4 C :   -0.243064
   5 C :   -0.211329
   6 H :    0.221832
   7 H :    0.223920
   8 H :    0.217763
   9 H :    0.230041
  10 H :    0.221049
  11 Pd:    0.533512
  12 O :   -0.457948
  13 O :   -0.456863
  14 O :   -0.457479
  15 C :    0.436760
  16 O :   -0.459031
  17 H :    0.228603
  18 C :    0.443894
  19 H :    0.209511
  20 H :    0.209139
Sum of atomic charges:   -0.0000000

LOEWDIN ATOMIC CHARGES
----------------------
   0 C :   -0.127459
   1 C :   -0.125268
   2 C :   -0.130955
   3 C :   -0.126753
   4 C :   -0.123192
   5 C :   -0.119513
   6 H :    0.139988
   7 H :    0.140168
   8 H :    0.136160
   9 H :    0.144181
  10 H :    0.139024
  11 Pd:   -0.151398
  12 O :   -0.132394
  13 O :   -0.136688
  14 O :   -0.133708
  15 C :    0.172481
  16 O :   -0.139183
  17 H :    0.143104
  18 C :    0.179400
  19 H :    0.126569
  20 H :    0.125435

  Mayer bond orders larger than 0.100000
B(  0-C ,  1-C ) :   1.4277 B(  0-C ,  4-C ) :   1.4175 B(  0-C ,  6-H ) :   0.9188
B(  1-C ,  2-C ) :   1.4223 B(  1-C ,  7-H ) :   0.9191 B(  2-C ,  3-C ) :   1.4208
B(  2-C ,  8-H ) :   0.9212 B(  3-C ,  5-C ) :   1.4263 B(  3-C , 10-H ) :   0.9202
B(  4-C ,  5-C ) :   1.4326 B(  4-C , 17-H ) :   0.9139 B(  5-C ,  9-H ) :   0.9162
B( 11-Pd, 12-O ) :   0.5935 B( 11-Pd, 13-O ) :   0.5711 B( 11-Pd, 14-O ) :   0.5854
B( 11-Pd, 16-O ) :   0.5592 B( 12-O , 13-O ) :   0.1128 B( 12-O , 18-C ) :   1.4386
B( 13-O , 18-C ) :   1.4570 B( 14-O , 15-C ) :   1.4442 B( 14-O , 16-O ) :   0.1122
B( 15-C , 16-O ) :   1.4603 B( 15-C , 20-H ) :   0.8921 B( 18-C , 19-H ) :   0.8918

Dispersion correction           -0.013284404
FINAL SINGLE POINT ENERGY      -737.152713153130
Dispersion correction            ... done

DIPOLE MOMENT
-------------
                                X             Y             Z
Electronic contribution:     57.70595      50.44069       2.60991
Nuclear contribution   :    -57.75282     -50.53546      -2.62135
                        -----------------------------------------
Total Dipole Moment    :     -0.04687      -0.09477      -0.01144
                        -----------------------------------------
Magnitude (a.u.)       :      0.10634
Magnitude (Debye)      :      0.27031

Rotational constants in cm-1:     0.028785     0.019610     0.014959
Rotational constants in MHz :   862.941561   587.900310   448.472464

                             ****ORCA TERMINATED NORMALLY****
TOTAL RUN TIME: 0 days 0 hours 4 minutes 10 seconds 859 msec
