                         Program Version 5.0.3 -  RELEASE  -
|  1> ! EnGrad PBEh-3c
|  2> %output
|  3> xyzfile=True
|  4> end
|  5> %scf
|  6> maxiter 250
|  7> end
|  8> %output
|  9> Print[P_Hirshfeld] = 1
| 10> end
| 11> % maxcore
| 12> 4000
| 13> *xyz 0 1
| 14> C   -1.89579942   0.14739004  -0.14678402
| 15> C   -1.66732819  -0.64478306  -1.26784211
| 16> C   -0.92097734  -1.80976713  -1.14490961
| 17> C   -0.37119732  -2.16567031   0.07987344
| 18> C   -1.37428646  -0.21944599   1.08817696
| 19> C   -0.59669390  -1.36528202   1.19531984
| 20> H   -2.47730086   1.05594650  -0.23130988
| 21> H   -2.07350112  -0.35244493  -2.22741283
| 22> H   -0.77146597  -2.44736368  -2.01225738
| 23> H   -0.15781969  -1.62114405   2.15019385
| 24> H    0.22737623  -3.06246537   0.17293068
| 25> Pd   1.47079817   1.29079393   0.06097295
| 26> O    2.29507440   0.69116242  -1.67913735
| 27> O    2.63933022  -0.37696686   0.15722808
| 28> O    0.35089224   2.97257074  -0.09212896
| 29> C    0.17557623   2.95620668   1.15284195
| 30> O    0.70972552   2.03026469   1.81261798
| 31> H   -1.56369265   0.38925462   1.96963485
| 32> C    2.86614160  -0.25246720  -1.07249320
| 33> H    3.53819715  -0.93850081  -1.60583670
| 34> H   -0.42849474   3.72839004   1.64216529
| 35> *
| 36>
| 37>                          ****END OF INPUT****

CARTESIAN COORDINATES (ANGSTROEM)
---------------------------------
  C     -1.895799    0.147390   -0.146784
  C     -1.667328   -0.644783   -1.267842
  C     -0.920977   -1.809767   -1.144910
  C     -0.371197   -2.165670    0.079873
  C     -1.374286   -0.219446    1.088177
  C     -0.596694   -1.365282    1.195320
  H     -2.477301    1.055946   -0.231310
  H     -2.073501   -0.352445   -2.227413
  H     -0.771466   -2.447364   -2.012257
  H     -0.157820   -1.621144    2.150194
  H      0.227376   -3.062465    0.172931
  Pd     1.470798    1.290794    0.060973
  O      2.295074    0.691162   -1.679137
  O      2.639330   -0.376967    0.157228
  O      0.350892    2.972571   -0.092129
  C      0.175576    2.956207    1.152842
  O      0.709726    2.030265    1.812618
  H     -1.563693    0.389255    1.969635
  C      2.866142   -0.252467   -1.072493
  H      3.538197   -0.938501   -1.605837
  H     -0.428495    3.728390    1.642165

 Total Charge           Charge          ....    0
 Multiplicity           Mult            ....    1
 Number of Electrons    NEL             ....  106
 Basis Dimension        Dim             ....  227

ORBITAL ENERGIES
----------------

  NO   OCC          E(Eh)            E(eV)
   0   2.0000     -19.537237      -531.6352
   1   2.0000     -19.537119      -531.6320
   2   2.0000     -19.535505      -531.5881
   3   2.0000     -19.535381      -531.5847
   4   2.0000     -10.597053      -288.3605
   5   2.0000     -10.596924      -288.3570
   6   2.0000     -10.450063      -284.3607
   7   2.0000     -10.449809      -284.3538
   8   2.0000     -10.449396      -284.3425
   9   2.0000     -10.449042      -284.3329
  10   2.0000     -10.449016      -284.3322
  11   2.0000     -10.447625      -284.2943
  12   2.0000      -3.694229      -100.5251
  13   2.0000      -2.347984       -63.8919
  14   2.0000      -2.336209       -63.5715
  15   2.0000      -2.300796       -62.6078
  16   2.0000      -1.246028       -33.9061
  17   2.0000      -1.237770       -33.6814
  18   2.0000      -1.125734       -30.6328
  19   2.0000      -1.121483       -30.5171
  20   2.0000      -0.956387       -26.0246
  21   2.0000      -0.838513       -22.8171
  22   2.0000      -0.837520       -22.7901
  23   2.0000      -0.710623       -19.3370
  24   2.0000      -0.698282       -19.0012
  25   2.0000      -0.681139       -18.5347
  26   2.0000      -0.679714       -18.4959
  27   2.0000      -0.606406       -16.5011
  28   2.0000      -0.593962       -16.1625
  29   2.0000      -0.588389       -16.0109
  30   2.0000      -0.583303       -15.8725
  31   2.0000      -0.558591       -15.2000
  32   2.0000      -0.547925       -14.9098
  33   2.0000      -0.532501       -14.4901
  34   2.0000      -0.524733       -14.2787
  35   2.0000      -0.511186       -13.9101
  36   2.0000      -0.482963       -13.1421
  37   2.0000      -0.482505       -13.1296
  38   2.0000      -0.457146       -12.4396
  39   2.0000      -0.432817       -11.7776
  40   2.0000      -0.428664       -11.6645
  41   2.0000      -0.418654       -11.3922
  42   2.0000      -0.399341       -10.8666
  43   2.0000      -0.398488       -10.8434
  44   2.0000      -0.395406       -10.7595
  45   2.0000      -0.387001       -10.5308
  46   2.0000      -0.383581       -10.4378
  47   2.0000      -0.376470       -10.2443
  48   2.0000      -0.359580        -9.7847
  49   2.0000      -0.335545        -9.1306
  50   2.0000      -0.326710        -8.8902
  51   2.0000      -0.293939        -7.9985
  52   2.0000      -0.292973        -7.9722
  53   0.0000      -0.076656        -2.0859
  54   0.0000       0.007573         0.2061
  55   0.0000       0.016770         0.4563
  56   0.0000       0.019740         0.5371
  57   0.0000       0.025729         0.7001

MULLIKEN ATOMIC CHARGES
-----------------------
   0 C :   -0.224385
   1 C :   -0.217004
   2 C :   -0.227500
   3 C :   -0.221895
   4 C :   -0.238661
   5 C :   -0.216313
   6 H :    0.221184
   7 H :    0.224089
   8 H :    0.219161
   9 H :    0.229443
  10 H :    0.221149
  11 Pd:    0.534105
  12 O :   -0.457786
  13 O :   -0.456479
  14 O :   -0.456686
  15 C :    0.435682
  16 O :   -0.459567
  17 H :    0.229550
  18 C :    0.443418
  19 H :    0.209963
  20 H :    0.208532
Sum of atomic charges:    0.0000000

LOEWDIN ATOMIC CHARGES
----------------------
   0 C :   -0.126366
   1 C :   -0.125229
   2 C :   -0.131957
   3 C :   -0.126863
   4 C :   -0.124127
   5 C :   -0.118527
   6 H :    0.139851
   7 H :    0.140049
   8 H :    0.136547
   9 H :    0.144080
  10 H :    0.138855
  11 Pd:   -0.150935
  12 O :   -0.131604
  13 O :   -0.135830
  14 O :   -0.133654
  15 C :    0.171735
  16 O :   -0.141337
  17 H :    0.144223
  18 C :    0.179140
  19 H :    0.126856
  20 H :    0.125095

  Mayer bond orders larger than 0.100000
B(  0-C ,  1-C ) :   1.4265 B(  0-C ,  4-C ) :   1.4162 B(  0-C ,  6-H ) :   0.9191
B(  1-C ,  2-C ) :   1.4240 B(  1-C ,  7-H ) :   0.9190 B(  2-C ,  3-C ) :   1.4228
B(  2-C ,  8-H ) :   0.9205 B(  3-C ,  5-C ) :   1.4249 B(  3-C , 10-H ) :   0.9202
B(  4-C ,  5-C ) :   1.4317 B(  4-C , 17-H ) :   0.9136 B(  5-C ,  9-H ) :   0.9165
B( 11-Pd, 12-O ) :   0.5939 B( 11-Pd, 13-O ) :   0.5722 B( 11-Pd, 14-O ) :   0.5832
B( 11-Pd, 16-O ) :   0.5582 B( 12-O , 13-O ) :   0.1127 B( 12-O , 18-C ) :   1.4386
B( 13-O , 18-C ) :   1.4566 B( 14-O , 15-C ) :   1.4467 B( 14-O , 16-O ) :   0.1121
B( 15-C , 16-O ) :   1.4601 B( 15-C , 20-H ) :   0.8918 B( 18-C , 19-H ) :   0.8916

Dispersion correction           -0.013281461
FINAL SINGLE POINT ENERGY      -737.153135281427
Dispersion correction            ... done

DIPOLE MOMENT
-------------
                                X             Y             Z
Electronic contribution:     57.47483      50.25081       2.40897
Nuclear contribution   :    -57.52036     -50.36684      -2.43725
                        -----------------------------------------
Total Dipole Moment    :     -0.04553      -0.11603      -0.02828
                        -----------------------------------------
Magnitude (a.u.)       :      0.12781
Magnitude (Debye)      :      0.32487

Rotational constants in cm-1:     0.028765     0.019623     0.014949
Rotational constants in MHz :   862.352475   588.291382   448.149401

                             ****ORCA TERMINATED NORMALLY****
TOTAL RUN TIME: 0 days 0 hours 4 minutes 11 seconds 6 msec
