                         Program Version 5.0.3 -  RELEASE  -
|  1> ! EnGrad PBEh-3c
|  2> %output
|  3> xyzfile=True
|  4> end
|  5> %scf
|  6> maxiter 250
|  7> end
|  8> %output
|  9> Print[P_Hirshfeld] = 1
| 10> end
| 11> % maxcore
| 12> 4000
| 13> *xyz 0 1
| 14> C   -1.89818054   0.15004467  -0.15000167
| 15> C   -1.67106009  -0.63772617  -1.26670362
| 16> C   -0.92235519  -1.80663395  -1.13983765
| 17> C   -0.36808378  -2.16616954   0.08751970
| 18> C   -1.37312372  -0.22375056   1.08218219
| 19> C   -0.59279921  -1.36796864   1.19675602
| 20> H   -2.47614734   1.05597471  -0.22866153
| 21> H   -2.07538244  -0.34616077  -2.22973253
| 22> H   -0.77133216  -2.44780544  -2.01236077
| 23> H   -0.15906781  -1.61830486   2.15009870
| 24> H    0.23191336  -3.06507657   0.17837213
| 25> Pd   1.47419466   1.29319024   0.06407480
| 26> O    2.29512166   0.69294646  -1.67899107
| 27> O    2.63636059  -0.38043139   0.15742385
| 28> O    0.34906133   2.96857277  -0.09331461
| 29> C    0.17413989   2.95365452   1.15251236
| 30> O    0.70891473   2.02834642   1.81127143
| 31> H   -1.56294011   0.38170517   1.96029991
| 32> C    2.86344631  -0.25276940  -1.07218596
| 33> H    3.53855456  -0.93539412  -1.60563066
| 34> H   -0.42607670   3.72816344   1.63998860
| 35> *
| 36>
| 37>                          ****END OF INPUT****

CARTESIAN COORDINATES (ANGSTROEM)
---------------------------------
  C     -1.898181    0.150045   -0.150002
  C     -1.671060   -0.637726   -1.266704
  C     -0.922355   -1.806634   -1.139838
  C     -0.368084   -2.166170    0.087520
  C     -1.373124   -0.223751    1.082182
  C     -0.592799   -1.367969    1.196756
  H     -2.476147    1.055975   -0.228662
  H     -2.075382   -0.346161   -2.229733
  H     -0.771332   -2.447805   -2.012361
  H     -0.159068   -1.618305    2.150099
  H      0.231913   -3.065077    0.178372
  Pd     1.474195    1.293190    0.064075
  O      2.295122    0.692946   -1.678991
  O      2.636361   -0.380431    0.157424
  O      0.349061    2.968573   -0.093315
  C      0.174140    2.953655    1.152512
  O      0.708915    2.028346    1.811271
  H     -1.562940    0.381705    1.960300
  C      2.863446   -0.252769   -1.072186
  H      3.538555   -0.935394   -1.605631
  H     -0.426077    3.728163    1.639989

 Total Charge           Charge          ....    0
 Multiplicity           Mult            ....    1
 Number of Electrons    NEL             ....  106
 Basis Dimension        Dim             ....  227

ORBITAL ENERGIES
----------------

  NO   OCC          E(Eh)            E(eV)
   0   2.0000     -19.537484      -531.6420
   1   2.0000     -19.536914      -531.6265
   2   2.0000     -19.535973      -531.6008
   3   2.0000     -19.535298      -531.5825
   4   2.0000     -10.597229      -288.3653
   5   2.0000     -10.596862      -288.3553
   6   2.0000     -10.451063      -284.3879
   7   2.0000     -10.449657      -284.3496
   8   2.0000     -10.449258      -284.3388
   9   2.0000     -10.448756      -284.3251
  10   2.0000     -10.448181      -284.3095
  11   2.0000     -10.446577      -284.2658
  12   2.0000      -3.694241      -100.5254
  13   2.0000      -2.348041       -63.8934
  14   2.0000      -2.336210       -63.5715
  15   2.0000      -2.300811       -62.6083
  16   2.0000      -1.246124       -33.9087
  17   2.0000      -1.237701       -33.6795
  18   2.0000      -1.125962       -30.6390
  19   2.0000      -1.121504       -30.5177
  20   2.0000      -0.956377       -26.0243
  21   2.0000      -0.839468       -22.8431
  22   2.0000      -0.836472       -22.7616
  23   2.0000      -0.710923       -19.3452
  24   2.0000      -0.698431       -19.0053
  25   2.0000      -0.680628       -18.5208
  26   2.0000      -0.680160       -18.5081
  27   2.0000      -0.606629       -16.5072
  28   2.0000      -0.594001       -16.1636
  29   2.0000      -0.588473       -16.0132
  30   2.0000      -0.583438       -15.8762
  31   2.0000      -0.558683       -15.2025
  32   2.0000      -0.548073       -14.9138
  33   2.0000      -0.532454       -14.4888
  34   2.0000      -0.524792       -14.2803
  35   2.0000      -0.511101       -13.9078
  36   2.0000      -0.485047       -13.1988
  37   2.0000      -0.480310       -13.0699
  38   2.0000      -0.457218       -12.4415
  39   2.0000      -0.433110       -11.7855
  40   2.0000      -0.428619       -11.6633
  41   2.0000      -0.418778       -11.3955
  42   2.0000      -0.399334       -10.8664
  43   2.0000      -0.398345       -10.8395
  44   2.0000      -0.395348       -10.7580
  45   2.0000      -0.387118       -10.5340
  46   2.0000      -0.383640       -10.4394
  47   2.0000      -0.376620       -10.2484
  48   2.0000      -0.359581        -9.7847
  49   2.0000      -0.335516        -9.1299
  50   2.0000      -0.326584        -8.8868
  51   2.0000      -0.295334        -8.0364
  52   2.0000      -0.291486        -7.9317
  53   0.0000      -0.076352        -2.0776
  54   0.0000       0.007551         0.2055
  55   0.0000       0.016338         0.4446
  56   0.0000       0.020380         0.5546
  57   0.0000       0.025549         0.6952

MULLIKEN ATOMIC CHARGES
-----------------------
   0 C :   -0.220777
   1 C :   -0.217145
   2 C :   -0.230669
   3 C :   -0.221858
   4 C :   -0.241855
   5 C :   -0.212719
   6 H :    0.221662
   7 H :    0.223971
   8 H :    0.218152
   9 H :    0.229885
  10 H :    0.221081
  11 Pd:    0.533663
  12 O :   -0.457905
  13 O :   -0.456759
  14 O :   -0.457264
  15 C :    0.436473
  16 O :   -0.459177
  17 H :    0.228863
  18 C :    0.443770
  19 H :    0.209634
  20 H :    0.208974
Sum of atomic charges:   -0.0000000

LOEWDIN ATOMIC CHARGES
----------------------
   0 C :   -0.127161
   1 C :   -0.125262
   2 C :   -0.131225
   3 C :   -0.126788
   4 C :   -0.123451
   5 C :   -0.119244
   6 H :    0.139955
   7 H :    0.140137
   8 H :    0.136269
   9 H :    0.144157
  10 H :    0.138979
  11 Pd:   -0.151277
  12 O :   -0.132177
  13 O :   -0.136452
  14 O :   -0.133692
  15 C :    0.172279
  16 O :   -0.139770
  17 H :    0.143406
  18 C :    0.179328
  19 H :    0.126646
  20 H :    0.125343

  Mayer bond orders larger than 0.100000
B(  0-C ,  1-C ) :   1.4274 B(  0-C ,  4-C ) :   1.4172 B(  0-C ,  6-H ) :   0.9189
B(  1-C ,  2-C ) :   1.4228 B(  1-C ,  7-H ) :   0.9190 B(  2-C ,  3-C ) :   1.4213
B(  2-C ,  8-H ) :   0.9210 B(  3-C ,  5-C ) :   1.4260 B(  3-C , 10-H ) :   0.9202
B(  4-C ,  5-C ) :   1.4323 B(  4-C , 17-H ) :   0.9138 B(  5-C ,  9-H ) :   0.9163
B( 11-Pd, 12-O ) :   0.5936 B( 11-Pd, 13-O ) :   0.5714 B( 11-Pd, 14-O ) :   0.5848
B( 11-Pd, 16-O ) :   0.5589 B( 12-O , 13-O ) :   0.1128 B( 12-O , 18-C ) :   1.4386
B( 13-O , 18-C ) :   1.4569 B( 14-O , 15-C ) :   1.4449 B( 14-O , 16-O ) :   0.1122
B( 15-C , 16-O ) :   1.4602 B( 15-C , 20-H ) :   0.8920 B( 18-C , 19-H ) :   0.8917

Dispersion correction           -0.013283642
FINAL SINGLE POINT ENERGY      -737.152925200630
Dispersion correction            ... done

DIPOLE MOMENT
-------------
                                X             Y             Z
Electronic contribution:     57.64287      50.38885       2.55504
Nuclear contribution   :    -57.68937     -50.48944      -2.57110
                        -----------------------------------------
Total Dipole Moment    :     -0.04650      -0.10059      -0.01606
                        -----------------------------------------
Magnitude (a.u.)       :      0.11197
Magnitude (Debye)      :      0.28462

Rotational constants in cm-1:     0.028779     0.019614     0.014957
Rotational constants in MHz :   862.782374   588.008118   448.385131

                             ****ORCA TERMINATED NORMALLY****
TOTAL RUN TIME: 0 days 0 hours 4 minutes 12 seconds 283 msec
