                         Program Version 5.0.3 -  RELEASE  -
|  1> ! EnGrad PBEh-3c
|  2> %output
|  3> xyzfile=True
|  4> end
|  5> %scf
|  6> maxiter 250
|  7> end
|  8> %output
|  9> Print[P_Hirshfeld] = 1
| 10> end
| 11> % maxcore
| 12> 4000
| 13> *xyz 0 1
| 14> C   -1.90006086   0.14520847  -0.15229163
| 15> C   -1.59090348  -0.61467464  -1.28029194
| 16> C   -0.81548838  -1.75635425  -1.16167034
| 17> C   -0.30774801  -2.12709536   0.07374524
| 18> C   -1.46049598  -0.16360988   1.23472329
| 19> C   -0.59363061  -1.36899759   1.20980622
| 20> H   -2.52099559   1.01310618  -0.26563505
| 21> H   -1.98620443  -0.33047269  -2.24154864
| 22> H   -0.61904305  -2.36213120  -2.02735281
| 23> H   -0.17391117  -1.66101755   2.15472319
| 24> H    0.29296573  -3.01469890   0.16321205
| 25> Pd   1.41642914   1.25152280   0.04722172
| 26> O    2.28281205   0.65029191  -1.73053364
| 27> O    2.60258814  -0.41481727   0.11615891
| 28> O    0.31261860   2.93843272  -0.10342389
| 29> C    0.18487894   2.95745674   1.18666085
| 30> O    0.72868682   2.08854031   1.83282713
| 31> H   -1.71870763   0.34836664   2.06395705
| 32> C    2.83023883  -0.31649961  -1.11718043
| 33> H    3.46579921  -1.02841258  -1.63824533
| 34> H   -0.43156264   3.76405341   1.63610171
| 35> *
| 36>
| 37>                          ****END OF INPUT****

CARTESIAN COORDINATES (ANGSTROEM)
---------------------------------
  C     -1.900061    0.145208   -0.152292
  C     -1.590903   -0.614675   -1.280292
  C     -0.815488   -1.756354   -1.161670
  C     -0.307748   -2.127095    0.073745
  C     -1.460496   -0.163610    1.234723
  C     -0.593631   -1.368998    1.209806
  H     -2.520996    1.013106   -0.265635
  H     -1.986204   -0.330473   -2.241549
  H     -0.619043   -2.362131   -2.027353
  H     -0.173911   -1.661018    2.154723
  H      0.292966   -3.014699    0.163212
  Pd     1.416429    1.251523    0.047222
  O      2.282812    0.650292   -1.730534
  O      2.602588   -0.414817    0.116159
  O      0.312619    2.938433   -0.103424
  C      0.184879    2.957457    1.186661
  O      0.728687    2.088540    1.832827
  H     -1.718708    0.348367    2.063957
  C      2.830239   -0.316500   -1.117180
  H      3.465799   -1.028413   -1.638245
  H     -0.431563    3.764053    1.636102

 Total Charge           Charge          ....    0
 Multiplicity           Mult            ....    1
 Number of Electrons    NEL             ....  106
 Basis Dimension        Dim             ....  227

ORBITAL ENERGIES
----------------

  NO   OCC          E(Eh)            E(eV)
   0   2.0000     -19.540169      -531.7150
   1   2.0000     -19.533306      -531.5283
   2   2.0000     -19.532397      -531.5035
   3   2.0000     -19.528620      -531.4008
   4   2.0000     -10.595245      -288.3113
   5   2.0000     -10.594337      -288.2866
   6   2.0000     -10.468122      -284.8521
   7   2.0000     -10.461945      -284.6840
   8   2.0000     -10.460716      -284.6506
   9   2.0000     -10.452365      -284.4233
  10   2.0000     -10.451683      -284.4047
  11   2.0000     -10.451387      -284.3967
  12   2.0000      -3.692739      -100.4845
  13   2.0000      -2.345731       -63.8306
  14   2.0000      -2.334672       -63.5297
  15   2.0000      -2.299430       -62.5707
  16   2.0000      -1.247039       -33.9337
  17   2.0000      -1.232447       -33.5366
  18   2.0000      -1.119280       -30.4571
  19   2.0000      -1.114129       -30.3170
  20   2.0000      -0.945633       -25.7320
  21   2.0000      -0.834639       -22.7117
  22   2.0000      -0.833216       -22.6729
  23   2.0000      -0.707621       -19.2554
  24   2.0000      -0.695374       -18.9221
  25   2.0000      -0.692215       -18.8361
  26   2.0000      -0.674505       -18.3542
  27   2.0000      -0.601735       -16.3740
  28   2.0000      -0.594123       -16.1669
  29   2.0000      -0.585643       -15.9361
  30   2.0000      -0.577491       -15.7143
  31   2.0000      -0.555238       -15.1088
  32   2.0000      -0.545605       -14.8467
  33   2.0000      -0.543509       -14.7896
  34   2.0000      -0.528481       -14.3807
  35   2.0000      -0.505296       -13.7498
  36   2.0000      -0.490397       -13.3444
  37   2.0000      -0.477421       -12.9913
  38   2.0000      -0.453611       -12.3434
  39   2.0000      -0.425943       -11.5905
  40   2.0000      -0.422082       -11.4854
  41   2.0000      -0.417584       -11.3630
  42   2.0000      -0.413467       -11.2510
  43   2.0000      -0.394468       -10.7340
  44   2.0000      -0.386435       -10.5154
  45   2.0000      -0.383863       -10.4454
  46   2.0000      -0.380014       -10.3407
  47   2.0000      -0.372677       -10.1411
  48   2.0000      -0.356317        -9.6959
  49   2.0000      -0.334966        -9.1149
  50   2.0000      -0.325491        -8.8571
  51   2.0000      -0.293317        -7.9816
  52   2.0000      -0.287800        -7.8314
  53   0.0000      -0.083608        -2.2751
  54   0.0000      -0.002273        -0.0619
  55   0.0000       0.011141         0.3032
  56   0.0000       0.020299         0.5524
  57   0.0000       0.026618         0.7243

MULLIKEN ATOMIC CHARGES
-----------------------
   0 C :   -0.263152
   1 C :   -0.189376
   2 C :   -0.235853
   3 C :   -0.192502
   4 C :   -0.223021
   5 C :   -0.255916
   6 H :    0.219942
   7 H :    0.228100
   8 H :    0.224219
   9 H :    0.225201
  10 H :    0.224679
  11 Pd:    0.539689
  12 O :   -0.459307
  13 O :   -0.457870
  14 O :   -0.483685
  15 C :    0.425389
  16 O :   -0.418641
  17 H :    0.238448
  18 C :    0.437357
  19 H :    0.211628
  20 H :    0.204672
Sum of atomic charges:   -0.0000000

LOEWDIN ATOMIC CHARGES
----------------------
   0 C :   -0.113195
   1 C :   -0.133321
   2 C :   -0.123230
   3 C :   -0.135350
   4 C :   -0.125021
   5 C :   -0.108002
   6 H :    0.136528
   7 H :    0.143861
   8 H :    0.137556
   9 H :    0.139207
  10 H :    0.142127
  11 Pd:   -0.142717
  12 O :   -0.146947
  13 O :   -0.139469
  14 O :   -0.166436
  15 C :    0.164369
  16 O :   -0.105534
  17 H :    0.145265
  18 C :    0.180490
  19 H :    0.126595
  20 H :    0.123224

  Mayer bond orders larger than 0.100000
B(  0-C ,  1-C ) :   1.4343 B(  0-C ,  4-C ) :   1.4004 B(  0-C ,  6-H ) :   0.9198
B(  1-C ,  2-C ) :   1.4174 B(  1-C ,  7-H ) :   0.9179 B(  2-C ,  3-C ) :   1.4182
B(  2-C ,  4-C ) :   0.1097 B(  2-C ,  8-H ) :   0.9167 B(  3-C ,  5-C ) :   1.4320
B(  3-C , 10-H ) :   0.9192 B(  4-C ,  5-C ) :   1.4137 B(  4-C , 17-H ) :   0.9126
B(  5-C ,  9-H ) :   0.9184 B( 11-Pd, 12-O ) :   0.5862 B( 11-Pd, 13-O ) :   0.5636
B( 11-Pd, 14-O ) :   0.6259 B( 11-Pd, 16-O ) :   0.5076 B( 12-O , 13-O ) :   0.1123
B( 12-O , 18-C ) :   1.4465 B( 13-O , 18-C ) :   1.4597 B( 14-O , 15-C ) :   1.3702
B( 14-O , 16-O ) :   0.1100 B( 15-C , 16-O ) :   1.5533 B( 15-C , 20-H ) :   0.8889
B( 18-C , 19-H ) :   0.8903

Dispersion correction           -0.013388489
FINAL SINGLE POINT ENERGY      -737.122665840340
Dispersion correction            ... done

DIPOLE MOMENT
-------------
                                X             Y             Z
Electronic contribution:     54.89826      48.32824       1.94323
Nuclear contribution   :    -55.02880     -48.58715      -1.85870
                        -----------------------------------------
Total Dipole Moment    :     -0.13055      -0.25890       0.08453
                        -----------------------------------------
Magnitude (a.u.)       :      0.30203
Magnitude (Debye)      :      0.76769

Rotational constants in cm-1:     0.027931     0.020373     0.015205
Rotational constants in MHz :   837.356303   610.768080   455.835766

                             ****ORCA TERMINATED NORMALLY****
TOTAL RUN TIME: 0 days 0 hours 4 minutes 0 seconds 540 msec
