                         Program Version 5.0.3 -  RELEASE  -
|  1> ! EnGrad PBEh-3c
|  2> %output
|  3> xyzfile=True
|  4> end
|  5> %scf
|  6> maxiter 250
|  7> end
|  8> %output
|  9> Print[P_Hirshfeld] = 1
| 10> end
| 11> % maxcore
| 12> 4000
| 13> *xyz 0 1
| 14> C   -1.90055180   0.14145093  -0.14854912
| 15> C   -1.58393239  -0.60806468  -1.27560224
| 16> C   -0.80166101  -1.74478963  -1.15869980
| 17> C   -0.30346011  -2.11874988   0.07852850
| 18> C   -1.44542000  -0.21746997   1.16083887
| 19> C   -0.59730807  -1.36777755   1.21098979
| 20> H   -2.53010734   1.00887491  -0.26332070
| 21> H   -1.97413829  -0.32460420  -2.24160980
| 22> H   -0.59386812  -2.34717253  -2.02948792
| 23> H   -0.18278833  -1.66464004   2.16126192
| 24> H    0.30483836  -3.00552512   0.16458342
| 25> Pd   1.41707589   1.24347994   0.02992089
| 26> O    2.27410788   0.64028716  -1.73388989
| 27> O    2.60703759  -0.41587988   0.11708047
| 28> O    0.31133968   2.93993606  -0.09464300
| 29> C    0.18152782   2.96919715   1.17173917
| 30> O    0.73418269   2.08609484   1.84033904
| 31> H   -1.75290270   0.38233070   2.13179091
| 32> C    2.81206791  -0.32149258  -1.11941531
| 33> H    3.45036469  -1.03777820  -1.64012814
| 34> H   -0.42722126   3.76143772   1.63872845
| 35> *
| 36>
| 37>                          ****END OF INPUT****

CARTESIAN COORDINATES (ANGSTROEM)
---------------------------------
  C     -1.900552    0.141451   -0.148549
  C     -1.583932   -0.608065   -1.275602
  C     -0.801661   -1.744790   -1.158700
  C     -0.303460   -2.118750    0.078529
  C     -1.445420   -0.217470    1.160839
  C     -0.597308   -1.367778    1.210990
  H     -2.530107    1.008875   -0.263321
  H     -1.974138   -0.324604   -2.241610
  H     -0.593868   -2.347173   -2.029488
  H     -0.182788   -1.664640    2.161262
  H      0.304838   -3.005525    0.164583
  Pd     1.417076    1.243480    0.029921
  O      2.274108    0.640287   -1.733890
  O      2.607038   -0.415880    0.117080
  O      0.311340    2.939936   -0.094643
  C      0.181528    2.969197    1.171739
  O      0.734183    2.086095    1.840339
  H     -1.752903    0.382331    2.131791
  C      2.812068   -0.321493   -1.119415
  H      3.450365   -1.037778   -1.640128
  H     -0.427221    3.761438    1.638728

 Total Charge           Charge          ....    0
 Multiplicity           Mult            ....    1
 Number of Electrons    NEL             ....  106
 Basis Dimension        Dim             ....  227

ORBITAL ENERGIES
----------------

  NO   OCC          E(Eh)            E(eV)
   0   2.0000     -19.535928      -531.5996
   1   2.0000     -19.535681      -531.5929
   2   2.0000     -19.533096      -531.5226
   3   2.0000     -19.531496      -531.4790
   4   2.0000     -10.595976      -288.3312
   5   2.0000     -10.593317      -288.2588
   6   2.0000     -10.472101      -284.9604
   7   2.0000     -10.456561      -284.5375
   8   2.0000     -10.455181      -284.4999
   9   2.0000     -10.451421      -284.3976
  10   2.0000     -10.451023      -284.3868
  11   2.0000     -10.450490      -284.3723
  12   2.0000      -3.694061      -100.5205
  13   2.0000      -2.346975       -63.8644
  14   2.0000      -2.336031       -63.5666
  15   2.0000      -2.300694       -62.6051
  16   2.0000      -1.241461       -33.7819
  17   2.0000      -1.234205       -33.5844
  18   2.0000      -1.121929       -30.5292
  19   2.0000      -1.117882       -30.4191
  20   2.0000      -0.953242       -25.9390
  21   2.0000      -0.838377       -22.8134
  22   2.0000      -0.834679       -22.7128
  23   2.0000      -0.707829       -19.2610
  24   2.0000      -0.695250       -18.9187
  25   2.0000      -0.680363       -18.5136
  26   2.0000      -0.679113       -18.4796
  27   2.0000      -0.601661       -16.3720
  28   2.0000      -0.591315       -16.0905
  29   2.0000      -0.585264       -15.9258
  30   2.0000      -0.577754       -15.7215
  31   2.0000      -0.555206       -15.1079
  32   2.0000      -0.543060       -14.7774
  33   2.0000      -0.529644       -14.4123
  34   2.0000      -0.525554       -14.3011
  35   2.0000      -0.510048       -13.8791
  36   2.0000      -0.482169       -13.1205
  37   2.0000      -0.481056       -13.0902
  38   2.0000      -0.453745       -12.3470
  39   2.0000      -0.427682       -11.6378
  40   2.0000      -0.426792       -11.6136
  41   2.0000      -0.415577       -11.3084
  42   2.0000      -0.404168       -10.9980
  43   2.0000      -0.395098       -10.7512
  44   2.0000      -0.394361       -10.7311
  45   2.0000      -0.387950       -10.5567
  46   2.0000      -0.380621       -10.3572
  47   2.0000      -0.374035       -10.1780
  48   2.0000      -0.357687        -9.7332
  49   2.0000      -0.336567        -9.1585
  50   2.0000      -0.326353        -8.8805
  51   2.0000      -0.295468        -8.0401
  52   2.0000      -0.292714        -7.9651
  53   0.0000      -0.085314        -2.3215
  54   0.0000       0.005129         0.1396
  55   0.0000       0.012684         0.3452
  56   0.0000       0.020348         0.5537
  57   0.0000       0.026988         0.7344

MULLIKEN ATOMIC CHARGES
-----------------------
   0 C :   -0.237500
   1 C :   -0.202439
   2 C :   -0.233679
   3 C :   -0.206096
   4 C :   -0.243242
   5 C :   -0.229642
   6 H :    0.224501
   7 H :    0.226881
   8 H :    0.222825
   9 H :    0.230511
  10 H :    0.223447
  11 Pd:    0.537904
  12 O :   -0.455779
  13 O :   -0.455465
  14 O :   -0.469746
  15 C :    0.427517
  16 O :   -0.439317
  17 H :    0.224806
  18 C :    0.439297
  19 H :    0.209935
  20 H :    0.205283
Sum of atomic charges:    0.0000000

LOEWDIN ATOMIC CHARGES
----------------------
   0 C :   -0.123847
   1 C :   -0.127318
   2 C :   -0.129091
   3 C :   -0.129256
   4 C :   -0.120263
   5 C :   -0.117756
   6 H :    0.140094
   7 H :    0.142386
   8 H :    0.137544
   9 H :    0.143197
  10 H :    0.140709
  11 Pd:   -0.140035
  12 O :   -0.138200
  13 O :   -0.136125
  14 O :   -0.150160
  15 C :    0.165810
  16 O :   -0.134605
  17 H :    0.150191
  18 C :    0.177895
  19 H :    0.125893
  20 H :    0.122935

  Mayer bond orders larger than 0.100000
B(  0-C ,  1-C ) :   1.4323 B(  0-C ,  4-C ) :   1.3984 B(  0-C ,  6-H ) :   0.9183
B(  1-C ,  2-C ) :   1.4218 B(  1-C ,  7-H ) :   0.9179 B(  2-C ,  3-C ) :   1.4219
B(  2-C ,  4-C ) :   0.1002 B(  2-C ,  8-H ) :   0.9182 B(  3-C ,  5-C ) :   1.4303
B(  3-C , 10-H ) :   0.9192 B(  4-C ,  5-C ) :   1.4129 B(  4-C , 17-H ) :   0.9174
B(  5-C ,  9-H ) :   0.9165 B( 11-Pd, 12-O ) :   0.5870 B( 11-Pd, 13-O ) :   0.5717
B( 11-Pd, 14-O ) :   0.6027 B( 11-Pd, 16-O ) :   0.5247 B( 12-O , 13-O ) :   0.1124
B( 12-O , 18-C ) :   1.4494 B( 13-O , 18-C ) :   1.4556 B( 14-O , 15-C ) :   1.4098
B( 14-O , 16-O ) :   0.1108 B( 15-C , 16-O ) :   1.5153 B( 15-C , 20-H ) :   0.8895
B( 18-C , 19-H ) :   0.8911

Dispersion correction           -0.013409434
FINAL SINGLE POINT ENERGY      -737.141180641485
Dispersion correction            ... done

DIPOLE MOMENT
-------------
                                X             Y             Z
Electronic contribution:     54.90483      48.03448       1.13911
Nuclear contribution   :    -55.03622     -48.28636      -1.15768
                        -----------------------------------------
Total Dipole Moment    :     -0.13139      -0.25187      -0.01857
                        -----------------------------------------
Magnitude (a.u.)       :      0.28469
Magnitude (Debye)      :      0.72363

Rotational constants in cm-1:     0.028055     0.020447     0.015268
Rotational constants in MHz :   841.077376   612.983618   457.721432

                             ****ORCA TERMINATED NORMALLY****
TOTAL RUN TIME: 0 days 0 hours 4 minutes 2 seconds 943 msec
