                         Program Version 5.0.3 -  RELEASE  -
|  1> ! EnGrad PBEh-3c
|  2> %output
|  3> xyzfile=True
|  4> end
|  5> %scf
|  6> maxiter 250
|  7> end
|  8> %output
|  9> Print[P_Hirshfeld] = 1
| 10> end
| 11> % maxcore
| 12> 4000
| 13> *xyz 0 1
| 14> C   -1.89742155   0.14419838  -0.13650857
| 15> C   -1.59073738  -0.61423549  -1.27564453
| 16> C   -0.81549555  -1.75581629  -1.16056866
| 17> C   -0.31028505  -2.12313635   0.07542337
| 18> C   -1.45246700  -0.18021824   1.20855555
| 19> C   -0.60252912  -1.35647821   1.21326098
| 20> H   -2.52224235   1.01450435  -0.26672271
| 21> H   -1.98629538  -0.32978772  -2.24192517
| 22> H   -0.61840678  -2.36261371  -2.02842173
| 23> H   -0.17312759  -1.66241145   2.15592486
| 24> H    0.29387046  -3.01515245   0.16372218
| 25> Pd   1.41800497   1.25147846   0.04461299
| 26> O    2.28323149   0.64778446  -1.72864142
| 27> O    2.60323129  -0.41511532   0.11627038
| 28> O    0.31261428   2.93781446  -0.09529072
| 29> C    0.17954993   2.96668063   1.17266100
| 30> O    0.73301638   2.08058616   1.83928190
| 31> H   -1.71884558   0.34886095   2.06443988
| 32> C    2.82615785  -0.31195414  -1.11662234
| 33> H    3.46640955  -1.02923534  -1.63880466
| 34> H   -0.43018966   3.76249146   1.63600347
| 35> *
| 36>
| 37>                          ****END OF INPUT****

CARTESIAN COORDINATES (ANGSTROEM)
---------------------------------
  C     -1.897422    0.144198   -0.136509
  C     -1.590737   -0.614235   -1.275645
  C     -0.815496   -1.755816   -1.160569
  C     -0.310285   -2.123136    0.075423
  C     -1.452467   -0.180218    1.208556
  C     -0.602529   -1.356478    1.213261
  H     -2.522242    1.014504   -0.266723
  H     -1.986295   -0.329788   -2.241925
  H     -0.618407   -2.362614   -2.028422
  H     -0.173128   -1.662411    2.155925
  H      0.293870   -3.015152    0.163722
  Pd     1.418005    1.251478    0.044613
  O      2.283231    0.647784   -1.728641
  O      2.603231   -0.415115    0.116270
  O      0.312614    2.937814   -0.095291
  C      0.179550    2.966681    1.172661
  O      0.733016    2.080586    1.839282
  H     -1.718846    0.348861    2.064440
  C      2.826158   -0.311954   -1.116622
  H      3.466410   -1.029235   -1.638805
  H     -0.430190    3.762491    1.636003

 Total Charge           Charge          ....    0
 Multiplicity           Mult            ....    1
 Number of Electrons    NEL             ....  106
 Basis Dimension        Dim             ....  227

ORBITAL ENERGIES
----------------

  NO   OCC          E(Eh)            E(eV)
   0   2.0000     -19.535892      -531.5987
   1   2.0000     -19.533570      -531.5355
   2   2.0000     -19.533459      -531.5324
   3   2.0000     -19.533229      -531.5262
   4   2.0000     -10.595899      -288.3291
   5   2.0000     -10.594282      -288.2851
   6   2.0000     -10.464335      -284.7490
   7   2.0000     -10.459555      -284.6190
   8   2.0000     -10.458071      -284.5786
   9   2.0000     -10.452228      -284.4196
  10   2.0000     -10.451857      -284.4095
  11   2.0000     -10.450885      -284.3830
  12   2.0000      -3.693563      -100.5069
  13   2.0000      -2.346552       -63.8529
  14   2.0000      -2.335508       -63.5524
  15   2.0000      -2.300183       -62.5912
  16   2.0000      -1.241684       -33.7879
  17   2.0000      -1.233917       -33.5766
  18   2.0000      -1.121684       -30.5226
  19   2.0000      -1.117055       -30.3966
  20   2.0000      -0.948165       -25.8009
  21   2.0000      -0.836986       -22.7755
  22   2.0000      -0.832875       -22.6637
  23   2.0000      -0.707241       -19.2450
  24   2.0000      -0.695778       -18.9331
  25   2.0000      -0.687202       -18.6997
  26   2.0000      -0.676308       -18.4033
  27   2.0000      -0.601555       -16.3692
  28   2.0000      -0.593198       -16.1417
  29   2.0000      -0.585298       -15.9268
  30   2.0000      -0.577853       -15.7242
  31   2.0000      -0.555260       -15.1094
  32   2.0000      -0.543239       -14.7823
  33   2.0000      -0.537735       -14.6325
  34   2.0000      -0.528863       -14.3911
  35   2.0000      -0.506106       -13.7718
  36   2.0000      -0.491195       -13.3661
  37   2.0000      -0.476323       -12.9614
  38   2.0000      -0.454254       -12.3609
  39   2.0000      -0.426958       -11.6181
  40   2.0000      -0.423778       -11.5316
  41   2.0000      -0.415551       -11.3077
  42   2.0000      -0.410904       -11.1813
  43   2.0000      -0.394714       -10.7407
  44   2.0000      -0.389640       -10.6027
  45   2.0000      -0.387383       -10.5412
  46   2.0000      -0.380470       -10.3531
  47   2.0000      -0.373688       -10.1686
  48   2.0000      -0.357477        -9.7275
  49   2.0000      -0.336043        -9.1442
  50   2.0000      -0.326017        -8.8714
  51   2.0000      -0.291725        -7.9382
  52   2.0000      -0.291606        -7.9350
  53   0.0000      -0.084153        -2.2899
  54   0.0000       0.002965         0.0807
  55   0.0000       0.011058         0.3009
  56   0.0000       0.019414         0.5283
  57   0.0000       0.026385         0.7180

MULLIKEN ATOMIC CHARGES
-----------------------
   0 C :   -0.258183
   1 C :   -0.196310
   2 C :   -0.233403
   3 C :   -0.199101
   4 C :   -0.222005
   5 C :   -0.249300
   6 H :    0.219850
   7 H :    0.227164
   8 H :    0.223615
   9 H :    0.226137
  10 H :    0.223847
  11 Pd:    0.539688
  12 O :   -0.455452
  13 O :   -0.456844
  14 O :   -0.469095
  15 C :    0.429791
  16 O :   -0.441031
  17 H :    0.237569
  18 C :    0.436544
  19 H :    0.209520
  20 H :    0.206998
Sum of atomic charges:    0.0000000

LOEWDIN ATOMIC CHARGES
----------------------
   0 C :   -0.116984
   1 C :   -0.131025
   2 C :   -0.126806
   3 C :   -0.132482
   4 C :   -0.124802
   5 C :   -0.110323
   6 H :    0.137226
   7 H :    0.142965
   8 H :    0.137379
   9 H :    0.140471
  10 H :    0.141415
  11 Pd:   -0.140999
  12 O :   -0.141036
  13 O :   -0.138701
  14 O :   -0.147911
  15 C :    0.169532
  16 O :   -0.131768
  17 H :    0.147860
  18 C :    0.176005
  19 H :    0.125690
  20 H :    0.124295

  Mayer bond orders larger than 0.100000
B(  0-C ,  1-C ) :   1.4308 B(  0-C ,  4-C ) :   1.4024 B(  0-C ,  6-H ) :   0.9199
B(  1-C ,  2-C ) :   1.4204 B(  1-C ,  7-H ) :   0.9181 B(  2-C ,  3-C ) :   1.4212
B(  2-C ,  4-C ) :   0.1014 B(  2-C ,  8-H ) :   0.9171 B(  3-C ,  5-C ) :   1.4285
B(  3-C , 10-H ) :   0.9195 B(  4-C ,  5-C ) :   1.4168 B(  4-C , 17-H ) :   0.9141
B(  5-C ,  9-H ) :   0.9181 B( 11-Pd, 12-O ) :   0.5819 B( 11-Pd, 13-O ) :   0.5699
B( 11-Pd, 14-O ) :   0.6047 B( 11-Pd, 16-O ) :   0.5291 B( 12-O , 13-O ) :   0.1120
B( 12-O , 18-C ) :   1.4535 B( 13-O , 18-C ) :   1.4554 B( 14-O , 15-C ) :   1.4086
B( 14-O , 16-O ) :   0.1111 B( 15-C , 16-O ) :   1.5084 B( 15-C , 20-H ) :   0.8894
B( 18-C , 19-H ) :   0.8904

Dispersion correction           -0.013396494
FINAL SINGLE POINT ENERGY      -737.138751750752
Dispersion correction            ... done

DIPOLE MOMENT
-------------
                                X             Y             Z
Electronic contribution:     54.95434      48.38614       1.73940
Nuclear contribution   :    -55.10150     -48.59184      -1.72225
                        -----------------------------------------
Total Dipole Moment    :     -0.14716      -0.20570       0.01715
                        -----------------------------------------
Magnitude (a.u.)       :      0.25350
Magnitude (Debye)      :      0.64434

Rotational constants in cm-1:     0.028012     0.020392     0.015218
Rotational constants in MHz :   839.784359   611.325050   456.216935

                             ****ORCA TERMINATED NORMALLY****
TOTAL RUN TIME: 0 days 0 hours 4 minutes 6 seconds 295 msec
