                         Program Version 5.0.3 -  RELEASE  -
|  1> ! EnGrad PBEh-3c
|  2> %output
|  3> xyzfile=True
|  4> end
|  5> %scf
|  6> maxiter 250
|  7> end
|  8> %output
|  9> Print[P_Hirshfeld] = 1
| 10> end
| 11> % maxcore
| 12> 4000
| 13> *xyz 0 1
| 14> C   -1.89336870   0.14707878  -0.10844033
| 15> C   -1.59828709  -0.61675509  -1.26498410
| 16> C   -0.82870299  -1.76531806  -1.16084969
| 17> C   -0.32112509  -2.11922122   0.07919441
| 18> C   -1.43908899  -0.18768811   1.18653092
| 19> C   -0.61662106  -1.33339935   1.22099101
| 20> H   -2.51588452   1.02097965  -0.27005563
| 21> H   -1.99750424  -0.33317191  -2.24083884
| 22> H   -0.64040586  -2.37793791  -2.02925248
| 23> H   -0.16421033  -1.66116181   2.15197014
| 24> H    0.28414958  -3.02310978   0.16442550
| 25> Pd   1.42249732   1.25962003   0.05603580
| 26> O    2.28979021   0.65352151  -1.72210990
| 27> O    2.60026092  -0.41413315   0.11710136
| 28> O    0.31375900   2.93595860  -0.08973079
| 29> C    0.17468157   2.96914981   1.16391987
| 30> O    0.73394136   2.06972170   1.84051318
| 31> H   -1.69353021   0.33284887   2.02480649
| 32> C    2.83547729  -0.29989973  -1.11284902
| 33> H    3.48154186  -1.02117588  -1.63771148
| 34> H   -0.43100053   3.76158533   1.63311441
| 35> *
| 36>
| 37>                          ****END OF INPUT****

CARTESIAN COORDINATES (ANGSTROEM)
---------------------------------
  C     -1.893369    0.147079   -0.108440
  C     -1.598287   -0.616755   -1.264984
  C     -0.828703   -1.765318   -1.160850
  C     -0.321125   -2.119221    0.079194
  C     -1.439089   -0.187688    1.186531
  C     -0.616621   -1.333399    1.220991
  H     -2.515885    1.020980   -0.270056
  H     -1.997504   -0.333172   -2.240839
  H     -0.640406   -2.377938   -2.029252
  H     -0.164210   -1.661162    2.151970
  H      0.284150   -3.023110    0.164426
  Pd     1.422497    1.259620    0.056036
  O      2.289790    0.653522   -1.722110
  O      2.600261   -0.414133    0.117101
  O      0.313759    2.935959   -0.089731
  C      0.174682    2.969150    1.163920
  O      0.733941    2.069722    1.840513
  H     -1.693530    0.332849    2.024806
  C      2.835477   -0.299900   -1.112849
  H      3.481542   -1.021176   -1.637711
  H     -0.431001    3.761585    1.633114

 Total Charge           Charge          ....    0
 Multiplicity           Mult            ....    1
 Number of Electrons    NEL             ....  106
 Basis Dimension        Dim             ....  227

ORBITAL ENERGIES
----------------

  NO   OCC          E(Eh)            E(eV)
   0   2.0000     -19.538324      -531.6648
   1   2.0000     -19.535465      -531.5870
   2   2.0000     -19.532517      -531.5068
   3   2.0000     -19.531518      -531.4796
   4   2.0000     -10.598133      -288.3899
   5   2.0000     -10.593402      -288.2611
   6   2.0000     -10.456825      -284.5447
   7   2.0000     -10.455114      -284.4981
   8   2.0000     -10.453816      -284.4628
   9   2.0000     -10.453229      -284.4468
  10   2.0000     -10.452701      -284.4325
  11   2.0000     -10.450184      -284.3640
  12   2.0000      -3.693922      -100.5167
  13   2.0000      -2.346991       -63.8649
  14   2.0000      -2.335862       -63.5620
  15   2.0000      -2.300526       -62.6005
  16   2.0000      -1.242405       -33.8076
  17   2.0000      -1.234184       -33.5839
  18   2.0000      -1.123125       -30.5618
  19   2.0000      -1.116971       -30.3943
  20   2.0000      -0.950830       -25.8734
  21   2.0000      -0.843920       -22.9642
  22   2.0000      -0.828914       -22.5559
  23   2.0000      -0.707781       -19.2597
  24   2.0000      -0.695469       -18.9247
  25   2.0000      -0.685361       -18.6496
  26   2.0000      -0.678169       -18.4539
  27   2.0000      -0.602515       -16.3953
  28   2.0000      -0.593959       -16.1624
  29   2.0000      -0.585363       -15.9285
  30   2.0000      -0.578968       -15.7545
  31   2.0000      -0.555484       -15.1155
  32   2.0000      -0.544179       -14.8079
  33   2.0000      -0.534732       -14.5508
  34   2.0000      -0.529036       -14.3958
  35   2.0000      -0.507517       -13.8102
  36   2.0000      -0.494718       -13.4620
  37   2.0000      -0.471923       -12.8417
  38   2.0000      -0.455090       -12.3836
  39   2.0000      -0.427791       -11.6408
  40   2.0000      -0.425475       -11.5778
  41   2.0000      -0.415673       -11.3110
  42   2.0000      -0.406077       -11.0499
  43   2.0000      -0.395069       -10.7504
  44   2.0000      -0.394565       -10.7367
  45   2.0000      -0.387828       -10.5533
  46   2.0000      -0.380704       -10.3595
  47   2.0000      -0.373592       -10.1660
  48   2.0000      -0.358101        -9.7444
  49   2.0000      -0.336307        -9.1514
  50   2.0000      -0.326208        -8.8766
  51   2.0000      -0.296617        -8.0714
  52   2.0000      -0.288096        -7.8395
  53   0.0000      -0.083396        -2.2693
  54   0.0000       0.006173         0.1680
  55   0.0000       0.012492         0.3399
  56   0.0000       0.017651         0.4803
  57   0.0000       0.027256         0.7417

MULLIKEN ATOMIC CHARGES
-----------------------
   0 C :   -0.256023
   1 C :   -0.207758
   2 C :   -0.226814
   3 C :   -0.209945
   4 C :   -0.206829
   5 C :   -0.245912
   6 H :    0.218933
   7 H :    0.225600
   8 H :    0.223776
   9 H :    0.226184
  10 H :    0.222340
  11 Pd:    0.539609
  12 O :   -0.452785
  13 O :   -0.457679
  14 O :   -0.458218
  15 C :    0.433283
  16 O :   -0.454865
  17 H :    0.235230
  18 C :    0.434252
  19 H :    0.208127
  20 H :    0.209495
Sum of atomic charges:   -0.0000000

LOEWDIN ATOMIC CHARGES
----------------------
   0 C :   -0.118931
   1 C :   -0.127948
   2 C :   -0.131040
   3 C :   -0.128568
   4 C :   -0.125970
   5 C :   -0.110936
   6 H :    0.138117
   7 H :    0.141562
   8 H :    0.137463
   9 H :    0.141828
  10 H :    0.140214
  11 Pd:   -0.141656
  12 O :   -0.139481
  13 O :   -0.140664
  14 O :   -0.133355
  15 C :    0.174105
  16 O :   -0.143988
  17 H :    0.145572
  18 C :    0.172559
  19 H :    0.125199
  20 H :    0.125918

  Mayer bond orders larger than 0.100000
B(  0-C ,  1-C ) :   1.4257 B(  0-C ,  4-C ) :   1.4091 B(  0-C ,  6-H ) :   0.9206
B(  1-C ,  2-C ) :   1.4239 B(  1-C ,  7-H ) :   0.9185 B(  2-C ,  3-C ) :   1.4247
B(  2-C ,  8-H ) :   0.9170 B(  3-C ,  5-C ) :   1.4234 B(  3-C , 10-H ) :   0.9199
B(  4-C ,  5-C ) :   1.4247 B(  4-C , 17-H ) :   0.9156 B(  5-C ,  9-H ) :   0.9183
B( 11-Pd, 12-O ) :   0.5755 B( 11-Pd, 13-O ) :   0.5724 B( 11-Pd, 14-O ) :   0.5928
B( 11-Pd, 16-O ) :   0.5484 B( 12-O , 13-O ) :   0.1114 B( 12-O , 18-C ) :   1.4605
B( 13-O , 18-C ) :   1.4518 B( 14-O , 15-C ) :   1.4333 B( 14-O , 16-O ) :   0.1117
B( 15-C , 16-O ) :   1.4748 B( 15-C , 20-H ) :   0.8897 B( 18-C , 19-H ) :   0.8897

Dispersion correction           -0.013399112
FINAL SINGLE POINT ENERGY      -737.143093503812
Dispersion correction            ... done

DIPOLE MOMENT
-------------
                                X             Y             Z
Electronic contribution:     55.16880      48.79948       2.15942
Nuclear contribution   :    -55.32542     -48.93556      -2.16771
                        -----------------------------------------
Total Dipole Moment    :     -0.15661      -0.13608      -0.00828
                        -----------------------------------------
Magnitude (a.u.)       :      0.20764
Magnitude (Debye)      :      0.52778

Rotational constants in cm-1:     0.028147     0.020348     0.015196
Rotational constants in MHz :   843.831549   610.032375   455.568669

                             ****ORCA TERMINATED NORMALLY****
TOTAL RUN TIME: 0 days 0 hours 4 minutes 16 seconds 185 msec
