                         Program Version 5.0.3 -  RELEASE  -
|  1> ! EnGrad PBEh-3c
|  2> %output
|  3> xyzfile=True
|  4> end
|  5> %scf
|  6> maxiter 250
|  7> end
|  8> %output
|  9> Print[P_Hirshfeld] = 1
| 10> end
| 11> % maxcore
| 12> 4000
| 13> *xyz 0 1
| 14> C   -1.89163441   0.14826708  -0.09466898
| 15> C   -1.60609738  -0.61382344  -1.24853403
| 16> C   -0.83889819  -1.76932994  -1.15751332
| 17> C   -0.33202798  -2.11073302   0.08984366
| 18> C   -1.41499784  -0.22542010   1.12056492
| 19> C   -0.62340614  -1.32259189   1.22422494
| 20> H   -2.51120922   1.02542963  -0.27034339
| 21> H   -2.00451305  -0.33464112  -2.23540681
| 22> H   -0.65528867  -2.38906696  -2.03063707
| 23> H   -0.15979687  -1.65888673   2.14951737
| 24> H    0.27583385  -3.02467218   0.16685950
| 25> Pd   1.42984129   1.26340883   0.05843413
| 26> O    2.29277700   0.65865760  -1.71679914
| 27> O    2.59994011  -0.41337451   0.11976217
| 28> O    0.31455578   2.93567849  -0.08375824
| 29> C    0.17119187   2.97081908   1.15681831
| 30> O    0.73297355   2.06269149   1.84109528
| 31> H   -1.68432468   0.34106784   2.02685677
| 32> C    2.83853216  -0.29173177  -1.10900805
| 33> H    3.49141651  -1.01371133  -1.63583248
| 34> H   -0.43008472   3.75927051   1.63100596
| 35> *
| 36>
| 37>                          ****END OF INPUT****

CARTESIAN COORDINATES (ANGSTROEM)
---------------------------------
  C     -1.891634    0.148267   -0.094669
  C     -1.606097   -0.613823   -1.248534
  C     -0.838898   -1.769330   -1.157513
  C     -0.332028   -2.110733    0.089844
  C     -1.414998   -0.225420    1.120565
  C     -0.623406   -1.322592    1.224225
  H     -2.511209    1.025430   -0.270343
  H     -2.004513   -0.334641   -2.235407
  H     -0.655289   -2.389067   -2.030637
  H     -0.159797   -1.658887    2.149517
  H      0.275834   -3.024672    0.166859
  Pd     1.429841    1.263409    0.058434
  O      2.292777    0.658658   -1.716799
  O      2.599940   -0.413375    0.119762
  O      0.314556    2.935678   -0.083758
  C      0.171192    2.970819    1.156818
  O      0.732974    2.062691    1.841095
  H     -1.684325    0.341068    2.026857
  C      2.838532   -0.291732   -1.109008
  H      3.491417   -1.013711   -1.635832
  H     -0.430085    3.759271    1.631006

 Total Charge           Charge          ....    0
 Multiplicity           Mult            ....    1
 Number of Electrons    NEL             ....  106
 Basis Dimension        Dim             ....  227

ORBITAL ENERGIES
----------------

  NO   OCC          E(Eh)            E(eV)
   0   2.0000     -19.540598      -531.7267
   1   2.0000     -19.533582      -531.5358
   2   2.0000     -19.533434      -531.5318
   3   2.0000     -19.531997      -531.4927
   4   2.0000     -10.598018      -288.3867
   5   2.0000     -10.594179      -288.2823
   6   2.0000     -10.452682      -284.4319
   7   2.0000     -10.452084      -284.4157
   8   2.0000     -10.450445      -284.3711
   9   2.0000     -10.449664      -284.3498
  10   2.0000     -10.448944      -284.3302
  11   2.0000     -10.448165      -284.3090
  12   2.0000      -3.694562      -100.5341
  13   2.0000      -2.347674       -63.8835
  14   2.0000      -2.336499       -63.5794
  15   2.0000      -2.301185       -62.6184
  16   2.0000      -1.243972       -33.8502
  17   2.0000      -1.235793       -33.6276
  18   2.0000      -1.122994       -30.5582
  19   2.0000      -1.118377       -30.4326
  20   2.0000      -0.959912       -26.1205
  21   2.0000      -0.846112       -23.0239
  22   2.0000      -0.832344       -22.6492
  23   2.0000      -0.708487       -19.2789
  24   2.0000      -0.695220       -18.9179
  25   2.0000      -0.681990       -18.5579
  26   2.0000      -0.678578       -18.4651
  27   2.0000      -0.603404       -16.4195
  28   2.0000      -0.593423       -16.1479
  29   2.0000      -0.586210       -15.9516
  30   2.0000      -0.579988       -15.7823
  31   2.0000      -0.556292       -15.1375
  32   2.0000      -0.545266       -14.8374
  33   2.0000      -0.530394       -14.4327
  34   2.0000      -0.521466       -14.1898
  35   2.0000      -0.514877       -14.0105
  36   2.0000      -0.489533       -13.3209
  37   2.0000      -0.473825       -12.8934
  38   2.0000      -0.455451       -12.3935
  39   2.0000      -0.431696       -11.7470
  40   2.0000      -0.428227       -11.6527
  41   2.0000      -0.416527       -11.3343
  42   2.0000      -0.399653       -10.8751
  43   2.0000      -0.395001       -10.7485
  44   2.0000      -0.394699       -10.7403
  45   2.0000      -0.388644       -10.5756
  46   2.0000      -0.381079       -10.3697
  47   2.0000      -0.374132       -10.1806
  48   2.0000      -0.358815        -9.7638
  49   2.0000      -0.336798        -9.1647
  50   2.0000      -0.326567        -8.8863
  51   2.0000      -0.300655        -8.1812
  52   2.0000      -0.289450        -7.8763
  53   0.0000      -0.083172        -2.2632
  54   0.0000       0.007274         0.1979
  55   0.0000       0.016366         0.4453
  56   0.0000       0.020118         0.5474
  57   0.0000       0.028929         0.7872

MULLIKEN ATOMIC CHARGES
-----------------------
   0 C :   -0.223302
   1 C :   -0.228741
   2 C :   -0.219328
   3 C :   -0.230845
   4 C :   -0.227620
   5 C :   -0.213770
   6 H :    0.221764
   7 H :    0.223353
   8 H :    0.223267
   9 H :    0.229700
  10 H :    0.220012
  11 Pd:    0.537489
  12 O :   -0.451139
  13 O :   -0.457554
  14 O :   -0.449529
  15 C :    0.434037
  16 O :   -0.463620
  17 H :    0.223567
  18 C :    0.434588
  19 H :    0.207518
  20 H :    0.210154
Sum of atomic charges:   -0.0000000

LOEWDIN ATOMIC CHARGES
----------------------
   0 C :   -0.127424
   1 C :   -0.121295
   2 C :   -0.136603
   3 C :   -0.121466
   4 C :   -0.124249
   5 C :   -0.118900
   6 H :    0.141902
   7 H :    0.139129
   8 H :    0.137953
   9 H :    0.145881
  10 H :    0.137864
  11 Pd:   -0.142061
  12 O :   -0.136410
  13 O :   -0.140387
  14 O :   -0.122843
  15 C :    0.174120
  16 O :   -0.153737
  17 H :    0.145526
  18 C :    0.171639
  19 H :    0.125166
  20 H :    0.126195

  Mayer bond orders larger than 0.100000
B(  0-C ,  1-C ) :   1.4224 B(  0-C ,  4-C ) :   1.4099 B(  0-C ,  6-H ) :   0.9198
B(  1-C ,  2-C ) :   1.4273 B(  1-C ,  5-C ) :   0.1004 B(  1-C ,  7-H ) :   0.9184
B(  2-C ,  3-C ) :   1.4268 B(  2-C ,  8-H ) :   0.9180 B(  3-C ,  5-C ) :   1.4205
B(  3-C , 10-H ) :   0.9198 B(  4-C ,  5-C ) :   1.4270 B(  4-C , 17-H ) :   0.9190
B(  5-C ,  9-H ) :   0.9169 B( 11-Pd, 12-O ) :   0.5744 B( 11-Pd, 13-O ) :   0.5755
B( 11-Pd, 14-O ) :   0.5827 B( 11-Pd, 16-O ) :   0.5614 B( 12-O , 13-O ) :   0.1113
B( 12-O , 18-C ) :   1.4622 B( 13-O , 18-C ) :   1.4491 B( 14-O , 15-C ) :   1.4539
B( 14-O , 16-O ) :   0.1116 B( 15-C , 16-O ) :   1.4533 B( 15-C , 20-H ) :   0.8901
B( 18-C , 19-H ) :   0.8895

Dispersion correction           -0.013401716
FINAL SINGLE POINT ENERGY      -737.146498399046
Dispersion correction            ... done

DIPOLE MOMENT
-------------
                                X             Y             Z
Electronic contribution:     55.52264      49.01255       2.21879
Nuclear contribution   :    -55.66495     -49.12070      -2.27195
                        -----------------------------------------
Total Dipole Moment    :     -0.14231      -0.10814      -0.05316
                        -----------------------------------------
Magnitude (a.u.)       :      0.18648
Magnitude (Debye)      :      0.47399

Rotational constants in cm-1:     0.028362     0.020309     0.015199
Rotational constants in MHz :   850.259059   608.859465   455.665150

                             ****ORCA TERMINATED NORMALLY****
TOTAL RUN TIME: 0 days 0 hours 3 minutes 56 seconds 935 msec
