                         Program Version 5.0.3 -  RELEASE  -
|  1> ! EnGrad PBEh-3c
|  2> %output
|  3> xyzfile=True
|  4> end
|  5> %scf
|  6> maxiter 250
|  7> end
|  8> %output
|  9> Print[P_Hirshfeld] = 1
| 10> end
| 11> % maxcore
| 12> 4000
| 13> *xyz 0 1
| 14> C   -1.89580834   0.15108081  -0.10876892
| 15> C   -1.61475876  -0.61187913  -1.23910532
| 16> C   -0.84954780  -1.77144946  -1.15208371
| 17> C   -0.33958728  -2.10843313   0.09790764
| 18> C   -1.40726687  -0.22881239   1.10920755
| 19> C   -0.61470901  -1.33486803   1.22178177
| 20> H   -2.50557703   1.02878168  -0.26717329
| 21> H   -2.01045695  -0.33604001  -2.22614517
| 22> H   -0.67009505  -2.39838430  -2.02995065
| 23> H   -0.15787634  -1.65386254   2.14715357
| 24> H    0.26574293  -3.02255227   0.17014015
| 25> Pd   1.43758545   1.26716166   0.06081248
| 26> O    2.29429622   0.66546159  -1.71233089
| 27> O    2.60003209  -0.41212796   0.12307250
| 28> O    0.31574695   2.93636197  -0.08504204
| 29> C    0.17076772   2.96663540   1.16007197
| 30> O    0.72917835   2.06004155   1.83746248
| 31> H   -1.66786358   0.33478745   2.00523482
| 32> C    2.84295434  -0.28732416  -1.10527085
| 33> H    3.49980998  -1.00474285  -1.63292524
| 34> H   -0.42943562   3.75736106   1.62913338
| 35> *
| 36>
| 37>                          ****END OF INPUT****

CARTESIAN COORDINATES (ANGSTROEM)
---------------------------------
  C     -1.895808    0.151081   -0.108769
  C     -1.614759   -0.611879   -1.239105
  C     -0.849548   -1.771449   -1.152084
  C     -0.339587   -2.108433    0.097908
  C     -1.407267   -0.228812    1.109208
  C     -0.614709   -1.334868    1.221782
  H     -2.505577    1.028782   -0.267173
  H     -2.010457   -0.336040   -2.226145
  H     -0.670095   -2.398384   -2.029951
  H     -0.157876   -1.653863    2.147154
  H      0.265743   -3.022552    0.170140
  Pd     1.437585    1.267162    0.060812
  O      2.294296    0.665462   -1.712331
  O      2.600032   -0.412128    0.123072
  O      0.315747    2.936362   -0.085042
  C      0.170768    2.966635    1.160072
  O      0.729178    2.060042    1.837462
  H     -1.667864    0.334787    2.005235
  C      2.842954   -0.287324   -1.105271
  H      3.499810   -1.004743   -1.632925
  H     -0.429436    3.757361    1.629133

 Total Charge           Charge          ....    0
 Multiplicity           Mult            ....    1
 Number of Electrons    NEL             ....  106
 Basis Dimension        Dim             ....  227

ORBITAL ENERGIES
----------------

  NO   OCC          E(Eh)            E(eV)
   0   2.0000     -19.539164      -531.6877
   1   2.0000     -19.534337      -531.5563
   2   2.0000     -19.534175      -531.5519
   3   2.0000     -19.532749      -531.5131
   4   2.0000     -10.597612      -288.3757
   5   2.0000     -10.595116      -288.3078
   6   2.0000     -10.450665      -284.3771
   7   2.0000     -10.450165      -284.3635
   8   2.0000     -10.449668      -284.3499
   9   2.0000     -10.448351      -284.3141
  10   2.0000     -10.447647      -284.2949
  11   2.0000     -10.446016      -284.2505
  12   2.0000      -3.694491      -100.5322
  13   2.0000      -2.347654       -63.8829
  14   2.0000      -2.336439       -63.5777
  15   2.0000      -2.301117       -62.6166
  16   2.0000      -1.243967       -33.8501
  17   2.0000      -1.235603       -33.6225
  18   2.0000      -1.123533       -30.5729
  19   2.0000      -1.118419       -30.4337
  20   2.0000      -0.960961       -26.1491
  21   2.0000      -0.842809       -22.9340
  22   2.0000      -0.837040       -22.7770
  23   2.0000      -0.708779       -19.2869
  24   2.0000      -0.695776       -18.9330
  25   2.0000      -0.681179       -18.5358
  26   2.0000      -0.680488       -18.5170
  27   2.0000      -0.603618       -16.4253
  28   2.0000      -0.594800       -16.1853
  29   2.0000      -0.586376       -15.9561
  30   2.0000      -0.580368       -15.7926
  31   2.0000      -0.556541       -15.1443
  32   2.0000      -0.545436       -14.8421
  33   2.0000      -0.530385       -14.4325
  34   2.0000      -0.521471       -14.1900
  35   2.0000      -0.514848       -14.0097
  36   2.0000      -0.486531       -13.2392
  37   2.0000      -0.478839       -13.0299
  38   2.0000      -0.456025       -12.4091
  39   2.0000      -0.432061       -11.7570
  40   2.0000      -0.428637       -11.6638
  41   2.0000      -0.417044       -11.3484
  42   2.0000      -0.397425       -10.8145
  43   2.0000      -0.397201       -10.8084
  44   2.0000      -0.395025       -10.7492
  45   2.0000      -0.388571       -10.5735
  46   2.0000      -0.381314       -10.3761
  47   2.0000      -0.374386       -10.1876
  48   2.0000      -0.358916        -9.7666
  49   2.0000      -0.336622        -9.1600
  50   2.0000      -0.326477        -8.8839
  51   2.0000      -0.297314        -8.0903
  52   2.0000      -0.293102        -7.9757
  53   0.0000      -0.082278        -2.2389
  54   0.0000       0.008024         0.2183
  55   0.0000       0.017771         0.4836
  56   0.0000       0.020307         0.5526
  57   0.0000       0.027593         0.7508

MULLIKEN ATOMIC CHARGES
-----------------------
   0 C :   -0.212946
   1 C :   -0.230275
   2 C :   -0.219817
   3 C :   -0.232496
   4 C :   -0.242768
   5 C :   -0.204089
   6 H :    0.222534
   7 H :    0.221913
   8 H :    0.222731
   9 H :    0.230332
  10 H :    0.218521
  11 Pd:    0.537217
  12 O :   -0.452610
  13 O :   -0.457891
  14 O :   -0.453456
  15 C :    0.434279
  16 O :   -0.460001
  17 H :    0.224169
  18 C :    0.436136
  19 H :    0.208559
  20 H :    0.209957
Sum of atomic charges:   -0.0000000

LOEWDIN ATOMIC CHARGES
----------------------
   0 C :   -0.129578
   1 C :   -0.120535
   2 C :   -0.136115
   3 C :   -0.120865
   4 C :   -0.120948
   5 C :   -0.121449
   6 H :    0.142280
   7 H :    0.138179
   8 H :    0.138440
   9 H :    0.146128
  10 H :    0.136894
  11 Pd:   -0.142845
  12 O :   -0.137006
  13 O :   -0.140104
  14 O :   -0.127740
  15 C :    0.173217
  16 O :   -0.148075
  17 H :    0.143938
  18 C :    0.174274
  19 H :    0.125899
  20 H :    0.126011

  Mayer bond orders larger than 0.100000
B(  0-C ,  1-C ) :   1.4270 B(  0-C ,  4-C ) :   1.4119 B(  0-C ,  6-H ) :   0.9196
B(  1-C ,  2-C ) :   1.4255 B(  1-C ,  7-H ) :   0.9187 B(  2-C ,  3-C ) :   1.4242
B(  2-C ,  8-H ) :   0.9187 B(  3-C ,  5-C ) :   1.4254 B(  3-C , 10-H ) :   0.9200
B(  4-C ,  5-C ) :   1.4280 B(  4-C , 17-H ) :   0.9184 B(  5-C ,  9-H ) :   0.9169
B( 11-Pd, 12-O ) :   0.5778 B( 11-Pd, 13-O ) :   0.5744 B( 11-Pd, 14-O ) :   0.5868
B( 11-Pd, 16-O ) :   0.5573 B( 12-O , 13-O ) :   0.1115 B( 12-O , 18-C ) :   1.4574
B( 13-O , 18-C ) :   1.4498 B( 14-O , 15-C ) :   1.4460 B( 14-O , 16-O ) :   0.1116
B( 15-C , 16-O ) :   1.4614 B( 15-C , 20-H ) :   0.8904 B( 18-C , 19-H ) :   0.8894

Dispersion correction           -0.013398432
FINAL SINGLE POINT ENERGY      -737.149200769829
Dispersion correction            ... done

DIPOLE MOMENT
-------------
                                X             Y             Z
Electronic contribution:     55.91196      49.17837       2.33148
Nuclear contribution   :    -56.03092     -49.28983      -2.36820
                        -----------------------------------------
Total Dipole Moment    :     -0.11895      -0.11146      -0.03672
                        -----------------------------------------
Magnitude (a.u.)       :      0.16710
Magnitude (Debye)      :      0.42472

Rotational constants in cm-1:     0.028438     0.020236     0.015182
Rotational constants in MHz :   852.562168   606.646832   455.137810

                             ****ORCA TERMINATED NORMALLY****
TOTAL RUN TIME: 0 days 0 hours 4 minutes 6 seconds 575 msec
