                         Program Version 5.0.3 -  RELEASE  -
|  1> ! EnGrad PBEh-3c
|  2> %output
|  3> xyzfile=True
|  4> end
|  5> %scf
|  6> maxiter 250
|  7> end
|  8> %output
|  9> Print[P_Hirshfeld] = 1
| 10> end
| 11> % maxcore
| 12> 4000
| 13> *xyz 0 1
| 14> C   -1.90707732   0.15551283  -0.15417216
| 15> C   -1.63091634  -0.61327193  -1.23895546
| 16> C   -0.86879252  -1.76851520  -1.13484264
| 17> C   -0.34690894  -2.11837810   0.10308634
| 18> C   -1.39441051  -0.23746521   1.08779970
| 19> C   -0.58816573  -1.37365350   1.21177589
| 20> H   -2.49851894   1.03736427  -0.25551524
| 21> H   -2.01759654  -0.33637722  -2.19919809
| 22> H   -0.69393182  -2.40735753  -2.02172716
| 23> H   -0.15844325  -1.64235358   2.14928392
| 24> H    0.24533234  -3.00824267   0.17990745
| 25> Pd   1.45608395   1.27159564   0.05508209
| 26> O    2.29377968   0.67708982  -1.70304342
| 27> O    2.60485477  -0.40928873   0.13117535
| 28> O    0.31867797   2.94011941  -0.08878785
| 29> C    0.17123839   2.95774817   1.16605242
| 30> O    0.72042497   2.05622326   1.83122251
| 31> H   -1.64319035   0.33303973   1.98043400
| 32> C    2.84380204  -0.28287882  -1.09768041
| 33> H    3.50979313  -0.98515889  -1.62490315
| 34> H   -0.42647746   3.75196290   1.62744748
| 35> *
| 36>
| 37>                          ****END OF INPUT****

CARTESIAN COORDINATES (ANGSTROEM)
---------------------------------
  C     -1.907077    0.155513   -0.154172
  C     -1.630916   -0.613272   -1.238955
  C     -0.868793   -1.768515   -1.134843
  C     -0.346909   -2.118378    0.103086
  C     -1.394411   -0.237465    1.087800
  C     -0.588166   -1.373654    1.211776
  H     -2.498519    1.037364   -0.255515
  H     -2.017597   -0.336377   -2.199198
  H     -0.693932   -2.407358   -2.021727
  H     -0.158443   -1.642354    2.149284
  H      0.245332   -3.008243    0.179907
  Pd     1.456084    1.271596    0.055082
  O      2.293780    0.677090   -1.703043
  O      2.604855   -0.409289    0.131175
  O      0.318678    2.940119   -0.088788
  C      0.171238    2.957748    1.166052
  O      0.720425    2.056223    1.831223
  H     -1.643190    0.333040    1.980434
  C      2.843802   -0.282879   -1.097680
  H      3.509793   -0.985159   -1.624903
  H     -0.426477    3.751963    1.627447

 Total Charge           Charge          ....    0
 Multiplicity           Mult            ....    1
 Number of Electrons    NEL             ....  106
 Basis Dimension        Dim             ....  227

ORBITAL ENERGIES
----------------

  NO   OCC          E(Eh)            E(eV)
   0   2.0000     -19.537040      -531.6299
   1   2.0000     -19.535859      -531.5977
   2   2.0000     -19.534587      -531.5631
   3   2.0000     -19.534453      -531.5595
   4   2.0000     -10.597734      -288.3790
   5   2.0000     -10.595149      -288.3087
   6   2.0000     -10.451194      -284.3914
   7   2.0000     -10.449904      -284.3563
   8   2.0000     -10.445883      -284.2469
   9   2.0000     -10.444194      -284.2010
  10   2.0000     -10.443865      -284.1920
  11   2.0000     -10.443356      -284.1782
  12   2.0000      -3.694437      -100.5307
  13   2.0000      -2.347715       -63.8846
  14   2.0000      -2.336427       -63.5774
  15   2.0000      -2.301045       -62.6146
  16   2.0000      -1.244047       -33.8522
  17   2.0000      -1.236287       -33.6411
  18   2.0000      -1.123700       -30.5774
  19   2.0000      -1.119816       -30.4717
  20   2.0000      -0.961335       -26.1592
  21   2.0000      -0.847261       -23.0552
  22   2.0000      -0.834386       -22.7048
  23   2.0000      -0.709164       -19.2973
  24   2.0000      -0.697267       -18.9736
  25   2.0000      -0.684795       -18.6342
  26   2.0000      -0.679870       -18.5002
  27   2.0000      -0.604217       -16.4416
  28   2.0000      -0.597203       -16.2507
  29   2.0000      -0.587099       -15.9758
  30   2.0000      -0.581031       -15.8107
  31   2.0000      -0.557263       -15.1639
  32   2.0000      -0.545791       -14.8517
  33   2.0000      -0.531045       -14.4505
  34   2.0000      -0.524678       -14.2772
  35   2.0000      -0.513677       -13.9779
  36   2.0000      -0.490999       -13.3608
  37   2.0000      -0.478040       -13.0081
  38   2.0000      -0.456416       -12.4197
  39   2.0000      -0.431736       -11.7481
  40   2.0000      -0.429723       -11.6934
  41   2.0000      -0.417866       -11.3707
  42   2.0000      -0.400762       -10.9053
  43   2.0000      -0.396445       -10.7878
  44   2.0000      -0.394846       -10.7443
  45   2.0000      -0.388271       -10.5654
  46   2.0000      -0.381771       -10.3885
  47   2.0000      -0.375545       -10.2191
  48   2.0000      -0.359135        -9.7726
  49   2.0000      -0.336376        -9.1533
  50   2.0000      -0.326538        -8.8856
  51   2.0000      -0.300597        -8.1797
  52   2.0000      -0.289481        -7.8772
  53   0.0000      -0.080787        -2.1983
  54   0.0000       0.008052         0.2191
  55   0.0000       0.015447         0.4203
  56   0.0000       0.025112         0.6833
  57   0.0000       0.025870         0.7040

MULLIKEN ATOMIC CHARGES
-----------------------
   0 C :   -0.202769
   1 C :   -0.222231
   2 C :   -0.225859
   3 C :   -0.225641
   4 C :   -0.270014
   5 C :   -0.195075
   6 H :    0.224015
   7 H :    0.222731
   8 H :    0.217847
   9 H :    0.231248
  10 H :    0.219422
  11 Pd:    0.535643
  12 O :   -0.456164
  13 O :   -0.456931
  14 O :   -0.462465
  15 C :    0.432603
  16 O :   -0.450737
  17 H :    0.224268
  18 C :    0.441278
  19 H :    0.210673
  20 H :    0.208157
Sum of atomic charges:   -0.0000000

LOEWDIN ATOMIC CHARGES
----------------------
   0 C :   -0.130493
   1 C :   -0.122748
   2 C :   -0.132219
   3 C :   -0.123889
   4 C :   -0.114746
   5 C :   -0.123456
   6 H :    0.142051
   7 H :    0.137955
   8 H :    0.137825
   9 H :    0.145564
  10 H :    0.136670
  11 Pd:   -0.143923
  12 O :   -0.135251
  13 O :   -0.136753
  14 O :   -0.140334
  15 C :    0.168892
  16 O :   -0.138158
  17 H :    0.141148
  18 C :    0.179991
  19 H :    0.127255
  20 H :    0.124619

  Mayer bond orders larger than 0.100000
B(  0-C ,  1-C ) :   1.4372 B(  0-C ,  4-C ) :   1.4117 B(  0-C ,  6-H ) :   0.9188
B(  1-C ,  2-C ) :   1.4231 B(  1-C ,  7-H ) :   0.9182 B(  2-C ,  3-C ) :   1.4211
B(  2-C ,  4-C ) :   0.1025 B(  2-C ,  8-H ) :   0.9214 B(  3-C ,  5-C ) :   1.4356
B(  3-C , 10-H ) :   0.9195 B(  4-C ,  5-C ) :   1.4259 B(  4-C , 17-H ) :   0.9173
B(  5-C ,  9-H ) :   0.9164 B( 11-Pd, 12-O ) :   0.5899 B( 11-Pd, 13-O ) :   0.5727
B( 11-Pd, 14-O ) :   0.5941 B( 11-Pd, 16-O ) :   0.5437 B( 12-O , 13-O ) :   0.1124
B( 12-O , 18-C ) :   1.4436 B( 13-O , 18-C ) :   1.4533 B( 14-O , 15-C ) :   1.4294
B( 14-O , 16-O ) :   0.1113 B( 15-C , 16-O ) :   1.4844 B( 15-C , 20-H ) :   0.8910
B( 18-C , 19-H ) :   0.8903

Dispersion correction           -0.013383808
FINAL SINGLE POINT ENERGY      -737.149280031044
Dispersion correction            ... done

DIPOLE MOMENT
-------------
                                X             Y             Z
Electronic contribution:     56.82575      49.38484       2.13241
Nuclear contribution   :    -56.88554     -49.53409      -2.15103
                        -----------------------------------------
Total Dipole Moment    :     -0.05979      -0.14924      -0.01862
                        -----------------------------------------
Magnitude (a.u.)       :      0.16185
Magnitude (Debye)      :      0.41139

Rotational constants in cm-1:     0.028546     0.020057     0.015139
Rotational constants in MHz :   855.791077   601.296642   453.868174

                             ****ORCA TERMINATED NORMALLY****
TOTAL RUN TIME: 0 days 0 hours 4 minutes 3 seconds 289 msec
