                         Program Version 5.0.3 -  RELEASE  -
|  1> ! EnGrad PBEh-3c
|  2> %output
|  3> xyzfile=True
|  4> end
|  5> %scf
|  6> maxiter 250
|  7> end
|  8> %output
|  9> Print[P_Hirshfeld] = 1
| 10> end
| 11> % maxcore
| 12> 4000
| 13> *xyz 0 1
| 14> C   -1.90504374   0.15517351  -0.15097945
| 15> C   -1.63458379  -0.62387270  -1.25260694
| 16> C   -0.87662147  -1.77252859  -1.13349527
| 17> C   -0.34763399  -2.13242686   0.09065414
| 18> C   -1.39100620  -0.23736392   1.08460618
| 19> C   -0.58918152  -1.37006268   1.21004408
| 20> H   -2.49862374   1.04607646  -0.25135385
| 21> H   -2.02364611  -0.33573452  -2.19437734
| 22> H   -0.70666512  -2.40657417  -2.01090874
| 23> H   -0.15594979  -1.63929568   2.15554714
| 24> H    0.23991181  -3.00850601   0.18368028
| 25> Pd   1.46183055   1.27548463   0.05411457
| 26> O    2.29502162   0.68047156  -1.69819356
| 27> O    2.60823377  -0.40765483   0.13377769
| 28> O    0.32086430   2.94196987  -0.08955832
| 29> C    0.17112286   2.95557967   1.16335695
| 30> O    0.71830276   2.05141231   1.83086857
| 31> H   -1.63059063   0.33164465   1.96708853
| 32> C    2.84424533  -0.28024277  -1.09467454
| 33> H    3.51377701  -0.97537874  -1.62077698
| 34> H   -0.42591713   3.74984441   1.62802540
| 35> *
| 36>
| 37>                          ****END OF INPUT****

CARTESIAN COORDINATES (ANGSTROEM)
---------------------------------
  C     -1.905044    0.155174   -0.150979
  C     -1.634584   -0.623873   -1.252607
  C     -0.876621   -1.772529   -1.133495
  C     -0.347634   -2.132427    0.090654
  C     -1.391006   -0.237364    1.084606
  C     -0.589182   -1.370063    1.210044
  H     -2.498624    1.046076   -0.251354
  H     -2.023646   -0.335735   -2.194377
  H     -0.706665   -2.406574   -2.010909
  H     -0.155950   -1.639296    2.155547
  H      0.239912   -3.008506    0.183680
  Pd     1.461831    1.275485    0.054115
  O      2.295022    0.680472   -1.698194
  O      2.608234   -0.407655    0.133778
  O      0.320864    2.941970   -0.089558
  C      0.171123    2.955580    1.163357
  O      0.718303    2.051412    1.830869
  H     -1.630591    0.331645    1.967089
  C      2.844245   -0.280243   -1.094675
  H      3.513777   -0.975379   -1.620777
  H     -0.425917    3.749844    1.628025

 Total Charge           Charge          ....    0
 Multiplicity           Mult            ....    1
 Number of Electrons    NEL             ....  106
 Basis Dimension        Dim             ....  227

ORBITAL ENERGIES
----------------

  NO   OCC          E(Eh)            E(eV)
   0   2.0000     -19.537498      -531.6423
   1   2.0000     -19.536098      -531.6042
   2   2.0000     -19.534967      -531.5735
   3   2.0000     -19.534155      -531.5514
   4   2.0000     -10.597658      -288.3769
   5   2.0000     -10.595254      -288.3115
   6   2.0000     -10.448690      -284.3233
   7   2.0000     -10.447837      -284.3001
   8   2.0000     -10.447494      -284.2908
   9   2.0000     -10.445717      -284.2424
  10   2.0000     -10.443881      -284.1925
  11   2.0000     -10.443516      -284.1825
  12   2.0000      -3.694511      -100.5327
  13   2.0000      -2.347862       -63.8886
  14   2.0000      -2.336513       -63.5798
  15   2.0000      -2.301100       -62.6161
  16   2.0000      -1.244429       -33.8626
  17   2.0000      -1.236534       -33.6478
  18   2.0000      -1.124264       -30.5928
  19   2.0000      -1.120305       -30.4851
  20   2.0000      -0.959916       -26.1206
  21   2.0000      -0.843636       -22.9565
  22   2.0000      -0.837195       -22.7812
  23   2.0000      -0.709486       -19.3061
  24   2.0000      -0.697481       -18.9794
  25   2.0000      -0.683265       -18.5926
  26   2.0000      -0.682161       -18.5625
  27   2.0000      -0.604715       -16.4551
  28   2.0000      -0.597584       -16.2611
  29   2.0000      -0.587343       -15.9824
  30   2.0000      -0.581452       -15.8221
  31   2.0000      -0.557502       -15.1704
  32   2.0000      -0.546205       -14.8630
  33   2.0000      -0.531349       -14.4587
  34   2.0000      -0.526886       -14.3373
  35   2.0000      -0.512983       -13.9590
  36   2.0000      -0.488787       -13.3006
  37   2.0000      -0.480452       -13.0738
  38   2.0000      -0.456406       -12.4195
  39   2.0000      -0.431249       -11.7349
  40   2.0000      -0.429904       -11.6983
  41   2.0000      -0.417963       -11.3733
  42   2.0000      -0.401707       -10.9310
  43   2.0000      -0.397374       -10.8131
  44   2.0000      -0.394739       -10.7414
  45   2.0000      -0.388248       -10.5648
  46   2.0000      -0.382005       -10.3949
  47   2.0000      -0.376007       -10.2317
  48   2.0000      -0.359305        -9.7772
  49   2.0000      -0.336394        -9.1538
  50   2.0000      -0.326736        -8.8909
  51   2.0000      -0.297008        -8.0820
  52   2.0000      -0.291710        -7.9378
  53   0.0000      -0.080280        -2.1845
  54   0.0000       0.008105         0.2205
  55   0.0000       0.017397         0.4734
  56   0.0000       0.022109         0.6016
  57   0.0000       0.026074         0.7095

MULLIKEN ATOMIC CHARGES
-----------------------
   0 C :   -0.214014
   1 C :   -0.217786
   2 C :   -0.227222
   3 C :   -0.221614
   4 C :   -0.257324
   5 C :   -0.206230
   6 H :    0.223114
   7 H :    0.224993
   8 H :    0.216217
   9 H :    0.230550
  10 H :    0.221857
  11 Pd:    0.534887
  12 O :   -0.456687
  13 O :   -0.456303
  14 O :   -0.461073
  15 C :    0.432947
  16 O :   -0.452479
  17 H :    0.225459
  18 C :    0.442238
  19 H :    0.210618
  20 H :    0.207853
Sum of atomic charges:    0.0000000

LOEWDIN ATOMIC CHARGES
----------------------
   0 C :   -0.127751
   1 C :   -0.123570
   2 C :   -0.131995
   3 C :   -0.124914
   4 C :   -0.119131
   5 C :   -0.120464
   6 H :    0.141493
   7 H :    0.138519
   8 H :    0.136784
   9 H :    0.145124
  10 H :    0.137348
  11 Pd:   -0.144230
  12 O :   -0.133776
  13 O :   -0.135938
  14 O :   -0.138910
  15 C :    0.169114
  16 O :   -0.140267
  17 H :    0.141213
  18 C :    0.179757
  19 H :    0.127118
  20 H :    0.124476

  Mayer bond orders larger than 0.100000
B(  0-C ,  1-C ) :   1.4332 B(  0-C ,  4-C ) :   1.4157 B(  0-C ,  6-H ) :   0.9189
B(  1-C ,  2-C ) :   1.4262 B(  1-C ,  7-H ) :   0.9177 B(  2-C ,  3-C ) :   1.4249
B(  2-C ,  8-H ) :   0.9223 B(  3-C ,  5-C ) :   1.4311 B(  3-C , 10-H ) :   0.9190
B(  4-C ,  5-C ) :   1.4308 B(  4-C , 17-H ) :   0.9167 B(  5-C ,  9-H ) :   0.9165
B( 11-Pd, 12-O ) :   0.5922 B( 11-Pd, 13-O ) :   0.5725 B( 11-Pd, 14-O ) :   0.5919
B( 11-Pd, 16-O ) :   0.5452 B( 12-O , 13-O ) :   0.1125 B( 12-O , 18-C ) :   1.4415
B( 13-O , 18-C ) :   1.4550 B( 14-O , 15-C ) :   1.4330 B( 14-O , 16-O ) :   0.1115
B( 15-C , 16-O ) :   1.4804 B( 15-C , 20-H ) :   0.8910 B( 18-C , 19-H ) :   0.8909

Dispersion correction           -0.013373932
FINAL SINGLE POINT ENERGY      -737.151094098800
Dispersion correction            ... done

DIPOLE MOMENT
-------------
                                X             Y             Z
Electronic contribution:     57.09548      49.59179       2.10088
Nuclear contribution   :    -57.14466     -49.73843      -2.12993
                        -----------------------------------------
Total Dipole Moment    :     -0.04919      -0.14665      -0.02906
                        -----------------------------------------
Magnitude (a.u.)       :      0.15738
Magnitude (Debye)      :      0.40003

Rotational constants in cm-1:     0.028579     0.019980     0.015105
Rotational constants in MHz :   856.765726   598.972697   452.821804

                             ****ORCA TERMINATED NORMALLY****
TOTAL RUN TIME: 0 days 0 hours 4 minutes 0 seconds 255 msec
