                         Program Version 5.0.3 -  RELEASE  -
|  1> ! EnGrad PBEh-3c
|  2> %output
|  3> xyzfile=True
|  4> end
|  5> %scf
|  6> maxiter 250
|  7> end
|  8> %output
|  9> Print[P_Hirshfeld] = 1
| 10> end
| 11> % maxcore
| 12> 4000
| 13> *xyz 0 1
| 14> C   -1.89992770   0.15055337  -0.14723590
| 15> C   -1.63673848  -0.63367497  -1.26133276
| 16> C   -0.88204247  -1.78113892  -1.13934258
| 17> C   -0.35048997  -2.14196176   0.07984944
| 18> C   -1.38959689  -0.23632717   1.08434910
| 19> C   -0.59200112  -1.36497477   1.20371909
| 20> H   -2.50028160   1.05532788  -0.24593228
| 21> H   -2.03246843  -0.33273153  -2.20020664
| 22> H   -0.71769527  -2.40174019  -1.99682353
| 23> H   -0.15464449  -1.63639568   2.16417460
| 24> H    0.24173524  -3.01749439   0.18714271
| 25> Pd   1.46594228   1.27981973   0.05283905
| 26> O    2.29543847   0.68195457  -1.69392653
| 27> O    2.61350858  -0.40540797   0.13663226
| 28> O    0.32417747   2.94477737  -0.09102736
| 29> C    0.17127327   2.95442684   1.15880466
| 30> O    0.71699983   2.04551076   1.83066909
| 31> H   -1.62036806   0.33493351   1.96075705
| 32> C    2.84292444  -0.27826403  -1.09164442
| 33> H    3.51536825  -0.96562135  -1.61639814
| 34> H   -0.42511559   3.74703078   1.62997056
| 35> *
| 36>
| 37>                          ****END OF INPUT****

CARTESIAN COORDINATES (ANGSTROEM)
---------------------------------
  C     -1.899928    0.150553   -0.147236
  C     -1.636738   -0.633675   -1.261333
  C     -0.882042   -1.781139   -1.139343
  C     -0.350490   -2.141962    0.079849
  C     -1.389597   -0.236327    1.084349
  C     -0.592001   -1.364975    1.203719
  H     -2.500282    1.055328   -0.245932
  H     -2.032468   -0.332732   -2.200207
  H     -0.717695   -2.401740   -1.996824
  H     -0.154644   -1.636396    2.164175
  H      0.241735   -3.017494    0.187143
  Pd     1.465942    1.279820    0.052839
  O      2.295438    0.681955   -1.693927
  O      2.613509   -0.405408    0.136632
  O      0.324177    2.944777   -0.091027
  C      0.171273    2.954427    1.158805
  O      0.717000    2.045511    1.830669
  H     -1.620368    0.334934    1.960757
  C      2.842924   -0.278264   -1.091644
  H      3.515368   -0.965621   -1.616398
  H     -0.425116    3.747031    1.629971

 Total Charge           Charge          ....    0
 Multiplicity           Mult            ....    1
 Number of Electrons    NEL             ....  106
 Basis Dimension        Dim             ....  227

ORBITAL ENERGIES
----------------

  NO   OCC          E(Eh)            E(eV)
   0   2.0000     -19.537662      -531.6468
   1   2.0000     -19.536248      -531.6083
   2   2.0000     -19.535968      -531.6007
   3   2.0000     -19.533977      -531.5465
   4   2.0000     -10.597035      -288.3600
   5   2.0000     -10.595949      -288.3304
   6   2.0000     -10.449269      -284.3391
   7   2.0000     -10.447529      -284.2917
   8   2.0000     -10.446611      -284.2667
   9   2.0000     -10.445760      -284.2436
  10   2.0000     -10.445104      -284.2257
  11   2.0000     -10.444684      -284.2143
  12   2.0000      -3.694688      -100.5376
  13   2.0000      -2.348116       -63.8955
  14   2.0000      -2.336696       -63.5847
  15   2.0000      -2.301262       -62.6205
  16   2.0000      -1.244947       -33.8767
  17   2.0000      -1.236628       -33.6503
  18   2.0000      -1.124991       -30.6126
  19   2.0000      -1.120821       -30.4991
  20   2.0000      -0.959347       -26.1052
  21   2.0000      -0.840358       -22.8673
  22   2.0000      -0.839761       -22.8511
  23   2.0000      -0.709896       -19.3173
  24   2.0000      -0.697755       -18.9869
  25   2.0000      -0.682773       -18.5792
  26   2.0000      -0.681936       -18.5564
  27   2.0000      -0.605277       -16.4704
  28   2.0000      -0.597223       -16.2513
  29   2.0000      -0.587694       -15.9920
  30   2.0000      -0.581830       -15.8324
  31   2.0000      -0.557784       -15.1781
  32   2.0000      -0.546696       -14.8763
  33   2.0000      -0.531672       -14.4675
  34   2.0000      -0.526360       -14.3230
  35   2.0000      -0.512901       -13.9567
  36   2.0000      -0.484735       -13.1903
  37   2.0000      -0.483848       -13.1662
  38   2.0000      -0.456304       -12.4167
  39   2.0000      -0.431743       -11.7483
  40   2.0000      -0.429951       -11.6996
  41   2.0000      -0.418179       -11.3792
  42   2.0000      -0.402315       -10.9475
  43   2.0000      -0.396631       -10.7929
  44   2.0000      -0.394601       -10.7376
  45   2.0000      -0.388279       -10.5656
  46   2.0000      -0.382379       -10.4051
  47   2.0000      -0.376567       -10.2469
  48   2.0000      -0.359620        -9.7858
  49   2.0000      -0.336511        -9.1569
  50   2.0000      -0.327022        -8.8987
  51   2.0000      -0.294571        -8.0157
  52   2.0000      -0.293694        -7.9918
  53   0.0000      -0.079930        -2.1750
  54   0.0000       0.007893         0.2148
  55   0.0000       0.018025         0.4905
  56   0.0000       0.020834         0.5669
  57   0.0000       0.026488         0.7208

MULLIKEN ATOMIC CHARGES
-----------------------
   0 C :   -0.222299
   1 C :   -0.218094
   2 C :   -0.224031
   3 C :   -0.222120
   4 C :   -0.243903
   5 C :   -0.214412
   6 H :    0.221342
   7 H :    0.224988
   8 H :    0.218289
   9 H :    0.229063
  10 H :    0.222021
  11 Pd:    0.533858
  12 O :   -0.456861
  13 O :   -0.455368
  14 O :   -0.458452
  15 C :    0.433853
  16 O :   -0.455897
  17 H :    0.227247
  18 C :    0.442815
  19 H :    0.210001
  20 H :    0.207959
Sum of atomic charges:    0.0000000

LOEWDIN ATOMIC CHARGES
----------------------
   0 C :   -0.126132
   1 C :   -0.123540
   2 C :   -0.133216
   3 C :   -0.125031
   4 C :   -0.122788
   5 C :   -0.118523
   6 H :    0.140923
   7 H :    0.138963
   8 H :    0.136663
   9 H :    0.144819
  10 H :    0.137870
  11 Pd:   -0.144682
  12 O :   -0.132108
  13 O :   -0.135205
  14 O :   -0.135748
  15 C :    0.170625
  16 O :   -0.144287
  17 H :    0.141894
  18 C :    0.178329
  19 H :    0.126561
  20 H :    0.124613

  Mayer bond orders larger than 0.100000
B(  0-C ,  1-C ) :   1.4294 B(  0-C ,  4-C ) :   1.4172 B(  0-C ,  6-H ) :   0.9193
B(  1-C ,  2-C ) :   1.4278 B(  1-C ,  7-H ) :   0.9182 B(  2-C ,  3-C ) :   1.4272
B(  2-C ,  8-H ) :   0.9215 B(  3-C ,  5-C ) :   1.4267 B(  3-C , 10-H ) :   0.9194
B(  4-C ,  5-C ) :   1.4330 B(  4-C , 17-H ) :   0.9156 B(  5-C ,  9-H ) :   0.9168
B( 11-Pd, 12-O ) :   0.5937 B( 11-Pd, 13-O ) :   0.5724 B( 11-Pd, 14-O ) :   0.5885
B( 11-Pd, 16-O ) :   0.5491 B( 12-O , 13-O ) :   0.1126 B( 12-O , 18-C ) :   1.4407
B( 13-O , 18-C ) :   1.4572 B( 14-O , 15-C ) :   1.4392 B( 14-O , 16-O ) :   0.1118
B( 15-C , 16-O ) :   1.4723 B( 15-C , 20-H ) :   0.8909 B( 18-C , 19-H ) :   0.8918

Dispersion correction           -0.013359438
FINAL SINGLE POINT ENERGY      -737.151789023701
Dispersion correction            ... done

DIPOLE MOMENT
-------------
                                X             Y             Z
Electronic contribution:     57.27635      49.83086       2.06061
Nuclear contribution   :    -57.32445     -49.96678      -2.10236
                        -----------------------------------------
Total Dipole Moment    :     -0.04810      -0.13592      -0.04175
                        -----------------------------------------
Magnitude (a.u.)       :      0.15010
Magnitude (Debye)      :      0.38153

Rotational constants in cm-1:     0.028619     0.019909     0.015072
Rotational constants in MHz :   857.972635   596.867332   451.834795

                             ****ORCA TERMINATED NORMALLY****
TOTAL RUN TIME: 0 days 0 hours 4 minutes 5 seconds 169 msec
