                         Program Version 5.0.3 -  RELEASE  -
|  1> ! EnGrad PBEh-3c
|  2> %output
|  3> xyzfile=True
|  4> end
|  5> %scf
|  6> maxiter 250
|  7> end
|  8> %output
|  9> Print[P_Hirshfeld] = 1
| 10> end
| 11> % maxcore
| 12> 4000
| 13> *xyz 1 1
| 14> Sc   1.26990857  -0.85302440  -1.80438586
| 15> C    0.29335050  -0.50603186   0.20807021
| 16> N   -0.46243797  -1.34635485   0.93820668
| 17> C   -0.72463032  -0.82037806   2.17314774
| 18> C   -0.07956633   0.36964934   2.22514214
| 19> N    0.52940505   0.55054428   1.01567118
| 20> C    1.37170079   1.69657600   0.72190289
| 21> H    1.31387878   2.50237413   1.45083794
| 22> H    1.07745887   2.13875425  -0.22604748
| 23> H    2.41480743   1.39110549   0.65932581
| 24> C   -0.95777175  -2.65447120   0.53631089
| 25> H   -0.66662030  -2.86880130  -0.48921896
| 26> H   -2.04310974  -2.67633841   0.60052540
| 27> H   -0.54142956  -3.43141605   1.17459595
| 28> H   -1.31466265  -1.31999477   2.92372204
| 29> H   -0.02267666   1.05511068   3.05377395
| 30> C   -0.05733475   1.59451909  -2.92700552
| 31> H   -0.70169738   1.66527012  -3.81262965
| 32> H    0.62139530   2.45063227  -3.03100755
| 33> H   -0.71584102   1.79786412  -2.07655946
| 34> H   -0.60410127  -0.73558001  -3.31438278
| 35> *
| 36>
| 37>                          ****END OF INPUT****

CARTESIAN COORDINATES (ANGSTROEM)
---------------------------------
  Sc     1.269909   -0.853024   -1.804386
  C      0.293351   -0.506032    0.208070
  N     -0.462438   -1.346355    0.938207
  C     -0.724630   -0.820378    2.173148
  C     -0.079566    0.369649    2.225142
  N      0.529405    0.550544    1.015671
  C      1.371701    1.696576    0.721903
  H      1.313879    2.502374    1.450838
  H      1.077459    2.138754   -0.226047
  H      2.414807    1.391105    0.659326
  C     -0.957772   -2.654471    0.536311
  H     -0.666620   -2.868801   -0.489219
  H     -2.043110   -2.676338    0.600525
  H     -0.541430   -3.431416    1.174596
  H     -1.314663   -1.319995    2.923722
  H     -0.022677    1.055111    3.053774
  C     -0.057335    1.594519   -2.927006
  H     -0.701697    1.665270   -3.812630
  H      0.621395    2.450632   -3.031008
  H     -0.715841    1.797864   -2.076559
  H     -0.604101   -0.735580   -3.314383

 Total Charge           Charge          ....    1
 Multiplicity           Mult            ....    1
 Number of Electrons    NEL             ....   82
 Basis Dimension        Dim             ....  175

ORBITAL ENERGIES
----------------

  NO   OCC          E(Eh)            E(eV)
   0   2.0000    -162.888318     -4432.4165
   1   2.0000     -18.190483      -494.9882
   2   2.0000     -15.032056      -409.0430
   3   2.0000     -15.023881      -408.8206
   4   2.0000     -15.023058      -408.7982
   5   2.0000     -14.874477      -404.7551
   6   2.0000     -14.873436      -404.7268
   7   2.0000     -10.651961      -289.8546
   8   2.0000     -10.634839      -289.3887
   9   2.0000     -10.632460      -289.3239
  10   2.0000     -10.632213      -289.3172
  11   2.0000     -10.627778      -289.1966
  12   2.0000     -10.523657      -286.3633
  13   2.0000      -2.402784       -65.3831
  14   2.0000      -1.557558       -42.3833
  15   2.0000      -1.543903       -42.0117
  16   2.0000      -1.535935       -41.7949
  17   2.0000      -1.319757       -35.9124
  18   2.0000      -1.197957       -32.5981
  19   2.0000      -1.031691       -28.0737
  20   2.0000      -0.990419       -26.9507
  21   2.0000      -0.935719       -25.4622
  22   2.0000      -0.851659       -23.1748
  23   2.0000      -0.821978       -22.3672
  24   2.0000      -0.813685       -22.1415
  25   2.0000      -0.760572       -20.6962
  26   2.0000      -0.711597       -19.3635
  27   2.0000      -0.683613       -18.6021
  28   2.0000      -0.668639       -18.1946
  29   2.0000      -0.665609       -18.1121
  30   2.0000      -0.657204       -17.8834
  31   2.0000      -0.611106       -16.6290
  32   2.0000      -0.603856       -16.4318
  33   2.0000      -0.598687       -16.2911
  34   2.0000      -0.529371       -14.4049
  35   2.0000      -0.518108       -14.0984
  36   2.0000      -0.510192       -13.8830
  37   2.0000      -0.495761       -13.4904
  38   2.0000      -0.441762       -12.0209
  39   2.0000      -0.392975       -10.6934
  40   2.0000      -0.322817        -8.7843
  41   0.0000      -0.198340        -5.3971
  42   0.0000      -0.181511        -4.9392
  43   0.0000      -0.174617        -4.7516
  44   0.0000      -0.169883        -4.6228
  45   0.0000      -0.153672        -4.1816

MULLIKEN ATOMIC CHARGES
-----------------------
   0 Sc:    0.794899
   1 C :    0.208142
   2 N :   -0.420230
   3 C :   -0.068079
   4 C :   -0.059000
   5 N :   -0.419942
   6 C :   -0.554394
   7 H :    0.293867
   8 H :    0.300874
   9 H :    0.248837
  10 C :   -0.519916
  11 H :    0.246239
  12 H :    0.293667
  13 H :    0.275381
  14 H :    0.307817
  15 H :    0.307921
  16 C :   -0.835565
  17 H :    0.247581
  18 H :    0.203700
  19 H :    0.198823
  20 H :   -0.050622
Sum of atomic charges:    1.0000000

LOEWDIN ATOMIC CHARGES
----------------------
   0 Sc:    0.553784
   1 C :   -0.027458
   2 N :    0.008137
   3 C :   -0.083979
   4 C :   -0.074089
   5 N :    0.007331
   6 C :   -0.246331
   7 H :    0.165513
   8 H :    0.165746
   9 H :    0.140559
  10 C :   -0.230531
  11 H :    0.145925
  12 H :    0.163241
  13 H :    0.152777
  14 H :    0.170665
  15 H :    0.170015
  16 C :   -0.541978
  17 H :    0.140152
  18 H :    0.118259
  19 H :    0.116328
  20 H :   -0.014066

  Mayer bond orders larger than 0.100000
B(  0-Sc,  1-C ) :   0.6487 B(  0-Sc, 16-C ) :   0.8888 B(  0-Sc, 20-H ) :   0.9185
B(  1-C ,  2-N ) :   1.2322 B(  1-C ,  5-N ) :   1.2246 B(  2-N ,  3-C ) :   1.1555
B(  2-N , 10-C ) :   0.9113 B(  3-C ,  4-C ) :   1.6283 B(  3-C , 14-H ) :   0.8755
B(  4-C ,  5-N ) :   1.1530 B(  4-C , 15-H ) :   0.8758 B(  5-N ,  6-C ) :   0.9037
B(  6-C ,  7-H ) :   0.8989 B(  6-C ,  8-H ) :   0.8757 B(  6-C ,  9-H ) :   0.9034
B( 10-C , 11-H ) :   0.9083 B( 10-C , 12-H ) :   0.8903 B( 10-C , 13-H ) :   0.8926
B( 16-C , 17-H ) :   0.9212 B( 16-C , 18-H ) :   0.9173 B( 16-C , 19-H ) :   0.9231

Dispersion correction           -0.011269276
FINAL SINGLE POINT ENERGY     -1104.332160715272
Dispersion correction            ... done

DIPOLE MOMENT
-------------
                                X             Y             Z
Electronic contribution:      9.46995      -8.32661      -2.10834
Nuclear contribution   :     -7.58982       6.97728       3.26004
                        -----------------------------------------
Total Dipole Moment    :      1.88014      -1.34933       1.15169
                        -----------------------------------------
Magnitude (a.u.)       :      2.58496
Magnitude (Debye)      :      6.57044

Rotational constants in cm-1:     0.049311     0.029249     0.021905
Rotational constants in MHz :  1478.300966   876.872281   656.710200

                             ****ORCA TERMINATED NORMALLY****
TOTAL RUN TIME: 0 days 0 hours 2 minutes 58 seconds 603 msec
