                         Program Version 5.0.3 -  RELEASE  -
|  1> ! EnGrad PBEh-3c
|  2> %output
|  3> xyzfile=True
|  4> end
|  5> %scf
|  6> maxiter 250
|  7> end
|  8> %output
|  9> Print[P_Hirshfeld] = 1
| 10> end
| 11> % maxcore
| 12> 4000
| 13> *xyz 1 1
| 14> Sc   1.17969527  -0.81950620  -1.90336116
| 15> C    0.34142331  -0.53714132   0.22635263
| 16> N   -0.47724503  -1.34395467   0.94360854
| 17> C   -0.72867857  -0.79570721   2.16023045
| 18> C   -0.11777119   0.36808088   2.21513681
| 19> N    0.52604856   0.53975228   1.04688809
| 20> C    1.40556446   1.68222259   0.65228339
| 21> H    1.36074256   2.43787902   1.46924976
| 22> H    1.05783429   2.14335334  -0.22894636
| 23> H    2.42386656   1.36347135   0.58991488
| 24> C   -0.95663098  -2.65189577   0.53338473
| 25> H   -0.65383154  -2.89233993  -0.47398642
| 26> H   -2.05052656  -2.66907174   0.56477902
| 27> H   -0.58161784  -3.42498113   1.20829355
| 28> H   -1.34889638  -1.29398676   2.90106231
| 29> H   -0.05385603   1.09681008   3.00535097
| 30> C   -0.10386284   1.62622298  -2.87022954
| 31> H   -0.76490359   1.61428171  -3.76812515
| 32> H    0.56066219   2.45280220  -3.00210001
| 33> H   -0.73687738   1.74171525  -2.03636488
| 34> H   -0.28046286  -0.63650242  -3.23472593
| 35> *
| 36>
| 37>                          ****END OF INPUT****

CARTESIAN COORDINATES (ANGSTROEM)
---------------------------------
  Sc     1.179695   -0.819506   -1.903361
  C      0.341423   -0.537141    0.226353
  N     -0.477245   -1.343955    0.943609
  C     -0.728679   -0.795707    2.160230
  C     -0.117771    0.368081    2.215137
  N      0.526049    0.539752    1.046888
  C      1.405564    1.682223    0.652283
  H      1.360743    2.437879    1.469250
  H      1.057834    2.143353   -0.228946
  H      2.423867    1.363471    0.589915
  C     -0.956631   -2.651896    0.533385
  H     -0.653832   -2.892340   -0.473986
  H     -2.050527   -2.669072    0.564779
  H     -0.581618   -3.424981    1.208294
  H     -1.348896   -1.293987    2.901062
  H     -0.053856    1.096810    3.005351
  C     -0.103863    1.626223   -2.870230
  H     -0.764904    1.614282   -3.768125
  H      0.560662    2.452802   -3.002100
  H     -0.736877    1.741715   -2.036365
  H     -0.280463   -0.636502   -3.234726

 Total Charge           Charge          ....    1
 Multiplicity           Mult            ....    1
 Number of Electrons    NEL             ....   82
 Basis Dimension        Dim             ....  175

ORBITAL ENERGIES
----------------

  NO   OCC          E(Eh)            E(eV)
   0   2.0000    -162.880821     -4432.2125
   1   2.0000     -18.184867      -494.8354
   2   2.0000     -15.026182      -408.8832
   3   2.0000     -15.018938      -408.6861
   4   2.0000     -15.016815      -408.6283
   5   2.0000     -14.869750      -404.6265
   6   2.0000     -14.865996      -404.5243
   7   2.0000     -10.649028      -289.7748
   8   2.0000     -10.631456      -289.2966
   9   2.0000     -10.627148      -289.1794
  10   2.0000     -10.626032      -289.1490
  11   2.0000     -10.624603      -289.1101
  12   2.0000     -10.518793      -286.2309
  13   2.0000      -2.397516       -65.2397
  14   2.0000      -1.552448       -42.2442
  15   2.0000      -1.539210       -41.8840
  16   2.0000      -1.530201       -41.6389
  17   2.0000      -1.317198       -35.8428
  18   2.0000      -1.189712       -32.3737
  19   2.0000      -1.033119       -28.1126
  20   2.0000      -0.982485       -26.7348
  21   2.0000      -0.936854       -25.4931
  22   2.0000      -0.842781       -22.9332
  23   2.0000      -0.827971       -22.5302
  24   2.0000      -0.815276       -22.1848
  25   2.0000      -0.757167       -20.6036
  26   2.0000      -0.708377       -19.2759
  27   2.0000      -0.674273       -18.3479
  28   2.0000      -0.665373       -18.1057
  29   2.0000      -0.662380       -18.0243
  30   2.0000      -0.649741       -17.6803
  31   2.0000      -0.613691       -16.6994
  32   2.0000      -0.603454       -16.4208
  33   2.0000      -0.599015       -16.3000
  34   2.0000      -0.540084       -14.6964
  35   2.0000      -0.524599       -14.2751
  36   2.0000      -0.513988       -13.9863
  37   2.0000      -0.495174       -13.4744
  38   2.0000      -0.440283       -11.9807
  39   2.0000      -0.421368       -11.4660
  40   2.0000      -0.328313        -8.9339
  41   0.0000      -0.193152        -5.2559
  42   0.0000      -0.178090        -4.8461
  43   0.0000      -0.166114        -4.5202
  44   0.0000      -0.159681        -4.3451
  45   0.0000      -0.150345        -4.0911

MULLIKEN ATOMIC CHARGES
-----------------------
   0 Sc:    0.738209
   1 C :    0.191358
   2 N :   -0.414954
   3 C :   -0.064129
   4 C :   -0.051938
   5 N :   -0.431768
   6 C :   -0.535681
   7 H :    0.276159
   8 H :    0.308938
   9 H :    0.255705
  10 C :   -0.519553
  11 H :    0.240213
  12 H :    0.289282
  13 H :    0.276490
  14 H :    0.301685
  15 H :    0.301408
  16 C :   -0.842433
  17 H :    0.239563
  18 H :    0.215654
  19 H :    0.212963
  20 H :    0.012828
Sum of atomic charges:    1.0000000

LOEWDIN ATOMIC CHARGES
----------------------
   0 Sc:    0.530372
   1 C :   -0.032172
   2 N :    0.006217
   3 C :   -0.089322
   4 C :   -0.077550
   5 N :   -0.000074
   6 C :   -0.233973
   7 H :    0.160938
   8 H :    0.164646
   9 H :    0.143563
  10 C :   -0.232219
  11 H :    0.142148
  12 H :    0.161322
  13 H :    0.153757
  14 H :    0.169327
  15 H :    0.168293
  16 C :   -0.540769
  17 H :    0.140483
  18 H :    0.123018
  19 H :    0.119813
  20 H :    0.022180

  Mayer bond orders larger than 0.100000
B(  0-Sc,  1-C ) :   0.6386 B(  0-Sc, 16-C ) :   0.9047 B(  0-Sc, 20-H ) :   0.9349
B(  1-C ,  2-N ) :   1.2338 B(  1-C ,  5-N ) :   1.2293 B(  2-N ,  3-C ) :   1.1532
B(  2-N , 10-C ) :   0.9163 B(  3-C ,  4-C ) :   1.6257 B(  3-C , 14-H ) :   0.8793
B(  4-C ,  5-N ) :   1.1631 B(  4-C , 15-H ) :   0.8802 B(  5-N ,  6-C ) :   0.8920
B(  6-C ,  7-H ) :   0.9090 B(  6-C ,  8-H ) :   0.8712 B(  6-C ,  9-H ) :   0.9027
B( 10-C , 11-H ) :   0.9115 B( 10-C , 12-H ) :   0.8915 B( 10-C , 13-H ) :   0.8933
B( 16-C , 17-H ) :   0.9272 B( 16-C , 18-H ) :   0.9194 B( 16-C , 19-H ) :   0.9167

Dispersion correction           -0.011056793
FINAL SINGLE POINT ENERGY     -1104.370148010546
Dispersion correction            ... done

DIPOLE MOMENT
-------------
                                X             Y             Z
Electronic contribution:      8.72785      -8.18594      -2.97891
Nuclear contribution   :     -7.00256       6.77037       3.83171
                        -----------------------------------------
Total Dipole Moment    :      1.72529      -1.41557       0.85280
                        -----------------------------------------
Magnitude (a.u.)       :      2.38909
Magnitude (Debye)      :      6.07257

Rotational constants in cm-1:     0.050115     0.029139     0.021754
Rotational constants in MHz :  1502.401949   873.571861   652.169696

                             ****ORCA TERMINATED NORMALLY****
TOTAL RUN TIME: 0 days 0 hours 2 minutes 54 seconds 439 msec
