                         Program Version 5.0.3 -  RELEASE  -
|  1> ! EnGrad PBEh-3c
|  2> %output
|  3> xyzfile=True
|  4> end
|  5> %scf
|  6> maxiter 250
|  7> end
|  8> %output
|  9> Print[P_Hirshfeld] = 1
| 10> end
| 11> % maxcore
| 12> 4000
| 13> *xyz 1 1
| 14> Sc   1.12267277  -0.79622225  -1.97052955
| 15> C    0.37655951  -0.56135929   0.24969153
| 16> N   -0.47568717  -1.34282733   0.93406089
| 17> C   -0.76624155  -0.80900381   2.15991582
| 18> C   -0.13395418   0.40434559   2.21747856
| 19> N    0.54754798   0.53099350   1.02757664
| 20> C    1.41488313   1.66292901   0.64283052
| 21> H    1.41005495   2.37412167   1.47198400
| 22> H    1.03352249   2.15528141  -0.24808028
| 23> H    2.44184648   1.33140612   0.51920998
| 24> C   -0.96612919  -2.65166218   0.54212434
| 25> H   -0.63696302  -2.91429251  -0.46288554
| 26> H   -2.05442814  -2.66192377   0.53139320
| 27> H   -0.61951745  -3.41784552   1.23757827
| 28> H   -1.37821054  -1.26548503   2.87687649
| 29> H   -0.08617813   1.13261811   2.96309377
| 30> C   -0.16250437   1.62052453  -2.85656220
| 31> H   -0.81906670   1.57523040  -3.71704083
| 32> H    0.51521047   2.46527650  -2.97684667
| 33> H   -0.76920797   1.69430073  -1.97849466
| 34> H    0.00713269  -0.52349221  -3.16497258
| 35> *
| 36>
| 37>                          ****END OF INPUT****

CARTESIAN COORDINATES (ANGSTROEM)
---------------------------------
  Sc     1.122673   -0.796222   -1.970530
  C      0.376560   -0.561359    0.249692
  N     -0.475687   -1.342827    0.934061
  C     -0.766242   -0.809004    2.159916
  C     -0.133954    0.404346    2.217479
  N      0.547548    0.530994    1.027577
  C      1.414883    1.662929    0.642831
  H      1.410055    2.374122    1.471984
  H      1.033522    2.155281   -0.248080
  H      2.441846    1.331406    0.519210
  C     -0.966129   -2.651662    0.542124
  H     -0.636963   -2.914293   -0.462886
  H     -2.054428   -2.661924    0.531393
  H     -0.619517   -3.417846    1.237578
  H     -1.378211   -1.265485    2.876876
  H     -0.086178    1.132618    2.963094
  C     -0.162504    1.620525   -2.856562
  H     -0.819067    1.575230   -3.717041
  H      0.515210    2.465276   -2.976847
  H     -0.769208    1.694301   -1.978495
  H      0.007133   -0.523492   -3.164973

 Total Charge           Charge          ....    1
 Multiplicity           Mult            ....    1
 Number of Electrons    NEL             ....   82
 Basis Dimension        Dim             ....  175

ORBITAL ENERGIES
----------------

  NO   OCC          E(Eh)            E(eV)
   0   2.0000    -162.858318     -4431.6001
   1   2.0000     -18.163929      -494.2656
   2   2.0000     -15.005163      -408.3112
   3   2.0000     -14.999109      -408.1465
   4   2.0000     -14.994307      -408.0158
   5   2.0000     -14.867103      -404.5544
   6   2.0000     -14.862863      -404.4391
   7   2.0000     -10.644731      -289.6578
   8   2.0000     -10.631255      -289.2912
   9   2.0000     -10.629062      -289.2315
  10   2.0000     -10.625873      -289.1447
  11   2.0000     -10.623783      -289.0878
  12   2.0000     -10.519035      -286.2375
  13   2.0000      -2.384933       -64.8973
  14   2.0000      -1.540654       -41.9233
  15   2.0000      -1.528343       -41.5883
  16   2.0000      -1.520560       -41.3765
  17   2.0000      -1.308925       -35.6177
  18   2.0000      -1.186999       -32.2999
  19   2.0000      -1.023216       -27.8431
  20   2.0000      -0.982659       -26.7395
  21   2.0000      -0.930271       -25.3140
  22   2.0000      -0.847108       -23.0510
  23   2.0000      -0.827120       -22.5071
  24   2.0000      -0.804696       -21.8969
  25   2.0000      -0.755237       -20.5510
  26   2.0000      -0.703331       -19.1386
  27   2.0000      -0.681523       -18.5452
  28   2.0000      -0.663133       -18.0448
  29   2.0000      -0.659469       -17.9451
  30   2.0000      -0.650071       -17.6893
  31   2.0000      -0.609150       -16.5758
  32   2.0000      -0.599522       -16.3138
  33   2.0000      -0.595527       -16.2051
  34   2.0000      -0.536939       -14.6109
  35   2.0000      -0.524840       -14.2816
  36   2.0000      -0.515105       -14.0167
  37   2.0000      -0.490025       -13.3343
  38   2.0000      -0.451499       -12.2859
  39   2.0000      -0.433410       -11.7937
  40   2.0000      -0.329724        -8.9723
  41   0.0000      -0.191220        -5.2034
  42   0.0000      -0.169474        -4.6116
  43   0.0000      -0.159267        -4.3339
  44   0.0000      -0.147868        -4.0237
  45   0.0000      -0.144204        -3.9240

MULLIKEN ATOMIC CHARGES
-----------------------
   0 Sc:    0.686270
   1 C :    0.202215
   2 N :   -0.415908
   3 C :   -0.069559
   4 C :   -0.063920
   5 N :   -0.428350
   6 C :   -0.530081
   7 H :    0.276662
   8 H :    0.300338
   9 H :    0.250774
  10 C :   -0.515470
  11 H :    0.226859
  12 H :    0.288498
  13 H :    0.279201
  14 H :    0.305096
  15 H :    0.302731
  16 C :   -0.844777
  17 H :    0.248040
  18 H :    0.213359
  19 H :    0.206969
  20 H :    0.081054
Sum of atomic charges:    1.0000000

LOEWDIN ATOMIC CHARGES
----------------------
   0 Sc:    0.534148
   1 C :   -0.040545
   2 N :    0.001298
   3 C :   -0.086168
   4 C :   -0.071102
   5 N :   -0.004271
   6 C :   -0.236284
   7 H :    0.158123
   8 H :    0.165000
   9 H :    0.143318
  10 C :   -0.231935
  11 H :    0.136966
  12 H :    0.159298
  13 H :    0.154798
  14 H :    0.165352
  15 H :    0.163514
  16 C :   -0.541921
  17 H :    0.139511
  18 H :    0.125644
  19 H :    0.120118
  20 H :    0.045139

  Mayer bond orders larger than 0.100000
B(  0-Sc,  1-C ) :   0.6335 B(  0-Sc, 16-C ) :   0.8897 B(  0-Sc, 20-H ) :   0.9178
B(  1-C ,  2-N ) :   1.2273 B(  1-C ,  5-N ) :   1.2357 B(  2-N ,  3-C ) :   1.1486
B(  2-N , 10-C ) :   0.9190 B(  3-C ,  4-C ) :   1.6398 B(  3-C , 14-H ) :   0.8769
B(  4-C ,  5-N ) :   1.1492 B(  4-C , 15-H ) :   0.8789 B(  5-N ,  6-C ) :   0.8972
B(  6-C ,  7-H ) :   0.9066 B(  6-C ,  8-H ) :   0.8749 B(  6-C ,  9-H ) :   0.9046
B( 10-C , 11-H ) :   0.9168 B( 10-C , 12-H ) :   0.8906 B( 10-C , 13-H ) :   0.8931
B( 16-C , 17-H ) :   0.9204 B( 16-C , 18-H ) :   0.9233 B( 16-C , 19-H ) :   0.9172

Dispersion correction           -0.011111381
FINAL SINGLE POINT ENERGY     -1104.385716379400
Dispersion correction            ... done

DIPOLE MOMENT
-------------
                                X             Y             Z
Electronic contribution:      8.08907      -8.23819      -3.66993
Nuclear contribution   :     -6.57441       6.68252       4.22806
                        -----------------------------------------
Total Dipole Moment    :      1.51466      -1.55567       0.55813
                        -----------------------------------------
Magnitude (a.u.)       :      2.24183
Magnitude (Debye)      :      5.69828

Rotational constants in cm-1:     0.050416     0.028905     0.021625
Rotational constants in MHz :  1511.445734   866.553138   648.302121

                             ****ORCA TERMINATED NORMALLY****
TOTAL RUN TIME: 0 days 0 hours 2 minutes 34 seconds 234 msec
