                         Program Version 5.0.3 -  RELEASE  -
|  1> ! EnGrad PBEh-3c
|  2> %output
|  3> xyzfile=True
|  4> end
|  5> %scf
|  6> maxiter 250
|  7> end
|  8> %output
|  9> Print[P_Hirshfeld] = 1
| 10> end
| 11> % maxcore
| 12> 4000
| 13> *xyz 1 1
| 14> Sc   1.13729259  -0.78608414  -1.96200634
| 15> C    0.38700420  -0.56804126   0.25077021
| 16> N   -0.47125373  -1.34723533   0.93664486
| 17> C   -0.76652378  -0.78349768   2.14696501
| 18> C   -0.14011783   0.38936255   2.19265653
| 19> N    0.55979698   0.52580723   1.01583733
| 20> C    1.41001504   1.65132193   0.65033006
| 21> H    1.43126118   2.35039731   1.46981745
| 22> H    1.02522485   2.15976516  -0.25368506
| 23> H    2.44764714   1.31606812   0.48729195
| 24> C   -0.97130397  -2.65368035   0.54435553
| 25> H   -0.62758149  -2.92216650  -0.45579901
| 26> H   -2.05687650  -2.65779889   0.51886829
| 27> H   -0.63463741  -3.41398043   1.24812526
| 28> H   -1.40255431  -1.26319261   2.87882850
| 29> H   -0.09961704   1.16053642   2.96296611
| 30> C   -0.18081129   1.59469322  -2.85192516
| 31> H   -0.85216798   1.56486135  -3.71026560
| 32> H    0.50018705   2.45770891  -2.96778531
| 33> H   -0.78464835   1.67492258  -1.94909553
| 34> H    0.09159042  -0.44594308  -3.15414250
| 35> *
| 36>
| 37>                          ****END OF INPUT****

CARTESIAN COORDINATES (ANGSTROEM)
---------------------------------
  Sc     1.137293   -0.786084   -1.962006
  C      0.387004   -0.568041    0.250770
  N     -0.471254   -1.347235    0.936645
  C     -0.766524   -0.783498    2.146965
  C     -0.140118    0.389363    2.192657
  N      0.559797    0.525807    1.015837
  C      1.410015    1.651322    0.650330
  H      1.431261    2.350397    1.469817
  H      1.025225    2.159765   -0.253685
  H      2.447647    1.316068    0.487292
  C     -0.971304   -2.653680    0.544356
  H     -0.627581   -2.922166   -0.455799
  H     -2.056876   -2.657799    0.518868
  H     -0.634637   -3.413980    1.248125
  H     -1.402554   -1.263193    2.878829
  H     -0.099617    1.160536    2.962966
  C     -0.180811    1.594693   -2.851925
  H     -0.852168    1.564861   -3.710266
  H      0.500187    2.457709   -2.967785
  H     -0.784648    1.674923   -1.949096
  H      0.091590   -0.445943   -3.154142

 Total Charge           Charge          ....    1
 Multiplicity           Mult            ....    1
 Number of Electrons    NEL             ....   82
 Basis Dimension        Dim             ....  175

ORBITAL ENERGIES
----------------

  NO   OCC          E(Eh)            E(eV)
   0   2.0000    -162.846765     -4431.2858
   1   2.0000     -18.152074      -493.9431
   2   2.0000     -14.993580      -407.9961
   3   2.0000     -14.987564      -407.8324
   4   2.0000     -14.981823      -407.6761
   5   2.0000     -14.863636      -404.4601
   6   2.0000     -14.860373      -404.3713
   7   2.0000     -10.643270      -289.6181
   8   2.0000     -10.630348      -289.2665
   9   2.0000     -10.626585      -289.1641
  10   2.0000     -10.623664      -289.0846
  11   2.0000     -10.623096      -289.0691
  12   2.0000     -10.523712      -286.3648
  13   2.0000      -2.376850       -64.6774
  14   2.0000      -1.533482       -41.7282
  15   2.0000      -1.521350       -41.3980
  16   2.0000      -1.513070       -41.1727
  17   2.0000      -1.310953       -35.6729
  18   2.0000      -1.187505       -32.3137
  19   2.0000      -1.027602       -27.9625
  20   2.0000      -0.981168       -26.6990
  21   2.0000      -0.928360       -25.2619
  22   2.0000      -0.841952       -22.9107
  23   2.0000      -0.824201       -22.4276
  24   2.0000      -0.805732       -21.9251
  25   2.0000      -0.751002       -20.4358
  26   2.0000      -0.703426       -19.1412
  27   2.0000      -0.674691       -18.3593
  28   2.0000      -0.658004       -17.9052
  29   2.0000      -0.655518       -17.8375
  30   2.0000      -0.653101       -17.7718
  31   2.0000      -0.609132       -16.5753
  32   2.0000      -0.599648       -16.3172
  33   2.0000      -0.593157       -16.1406
  34   2.0000      -0.532160       -14.4808
  35   2.0000      -0.524538       -14.2734
  36   2.0000      -0.511928       -13.9303
  37   2.0000      -0.486642       -13.2422
  38   2.0000      -0.456808       -12.4304
  39   2.0000      -0.436799       -11.8859
  40   2.0000      -0.326174        -8.8757
  41   0.0000      -0.190263        -5.1773
  42   0.0000      -0.165921        -4.5149
  43   0.0000      -0.155170        -4.2224
  44   0.0000      -0.143608        -3.9078
  45   0.0000      -0.139613        -3.7991

MULLIKEN ATOMIC CHARGES
-----------------------
   0 Sc:    0.692513
   1 C :    0.203333
   2 N :   -0.420575
   3 C :   -0.063118
   4 C :   -0.067017
   5 N :   -0.417313
   6 C :   -0.532362
   7 H :    0.280831
   8 H :    0.295113
   9 H :    0.244694
  10 C :   -0.512290
  11 H :    0.224002
  12 H :    0.287543
  13 H :    0.278778
  14 H :    0.301269
  15 H :    0.298615
  16 C :   -0.845200
  17 H :    0.248660
  18 H :    0.211464
  19 H :    0.202886
  20 H :    0.088177
Sum of atomic charges:    1.0000000

LOEWDIN ATOMIC CHARGES
----------------------
   0 Sc:    0.530236
   1 C :   -0.034862
   2 N :   -0.003699
   3 C :   -0.089288
   4 C :   -0.076936
   5 N :   -0.003521
   6 C :   -0.239072
   7 H :    0.157709
   8 H :    0.164686
   9 H :    0.141925
  10 C :   -0.231154
  11 H :    0.136171
  12 H :    0.158352
  13 H :    0.154350
  14 H :    0.169010
  15 H :    0.168000
  16 C :   -0.543486
  17 H :    0.139677
  18 H :    0.125917
  19 H :    0.119858
  20 H :    0.056126

  Mayer bond orders larger than 0.100000
B(  0-Sc,  1-C ) :   0.6360 B(  0-Sc, 16-C ) :   0.8606 B(  0-Sc, 20-H ) :   0.8935
B(  1-C ,  2-N ) :   1.2285 B(  1-C ,  5-N ) :   1.2426 B(  2-N ,  3-C ) :   1.1336
B(  2-N , 10-C ) :   0.9198 B(  3-C ,  4-C ) :   1.6584 B(  3-C , 14-H ) :   0.8789
B(  4-C ,  5-N ) :   1.1329 B(  4-C , 15-H ) :   0.8804 B(  5-N ,  6-C ) :   0.9040
B(  6-C ,  7-H ) :   0.9033 B(  6-C ,  8-H ) :   0.8763 B(  6-C ,  9-H ) :   0.9062
B( 10-C , 11-H ) :   0.9181 B( 10-C , 12-H ) :   0.8908 B( 10-C , 13-H ) :   0.8937
B( 16-C , 17-H ) :   0.9175 B( 16-C , 18-H ) :   0.9225 B( 16-C , 19-H ) :   0.9171

Dispersion correction           -0.011102534
FINAL SINGLE POINT ENERGY     -1104.383755167036
Dispersion correction            ... done

DIPOLE MOMENT
-------------
                                X             Y             Z
Electronic contribution:      8.12227      -8.26019      -3.75543
Nuclear contribution   :     -6.65268       6.69206       4.22581
                        -----------------------------------------
Total Dipole Moment    :      1.46958      -1.56813       0.47039
                        -----------------------------------------
Magnitude (a.u.)       :      2.20000
Magnitude (Debye)      :      5.59194

Rotational constants in cm-1:     0.050701     0.029015     0.021814
Rotational constants in MHz :  1519.975009   869.855982   653.977618

                             ****ORCA TERMINATED NORMALLY****
TOTAL RUN TIME: 0 days 0 hours 2 minutes 52 seconds 791 msec
