                         Program Version 5.0.3 -  RELEASE  -
|  1> ! EnGrad PBEh-3c
|  2> %output
|  3> xyzfile=True
|  4> end
|  5> %scf
|  6> maxiter 250
|  7> end
|  8> %output
|  9> Print[P_Hirshfeld] = 1
| 10> end
| 11> % maxcore
| 12> 4000
| 13> *xyz 1 1
| 14> Sc   1.15248711  -0.76239424  -1.95784196
| 15> C    0.40774274  -0.58508892   0.25147826
| 16> N   -0.46333077  -1.35259365   0.93731132
| 17> C   -0.78766499  -0.76956721   2.13579869
| 18> C   -0.14294150   0.40536078   2.17278421
| 19> N    0.57532776   0.51114408   1.00392513
| 20> C    1.41341656   1.63121509   0.63849713
| 21> H    1.46835166   2.30928126   1.47366161
| 22> H    1.01221217   2.16421286  -0.25637063
| 23> H    2.45136981   1.29091622   0.43132565
| 24> C   -0.97681900  -2.65517629   0.54692433
| 25> H   -0.61159641  -2.93657245  -0.44220738
| 26> H   -2.06267525  -2.65012883   0.49551568
| 27> H   -0.66266528  -3.40774596   1.26847508
| 28> H   -1.43602023  -1.24906446   2.86988096
| 29> H   -0.12517582   1.19421646   2.94325787
| 30> C   -0.21148158   1.56020947  -2.83371132
| 31> H   -0.91069564   1.54141716  -3.69422410
| 32> H    0.46623628   2.43265541  -2.94990958
| 33> H   -0.80787127   1.63621271  -1.90401848
| 34> H    0.25482280  -0.30289888  -3.13144605
| 35> *
| 36>
| 37>                          ****END OF INPUT****

CARTESIAN COORDINATES (ANGSTROEM)
---------------------------------
  Sc     1.152487   -0.762394   -1.957842
  C      0.407743   -0.585089    0.251478
  N     -0.463331   -1.352594    0.937311
  C     -0.787665   -0.769567    2.135799
  C     -0.142941    0.405361    2.172784
  N      0.575328    0.511144    1.003925
  C      1.413417    1.631215    0.638497
  H      1.468352    2.309281    1.473662
  H      1.012212    2.164213   -0.256371
  H      2.451370    1.290916    0.431326
  C     -0.976819   -2.655176    0.546924
  H     -0.611596   -2.936572   -0.442207
  H     -2.062675   -2.650129    0.495516
  H     -0.662665   -3.407746    1.268475
  H     -1.436020   -1.249064    2.869881
  H     -0.125176    1.194216    2.943258
  C     -0.211482    1.560209   -2.833711
  H     -0.910696    1.541417   -3.694224
  H      0.466236    2.432655   -2.949910
  H     -0.807871    1.636213   -1.904018
  H      0.254823   -0.302899   -3.131446

 Total Charge           Charge          ....    1
 Multiplicity           Mult            ....    1
 Number of Electrons    NEL             ....   82
 Basis Dimension        Dim             ....  175

ORBITAL ENERGIES
----------------

  NO   OCC          E(Eh)            E(eV)
   0   2.0000    -162.825615     -4430.7102
   1   2.0000     -18.130443      -493.3544
   2   2.0000     -14.972288      -407.4167
   3   2.0000     -14.966712      -407.2649
   4   2.0000     -14.958933      -407.0533
   5   2.0000     -14.859343      -404.3433
   6   2.0000     -14.857017      -404.2800
   7   2.0000     -10.638755      -289.4953
   8   2.0000     -10.627701      -289.1944
   9   2.0000     -10.625562      -289.1362
  10   2.0000     -10.622829      -289.0619
  11   2.0000     -10.622193      -289.0446
  12   2.0000     -10.531348      -286.5725
  13   2.0000      -2.362614       -64.2900
  14   2.0000      -1.520611       -41.3779
  15   2.0000      -1.509249       -41.0687
  16   2.0000      -1.500380       -40.8274
  17   2.0000      -1.307529       -35.5797
  18   2.0000      -1.185366       -32.2555
  19   2.0000      -1.023578       -27.8530
  20   2.0000      -0.978484       -26.6259
  21   2.0000      -0.924380       -25.1537
  22   2.0000      -0.838999       -22.8303
  23   2.0000      -0.824707       -22.4414
  24   2.0000      -0.801247       -21.8030
  25   2.0000      -0.746425       -20.3113
  26   2.0000      -0.700460       -19.0605
  27   2.0000      -0.672231       -18.2923
  28   2.0000      -0.655130       -17.8270
  29   2.0000      -0.652354       -17.7515
  30   2.0000      -0.649403       -17.6712
  31   2.0000      -0.605121       -16.4662
  32   2.0000      -0.597398       -16.2560
  33   2.0000      -0.588577       -16.0160
  34   2.0000      -0.532493       -14.4899
  35   2.0000      -0.525681       -14.3045
  36   2.0000      -0.508752       -13.8438
  37   2.0000      -0.482823       -13.1383
  38   2.0000      -0.468291       -12.7428
  39   2.0000      -0.433034       -11.7835
  40   2.0000      -0.320416        -8.7190
  41   0.0000      -0.189169        -5.1476
  42   0.0000      -0.158364        -4.3093
  43   0.0000      -0.148221        -4.0333
  44   0.0000      -0.136394        -3.7115
  45   0.0000      -0.132327        -3.6008

MULLIKEN ATOMIC CHARGES
-----------------------
   0 Sc:    0.706326
   1 C :    0.203391
   2 N :   -0.423090
   3 C :   -0.065811
   4 C :   -0.072162
   5 N :   -0.407426
   6 C :   -0.532207
   7 H :    0.280657
   8 H :    0.290758
   9 H :    0.239816
  10 C :   -0.509370
  11 H :    0.219989
  12 H :    0.284561
  13 H :    0.278305
  14 H :    0.299855
  15 H :    0.297879
  16 C :   -0.847488
  17 H :    0.247515
  18 H :    0.215989
  19 H :    0.202978
  20 H :    0.089534
Sum of atomic charges:    1.0000000

LOEWDIN ATOMIC CHARGES
----------------------
   0 Sc:    0.522659
   1 C :   -0.034669
   2 N :   -0.008122
   3 C :   -0.090293
   4 C :   -0.080656
   5 N :   -0.002803
   6 C :   -0.239840
   7 H :    0.157220
   8 H :    0.163197
   9 H :    0.140433
  10 C :   -0.231641
  11 H :    0.134329
  12 H :    0.156701
  13 H :    0.154027
  14 H :    0.169384
  15 H :    0.168874
  16 C :   -0.540202
  17 H :    0.140979
  18 H :    0.128470
  19 H :    0.121723
  20 H :    0.070229

  Mayer bond orders larger than 0.100000
B(  0-Sc,  1-C ) :   0.6411 B(  0-Sc, 16-C ) :   0.8071 B(  0-Sc, 20-H ) :   0.8455
B(  1-C ,  2-N ) :   1.2217 B(  1-C ,  5-N ) :   1.2401 B(  2-N ,  3-C ) :   1.1318
B(  2-N , 10-C ) :   0.9214 B(  3-C ,  4-C ) :   1.6592 B(  3-C , 14-H ) :   0.8793
B(  4-C ,  5-N ) :   1.1300 B(  4-C , 15-H ) :   0.8801 B(  5-N ,  6-C ) :   0.9096
B(  6-C ,  7-H ) :   0.9026 B(  6-C ,  8-H ) :   0.8770 B(  6-C ,  9-H ) :   0.9072
B( 10-C , 11-H ) :   0.9197 B( 10-C , 12-H ) :   0.8917 B( 10-C , 13-H ) :   0.8946
B( 16-C , 17-H ) :   0.9155 B( 16-C , 18-H ) :   0.9192 B( 16-C , 19-H ) :   0.9151
B( 16-C , 20-H ) :   0.1206

Dispersion correction           -0.011143784
FINAL SINGLE POINT ENERGY     -1104.374168561376
Dispersion correction            ... done

DIPOLE MOMENT
-------------
                                X             Y             Z
Electronic contribution:      8.09400      -8.18628      -4.01455
Nuclear contribution   :     -6.72718       6.64874       4.25203
                        -----------------------------------------
Total Dipole Moment    :      1.36681      -1.53754       0.23748
                        -----------------------------------------
Magnitude (a.u.)       :      2.07090
Magnitude (Debye)      :      5.26380

Rotational constants in cm-1:     0.051102     0.029098     0.022040
Rotational constants in MHz :  1532.000478   872.347029   660.743364

                             ****ORCA TERMINATED NORMALLY****
TOTAL RUN TIME: 0 days 0 hours 2 minutes 49 seconds 874 msec
