                         Program Version 5.0.3 -  RELEASE  -
|  1> ! EnGrad PBEh-3c
|  2> %output
|  3> xyzfile=True
|  4> end
|  5> %scf
|  6> maxiter 250
|  7> end
|  8> %output
|  9> Print[P_Hirshfeld] = 1
| 10> end
| 11> % maxcore
| 12> 4000
| 13> *xyz 1 1
| 14> Sc   1.14117028  -0.78003841  -1.96094358
| 15> C    0.39229673  -0.57239187   0.25095091
| 16> N   -0.46923177  -1.34860279   0.93681494
| 17> C   -0.77191908  -0.77994258   2.14411534
| 18> C   -0.14083844   0.39344534   2.18758506
| 19> N    0.56376048   0.52206515   1.01279730
| 20> C    1.41088311   1.64619061   0.64731026
| 21> H    1.44072678   2.33990437   1.47079849
| 22> H    1.02190398   2.16090022  -0.25437043
| 23> H    2.44859718   1.30964928   0.47300919
| 24> C   -0.97271142  -2.65406212   0.54501109
| 25> H   -0.62350205  -2.92584294  -0.45233039
| 26> H   -2.05835636  -2.65584147   0.51290863
| 27> H   -0.64179021  -3.41238937   1.25331860
| 28> H   -1.41109491  -1.25958706   2.87654507
| 29> H   -0.10613972   1.16913166   2.95793651
| 30> C   -0.18863844   1.58589287  -2.84727694
| 31> H   -0.86710441   1.55887833  -3.70617177
| 32> H    0.49152272   2.45131518  -2.96322337
| 33> H   -0.79057491   1.66504371  -1.93759174
| 34> H    0.13324780  -0.40943778  -3.14835030
| 35> *
| 36>
| 37>                          ****END OF INPUT****

CARTESIAN COORDINATES (ANGSTROEM)
---------------------------------
  Sc     1.141170   -0.780038   -1.960944
  C      0.392297   -0.572392    0.250951
  N     -0.469232   -1.348603    0.936815
  C     -0.771919   -0.779943    2.144115
  C     -0.140838    0.393445    2.187585
  N      0.563760    0.522065    1.012797
  C      1.410883    1.646191    0.647310
  H      1.440727    2.339904    1.470798
  H      1.021904    2.160900   -0.254370
  H      2.448597    1.309649    0.473009
  C     -0.972711   -2.654062    0.545011
  H     -0.623502   -2.925843   -0.452330
  H     -2.058356   -2.655841    0.512909
  H     -0.641790   -3.412389    1.253319
  H     -1.411095   -1.259587    2.876545
  H     -0.106140    1.169132    2.957937
  C     -0.188638    1.585893   -2.847277
  H     -0.867104    1.558878   -3.706172
  H      0.491523    2.451315   -2.963223
  H     -0.790575    1.665044   -1.937592
  H      0.133248   -0.409438   -3.148350

 Total Charge           Charge          ....    1
 Multiplicity           Mult            ....    1
 Number of Electrons    NEL             ....   82
 Basis Dimension        Dim             ....  175

ORBITAL ENERGIES
----------------

  NO   OCC          E(Eh)            E(eV)
   0   2.0000    -162.841237     -4431.1353
   1   2.0000     -18.146446      -493.7899
   2   2.0000     -14.988044      -407.8454
   3   2.0000     -14.982116      -407.6841
   4   2.0000     -14.975883      -407.5145
   5   2.0000     -14.862664      -404.4337
   6   2.0000     -14.859619      -404.3508
   7   2.0000     -10.642179      -289.5884
   8   2.0000     -10.629763      -289.2506
   9   2.0000     -10.626397      -289.1590
  10   2.0000     -10.623438      -289.0785
  11   2.0000     -10.622943      -289.0650
  12   2.0000     -10.525345      -286.4092
  13   2.0000      -2.373129       -64.5761
  14   2.0000      -1.530128       -41.6369
  15   2.0000      -1.518142       -41.3107
  16   2.0000      -1.509767       -41.0829
  17   2.0000      -1.310195       -35.6522
  18   2.0000      -1.187079       -32.3021
  19   2.0000      -1.026678       -27.9373
  20   2.0000      -0.980579       -26.6829
  21   2.0000      -0.927462       -25.2375
  22   2.0000      -0.841297       -22.8929
  23   2.0000      -0.824038       -22.4232
  24   2.0000      -0.804697       -21.8969
  25   2.0000      -0.749941       -20.4069
  26   2.0000      -0.702764       -19.1232
  27   2.0000      -0.674160       -18.3448
  28   2.0000      -0.657323       -17.8867
  29   2.0000      -0.654706       -17.8155
  30   2.0000      -0.652380       -17.7522
  31   2.0000      -0.608240       -16.5511
  32   2.0000      -0.599160       -16.3040
  33   2.0000      -0.592091       -16.1116
  34   2.0000      -0.532017       -14.4769
  35   2.0000      -0.524639       -14.2761
  36   2.0000      -0.511072       -13.9070
  37   2.0000      -0.485767       -13.2184
  38   2.0000      -0.459690       -12.5088
  39   2.0000      -0.435907       -11.8616
  40   2.0000      -0.324736        -8.8365
  41   0.0000      -0.189891        -5.1672
  42   0.0000      -0.164017        -4.4631
  43   0.0000      -0.153326        -4.1722
  44   0.0000      -0.141636        -3.8541
  45   0.0000      -0.137635        -3.7452

MULLIKEN ATOMIC CHARGES
-----------------------
   0 Sc:    0.695206
   1 C :    0.203204
   2 N :   -0.421184
   3 C :   -0.063789
   4 C :   -0.068316
   5 N :   -0.414801
   6 C :   -0.532401
   7 H :    0.280810
   8 H :    0.294131
   9 H :    0.243548
  10 C :   -0.511535
  11 H :    0.222872
  12 H :    0.286860
  13 H :    0.278720
  14 H :    0.300956
  15 H :    0.298504
  16 C :   -0.846115
  17 H :    0.248279
  18 H :    0.212408
  19 H :    0.202611
  20 H :    0.090032
Sum of atomic charges:    1.0000000

LOEWDIN ATOMIC CHARGES
----------------------
   0 Sc:    0.528513
   1 C :   -0.034877
   2 N :   -0.004734
   3 C :   -0.089520
   4 C :   -0.077822
   5 N :   -0.003203
   6 C :   -0.239297
   7 H :    0.157582
   8 H :    0.164372
   9 H :    0.141596
  10 C :   -0.231250
  11 H :    0.135658
  12 H :    0.157963
  13 H :    0.154293
  14 H :    0.169119
  15 H :    0.168239
  16 C :   -0.543317
  17 H :    0.139924
  18 H :    0.126436
  19 H :    0.120176
  20 H :    0.060149

  Mayer bond orders larger than 0.100000
B(  0-Sc,  1-C ) :   0.6368 B(  0-Sc, 16-C ) :   0.8478 B(  0-Sc, 20-H ) :   0.8822
B(  1-C ,  2-N ) :   1.2268 B(  1-C ,  5-N ) :   1.2421 B(  2-N ,  3-C ) :   1.1333
B(  2-N , 10-C ) :   0.9202 B(  3-C ,  4-C ) :   1.6584 B(  3-C , 14-H ) :   0.8790
B(  4-C ,  5-N ) :   1.1324 B(  4-C , 15-H ) :   0.8803 B(  5-N ,  6-C ) :   0.9054
B(  6-C ,  7-H ) :   0.9032 B(  6-C ,  8-H ) :   0.8764 B(  6-C ,  9-H ) :   0.9064
B( 10-C , 11-H ) :   0.9186 B( 10-C , 12-H ) :   0.8910 B( 10-C , 13-H ) :   0.8939
B( 16-C , 17-H ) :   0.9170 B( 16-C , 18-H ) :   0.9217 B( 16-C , 19-H ) :   0.9167

Dispersion correction           -0.011113540
FINAL SINGLE POINT ENERGY     -1104.381796066974
Dispersion correction            ... done

DIPOLE MOMENT
-------------
                                X             Y             Z
Electronic contribution:      8.11603      -8.24682      -3.81570
Nuclear contribution   :     -6.67170       6.68101       4.23250
                        -----------------------------------------
Total Dipole Moment    :      1.44434      -1.56582       0.41680
                        -----------------------------------------
Magnitude (a.u.)       :      2.17062
Magnitude (Debye)      :      5.51729

Rotational constants in cm-1:     0.050806     0.029037     0.021872
Rotational constants in MHz :  1523.133050   870.515905   655.714051

                             ****ORCA TERMINATED NORMALLY****
TOTAL RUN TIME: 0 days 0 hours 2 minutes 47 seconds 140 msec
