                         Program Version 5.0.3 -  RELEASE  -
|  1> ! EnGrad PBEh-3c
|  2> %output
|  3> xyzfile=True
|  4> end
|  5> %scf
|  6> maxiter 250
|  7> end
|  8> %output
|  9> Print[P_Hirshfeld] = 1
| 10> end
| 11> % maxcore
| 12> 4000
| 13> %pal nprocs 4
| 14> end
| 15> *xyz -1 1
| 16> Pd  -1.89828000  -1.46969000   0.50340000
| 17> Cl  -2.61026000  -3.39911000  -0.56688000
| 18> Cl   0.23037000  -5.25633000  -0.24088000
| 19> Cl  -3.56162000  -1.62193000   2.20585000
| 20> N   -1.13880000   0.25672000   1.32628000
| 21> C   -1.54032000   0.86835000   2.42249000
| 22> C   -0.94894000   2.05710000   2.86144000
| 23> C    0.07886000   2.61270000   2.13717000
| 24> C   -0.12638000   0.78451000   0.60298000
| 25> C    0.51964000   1.97506000   0.97080000
| 26> H    0.54865000   3.53538000   2.45791000
| 27> H   -2.35846000   0.39314000   2.95085000
| 28> H   -1.31385000   2.52317000   3.76602000
| 29> C    0.24408000   0.05837000  -0.55899000
| 30> C    1.57631000   2.44817000   0.13078000
| 31> C    1.94017000   1.76141000  -0.98013000
| 32> C    1.29170000   0.54331000  -1.36357000
| 33> H    2.08272000   3.36723000   0.40073000
| 34> H    2.74558000   2.13549000  -1.60203000
| 35> C   -0.47856000  -1.12519000  -0.83559000
| 36> C    1.64209000  -0.19906000  -2.49917000
| 37> C   -0.09110000  -1.82152000  -1.96762000
| 38> C    0.95509000  -1.36048000  -2.77996000
| 39> H    2.44614000   0.14047000  -3.14146000
| 40> H    1.23140000  -1.93967000  -3.65341000
| 41> H   -0.86687000  -4.53036000  -0.30969000
| 42> H   -0.59936000  -2.73724000  -2.23732000
| 43> *
| 44>
| 45>                          ****END OF INPUT****

CARTESIAN COORDINATES (ANGSTROEM)
---------------------------------
  Pd    -1.898280   -1.469690    0.503400
  Cl    -2.610260   -3.399110   -0.566880
  Cl     0.230370   -5.256330   -0.240880
  Cl    -3.561620   -1.621930    2.205850
  N     -1.138800    0.256720    1.326280
  C     -1.540320    0.868350    2.422490
  C     -0.948940    2.057100    2.861440
  C      0.078860    2.612700    2.137170
  C     -0.126380    0.784510    0.602980
  C      0.519640    1.975060    0.970800
  H      0.548650    3.535380    2.457910
  H     -2.358460    0.393140    2.950850
  H     -1.313850    2.523170    3.766020
  C      0.244080    0.058370   -0.558990
  C      1.576310    2.448170    0.130780
  C      1.940170    1.761410   -0.980130
  C      1.291700    0.543310   -1.363570
  H      2.082720    3.367230    0.400730
  H      2.745580    2.135490   -1.602030
  C     -0.478560   -1.125190   -0.835590
  C      1.642090   -0.199060   -2.499170
  C     -0.091100   -1.821520   -1.967620
  C      0.955090   -1.360480   -2.779960
  H      2.446140    0.140470   -3.141460
  H      1.231400   -1.939670   -3.653410
  H     -0.866870   -4.530360   -0.309690
  H     -0.599360   -2.737240   -2.237320

 Total Charge           Charge          ....   -1
 Multiplicity           Mult            ....    1
 Number of Electrons    NEL             ....  164
 Basis Dimension        Dim             ....  313

ORBITAL ENERGIES
----------------

  NO   OCC          E(Eh)            E(eV)
   0   2.0000    -102.139453     -2779.3558
   1   2.0000    -102.103986     -2778.3907
   2   2.0000    -102.066632     -2777.3743
   3   2.0000     -14.593809      -397.1177
   4   2.0000     -10.402741      -283.0730
   5   2.0000     -10.398513      -282.9579
   6   2.0000     -10.391827      -282.7760
   7   2.0000     -10.382911      -282.5334
   8   2.0000     -10.375932      -282.3435
   9   2.0000     -10.373493      -282.2771
  10   2.0000     -10.372702      -282.2556
  11   2.0000     -10.364629      -282.0359
  12   2.0000     -10.349165      -281.6151
  13   2.0000     -10.348332      -281.5924
  14   2.0000     -10.347395      -281.5669
  15   2.0000     -10.333879      -281.1991
  16   2.0000     -10.327617      -281.0287
  17   2.0000      -9.608410      -261.4581
  18   2.0000      -9.567660      -260.3493
  19   2.0000      -9.530726      -259.3442
  20   2.0000      -7.295176      -198.5118
  21   2.0000      -7.288337      -198.3257
  22   2.0000      -7.288287      -198.3244
  23   2.0000      -7.252763      -197.3577
  24   2.0000      -7.249736      -197.2753
  25   2.0000      -7.248319      -197.2368
  26   2.0000      -7.215560      -196.3454
  27   2.0000      -7.212365      -196.2584
  28   2.0000      -7.212242      -196.2551
  29   2.0000      -3.513923       -95.6187
  30   2.0000      -2.160125       -58.7800
  31   2.0000      -2.156500       -58.6814
  32   2.0000      -2.126305       -57.8597
  33   2.0000      -0.989182       -26.9170
  34   2.0000      -0.880483       -23.9592
  35   2.0000      -0.844142       -22.9703
  36   2.0000      -0.808796       -22.0085
  37   2.0000      -0.777184       -21.1483
  38   2.0000      -0.766801       -20.8657
  39   2.0000      -0.735729       -20.0202
  40   2.0000      -0.715775       -19.4772
  41   2.0000      -0.694026       -18.8854
  42   2.0000      -0.661082       -17.9890
  43   2.0000      -0.643664       -17.5150
  44   2.0000      -0.635606       -17.2957
  45   2.0000      -0.607975       -16.5438
  46   2.0000      -0.569667       -15.5014
  47   2.0000      -0.524981       -14.2854
  48   2.0000      -0.511298       -13.9131
  49   2.0000      -0.491523       -13.3750
  50   2.0000      -0.454597       -12.3702
  51   2.0000      -0.453638       -12.3441
  52   2.0000      -0.426831       -11.6147
  53   2.0000      -0.408497       -11.1158
  54   2.0000      -0.405284       -11.0283
  55   2.0000      -0.401106       -10.9147
  56   2.0000      -0.380840       -10.3632
  57   2.0000      -0.372955       -10.1486
  58   2.0000      -0.368751       -10.0342
  59   2.0000      -0.352830        -9.6010
  60   2.0000      -0.337532        -9.1847
  61   2.0000      -0.336275        -9.1505
  62   2.0000      -0.313905        -8.5418
  63   2.0000      -0.301346        -8.2000
  64   2.0000      -0.290462        -7.9039
  65   2.0000      -0.268978        -7.3193
  66   2.0000      -0.261006        -7.1023
  67   2.0000      -0.248694        -6.7673
  68   2.0000      -0.242894        -6.6095
  69   2.0000      -0.229411        -6.2426
  70   2.0000      -0.225362        -6.1324
  71   2.0000      -0.222932        -6.0663
  72   2.0000      -0.221052        -6.0151
  73   2.0000      -0.206977        -5.6321
  74   2.0000      -0.184271        -5.0143
  75   2.0000      -0.180303        -4.9063
  76   2.0000      -0.165532        -4.5044
  77   2.0000      -0.160955        -4.3798
  78   2.0000      -0.154329        -4.1995
  79   2.0000      -0.151460        -4.1214
  80   2.0000      -0.145528        -3.9600
  81   2.0000      -0.132688        -3.6106
  82   0.0000       0.048797         1.3278
  83   0.0000       0.072004         1.9593
  84   0.0000       0.111820         3.0428
  85   0.0000       0.118187         3.2160
  86   0.0000       0.150354         4.0913

MULLIKEN ATOMIC CHARGES
-----------------------
   0 Pd:    0.192356
   1 Cl:   -0.376921
   2 Cl:   -0.415711
   3 Cl:   -0.474508
   4 N :   -0.584196
   5 C :    0.020054
   6 C :   -0.337442
   7 C :   -0.158970
   8 C :    0.405497
   9 C :    0.047073
  10 H :    0.208269
  11 H :    0.293085
  12 H :    0.217373
  13 C :    0.042431
  14 C :   -0.309670
  15 C :   -0.299162
  16 C :    0.143406
  17 H :    0.191953
  18 H :    0.194682
  19 C :   -0.067463
  20 C :   -0.337695
  21 C :   -0.324984
  22 C :   -0.192308
  23 H :    0.182856
  24 H :    0.194433
  25 H :    0.313019
  26 H :    0.232542
Sum of atomic charges:   -1.0000000

LOEWDIN ATOMIC CHARGES
----------------------
   0 Pd:   -0.759982
   1 Cl:   -0.093641
   2 Cl:   -0.288602
   3 Cl:   -0.232603
   4 N :    0.043556
   5 C :   -0.003441
   6 C :   -0.173943
   7 C :   -0.090269
   8 C :    0.088854
   9 C :   -0.060000
  10 H :    0.133561
  11 H :    0.169676
  12 H :    0.138956
  13 C :   -0.030032
  14 C :   -0.145896
  15 C :   -0.114772
  16 C :   -0.036330
  17 H :    0.128781
  18 H :    0.130227
  19 C :    0.001922
  20 C :   -0.161450
  21 C :   -0.122584
  22 C :   -0.121072
  23 H :    0.122680
  24 H :    0.126925
  25 H :    0.198642
  26 H :    0.150838

  Mayer bond orders larger than 0.100000
B(  0-Pd,  1-Cl) :   0.7199 B(  0-Pd,  3-Cl) :   0.6777 B(  0-Pd,  4-N ) :   0.4234
B(  0-Pd, 19-C ) :   0.8404 B(  1-Cl, 25-H ) :   0.1847 B(  2-Cl, 25-H ) :   0.7285
B(  3-Cl, 19-C ) :   0.1045 B(  4-N ,  5-C ) :   1.4932 B(  4-N ,  8-C ) :   1.1225
B(  5-C ,  6-C ) :   1.2949 B(  5-C , 11-H ) :   0.8426 B(  6-C ,  7-C ) :   1.4592
B(  6-C , 12-H ) :   0.9224 B(  7-C ,  9-C ) :   1.2735 B(  7-C , 10-H ) :   0.9301
B(  8-C ,  9-C ) :   1.2290 B(  8-C , 13-C ) :   1.1475 B(  9-C , 14-C ) :   1.1642
B( 13-C , 16-C ) :   1.2610 B( 13-C , 19-C ) :   1.1795 B( 14-C , 15-C ) :   1.6509
B( 14-C , 17-H ) :   0.9310 B( 15-C , 16-C ) :   1.1533 B( 15-C , 18-H ) :   0.9289
B( 16-C , 20-C ) :   1.2784 B( 19-C , 21-C ) :   1.4632 B( 20-C , 22-C ) :   1.4826
B( 20-C , 23-H ) :   0.9331 B( 21-C , 22-C ) :   1.3467 B( 21-C , 26-H ) :   0.8911
B( 22-C , 24-H ) :   0.9261

Dispersion correction           -0.023938202
FINAL SINGLE POINT ENERGY     -2061.540099489072
Dispersion correction            ... done

DIPOLE MOMENT
-------------
                                X             Y             Z
Electronic contribution:    -77.76167     -45.34485      20.90400
Nuclear contribution   :     80.18906      49.13375     -21.09139
                        -----------------------------------------
Total Dipole Moment    :      2.42739       3.78889      -0.18738
                        -----------------------------------------
Magnitude (a.u.)       :      4.50367
Magnitude (Debye)      :     11.44742

Rotational constants in cm-1:     0.011097     0.007806     0.005137
Rotational constants in MHz :   332.689617   234.021875   154.010221

                             ****ORCA TERMINATED NORMALLY****
TOTAL RUN TIME: 0 days 0 hours 5 minutes 10 seconds 697 msec
