                         Program Version 5.0.4 -  RELEASE  -
|  1> ! PBEh-3c OPT pal4
|  2>
|  3> %geom
|  4>  maxiter 600
|  5> end
|  6>
|  7> *xyzfile 1 1 reaction-5-prod-xtb.xyz
|  8>
|  9>                          ****END OF INPUT****
 Total Charge           Charge          ....    1
 Multiplicity           Mult            ....    1
 Number of Electrons    NEL             ....   82
Dispersion correction           -0.010783785
FINAL SINGLE POINT ENERGY     -1104.470051600119
Dispersion correction            ... done
Dispersion correction           -0.010913525
FINAL SINGLE POINT ENERGY     -1104.480037697191
Dispersion correction            ... done
Dispersion correction           -0.011024269
FINAL SINGLE POINT ENERGY     -1104.485647759174
Dispersion correction            ... done
FINAL SINGLE POINT ENERGY     -1104.486735375981
FINAL SINGLE POINT ENERGY     -1104.487754107399
FINAL SINGLE POINT ENERGY     -1104.488049152742
FINAL SINGLE POINT ENERGY     -1104.488207776570
FINAL SINGLE POINT ENERGY     -1104.488465294694
FINAL SINGLE POINT ENERGY     -1104.488748446157
FINAL SINGLE POINT ENERGY     -1104.488944714619
FINAL SINGLE POINT ENERGY     -1104.489656240737
FINAL SINGLE POINT ENERGY     -1104.489742306110
FINAL SINGLE POINT ENERGY     -1104.489818237254
FINAL SINGLE POINT ENERGY     -1104.489918513261
FINAL SINGLE POINT ENERGY     -1104.489984189139
FINAL SINGLE POINT ENERGY     -1104.490013467315
FINAL SINGLE POINT ENERGY     -1104.490031342902
Dispersion correction            ... done
Dispersion correction           -0.011010942
FINAL SINGLE POINT ENERGY     -1104.490032758588
Dispersion correction            ... done
Dispersion correction           -0.011008816
FINAL SINGLE POINT ENERGY     -1104.490034196128
Dispersion correction            ... done
                    ***********************HURRAY********************

CARTESIAN COORDINATES (ANGSTROEM)
---------------------------------
  Sc     0.319638   -0.366450   -2.083945
  C      0.116129   -0.353395    0.200964
  N     -0.464764   -1.313638    0.943530
  C     -0.464544   -0.975857    2.267091
  C      0.131859    0.235316    2.356747
  N      0.475076    0.595897    1.084336
  C      1.155145    1.838155    0.762212
  H      0.658419    2.670717    1.254383
  H      1.119687    2.016747   -0.309496
  H      2.193566    1.800382    1.085262
  C     -1.007510   -2.563627    0.435786
  H     -1.144374   -2.506422   -0.642500
  H     -1.979918   -2.750737    0.884486
  H     -0.341034   -3.391012    0.671151
  H     -0.886388   -1.604471    3.032827
  H      0.326059    0.856255    3.214771
  C      0.194157    1.563254   -2.950416
  H     -0.271614    1.468801   -3.940992
  H      1.145292    2.088426   -3.098991
  H     -0.455228    2.233150   -2.372765
  H     -0.819654   -1.541491   -2.794431

 Multiplicity           Mult            ....    1
 Number of Electrons    NEL             ....   82
 Basis Dimension        Dim             ....  175

ORBITAL ENERGIES
----------------

  NO   OCC          E(Eh)            E(eV)
   0   2.0000    -162.902207     -4432.7944
   1   2.0000     -18.217545      -495.7246
   2   2.0000     -15.054971      -409.6666
   3   2.0000     -15.052351      -409.5953
   4   2.0000     -15.051110      -409.5615
   5   2.0000     -14.876225      -404.8027
   6   2.0000     -14.875304      -404.7776
   7   2.0000     -10.655180      -289.9422
   8   2.0000     -10.638423      -289.4862
   9   2.0000     -10.637541      -289.4622
  10   2.0000     -10.630856      -289.2803
  11   2.0000     -10.625586      -289.1369
  12   2.0000     -10.527338      -286.4634
  13   2.0000      -2.423534       -65.9477
  14   2.0000      -1.573692       -42.8223
  15   2.0000      -1.563145       -42.5353
  16   2.0000      -1.559501       -42.4362
  17   2.0000      -1.324277       -36.0354
  18   2.0000      -1.200430       -32.6654
  19   2.0000      -1.035220       -28.1698
  20   2.0000      -0.992418       -27.0051
  21   2.0000      -0.936101       -25.4726
  22   2.0000      -0.870612       -23.6906
  23   2.0000      -0.854817       -23.2607
  24   2.0000      -0.814979       -22.1767
  25   2.0000      -0.761141       -20.7117
  26   2.0000      -0.714473       -19.4418
  27   2.0000      -0.685789       -18.6613
  28   2.0000      -0.668082       -18.1794
  29   2.0000      -0.665733       -18.1155
  30   2.0000      -0.658812       -17.9272
  31   2.0000      -0.613947       -16.7063
  32   2.0000      -0.606864       -16.5136
  33   2.0000      -0.600218       -16.3328
  34   2.0000      -0.567395       -15.4396
  35   2.0000      -0.562822       -15.3152
  36   2.0000      -0.534613       -14.5476
  37   2.0000      -0.497166       -13.5286
  38   2.0000      -0.457340       -12.4448
  39   2.0000      -0.447539       -12.1782
  40   2.0000      -0.440283       -11.9807
  41   0.0000      -0.194408        -5.2901
  42   0.0000      -0.188574        -5.1314
  43   0.0000      -0.171946        -4.6789
  44   0.0000      -0.161565        -4.3964
  45   0.0000      -0.141189        -3.8420

MULLIKEN ATOMIC CHARGES
-----------------------
   0 Sc:    0.869353
   1 C :    0.172469
   2 N :   -0.410597
   3 C :   -0.060487
   4 C :   -0.061010
   5 N :   -0.413134
   6 C :   -0.536475
   7 H :    0.284422
   8 H :    0.268530
   9 H :    0.278588
  10 C :   -0.538733
  11 H :    0.279914
  12 H :    0.284104
  13 H :    0.277326
  14 H :    0.308089
  15 H :    0.307512
  16 C :   -1.067234
  17 H :    0.283860
  18 H :    0.254916
  19 H :    0.258171
  20 H :   -0.039584
Sum of atomic charges:    1.0000000

LOEWDIN ATOMIC CHARGES
----------------------
   0 Sc:    0.537952
   1 C :   -0.046203
   2 N :    0.009578
   3 C :   -0.074241
   4 C :   -0.075746
   5 N :    0.007522
   6 C :   -0.236534
   7 H :    0.159530
   8 H :    0.153744
   9 H :    0.153632
  10 C :   -0.240084
  11 H :    0.161066
  12 H :    0.159337
  13 H :    0.153429
  14 H :    0.171400
  15 H :    0.171035
  16 C :   -0.600266
  17 H :    0.178062
  18 H :    0.160209
  19 H :    0.164868
  20 H :   -0.068290

  Mayer bond orders larger than 0.100000
B(  0-Sc,  1-C ) :   0.6465 B(  0-Sc, 16-C ) :   0.9898 B(  0-Sc, 20-H ) :   0.9782
B(  1-C ,  2-N ) :   1.2280 B(  1-C ,  5-N ) :   1.2287 B(  2-N ,  3-C ) :   1.1637
B(  2-N , 10-C ) :   0.9040 B(  3-C ,  4-C ) :   1.6212 B(  3-C , 14-H ) :   0.8763
B(  4-C ,  5-N ) :   1.1610 B(  4-C , 15-H ) :   0.8766 B(  5-N ,  6-C ) :   0.9092
B(  6-C ,  7-H ) :   0.8959 B(  6-C ,  8-H ) :   0.8971 B(  6-C ,  9-H ) :   0.8920
B( 10-C , 11-H ) :   0.8823 B( 10-C , 12-H ) :   0.8959 B( 10-C , 13-H ) :   0.8925
B( 16-C , 17-H ) :   0.8705 B( 16-C , 18-H ) :   0.8858 B( 16-C , 19-H ) :   0.8833

Dispersion correction           -0.011007380
FINAL SINGLE POINT ENERGY     -1104.490034490128

DIPOLE MOMENT
-------------
                                X             Y             Z
Electronic contribution:      3.20322      -4.10495      -3.88637
Nuclear contribution   :     -2.15136       3.79456       4.63092
                        -----------------------------------------
Total Dipole Moment    :      1.05186      -0.31039       0.74456
                        -----------------------------------------
Magnitude (a.u.)       :      1.32556
Magnitude (Debye)      :      3.36931

Rotational constants in cm-1:     0.059339     0.030032     0.020707
Rotational constants in MHz :  1778.952100   900.337375   620.775979

                             ****ORCA TERMINATED NORMALLY****
TOTAL RUN TIME: 0 days 0 hours 11 minutes 37 seconds 33 msec
