                         Program Version 5.0.4 -  RELEASE  -
|  1> ! PBEh-3c OPT pal4
|  2>
|  3> %geom
|  4>  maxiter 600
|  5> end
|  6>
|  7> *xyzfile 1 1 reaction-5-rct-xtb.xyz
|  8>
|  9>                          ****END OF INPUT****
 Total Charge           Charge          ....    1
 Multiplicity           Mult            ....    1
 Number of Electrons    NEL             ....   82
Dispersion correction           -0.012574584
FINAL SINGLE POINT ENERGY     -1104.429658842591
Dispersion correction            ... done
Dispersion correction           -0.012378701
FINAL SINGLE POINT ENERGY     -1104.439475414053
Dispersion correction            ... done
Dispersion correction           -0.011319442
FINAL SINGLE POINT ENERGY     -1104.446608841641
Dispersion correction            ... done
FINAL SINGLE POINT ENERGY     -1104.451582255739
FINAL SINGLE POINT ENERGY     -1104.452538594816
FINAL SINGLE POINT ENERGY     -1104.453180000335
FINAL SINGLE POINT ENERGY     -1104.453583563735
FINAL SINGLE POINT ENERGY     -1104.453898309957
FINAL SINGLE POINT ENERGY     -1104.454098580070
FINAL SINGLE POINT ENERGY     -1104.454201646088
FINAL SINGLE POINT ENERGY     -1104.454309779898
FINAL SINGLE POINT ENERGY     -1104.454312327199
FINAL SINGLE POINT ENERGY     -1104.454313078040
FINAL SINGLE POINT ENERGY     -1104.454312631750
FINAL SINGLE POINT ENERGY     -1104.454312427952
FINAL SINGLE POINT ENERGY     -1104.454311533374
FINAL SINGLE POINT ENERGY     -1104.454310332512
Dispersion correction            ... done
Dispersion correction           -0.011010362
FINAL SINGLE POINT ENERGY     -1104.454309812563
Dispersion correction            ... done
Dispersion correction           -0.011009612
FINAL SINGLE POINT ENERGY     -1104.454309813877
Dispersion correction            ... done
                    ***********************HURRAY********************

CARTESIAN COORDINATES (ANGSTROEM)
---------------------------------
  Sc     1.718582   -1.372138   -1.607306
  C      0.569066   -0.760519    0.224880
  N     -0.378885   -1.455888    0.880364
  C     -0.882634   -0.732028    1.923644
  C     -0.231358    0.453188    1.922815
  N      0.650518    0.413038    0.880339
  C      1.518406    1.525418    0.536035
  H      1.988478    1.917052    1.434808
  H      0.950572    2.315598    0.049429
  H      2.304803    1.190433   -0.136510
  C     -0.845969   -2.791176    0.551107
  H     -0.180637   -3.249615   -0.176135
  H     -1.849116   -2.750065    0.131965
  H     -0.852006   -3.410249    1.445091
  H     -1.648941   -1.107795    2.579943
  H     -0.324948    1.302285    2.578128
  C     -0.498428    1.698459   -2.641229
  H     -0.772510    1.179708   -3.555798
  H     -0.971086    2.677024   -2.634832
  H     -0.846040    1.129306   -1.780648
  H      0.582143    1.827982   -2.606088

 Multiplicity           Mult            ....    1
 Number of Electrons    NEL             ....   82
 Basis Dimension        Dim             ....  175

ORBITAL ENERGIES
----------------

  NO   OCC          E(Eh)            E(eV)
   0   2.0000    -162.911007     -4433.0339
   1   2.0000     -18.221585      -495.8345
   2   2.0000     -15.062527      -409.8722
   3   2.0000     -15.060808      -409.8254
   4   2.0000     -15.045818      -409.4175
   5   2.0000     -14.871731      -404.6804
   6   2.0000     -14.871640      -404.6779
   7   2.0000     -10.653341      -289.8921
   8   2.0000     -10.634458      -289.3783
   9   2.0000     -10.633592      -289.3548
  10   2.0000     -10.624677      -289.1121
  11   2.0000     -10.623981      -289.0932
  12   2.0000     -10.530665      -286.5540
  13   2.0000      -2.429936       -66.1219
  14   2.0000      -1.576915       -42.9100
  15   2.0000      -1.571983       -42.7758
  16   2.0000      -1.560142       -42.4536
  17   2.0000      -1.320136       -35.9227
  18   2.0000      -1.196546       -32.5597
  19   2.0000      -1.030914       -28.0526
  20   2.0000      -0.989166       -26.9166
  21   2.0000      -0.931871       -25.3575
  22   2.0000      -0.892194       -24.2778
  23   2.0000      -0.851139       -23.1607
  24   2.0000      -0.811110       -22.0714
  25   2.0000      -0.757025       -20.5997
  26   2.0000      -0.710293       -19.3281
  27   2.0000      -0.682105       -18.5610
  28   2.0000      -0.663998       -18.0683
  29   2.0000      -0.661867       -18.0103
  30   2.0000      -0.655597       -17.8397
  31   2.0000      -0.608602       -16.5609
  32   2.0000      -0.603863       -16.4319
  33   2.0000      -0.596437       -16.2299
  34   2.0000      -0.565783       -15.3957
  35   2.0000      -0.561895       -15.2899
  36   2.0000      -0.558717       -15.2035
  37   2.0000      -0.528222       -14.3736
  38   2.0000      -0.492687       -13.4067
  39   2.0000      -0.443346       -12.0641
  40   2.0000      -0.332282        -9.0419
  41   0.0000      -0.188700        -5.1348
  42   0.0000      -0.186788        -5.0828
  43   0.0000      -0.186111        -5.0643
  44   0.0000      -0.173726        -4.7273
  45   0.0000      -0.169985        -4.6255

MULLIKEN ATOMIC CHARGES
-----------------------
   0 Sc:    0.525310
   1 C :    0.204947
   2 N :   -0.415035
   3 C :   -0.060996
   4 C :   -0.061487
   5 N :   -0.414017
   6 C :   -0.523256
   7 H :    0.282717
   8 H :    0.283641
   9 H :    0.253373
  10 C :   -0.518491
  11 H :    0.254773
  12 H :    0.280235
  13 H :    0.280053
  14 H :    0.306611
  15 H :    0.306619
  16 C :   -0.907709
  17 H :    0.248793
  18 H :    0.262334
  19 H :    0.206159
  20 H :    0.205426
Sum of atomic charges:    1.0000000

LOEWDIN ATOMIC CHARGES
----------------------
   0 Sc:    0.372709
   1 C :   -0.049593
   2 N :    0.010972
   3 C :   -0.075128
   4 C :   -0.074847
   5 N :    0.011175
   6 C :   -0.236958
   7 H :    0.157515
   8 H :    0.155488
   9 H :    0.149888
  10 C :   -0.236783
  11 H :    0.150331
  12 H :    0.155176
  13 H :    0.157085
  14 H :    0.170622
  15 H :    0.170587
  16 C :   -0.527084
  17 H :    0.143323
  18 H :    0.149804
  19 H :    0.121830
  20 H :    0.123890

  Mayer bond orders larger than 0.100000
B(  0-Sc,  1-C ) :   0.6963 B(  1-C ,  2-N ) :   1.2274 B(  1-C ,  5-N ) :   1.2226
B(  2-N ,  3-C ) :   1.1618 B(  2-N , 10-C ) :   0.9095 B(  3-C ,  4-C ) :   1.6223
B(  3-C , 14-H ) :   0.8770 B(  4-C ,  5-N ) :   1.1614 B(  4-C , 15-H ) :   0.8770
B(  5-N ,  6-C ) :   0.9091 B(  6-C ,  7-H ) :   0.8953 B(  6-C ,  8-H ) :   0.8878
B(  6-C ,  9-H ) :   0.8952 B( 10-C , 11-H ) :   0.8955 B( 10-C , 12-H ) :   0.8922
B( 10-C , 13-H ) :   0.8956 B( 16-C , 17-H ) :   0.9239 B( 16-C , 18-H ) :   0.9187
B( 16-C , 19-H ) :   0.9284 B( 16-C , 20-H ) :   0.9302

Dispersion correction           -0.011010802
FINAL SINGLE POINT ENERGY     -1104.454310591751

DIPOLE MOMENT
-------------
                                X             Y             Z
Electronic contribution:     10.61010     -11.37913      -3.03018
Nuclear contribution   :    -10.31888      10.97571       3.02345
                        -----------------------------------------
Total Dipole Moment    :      0.29122      -0.40342      -0.00672
                        -----------------------------------------
Magnitude (a.u.)       :      0.49759
Magnitude (Debye)      :      1.26478

Rotational constants in cm-1:     0.039609     0.031023     0.023358
Rotational constants in MHz :  1187.441852   930.054589   700.249635

                             ****ORCA TERMINATED NORMALLY****
TOTAL RUN TIME: 0 days 0 hours 18 minutes 49 seconds 306 msec
