                         Program Version 5.0.3 -  RELEASE  -
|  1> ! EnGrad PBEh-3c
|  2> %output
|  3> xyzfile=True
|  4> end
|  5> %scf
|  6> maxiter 250
|  7> end
|  8> %output
|  9> Print[P_Hirshfeld] = 1
| 10> end
| 11> % maxcore
| 12> 4000
| 13> *xyz -1 1
| 14> Pt  -1.11414142  -0.94588812   0.58254307
| 15> Cl  -0.28669878  -0.71907375   2.76014116
| 16> Cl  -2.74831316  -2.41607046   1.17731218
| 17> Cl  -1.78362123  -1.00276847  -1.65421429
| 18> C    1.13347233   1.05029313  -0.61952397
| 19> H    1.44853893   2.00662011  -0.21587491
| 20> H    1.31773093   0.18136187   0.42839551
| 21> H    1.85566278   0.66857529  -1.33886371
| 22> H    0.17736963   1.17694342  -1.11990901
| 23> *
| 24>
| 25>                          ****END OF INPUT****

CARTESIAN COORDINATES (ANGSTROEM)
---------------------------------
  Pt    -1.114141   -0.945888    0.582543
  Cl    -0.286699   -0.719074    2.760141
  Cl    -2.748313   -2.416070    1.177312
  Cl    -1.783621   -1.002768   -1.654214
  C      1.133472    1.050293   -0.619524
  H      1.448539    2.006620   -0.215875
  H      1.317731    0.181362    0.428396
  H      1.855663    0.668575   -1.338864
  H      0.177370    1.176943   -1.119909

 Total Charge           Charge          ....   -1
 Multiplicity           Mult            ....    1
 Number of Electrons    NEL             ....   80
 Basis Dimension        Dim             ....  109

ORBITAL ENERGIES
----------------

  NO   OCC          E(Eh)            E(eV)
   0   2.0000    -102.116616     -2778.7344
   1   2.0000    -102.091524     -2778.0516
   2   2.0000    -102.091460     -2778.0499
   3   2.0000     -10.343161      -281.4517
   4   2.0000      -9.580055      -260.6865
   5   2.0000      -9.555435      -260.0166
   6   2.0000      -9.555297      -260.0128
   7   2.0000      -7.267653      -197.7629
   8   2.0000      -7.260130      -197.5582
   9   2.0000      -7.259839      -197.5503
  10   2.0000      -7.241326      -197.0465
  11   2.0000      -7.241109      -197.0406
  12   2.0000      -7.236470      -196.9144
  13   2.0000      -7.236435      -196.9134
  14   2.0000      -7.236270      -196.9089
  15   2.0000      -7.236144      -196.9055
  16   2.0000      -3.941721      -107.2597
  17   2.0000      -2.158168       -58.7267
  18   2.0000      -2.155695       -58.6594
  19   2.0000      -2.118542       -57.6484
  20   2.0000      -0.705160       -19.1884
  21   2.0000      -0.687266       -18.7015
  22   2.0000      -0.677777       -18.4432
  23   2.0000      -0.663292       -18.0491
  24   2.0000      -0.355658        -9.6780
  25   2.0000      -0.354635        -9.6501
  26   2.0000      -0.305716        -8.3189
  27   2.0000      -0.284043        -7.7292
  28   2.0000      -0.269205        -7.3255
  29   2.0000      -0.267048        -7.2668
  30   2.0000      -0.229588        -6.2474
  31   2.0000      -0.227426        -6.1886
  32   2.0000      -0.203342        -5.5332
  33   2.0000      -0.181646        -4.9429
  34   2.0000      -0.178873        -4.8674
  35   2.0000      -0.159435        -4.3385
  36   2.0000      -0.144701        -3.9375
  37   2.0000      -0.139838        -3.8052
  38   2.0000      -0.129474        -3.5232
  39   2.0000      -0.117860        -3.2071
  40   0.0000       0.061906         1.6846
  41   0.0000       0.181791         4.9468
  42   0.0000       0.195208         5.3119
  43   0.0000       0.226440         6.1617
  44   0.0000       0.264346         7.1932

MULLIKEN ATOMIC CHARGES
-----------------------
   0 Pt:    0.139992
   1 Cl:   -0.438579
   2 Cl:   -0.312243
   3 Cl:   -0.437314
   4 C :   -0.875678
   5 H :    0.216062
   6 H :    0.210109
   7 H :    0.222336
   8 H :    0.275315
Sum of atomic charges:   -1.0000000

LOEWDIN ATOMIC CHARGES
----------------------
   0 Pt:   -0.834186
   1 Cl:   -0.147259
   2 Cl:    0.011435
   3 Cl:   -0.144215
   4 C :   -0.488695
   5 H :    0.121802
   6 H :    0.186152
   7 H :    0.126033
   8 H :    0.168931

  Mayer bond orders larger than 0.100000
B(  0-Pt,  1-Cl) :   0.8000 B(  0-Pt,  2-Cl) :   1.0076 B(  0-Pt,  3-Cl) :   0.7961
B(  1-Cl,  3-Cl) :   0.1094 B(  4-C ,  5-H ) :   0.9197 B(  4-C ,  6-H ) :   0.8881
B(  4-C ,  7-H ) :   0.9210 B(  4-C ,  8-H ) :   0.8912

Dispersion correction           -0.004624073
FINAL SINGLE POINT ENERGY     -1539.012213185682
Dispersion correction            ... done

DIPOLE MOMENT
-------------
                                X             Y             Z
Electronic contribution:     -2.14247      -1.50723       4.60190
Nuclear contribution   :      3.07968       2.33132      -5.04181
                        -----------------------------------------
Total Dipole Moment    :      0.93721       0.82410      -0.43991
                        -----------------------------------------
Magnitude (a.u.)       :      1.32326
Magnitude (Debye)      :      3.36346

Rotational constants in cm-1:     0.048044     0.042715     0.022730
Rotational constants in MHz :  1440.322079  1280.561340   681.434164

                             ****ORCA TERMINATED NORMALLY****
TOTAL RUN TIME: 0 days 0 hours 0 minutes 44 seconds 197 msec
