                         Program Version 5.0.3 -  RELEASE  -
|  1> ! EnGrad PBEh-3c
|  2> %output
|  3> xyzfile=True
|  4> end
|  5> %scf
|  6> maxiter 250
|  7> end
|  8> %output
|  9> Print[P_Hirshfeld] = 1
| 10> end
| 11> % maxcore
| 12> 4000
| 13> *xyz -1 1
| 14> Pt  -1.09321311  -0.95036019   0.57327373
| 15> Cl  -0.27962881  -0.65562569   2.72086239
| 16> Cl  -2.69539782  -2.32195802   1.16596418
| 17> Cl  -1.69668324  -1.03319488  -1.65810246
| 18> C    1.19629336   0.85172606  -0.38016619
| 19> H    1.45822529   1.95393915  -0.14362697
| 20> H    1.21313799   0.26001043   0.12987597
| 21> H    1.78195271   0.70202778  -1.37021338
| 22> H    0.11243070   1.19398415  -1.03880351
| 23> *
| 24>
| 25>                          ****END OF INPUT****

CARTESIAN COORDINATES (ANGSTROEM)
---------------------------------
  Pt    -1.093213   -0.950360    0.573274
  Cl    -0.279629   -0.655626    2.720862
  Cl    -2.695398   -2.321958    1.165964
  Cl    -1.696683   -1.033195   -1.658102
  C      1.196293    0.851726   -0.380166
  H      1.458225    1.953939   -0.143627
  H      1.213138    0.260010    0.129876
  H      1.781953    0.702028   -1.370213
  H      0.112431    1.193984   -1.038804

 Total Charge           Charge          ....   -1
 Multiplicity           Mult            ....    1
 Number of Electrons    NEL             ....   80
 Basis Dimension        Dim             ....  109

ORBITAL ENERGIES
----------------

  NO   OCC          E(Eh)            E(eV)
   0   2.0000    -102.118114     -2778.7751
   1   2.0000    -102.090795     -2778.0318
   2   2.0000    -102.089173     -2777.9876
   3   2.0000     -10.328673      -281.0575
   4   2.0000      -9.582857      -260.7628
   5   2.0000      -9.554925      -260.0027
   6   2.0000      -9.553461      -259.9629
   7   2.0000      -7.270467      -197.8395
   8   2.0000      -7.262795      -197.6307
   9   2.0000      -7.262455      -197.6215
  10   2.0000      -7.240652      -197.0282
  11   2.0000      -7.239309      -196.9916
  12   2.0000      -7.236144      -196.9055
  13   2.0000      -7.235713      -196.8938
  14   2.0000      -7.234482      -196.8603
  15   2.0000      -7.234277      -196.8547
  16   2.0000      -3.939527      -107.2000
  17   2.0000      -2.158728       -58.7420
  18   2.0000      -2.153230       -58.5924
  19   2.0000      -2.116355       -57.5889
  20   2.0000      -0.714054       -19.4304
  21   2.0000      -0.697212       -18.9721
  22   2.0000      -0.687822       -18.7166
  23   2.0000      -0.677726       -18.4418
  24   2.0000      -0.439177       -11.9506
  25   2.0000      -0.319024        -8.6811
  26   2.0000      -0.296554        -8.0696
  27   2.0000      -0.287384        -7.8201
  28   2.0000      -0.281812        -7.6685
  29   2.0000      -0.268751        -7.3131
  30   2.0000      -0.238191        -6.4815
  31   2.0000      -0.230324        -6.2674
  32   2.0000      -0.204924        -5.5763
  33   2.0000      -0.181932        -4.9506
  34   2.0000      -0.179294        -4.8788
  35   2.0000      -0.158332        -4.3084
  36   2.0000      -0.142432        -3.8758
  37   2.0000      -0.134380        -3.6567
  38   2.0000      -0.123997        -3.3741
  39   2.0000      -0.114115        -3.1052
  40   0.0000       0.072522         1.9734
  41   0.0000       0.195992         5.3332
  42   0.0000       0.200577         5.4580
  43   0.0000       0.231047         6.2871
  44   0.0000       0.266747         7.2585

MULLIKEN ATOMIC CHARGES
-----------------------
   0 Pt:    0.115532
   1 Cl:   -0.436792
   2 Cl:   -0.291540
   3 Cl:   -0.437709
   4 C :   -0.926249
   5 H :    0.207883
   6 H :    0.342239
   7 H :    0.204607
   8 H :    0.222028
Sum of atomic charges:   -1.0000000

LOEWDIN ATOMIC CHARGES
----------------------
   0 Pt:   -0.876512
   1 Cl:   -0.135679
   2 Cl:    0.060318
   3 Cl:   -0.136887
   4 C :   -0.469104
   5 H :    0.130555
   6 H :    0.119062
   7 H :    0.129656
   8 H :    0.178591

  Mayer bond orders larger than 0.100000
B(  0-Pt,  1-Cl) :   0.8118 B(  0-Pt,  2-Cl) :   1.0425 B(  0-Pt,  3-Cl) :   0.7953
B(  1-Cl,  3-Cl) :   0.1096 B(  4-C ,  5-H ) :   0.9305 B(  4-C ,  6-H ) :   0.8527
B(  4-C ,  7-H ) :   0.9335 B(  4-C ,  8-H ) :   0.9086

Dispersion correction           -0.004697887
FINAL SINGLE POINT ENERGY     -1538.884588527431
Dispersion correction            ... done

DIPOLE MOMENT
-------------
                                X             Y             Z
Electronic contribution:     -3.38430      -2.76960       3.79346
Nuclear contribution   :      4.16926       3.53257      -4.23712
                        -----------------------------------------
Total Dipole Moment    :      0.78496       0.76297      -0.44367
                        -----------------------------------------
Magnitude (a.u.)       :      1.18115
Magnitude (Debye)      :      3.00225

Rotational constants in cm-1:     0.051405     0.044130     0.023871
Rotational constants in MHz :  1541.083742  1322.995785   715.636448

                             ****ORCA TERMINATED NORMALLY****
TOTAL RUN TIME: 0 days 0 hours 0 minutes 45 seconds 228 msec
