                         Program Version 5.0.3 -  RELEASE  -
|  1> ! EnGrad PBEh-3c
|  2> %output
|  3> xyzfile=True
|  4> end
|  5> %scf
|  6> maxiter 250
|  7> end
|  8> %output
|  9> Print[P_Hirshfeld] = 1
| 10> end
| 11> % maxcore
| 12> 4000
| 13> *xyz -1 1
| 14> Pt  -1.10532921  -0.94777116   0.57864006
| 15> Cl  -0.28372185  -0.69235789   2.74360218
| 16> Cl  -2.72603228  -2.37644285   1.17253392
| 17> Cl  -1.74701455  -1.01558001  -1.65585147
| 18> C    1.15992417   0.96668317  -0.51873840
| 19> H    1.45261753   1.98443792  -0.18545371
| 20> H    1.27369033   0.21447815   0.30269890
| 21> H    1.82462593   0.68266102  -1.35206401
| 22> H    0.15002602   1.18411871  -1.08575819
| 23> *
| 24>
| 25>                          ****END OF INPUT****

CARTESIAN COORDINATES (ANGSTROEM)
---------------------------------
  Pt    -1.105329   -0.947771    0.578640
  Cl    -0.283722   -0.692358    2.743602
  Cl    -2.726032   -2.376443    1.172534
  Cl    -1.747015   -1.015580   -1.655851
  C      1.159924    0.966683   -0.518738
  H      1.452618    1.984438   -0.185454
  H      1.273690    0.214478    0.302699
  H      1.824626    0.682661   -1.352064
  H      0.150026    1.184119   -1.085758

 Total Charge           Charge          ....   -1
 Multiplicity           Mult            ....    1
 Number of Electrons    NEL             ....   80
 Basis Dimension        Dim             ....  109

ORBITAL ENERGIES
----------------

  NO   OCC          E(Eh)            E(eV)
   0   2.0000    -102.118294     -2778.7801
   1   2.0000    -102.091888     -2778.0615
   2   2.0000    -102.090956     -2778.0361
   3   2.0000     -10.330887      -281.1177
   4   2.0000      -9.582228      -260.7457
   5   2.0000      -9.555844      -260.0277
   6   2.0000      -9.555027      -260.0055
   7   2.0000      -7.269855      -197.8228
   8   2.0000      -7.262237      -197.6155
   9   2.0000      -7.261927      -197.6071
  10   2.0000      -7.241617      -197.0544
  11   2.0000      -7.240905      -197.0350
  12   2.0000      -7.237021      -196.9294
  13   2.0000      -7.236664      -196.9196
  14   2.0000      -7.236054      -196.9030
  15   2.0000      -7.235849      -196.8975
  16   2.0000      -3.941504      -107.2538
  17   2.0000      -2.159123       -58.7527
  18   2.0000      -2.155348       -58.6500
  19   2.0000      -2.118312       -57.6422
  20   2.0000      -0.709478       -19.3059
  21   2.0000      -0.688642       -18.7389
  22   2.0000      -0.678301       -18.4575
  23   2.0000      -0.664421       -18.0798
  24   2.0000      -0.362388        -9.8611
  25   2.0000      -0.339612        -9.2413
  26   2.0000      -0.318458        -8.6657
  27   2.0000      -0.286811        -7.8045
  28   2.0000      -0.276206        -7.5159
  29   2.0000      -0.272142        -7.4054
  30   2.0000      -0.233107        -6.3432
  31   2.0000      -0.230097        -6.2613
  32   2.0000      -0.204681        -5.5697
  33   2.0000      -0.182254        -4.9594
  34   2.0000      -0.180246        -4.9048
  35   2.0000      -0.159655        -4.3444
  36   2.0000      -0.144464        -3.9311
  37   2.0000      -0.138485        -3.7684
  38   2.0000      -0.127939        -3.4814
  39   2.0000      -0.116855        -3.1798
  40   0.0000       0.065306         1.7771
  41   0.0000       0.191070         5.1993
  42   0.0000       0.198896         5.4122
  43   0.0000       0.255910         6.9637
  44   0.0000       0.266380         7.2486

MULLIKEN ATOMIC CHARGES
-----------------------
   0 Pt:    0.138607
   1 Cl:   -0.438187
   2 Cl:   -0.302226
   3 Cl:   -0.436292
   4 C :   -0.908723
   5 H :    0.207544
   6 H :    0.267512
   7 H :    0.216233
   8 H :    0.255533
Sum of atomic charges:   -1.0000000

LOEWDIN ATOMIC CHARGES
----------------------
   0 Pt:   -0.847547
   1 Cl:   -0.142455
   2 Cl:    0.033407
   3 Cl:   -0.140032
   4 C :   -0.503560
   5 H :    0.120587
   6 H :    0.180455
   7 H :    0.124423
   8 H :    0.174721

  Mayer bond orders larger than 0.100000
B(  0-Pt,  1-Cl) :   0.8063 B(  0-Pt,  2-Cl) :   1.0240 B(  0-Pt,  3-Cl) :   0.7978
B(  1-Cl,  3-Cl) :   0.1097 B(  4-C ,  5-H ) :   0.9273 B(  4-C ,  6-H ) :   0.8794
B(  4-C ,  7-H ) :   0.9254 B(  4-C ,  8-H ) :   0.9001

Dispersion correction           -0.004592298
FINAL SINGLE POINT ENERGY     -1539.035930829260
Dispersion correction            ... done

DIPOLE MOMENT
-------------
                                X             Y             Z
Electronic contribution:     -2.68954      -2.08286       4.29157
Nuclear contribution   :      3.53847       2.83713      -4.70298
                        -----------------------------------------
Total Dipole Moment    :      0.84893       0.75426      -0.41141
                        -----------------------------------------
Magnitude (a.u.)       :      1.20783
Magnitude (Debye)      :      3.07006

Rotational constants in cm-1:     0.049351     0.043400     0.023212
Rotational constants in MHz :  1479.516792  1301.090226   695.878857

                             ****ORCA TERMINATED NORMALLY****
TOTAL RUN TIME: 0 days 0 hours 0 minutes 44 seconds 679 msec
