                         Program Version 5.0.3 -  RELEASE  -
|  1> ! EnGrad PBEh-3c
|  2> %output
|  3> xyzfile=True
|  4> end
|  5> %scf
|  6> maxiter 250
|  7> end
|  8> %output
|  9> Print[P_Hirshfeld] = 1
| 10> end
| 11> % maxcore
| 12> 4000
| 13> *xyz -1 1
| 14> Pt  -1.09651242  -0.94846071   0.57196411
| 15> Cl  -0.28016202  -0.66151147   2.72013929
| 16> Cl  -2.70207285  -2.33227828   1.16912682
| 17> Cl  -1.70388110  -1.02959027  -1.65570384
| 18> C    1.15508536   0.92424505  -0.47217408
| 19> H    1.45820456   1.93626945  -0.14589477
| 20> H    1.21629484   0.24929702   0.16925447
| 21> H    1.78683630   0.69682326  -1.35280233
| 22> H    0.16264442   1.16587082  -1.00492381
| 23> *
| 24>
| 25>                          ****END OF INPUT****

CARTESIAN COORDINATES (ANGSTROEM)
---------------------------------
  Pt    -1.096512   -0.948461    0.571964
  Cl    -0.280162   -0.661511    2.720139
  Cl    -2.702073   -2.332278    1.169127
  Cl    -1.703881   -1.029590   -1.655704
  C      1.155085    0.924245   -0.472174
  H      1.458205    1.936269   -0.145895
  H      1.216295    0.249297    0.169254
  H      1.786836    0.696823   -1.352802
  H      0.162644    1.165871   -1.004924

 Total Charge           Charge          ....   -1
 Multiplicity           Mult            ....    1
 Number of Electrons    NEL             ....   80
 Basis Dimension        Dim             ....  109

ORBITAL ENERGIES
----------------

  NO   OCC          E(Eh)            E(eV)
   0   2.0000    -102.119062     -2778.8009
   1   2.0000    -102.091383     -2778.0478
   2   2.0000    -102.090770     -2778.0311
   3   2.0000     -10.308531      -280.5094
   4   2.0000      -9.583599      -260.7830
   5   2.0000      -9.555519      -260.0189
   6   2.0000      -9.555061      -260.0064
   7   2.0000      -7.271231      -197.8602
   8   2.0000      -7.263544      -197.6511
   9   2.0000      -7.263214      -197.6421
  10   2.0000      -7.241257      -197.0446
  11   2.0000      -7.240900      -197.0349
  12   2.0000      -7.236723      -196.9212
  13   2.0000      -7.236310      -196.9100
  14   2.0000      -7.236103      -196.9044
  15   2.0000      -7.235861      -196.8978
  16   2.0000      -3.940615      -107.2296
  17   2.0000      -2.159484       -58.7625
  18   2.0000      -2.154462       -58.6259
  19   2.0000      -2.117435       -57.6183
  20   2.0000      -0.713714       -19.4211
  21   2.0000      -0.690856       -18.7992
  22   2.0000      -0.683340       -18.5946
  23   2.0000      -0.678752       -18.4698
  24   2.0000      -0.398651       -10.8479
  25   2.0000      -0.333564        -9.0767
  26   2.0000      -0.319944        -8.7061
  27   2.0000      -0.288960        -7.8630
  28   2.0000      -0.282258        -7.6806
  29   2.0000      -0.276482        -7.5235
  30   2.0000      -0.237755        -6.4696
  31   2.0000      -0.231523        -6.3001
  32   2.0000      -0.205884        -5.6024
  33   2.0000      -0.182861        -4.9759
  34   2.0000      -0.181236        -4.9317
  35   2.0000      -0.159587        -4.3426
  36   2.0000      -0.143568        -3.9067
  37   2.0000      -0.136088        -3.7032
  38   2.0000      -0.125279        -3.4090
  39   2.0000      -0.115048        -3.1306
  40   0.0000       0.070004         1.9049
  41   0.0000       0.195838         5.3290
  42   0.0000       0.201211         5.4752
  43   0.0000       0.263878         7.1805
  44   0.0000       0.269534         7.3344

MULLIKEN ATOMIC CHARGES
-----------------------
   0 Pt:    0.125798
   1 Cl:   -0.436261
   2 Cl:   -0.293012
   3 Cl:   -0.436009
   4 C :   -0.935150
   5 H :    0.206457
   6 H :    0.302537
   7 H :    0.210133
   8 H :    0.255506
Sum of atomic charges:   -1.0000000

LOEWDIN ATOMIC CHARGES
----------------------
   0 Pt:   -0.868342
   1 Cl:   -0.135771
   2 Cl:    0.055154
   3 Cl:   -0.133499
   4 C :   -0.496388
   5 H :    0.123959
   6 H :    0.154324
   7 H :    0.126495
   8 H :    0.174068

  Mayer bond orders larger than 0.100000
B(  0-Pt,  1-Cl) :   0.8126 B(  0-Pt,  2-Cl) :   1.0389 B(  0-Pt,  3-Cl) :   0.7995
B(  1-Cl,  3-Cl) :   0.1099 B(  4-C ,  5-H ) :   0.9347 B(  4-C ,  6-H ) :   0.8666
B(  4-C ,  7-H ) :   0.9348 B(  4-C ,  8-H ) :   0.9015

Dispersion correction           -0.004659946
FINAL SINGLE POINT ENERGY     -1539.016860805874
Dispersion correction            ... done

DIPOLE MOMENT
-------------
                                X             Y             Z
Electronic contribution:     -3.20742      -2.84516       4.08368
Nuclear contribution   :      3.98499       3.55350      -4.48519
                        -----------------------------------------
Total Dipole Moment    :      0.77757       0.70835      -0.40151
                        -----------------------------------------
Magnitude (a.u.)       :      1.12587
Magnitude (Debye)      :      2.86173

Rotational constants in cm-1:     0.050792     0.044107     0.023720
Rotational constants in MHz :  1522.718530  1322.295692   711.096269

                             ****ORCA TERMINATED NORMALLY****
TOTAL RUN TIME: 0 days 0 hours 0 minutes 44 seconds 209 msec
