                         Program Version 5.0.3 -  RELEASE  -
|  1> ! EnGrad PBEh-3c
|  2> %output
|  3> xyzfile=True
|  4> end
|  5> %scf
|  6> maxiter 250
|  7> end
|  8> %output
|  9> Print[P_Hirshfeld] = 1
| 10> end
| 11> % maxcore
| 12> 4000
| 13> *xyz -1 1
| 14> Pt  -1.08850792  -0.94280642   0.56773897
| 15> Cl  -0.27784379  -0.65242141   2.71544278
| 16> Cl  -2.70180187  -2.32590619   1.17028364
| 17> Cl  -1.69303397  -1.03374908  -1.65795755
| 18> C    1.13576739   0.99755565  -0.55222569
| 19> H    1.45955358   1.91661066  -0.13161316
| 20> H    1.21106664   0.18733328   0.21209501
| 21> H    1.77619801   0.69764454  -1.34750940
| 22> H    0.17416346   1.15655703  -0.97734654
| 23> *
| 24>
| 25>                          ****END OF INPUT****

CARTESIAN COORDINATES (ANGSTROEM)
---------------------------------
  Pt    -1.088508   -0.942806    0.567739
  Cl    -0.277844   -0.652421    2.715443
  Cl    -2.701802   -2.325906    1.170284
  Cl    -1.693034   -1.033749   -1.657958
  C      1.135767    0.997556   -0.552226
  H      1.459554    1.916611   -0.131613
  H      1.211067    0.187333    0.212095
  H      1.776198    0.697645   -1.347509
  H      0.174163    1.156557   -0.977347

 Total Charge           Charge          ....   -1
 Multiplicity           Mult            ....    1
 Number of Electrons    NEL             ....   80
 Basis Dimension        Dim             ....  109

ORBITAL ENERGIES
----------------

  NO   OCC          E(Eh)            E(eV)
   0   2.0000    -102.118616     -2778.7888
   1   2.0000    -102.091247     -2778.0441
   2   2.0000    -102.091037     -2778.0384
   3   2.0000     -10.308283      -280.5026
   4   2.0000      -9.583058      -260.7683
   5   2.0000      -9.555543      -260.0196
   6   2.0000      -9.555224      -260.0109
   7   2.0000      -7.270682      -197.8453
   8   2.0000      -7.263017      -197.6367
   9   2.0000      -7.262690      -197.6278
  10   2.0000      -7.241369      -197.0477
  11   2.0000      -7.240981      -197.0371
  12   2.0000      -7.236599      -196.9179
  13   2.0000      -7.236390      -196.9122
  14   2.0000      -7.236344      -196.9109
  15   2.0000      -7.236024      -196.9022
  16   2.0000      -3.940784      -107.2342
  17   2.0000      -2.159346       -58.7588
  18   2.0000      -2.154728       -58.6331
  19   2.0000      -2.117605       -57.6230
  20   2.0000      -0.712826       -19.3970
  21   2.0000      -0.690564       -18.7912
  22   2.0000      -0.679651       -18.4942
  23   2.0000      -0.678444       -18.4614
  24   2.0000      -0.357544        -9.7293
  25   2.0000      -0.352089        -9.5808
  26   2.0000      -0.340594        -9.2680
  27   2.0000      -0.289305        -7.8724
  28   2.0000      -0.280251        -7.6260
  29   2.0000      -0.277472        -7.5504
  30   2.0000      -0.236746        -6.4422
  31   2.0000      -0.231912        -6.3107
  32   2.0000      -0.205886        -5.6024
  33   2.0000      -0.182985        -4.9793
  34   2.0000      -0.181360        -4.9351
  35   2.0000      -0.159639        -4.3440
  36   2.0000      -0.143710        -3.9105
  37   2.0000      -0.136371        -3.7108
  38   2.0000      -0.125383        -3.4119
  39   2.0000      -0.114974        -3.1286
  40   0.0000       0.069874         1.9014
  41   0.0000       0.195559         5.3214
  42   0.0000       0.200439         5.4542
  43   0.0000       0.266580         7.2540
  44   0.0000       0.269095         7.3224

MULLIKEN ATOMIC CHARGES
-----------------------
   0 Pt:    0.123161
   1 Cl:   -0.435628
   2 Cl:   -0.295552
   3 Cl:   -0.435939
   4 C :   -0.922479
   5 H :    0.216505
   6 H :    0.256115
   7 H :    0.221606
   8 H :    0.272212
Sum of atomic charges:   -1.0000000

LOEWDIN ATOMIC CHARGES
----------------------
   0 Pt:   -0.875467
   1 Cl:   -0.135126
   2 Cl:    0.049969
   3 Cl:   -0.132079
   4 C :   -0.498622
   5 H :    0.123830
   6 H :    0.174672
   7 H :    0.126942
   8 H :    0.165881

  Mayer bond orders larger than 0.100000
B(  0-Pt,  1-Cl) :   0.8116 B(  0-Pt,  2-Cl) :   1.0330 B(  0-Pt,  3-Cl) :   0.8001
B(  1-Cl,  3-Cl) :   0.1100 B(  4-C ,  5-H ) :   0.9280 B(  4-C ,  6-H ) :   0.8826
B(  4-C ,  7-H ) :   0.9280 B(  4-C ,  8-H ) :   0.8944

Dispersion correction           -0.004664856
FINAL SINGLE POINT ENERGY     -1539.044320344390
Dispersion correction            ... done

DIPOLE MOMENT
-------------
                                X             Y             Z
Electronic contribution:     -2.80872      -2.99115       4.27124
Nuclear contribution   :      3.61646       3.69144      -4.65900
                        -----------------------------------------
Total Dipole Moment    :      0.80774       0.70030      -0.38775
                        -----------------------------------------
Magnitude (a.u.)       :      1.13719
Magnitude (Debye)      :      2.89052

Rotational constants in cm-1:     0.050394     0.044054     0.023614
Rotational constants in MHz :  1510.763392  1320.700517   707.929255

                             ****ORCA TERMINATED NORMALLY****
TOTAL RUN TIME: 0 days 0 hours 0 minutes 44 seconds 446 msec
