                         Program Version 5.0.3 -  RELEASE  -
|  1> ! EnGrad PBEh-3c
|  2> %output
|  3> xyzfile=True
|  4> end
|  5> %scf
|  6> maxiter 250
|  7> end
|  8> %output
|  9> Print[P_Hirshfeld] = 1
| 10> end
| 11> % maxcore
| 12> 4000
| 13> *xyz -1 1
| 14> Pt  -1.06950694  -0.92867373   0.55738548
| 15> Cl  -0.27217784  -0.63094806   2.69997722
| 16> Cl  -2.71027301  -2.31627799   1.17997805
| 17> Cl  -1.66589134  -1.04102313  -1.66548454
| 18> C    1.14007290   0.99384907  -0.55751946
| 19> H    1.48360264   1.91222788  -0.07977176
| 20> H    1.16977802   0.17813189   0.18075104
| 21> H    1.78492160   0.69763668  -1.38206843
| 22> H    0.12959573   1.13683732  -0.93491894
| 23> *
| 24>
| 25>                          ****END OF INPUT****

CARTESIAN COORDINATES (ANGSTROEM)
---------------------------------
  Pt    -1.069507   -0.928674    0.557385
  Cl    -0.272178   -0.630948    2.699977
  Cl    -2.710273   -2.316278    1.179978
  Cl    -1.665891   -1.041023   -1.665485
  C      1.140073    0.993849   -0.557519
  H      1.483603    1.912228   -0.079772
  H      1.169778    0.178132    0.180751
  H      1.784922    0.697637   -1.382068
  H      0.129596    1.136837   -0.934919

 Total Charge           Charge          ....   -1
 Multiplicity           Mult            ....    1
 Number of Electrons    NEL             ....   80
 Basis Dimension        Dim             ....  109

ORBITAL ENERGIES
----------------

  NO   OCC          E(Eh)            E(eV)
   0   2.0000    -102.118495     -2778.7855
   1   2.0000    -102.091915     -2778.0623
   2   2.0000    -102.091717     -2778.0568
   3   2.0000     -10.315579      -280.7012
   4   2.0000      -9.582498      -260.7530
   5   2.0000      -9.556215      -260.0378
   6   2.0000      -9.556075      -260.0340
   7   2.0000      -7.270128      -197.8302
   8   2.0000      -7.262495      -197.6225
   9   2.0000      -7.262183      -197.6140
  10   2.0000      -7.241983      -197.0644
  11   2.0000      -7.241892      -197.0619
  12   2.0000      -7.237354      -196.9384
  13   2.0000      -7.237127      -196.9322
  14   2.0000      -7.236995      -196.9286
  15   2.0000      -7.236878      -196.9255
  16   2.0000      -3.941623      -107.2570
  17   2.0000      -2.159337       -58.7585
  18   2.0000      -2.156030       -58.6686
  19   2.0000      -2.118517       -57.6478
  20   2.0000      -0.710549       -19.3350
  21   2.0000      -0.691325       -18.8119
  22   2.0000      -0.680034       -18.5047
  23   2.0000      -0.673913       -18.3381
  24   2.0000      -0.350722        -9.5436
  25   2.0000      -0.346595        -9.4313
  26   2.0000      -0.346501        -9.4288
  27   2.0000      -0.290996        -7.9184
  28   2.0000      -0.276833        -7.5330
  29   2.0000      -0.275714        -7.5026
  30   2.0000      -0.234200        -6.3729
  31   2.0000      -0.232988        -6.3399
  32   2.0000      -0.206316        -5.6141
  33   2.0000      -0.183848        -5.0028
  34   2.0000      -0.182184        -4.9575
  35   2.0000      -0.160517        -4.3679
  36   2.0000      -0.144788        -3.9399
  37   2.0000      -0.138525        -3.7695
  38   2.0000      -0.126348        -3.4381
  39   2.0000      -0.115267        -3.1366
  40   0.0000       0.066414         1.8072
  41   0.0000       0.195723         5.3259
  42   0.0000       0.199518         5.4292
  43   0.0000       0.266138         7.2420
  44   0.0000       0.267599         7.2817

MULLIKEN ATOMIC CHARGES
-----------------------
   0 Pt:    0.118304
   1 Cl:   -0.432111
   2 Cl:   -0.300596
   3 Cl:   -0.435088
   4 C :   -0.909742
   5 H :    0.211217
   6 H :    0.261006
   7 H :    0.217859
   8 H :    0.269151
Sum of atomic charges:   -1.0000000

LOEWDIN ATOMIC CHARGES
----------------------
   0 Pt:   -0.873284
   1 Cl:   -0.128917
   2 Cl:    0.035096
   3 Cl:   -0.129711
   4 C :   -0.494710
   5 H :    0.124368
   6 H :    0.171321
   7 H :    0.127654
   8 H :    0.168183

  Mayer bond orders larger than 0.100000
B(  0-Pt,  1-Cl) :   0.8170 B(  0-Pt,  2-Cl) :   1.0208 B(  0-Pt,  3-Cl) :   0.8012
B(  1-Cl,  3-Cl) :   0.1109 B(  4-C ,  5-H ) :   0.9291 B(  4-C ,  6-H ) :   0.8723
B(  4-C ,  7-H ) :   0.9291 B(  4-C ,  8-H ) :   0.8914

Dispersion correction           -0.004691305
FINAL SINGLE POINT ENERGY     -1539.046554558828
Dispersion correction            ... done

DIPOLE MOMENT
-------------
                                X             Y             Z
Electronic contribution:     -2.02608      -2.47221       3.88196
Nuclear contribution   :      2.84523       3.17573      -4.25690
                        -----------------------------------------
Total Dipole Moment    :      0.81916       0.70351      -0.37494
                        -----------------------------------------
Magnitude (a.u.)       :      1.14303
Magnitude (Debye)      :      2.90536

Rotational constants in cm-1:     0.050208     0.044248     0.023629
Rotational constants in MHz :  1505.200495  1326.527826   708.375861

                             ****ORCA TERMINATED NORMALLY****
TOTAL RUN TIME: 0 days 0 hours 0 minutes 44 seconds 738 msec
