                         Program Version 5.0.3 -  RELEASE  -
|  1> ! EnGrad PBEh-3c
|  2> %output
|  3> xyzfile=True
|  4> end
|  5> %scf
|  6> maxiter 250
|  7> end
|  8> %output
|  9> Print[P_Hirshfeld] = 1
| 10> end
| 11> % maxcore
| 12> 4000
| 13> *xyz -1 1
| 14> Pt  -1.07572062  -0.93183072   0.55807875
| 15> Cl  -0.26973132  -0.63086756   2.70161822
| 16> Cl  -2.71524403  -2.32028323   1.18357899
| 17> Cl  -1.66811915  -1.03904254  -1.67052787
| 18> C    1.13790153   0.98507446  -0.55672153
| 19> H    1.48858273   1.91498466  -0.07805295
| 20> H    1.17432628   0.18645689   0.18739952
| 21> H    1.79111276   0.70018700  -1.38683874
| 22> H    0.12427181   1.13734375  -0.94043434
| 23> *
| 24>
| 25>                          ****END OF INPUT****

CARTESIAN COORDINATES (ANGSTROEM)
---------------------------------
  Pt    -1.075721   -0.931831    0.558079
  Cl    -0.269731   -0.630868    2.701618
  Cl    -2.715244   -2.320283    1.183579
  Cl    -1.668119   -1.039043   -1.670528
  C      1.137902    0.985074   -0.556722
  H      1.488583    1.914985   -0.078053
  H      1.174326    0.186457    0.187400
  H      1.791113    0.700187   -1.386839
  H      0.124272    1.137344   -0.940434

 Total Charge           Charge          ....   -1
 Multiplicity           Mult            ....    1
 Number of Electrons    NEL             ....   80
 Basis Dimension        Dim             ....  109

ORBITAL ENERGIES
----------------

  NO   OCC          E(Eh)            E(eV)
   0   2.0000    -102.118787     -2778.7935
   1   2.0000    -102.092281     -2778.0722
   2   2.0000    -102.091968     -2778.0637
   3   2.0000     -10.317126      -280.7433
   4   2.0000      -9.582780      -260.7607
   5   2.0000      -9.556515      -260.0460
   6   2.0000      -9.556266      -260.0392
   7   2.0000      -7.270409      -197.8379
   8   2.0000      -7.262777      -197.6302
   9   2.0000      -7.262469      -197.6218
  10   2.0000      -7.242285      -197.0726
  11   2.0000      -7.242085      -197.0672
  12   2.0000      -7.237664      -196.9469
  13   2.0000      -7.237325      -196.9376
  14   2.0000      -7.237297      -196.9369
  15   2.0000      -7.237072      -196.9307
  16   2.0000      -3.941925      -107.2652
  17   2.0000      -2.159639       -58.7668
  18   2.0000      -2.156233       -58.6741
  19   2.0000      -2.118790       -57.6552
  20   2.0000      -0.710622       -19.3370
  21   2.0000      -0.691235       -18.8095
  22   2.0000      -0.680070       -18.5056
  23   2.0000      -0.672356       -18.2957
  24   2.0000      -0.349980        -9.5234
  25   2.0000      -0.345477        -9.4009
  26   2.0000      -0.345053        -9.3894
  27   2.0000      -0.290506        -7.9051
  28   2.0000      -0.276959        -7.5364
  29   2.0000      -0.275584        -7.4990
  30   2.0000      -0.234090        -6.3699
  31   2.0000      -0.232966        -6.3393
  32   2.0000      -0.206485        -5.6187
  33   2.0000      -0.183945        -5.0054
  34   2.0000      -0.182283        -4.9602
  35   2.0000      -0.160920        -4.3789
  36   2.0000      -0.145025        -3.9463
  37   2.0000      -0.138772        -3.7762
  38   2.0000      -0.126690        -3.4474
  39   2.0000      -0.115913        -3.1541
  40   0.0000       0.065770         1.7897
  41   0.0000       0.194881         5.3030
  42   0.0000       0.199360         5.4248
  43   0.0000       0.265502         7.2247
  44   0.0000       0.267461         7.2780

MULLIKEN ATOMIC CHARGES
-----------------------
   0 Pt:    0.121652
   1 Cl:   -0.432881
   2 Cl:   -0.300726
   3 Cl:   -0.435645
   4 C :   -0.907900
   5 H :    0.207430
   6 H :    0.264030
   7 H :    0.216157
   8 H :    0.267885
Sum of atomic charges:   -1.0000000

LOEWDIN ATOMIC CHARGES
----------------------
   0 Pt:   -0.867847
   1 Cl:   -0.130837
   2 Cl:    0.035023
   3 Cl:   -0.131580
   4 C :   -0.494805
   5 H :    0.123360
   6 H :    0.170794
   7 H :    0.127181
   8 H :    0.168711

  Mayer bond orders larger than 0.100000
B(  0-Pt,  1-Cl) :   0.8153 B(  0-Pt,  2-Cl) :   1.0216 B(  0-Pt,  3-Cl) :   0.8001
B(  1-Cl,  3-Cl) :   0.1106 B(  4-C ,  5-H ) :   0.9305 B(  4-C ,  6-H ) :   0.8714
B(  4-C ,  7-H ) :   0.9298 B(  4-C ,  8-H ) :   0.8918

Dispersion correction           -0.004682957
FINAL SINGLE POINT ENERGY     -1539.046553120694
Dispersion correction            ... done

DIPOLE MOMENT
-------------
                                X             Y             Z
Electronic contribution:     -2.32043      -2.59974       3.92098
Nuclear contribution   :      3.13279       3.29798      -4.29202
                        -----------------------------------------
Total Dipole Moment    :      0.81237       0.69824      -0.37104
                        -----------------------------------------
Magnitude (a.u.)       :      1.13365
Magnitude (Debye)      :      2.88150

Rotational constants in cm-1:     0.050131     0.044099     0.023569
Rotational constants in MHz :  1502.882856  1322.060594   706.590555

                             ****ORCA TERMINATED NORMALLY****
TOTAL RUN TIME: 0 days 0 hours 0 minutes 44 seconds 167 msec
