                         Program Version 5.0.3 -  RELEASE  -
|  1> ! EnGrad PBEh-3c
|  2> %output
|  3> xyzfile=True
|  4> end
|  5> %scf
|  6> maxiter 250
|  7> end
|  8> %output
|  9> Print[P_Hirshfeld] = 1
| 10> end
| 11> % maxcore
| 12> 4000
| 13> *xyz 0 1
| 14> Pd   0.39428355   0.12929172  -0.28054362
| 15> O    1.92631304   1.38755782   0.66410132
| 16> C    1.77574811   2.57261903   0.37475321
| 17> O    0.64594949   2.90833861  -0.15457185
| 18> C    2.75715443   3.67477836   0.61286449
| 19> H    2.31750276   4.57333956   1.04332048
| 20> H    3.17365254   3.96454560  -0.35392771
| 21> H    3.55489297   3.32288721   1.25941082
| 22> N   -1.38926996  -0.79367681  -0.94315005
| 23> C   -1.22693468  -1.96495898  -1.83243904
| 24> H   -0.71360104  -1.74831659  -2.76310864
| 25> H   -2.19291673  -2.33058667  -2.21415323
| 26> H   -0.63832399  -2.69653909  -1.29146589
| 27> C   -2.03807990   0.21731904  -1.78762683
| 28> H   -2.21121192   1.14808525  -1.26025066
| 29> H   -3.02727425  -0.10699266  -2.14086810
| 30> H   -1.44249278   0.45564139  -2.66463897
| 31> C   -1.57229930  -1.13397762   1.44195815
| 32> C   -1.51210074  -2.20652341   2.32517874
| 33> C   -1.34551200  -2.05204061   3.68929607
| 34> C   -1.01101786  -0.80350768   4.17454331
| 35> C   -1.21565313   0.28209975   3.33546890
| 36> C   -1.48913970   0.14217065   1.98759416
| 37> H   -0.82703447  -0.66802096   5.23268034
| 38> H   -1.01644623   1.24598753   3.78831867
| 39> H   -1.93401836  -3.17864793   2.06973957
| 40> H   -1.40261913  -2.87368050   4.39357132
| 41> H   -1.67103160   3.78902932   1.15703538
| 42> C   -2.32149669  -1.19629945   0.14389021
| 43> H   -3.24329433  -0.59618445   0.20712175
| 44> H   -2.77671190  -2.19376364   0.05245524
| 45> O    1.86118088  -0.03017708  -1.56366578
| 46> C    2.23455424  -0.37291752  -2.72571634
| 47> O    1.59025731  -1.23584756  -3.29118784
| 48> C    3.69055007  -0.40756158  -3.10104357
| 49> H    4.10825198  -1.39561281  -3.31950494
| 50> H    4.35932601  -0.07546347  -2.30565044
| 51> H    3.82885809   0.24760623  -3.95977384
| 52> *
| 53>
| 54>                          ****END OF INPUT****

CARTESIAN COORDINATES (ANGSTROEM)
---------------------------------
  Pd     0.394284    0.129292   -0.280544
  O      1.926313    1.387558    0.664101
  C      1.775748    2.572619    0.374753
  O      0.645949    2.908339   -0.154572
  C      2.757154    3.674778    0.612864
  H      2.317503    4.573340    1.043320
  H      3.173653    3.964546   -0.353928
  H      3.554893    3.322887    1.259411
  N     -1.389270   -0.793677   -0.943150
  C     -1.226935   -1.964959   -1.832439
  H     -0.713601   -1.748317   -2.763109
  H     -2.192917   -2.330587   -2.214153
  H     -0.638324   -2.696539   -1.291466
  C     -2.038080    0.217319   -1.787627
  H     -2.211212    1.148085   -1.260251
  H     -3.027274   -0.106993   -2.140868
  H     -1.442493    0.455641   -2.664639
  C     -1.572299   -1.133978    1.441958
  C     -1.512101   -2.206523    2.325179
  C     -1.345512   -2.052041    3.689296
  C     -1.011018   -0.803508    4.174543
  C     -1.215653    0.282100    3.335469
  C     -1.489140    0.142171    1.987594
  H     -0.827034   -0.668021    5.232680
  H     -1.016446    1.245988    3.788319
  H     -1.934018   -3.178648    2.069740
  H     -1.402619   -2.873680    4.393571
  H     -1.671032    3.789029    1.157035
  C     -2.321497   -1.196299    0.143890
  H     -3.243294   -0.596184    0.207122
  H     -2.776712   -2.193764    0.052455
  O      1.861181   -0.030177   -1.563666
  C      2.234554   -0.372918   -2.725716
  O      1.590257   -1.235848   -3.291188
  C      3.690550   -0.407562   -3.101044
  H      4.108252   -1.395613   -3.319505
  H      4.359326   -0.075463   -2.305650
  H      3.828858    0.247606   -3.959774

 Total Charge           Charge          ....    0
 Multiplicity           Mult            ....    1
 Number of Electrons    NEL             ....  154
 Basis Dimension        Dim             ....  339

ORBITAL ENERGIES
----------------

  NO   OCC          E(Eh)            E(eV)
   0   2.0000     -19.480739      -530.0979
   1   2.0000     -19.470211      -529.8114
   2   2.0000     -19.430716      -528.7367
   3   2.0000     -19.411312      -528.2087
   4   2.0000     -14.738353      -401.0510
   5   2.0000     -10.534077      -286.6468
   6   2.0000     -10.522867      -286.3418
   7   2.0000     -10.513773      -286.0943
   8   2.0000     -10.500787      -285.7410
   9   2.0000     -10.493654      -285.5468
  10   2.0000     -10.485937      -285.3369
  11   2.0000     -10.479907      -285.1728
  12   2.0000     -10.476661      -285.0844
  13   2.0000     -10.474997      -285.0392
  14   2.0000     -10.473178      -284.9897
  15   2.0000     -10.472022      -284.9582
  16   2.0000     -10.423227      -283.6304
  17   2.0000     -10.413660      -283.3701
  18   2.0000      -3.678289      -100.0913
  19   2.0000      -2.327740       -63.3410
  20   2.0000      -2.319703       -63.1223
  21   2.0000      -2.287777       -62.2536
  22   2.0000      -1.163786       -31.6682
  23   2.0000      -1.155377       -31.4394
  24   2.0000      -1.090899       -29.6849
  25   2.0000      -1.040056       -28.3014
  26   2.0000      -1.027364       -27.9560
  27   2.0000      -0.991300       -26.9746
  28   2.0000      -0.900074       -24.4923
  29   2.0000      -0.857072       -23.3221
  30   2.0000      -0.821215       -22.3464
  31   2.0000      -0.811168       -22.0730
  32   2.0000      -0.808608       -22.0033
  33   2.0000      -0.792436       -21.5633
  34   2.0000      -0.729888       -19.8613
  35   2.0000      -0.703826       -19.1521
  36   2.0000      -0.681291       -18.5389
  37   2.0000      -0.612227       -16.6596
  38   2.0000      -0.604181       -16.4406
  39   2.0000      -0.586410       -15.9570
  40   2.0000      -0.584821       -15.9138
  41   2.0000      -0.576653       -15.6915
  42   2.0000      -0.566170       -15.4063
  43   2.0000      -0.540238       -14.7006
  44   2.0000      -0.526250       -14.3200
  45   2.0000      -0.524371       -14.2689
  46   2.0000      -0.508395       -13.8341
  47   2.0000      -0.504553       -13.7296
  48   2.0000      -0.496960       -13.5230
  49   2.0000      -0.492978       -13.4146
  50   2.0000      -0.492204       -13.3935
  51   2.0000      -0.484966       -13.1966
  52   2.0000      -0.479030       -13.0351
  53   2.0000      -0.475946       -12.9511
  54   2.0000      -0.455600       -12.3975
  55   2.0000      -0.445889       -12.1333
  56   2.0000      -0.440270       -11.9803
  57   2.0000      -0.437618       -11.9082
  58   2.0000      -0.432299       -11.7635
  59   2.0000      -0.428190       -11.6517
  60   2.0000      -0.418168       -11.3789
  61   2.0000      -0.415437       -11.3046
  62   2.0000      -0.410793       -11.1783
  63   2.0000      -0.406456       -11.0602
  64   2.0000      -0.382542       -10.4095
  65   2.0000      -0.363796        -9.8994
  66   2.0000      -0.363286        -9.8855
  67   2.0000      -0.344411        -9.3719
  68   2.0000      -0.326633        -8.8881
  69   2.0000      -0.320863        -8.7311
  70   2.0000      -0.316855        -8.6221
  71   2.0000      -0.309172        -8.4130
  72   2.0000      -0.295765        -8.0482
  73   2.0000      -0.285444        -7.7673
  74   2.0000      -0.266910        -7.2630
  75   2.0000      -0.262193        -7.1346
  76   2.0000      -0.253905        -6.9091
  77   0.0000      -0.177197        -4.8218
  78   0.0000      -0.103682        -2.8213
  79   0.0000      -0.023441        -0.6379
  80   0.0000      -0.003273        -0.0891
  81   0.0000       0.046563         1.2670

MULLIKEN ATOMIC CHARGES
-----------------------
   0 Pd:    0.508347
   1 O :   -0.440193
   2 C :    0.586175
   3 O :   -0.508413
   4 C :   -0.742311
   5 H :    0.249042
   6 H :    0.252195
   7 H :    0.232078
   8 N :   -0.486121
   9 C :   -0.545354
  10 H :    0.322492
  11 H :    0.219414
  12 H :    0.264474
  13 C :   -0.564636
  14 H :    0.298124
  15 H :    0.235256
  16 H :    0.295044
  17 C :   -0.050958
  18 C :   -0.241191
  19 C :   -0.233845
  20 C :   -0.179468
  21 C :   -0.305452
  22 C :    0.055233
  23 H :    0.237426
  24 H :    0.252345
  25 H :    0.217944
  26 H :    0.241484
  27 H :    0.094728
  28 C :   -0.319880
  29 H :    0.278719
  30 H :    0.256906
  31 O :   -0.507769
  32 C :    0.520894
  33 O :   -0.467590
  34 C :   -0.742138
  35 H :    0.254395
  36 H :    0.234890
  37 H :    0.227713
Sum of atomic charges:    0.0000000

LOEWDIN ATOMIC CHARGES
----------------------
   0 Pd:   -0.218872
   1 O :   -0.127514
   2 C :    0.134122
   3 O :   -0.300988
   4 C :   -0.378510
   5 H :    0.151669
   6 H :    0.159351
   7 H :    0.139103
   8 N :   -0.039686
   9 C :   -0.241837
  10 H :    0.170552
  11 H :    0.120907
  12 H :    0.151711
  13 C :   -0.238911
  14 H :    0.159899
  15 H :    0.125752
  16 H :    0.162988
  17 C :   -0.068839
  18 C :   -0.113639
  19 C :   -0.125665
  20 C :   -0.111820
  21 C :   -0.125734
  22 C :   -0.000205
  23 H :    0.144942
  24 H :    0.152354
  25 H :    0.143950
  26 H :    0.144693
  27 H :    0.099231
  28 C :   -0.101735
  29 H :    0.157814
  30 H :    0.143857
  31 O :   -0.130672
  32 C :    0.095519
  33 O :   -0.287167
  34 C :   -0.376484
  35 H :    0.151296
  36 H :    0.135066
  37 H :    0.143504

  Mayer bond orders larger than 0.100000
B(  0-Pd,  1-O ) :   0.5306 B(  0-Pd,  3-O ) :   0.1851 B(  0-Pd,  8-N ) :   0.4598
B(  0-Pd, 22-C ) :   0.2394 B(  0-Pd, 27-H ) :   0.1147 B(  0-Pd, 31-O ) :   0.6486
B(  1-O ,  2-C ) :   1.4752 B(  2-C ,  3-O ) :   1.5906 B(  2-C ,  4-C ) :   0.9425
B(  3-O , 27-H ) :   0.1351 B(  4-C ,  5-H ) :   0.9141 B(  4-C ,  6-H ) :   0.9093
B(  4-C ,  7-H ) :   0.9135 B(  8-N ,  9-C ) :   0.9056 B(  8-N , 13-C ) :   0.9096
B(  8-N , 28-C ) :   0.8770 B(  9-C , 10-H ) :   0.8605 B(  9-C , 11-H ) :   0.9022
B(  9-C , 12-H ) :   0.9104 B( 13-C , 14-H ) :   0.8858 B( 13-C , 15-H ) :   0.8998
B( 13-C , 16-H ) :   0.8895 B( 17-C , 18-C ) :   1.3781 B( 17-C , 22-C ) :   1.3735
B( 17-C , 28-C ) :   0.9389 B( 18-C , 19-C ) :   1.4518 B( 18-C , 25-H ) :   0.9142
B( 19-C , 20-C ) :   1.4140 B( 19-C , 26-H ) :   0.9076 B( 20-C , 21-C ) :   1.4012
B( 20-C , 23-H ) :   0.9077 B( 21-C , 22-C ) :   1.4447 B( 21-C , 24-H ) :   0.9026
B( 22-C , 27-H ) :   0.5407 B( 28-C , 29-H ) :   0.8970 B( 28-C , 30-H ) :   0.9080
B( 31-O , 32-C ) :   1.3076 B( 32-C , 33-O ) :   1.8660 B( 32-C , 34-C ) :   0.9300
B( 34-C , 35-H ) :   0.9155 B( 34-C , 36-H ) :   0.9109 B( 34-C , 37-H ) :   0.9191

Dispersion correction           -0.025424918
FINAL SINGLE POINT ENERGY      -988.133245198720
Dispersion correction            ... done

DIPOLE MOMENT
-------------
                                X             Y             Z
Electronic contribution:     15.08610       5.19100     -12.61060
Nuclear contribution   :    -17.26137      -5.96727      14.07821
                        -----------------------------------------
Total Dipole Moment    :     -2.17527      -0.77627       1.46761
                        -----------------------------------------
Magnitude (a.u.)       :      2.73647
Magnitude (Debye)      :      6.95556

Rotational constants in cm-1:     0.013367     0.008267     0.006268
Rotational constants in MHz :   400.730378   247.826407   187.895408

                             ****ORCA TERMINATED NORMALLY****
TOTAL RUN TIME: 0 days 0 hours 17 minutes 36 seconds 714 msec
