                         Program Version 5.0.3 -  RELEASE  -
|  1> ! EnGrad PBEh-3c
|  2> %output
|  3> xyzfile=True
|  4> end
|  5> %scf
|  6> maxiter 250
|  7> end
|  8> %output
|  9> Print[P_Hirshfeld] = 1
| 10> end
| 11> % maxcore
| 12> 4000
| 13> *xyz 0 1
| 14> Pd   0.38621592   0.16902446  -0.22639183
| 15> O    1.95121891   1.30038706   0.67460559
| 16> C    1.63628902   2.64145047   0.32851959
| 17> O    0.69472979   2.91008848  -0.13191700
| 18> C    2.78467354   3.65418955   0.61962133
| 19> H    2.32102448   4.56318461   1.04529706
| 20> H    3.18301521   3.95455854  -0.35060070
| 21> H    3.56722404   3.31747731   1.26083247
| 22> N   -1.41175010  -0.81159289  -1.00021094
| 23> C   -1.21094600  -1.99403396  -1.82334095
| 24> H   -0.67627154  -1.76591117  -2.72478747
| 25> H   -2.18320604  -2.35794518  -2.17239790
| 26> H   -0.64868116  -2.72297801  -1.25636459
| 27> C   -2.04531515   0.22288246  -1.81134292
| 28> H   -2.20029001   1.14001865  -1.28206068
| 29> H   -3.01185368  -0.13706992  -2.15527869
| 30> H   -1.42103803   0.41626255  -2.67864773
| 31> C   -1.62886845  -1.10414641   1.44961307
| 32> C   -1.59011991  -2.23984725   2.35291963
| 33> C   -1.34461764  -2.04769152   3.69558686
| 34> C   -1.04650967  -0.81608576   4.17512989
| 35> C   -1.14183991   0.31425397   3.32619120
| 36> C   -1.41709552   0.11692587   2.00474362
| 37> H   -0.81715604  -0.66959988   5.22952829
| 38> H   -0.95386682   1.23714546   3.76795929
| 39> H   -1.99083359  -3.16513151   2.06196160
| 40> H   -1.45962537  -2.87083798   4.39555936
| 41> H   -1.60728927   3.79806929   1.12999685
| 42> C   -2.32259223  -1.20612405   0.16764441
| 43> H   -3.21670952  -0.55179369   0.20160153
| 44> H   -2.78404488  -2.17799164   0.03209906
| 45> O    1.87485871   0.07455444  -1.54655432
| 46> C    2.21351225  -0.52015673  -2.69170224
| 47> O    1.57650309  -1.27690505  -3.31168488
| 48> C    3.71652914  -0.31948965  -3.10404553
| 49> H    4.07911126  -1.35031616  -3.35205138
| 50> H    4.34553090  -0.01537720  -2.32722212
| 51> H    3.80106431   0.28795967  -3.97409656
| 52> *
| 53>
| 54>                          ****END OF INPUT****

CARTESIAN COORDINATES (ANGSTROEM)
---------------------------------
  Pd     0.386216    0.169024   -0.226392
  O      1.951219    1.300387    0.674606
  C      1.636289    2.641450    0.328520
  O      0.694730    2.910088   -0.131917
  C      2.784674    3.654190    0.619621
  H      2.321024    4.563185    1.045297
  H      3.183015    3.954559   -0.350601
  H      3.567224    3.317477    1.260832
  N     -1.411750   -0.811593   -1.000211
  C     -1.210946   -1.994034   -1.823341
  H     -0.676272   -1.765911   -2.724787
  H     -2.183206   -2.357945   -2.172398
  H     -0.648681   -2.722978   -1.256365
  C     -2.045315    0.222882   -1.811343
  H     -2.200290    1.140019   -1.282061
  H     -3.011854   -0.137070   -2.155279
  H     -1.421038    0.416263   -2.678648
  C     -1.628868   -1.104146    1.449613
  C     -1.590120   -2.239847    2.352920
  C     -1.344618   -2.047692    3.695587
  C     -1.046510   -0.816086    4.175130
  C     -1.141840    0.314254    3.326191
  C     -1.417096    0.116926    2.004744
  H     -0.817156   -0.669600    5.229528
  H     -0.953867    1.237145    3.767959
  H     -1.990834   -3.165132    2.061962
  H     -1.459625   -2.870838    4.395559
  H     -1.607289    3.798069    1.129997
  C     -2.322592   -1.206124    0.167644
  H     -3.216710   -0.551794    0.201602
  H     -2.784045   -2.177992    0.032099
  O      1.874859    0.074554   -1.546554
  C      2.213512   -0.520157   -2.691702
  O      1.576503   -1.276905   -3.311685
  C      3.716529   -0.319490   -3.104046
  H      4.079111   -1.350316   -3.352051
  H      4.345531   -0.015377   -2.327222
  H      3.801064    0.287960   -3.974097

 Total Charge           Charge          ....    0
 Multiplicity           Mult            ....    1
 Number of Electrons    NEL             ....  154
 Basis Dimension        Dim             ....  339

ORBITAL ENERGIES
----------------

  NO   OCC          E(Eh)            E(eV)
   0   2.0000     -19.462527      -529.6023
   1   2.0000     -19.459880      -529.5303
   2   2.0000     -19.453617      -529.3598
   3   2.0000     -19.431961      -528.7705
   4   2.0000     -14.722322      -400.6147
   5   2.0000     -10.529345      -286.5180
   6   2.0000     -10.526866      -286.4506
   7   2.0000     -10.516255      -286.1619
   8   2.0000     -10.514845      -286.1235
   9   2.0000     -10.506639      -285.9002
  10   2.0000     -10.491222      -285.4807
  11   2.0000     -10.485996      -285.3384
  12   2.0000     -10.484739      -285.3043
  13   2.0000     -10.480868      -285.1989
  14   2.0000     -10.478476      -285.1338
  15   2.0000     -10.470649      -284.9209
  16   2.0000     -10.416008      -283.4340
  17   2.0000     -10.403803      -283.1019
  18   2.0000      -3.657333       -99.5211
  19   2.0000      -2.305079       -62.7244
  20   2.0000      -2.298628       -62.5488
  21   2.0000      -2.269449       -61.7548
  22   2.0000      -1.221417       -33.2364
  23   2.0000      -1.152004       -31.3476
  24   2.0000      -1.079191       -29.3663
  25   2.0000      -1.042987       -28.3811
  26   2.0000      -1.011858       -27.5341
  27   2.0000      -1.001497       -27.2521
  28   2.0000      -0.910746       -24.7827
  29   2.0000      -0.873121       -23.7588
  30   2.0000      -0.824013       -22.4225
  31   2.0000      -0.813853       -22.1461
  32   2.0000      -0.790780       -21.5182
  33   2.0000      -0.779479       -21.2107
  34   2.0000      -0.726888       -19.7796
  35   2.0000      -0.722804       -19.6685
  36   2.0000      -0.681418       -18.5423
  37   2.0000      -0.617313       -16.7980
  38   2.0000      -0.585677       -15.9371
  39   2.0000      -0.580370       -15.7927
  40   2.0000      -0.578164       -15.7326
  41   2.0000      -0.570664       -15.5285
  42   2.0000      -0.567173       -15.4336
  43   2.0000      -0.548961       -14.9380
  44   2.0000      -0.536938       -14.6108
  45   2.0000      -0.522433       -14.2161
  46   2.0000      -0.513492       -13.9728
  47   2.0000      -0.511305       -13.9133
  48   2.0000      -0.503121       -13.6906
  49   2.0000      -0.500041       -13.6068
  50   2.0000      -0.492593       -13.4041
  51   2.0000      -0.485028       -13.1983
  52   2.0000      -0.480566       -13.0769
  53   2.0000      -0.480005       -13.0616
  54   2.0000      -0.465369       -12.6633
  55   2.0000      -0.454317       -12.3626
  56   2.0000      -0.448610       -12.2073
  57   2.0000      -0.439457       -11.9582
  58   2.0000      -0.438108       -11.9215
  59   2.0000      -0.432119       -11.7585
  60   2.0000      -0.428664       -11.6646
  61   2.0000      -0.418819       -11.3966
  62   2.0000      -0.407233       -11.0814
  63   2.0000      -0.396591       -10.7918
  64   2.0000      -0.373657       -10.1677
  65   2.0000      -0.359319        -9.7776
  66   2.0000      -0.345032        -9.3888
  67   2.0000      -0.340194        -9.2571
  68   2.0000      -0.332033        -9.0351
  69   2.0000      -0.323491        -8.8026
  70   2.0000      -0.315908        -8.5963
  71   2.0000      -0.300388        -8.1740
  72   2.0000      -0.294427        -8.0118
  73   2.0000      -0.288345        -7.8463
  74   2.0000      -0.277073        -7.5395
  75   2.0000      -0.274884        -7.4800
  76   2.0000      -0.255517        -6.9530
  77   0.0000      -0.180861        -4.9215
  78   0.0000      -0.080694        -2.1958
  79   0.0000      -0.033311        -0.9064
  80   0.0000      -0.008047        -0.2190
  81   0.0000       0.056636         1.5411

MULLIKEN ATOMIC CHARGES
-----------------------
   0 Pd:    0.398205
   1 O :   -0.537920
   2 C :    0.533955
   3 O :   -0.284197
   4 C :   -0.751910
   5 H :    0.219131
   6 H :    0.242972
   7 H :    0.251222
   8 N :   -0.478291
   9 C :   -0.535774
  10 H :    0.315957
  11 H :    0.206600
  12 H :    0.259403
  13 C :   -0.548682
  14 H :    0.289560
  15 H :    0.226848
  16 H :    0.287989
  17 C :   -0.018178
  18 C :   -0.230835
  19 C :   -0.215857
  20 C :   -0.202698
  21 C :   -0.273178
  22 C :    0.052027
  23 H :    0.246629
  24 H :    0.267922
  25 H :    0.233373
  26 H :    0.243285
  27 H :    0.059168
  28 C :   -0.333465
  29 H :    0.270404
  30 H :    0.259072
  31 O :   -0.540188
  32 C :    0.527716
  33 O :   -0.410732
  34 C :   -0.746009
  35 H :    0.223106
  36 H :    0.256750
  37 H :    0.236623
Sum of atomic charges:   -0.0000000

LOEWDIN ATOMIC CHARGES
----------------------
   0 Pd:   -0.300860
   1 O :   -0.257287
   2 C :    0.108212
   3 O :   -0.062415
   4 C :   -0.391972
   5 H :    0.137717
   6 H :    0.151541
   7 H :    0.142877
   8 N :   -0.066327
   9 C :   -0.243450
  10 H :    0.166429
  11 H :    0.113390
  12 H :    0.149255
  13 C :   -0.237538
  14 H :    0.156579
  15 H :    0.120308
  16 H :    0.161504
  17 C :   -0.054329
  18 C :   -0.102062
  19 C :   -0.125479
  20 C :   -0.104419
  21 C :   -0.111697
  22 C :    0.041951
  23 H :    0.149238
  24 H :    0.158887
  25 H :    0.146630
  26 H :    0.148656
  27 H :    0.063430
  28 C :   -0.098938
  29 H :    0.157304
  30 H :    0.144316
  31 O :   -0.186446
  32 C :    0.119107
  33 O :   -0.227074
  34 C :   -0.392083
  35 H :    0.142225
  36 H :    0.140084
  37 H :    0.142736

  Mayer bond orders larger than 0.100000
B(  0-Pd,  1-O ) :   0.7536 B(  0-Pd,  3-O ) :   0.1096 B(  0-Pd,  8-N ) :   0.3881
B(  0-Pd, 22-C ) :   0.2205 B(  0-Pd, 27-H ) :   0.1515 B(  0-Pd, 31-O ) :   0.6770
B(  1-O ,  2-C ) :   1.1035 B(  2-C ,  3-O ) :   2.0372 B(  2-C ,  4-C ) :   0.9134
B(  4-C ,  5-H ) :   0.9221 B(  4-C ,  6-H ) :   0.9150 B(  4-C ,  7-H ) :   0.9127
B(  8-N ,  9-C ) :   0.9218 B(  8-N , 13-C ) :   0.9197 B(  8-N , 28-C ) :   0.8786
B(  9-C , 10-H ) :   0.8638 B(  9-C , 11-H ) :   0.9057 B(  9-C , 12-H ) :   0.9114
B( 13-C , 14-H ) :   0.8897 B( 13-C , 15-H ) :   0.9033 B( 13-C , 16-H ) :   0.8927
B( 17-C , 18-C ) :   1.3505 B( 17-C , 22-C ) :   1.4090 B( 17-C , 28-C ) :   0.9416
B( 18-C , 19-C ) :   1.4621 B( 18-C , 21-C ) :   0.1058 B( 18-C , 25-H ) :   0.9061
B( 19-C , 20-C ) :   1.4206 B( 19-C , 26-H ) :   0.9067 B( 20-C , 21-C ) :   1.3927
B( 20-C , 23-H ) :   0.9032 B( 21-C , 22-C ) :   1.4522 B( 21-C , 24-H ) :   0.8971
B( 22-C , 27-H ) :   0.5921 B( 28-C , 29-H ) :   0.8991 B( 28-C , 30-H ) :   0.9074
B( 31-O , 32-C ) :   1.2340 B( 31-O , 33-O ) :   0.1022 B( 32-C , 33-O ) :   1.9691
B( 32-C , 34-C ) :   0.9054 B( 34-C , 35-H ) :   0.9265 B( 34-C , 36-H ) :   0.9053
B( 34-C , 37-H ) :   0.9193

Dispersion correction           -0.025420884
FINAL SINGLE POINT ENERGY      -988.142360058562
Dispersion correction            ... done

DIPOLE MOMENT
-------------
                                X             Y             Z
Electronic contribution:     14.12461       7.27797      -9.58143
Nuclear contribution   :    -16.83615      -8.14703      11.21265
                        -----------------------------------------
Total Dipole Moment    :     -2.71154      -0.86906       1.63122
                        -----------------------------------------
Magnitude (a.u.)       :      3.28155
Magnitude (Debye)      :      8.34105

Rotational constants in cm-1:     0.013311     0.008264     0.006244
Rotational constants in MHz :   399.041910   247.741289   187.199631

                             ****ORCA TERMINATED NORMALLY****
TOTAL RUN TIME: 0 days 0 hours 12 minutes 32 seconds 139 msec
