                         Program Version 5.0.3 -  RELEASE  -
|  1> ! EnGrad PBEh-3c
|  2> %output
|  3> xyzfile=True
|  4> end
|  5> %scf
|  6> maxiter 250
|  7> end
|  8> %output
|  9> Print[P_Hirshfeld] = 1
| 10> end
| 11> % maxcore
| 12> 4000
| 13> *xyz 0 1
| 14> Pd   0.39195556   0.14075694  -0.26491765
| 15> O    1.93349984   1.36240394   0.66713242
| 16> C    1.73550599   2.59248094   0.36141210
| 17> O    0.66002547   2.90884355  -0.14803460
| 18> C    2.76509531   3.66883728   0.61481424
| 19> H    2.31851898   4.57040926   1.04389084
| 20> H    3.17635422   3.96166375  -0.35296768
| 21> H    3.55845121   3.32132614   1.25982105
| 22> N   -1.39575680  -0.79884665  -0.95961546
| 23> C   -1.22232101  -1.97334882  -1.82981371
| 24> H   -0.70282929  -1.75339365  -2.75205073
| 25> H   -2.19011463  -2.33848121  -2.20210437
| 26> H   -0.64131264  -2.70416827  -1.28133711
| 27> C   -2.04016769   0.21892441  -1.79447031
| 28> H   -2.20806031   1.14575756  -1.26654413
| 29> H   -3.02282451  -0.11567171  -2.14502640
| 30> H   -1.43630183   0.44427829  -2.66868132
| 31> C   -1.58862281  -1.12536957   1.44416704
| 32> C   -1.53461384  -2.21613929   2.33318361
| 33> C   -1.34525392  -2.05078564   3.69111133
| 34> C   -1.02125932  -0.80713719   4.17471257
| 35> C   -1.19435369   0.29137813   3.33279174
| 36> C   -1.46835073   0.13488605   1.99254278
| 37> H   -0.82418396  -0.66847657   5.23177079
| 38> H   -0.99838840   1.24343608   3.78244380
| 39> H   -1.95041289  -3.17474765   2.06749517
| 40> H   -1.41906877  -2.87286027   4.39414499
| 41> H   -1.65263820   3.79163788   1.14923318
| 42> C   -2.32181282  -1.19913443   0.15074469
| 43> H   -3.23562305  -0.58337511   0.20552885
| 44> H   -2.77882789  -2.18921249   0.04658129
| 45> O    1.86512774   0.00004411  -1.55872812
| 46> C    2.22848239  -0.41540466  -2.71590128
| 47> O    1.58628841  -1.24769505  -3.29710244
| 48> C    3.69804655  -0.38214767  -3.10190981
| 49> H    4.09984317  -1.38254207  -3.32889650
| 50> H    4.35534531  -0.05812506  -2.31187513
| 51> H    3.82083796   0.25925056  -3.96390679
| 52> *
| 53>
| 54>                          ****END OF INPUT****

CARTESIAN COORDINATES (ANGSTROEM)
---------------------------------
  Pd     0.391956    0.140757   -0.264918
  O      1.933500    1.362404    0.667132
  C      1.735506    2.592481    0.361412
  O      0.660025    2.908844   -0.148035
  C      2.765095    3.668837    0.614814
  H      2.318519    4.570409    1.043891
  H      3.176354    3.961664   -0.352968
  H      3.558451    3.321326    1.259821
  N     -1.395757   -0.798847   -0.959615
  C     -1.222321   -1.973349   -1.829814
  H     -0.702829   -1.753394   -2.752051
  H     -2.190115   -2.338481   -2.202104
  H     -0.641313   -2.704168   -1.281337
  C     -2.040168    0.218924   -1.794470
  H     -2.208060    1.145758   -1.266544
  H     -3.022825   -0.115672   -2.145026
  H     -1.436302    0.444278   -2.668681
  C     -1.588623   -1.125370    1.444167
  C     -1.534614   -2.216139    2.333184
  C     -1.345254   -2.050786    3.691111
  C     -1.021259   -0.807137    4.174713
  C     -1.194354    0.291378    3.332792
  C     -1.468351    0.134886    1.992543
  H     -0.824184   -0.668477    5.231771
  H     -0.998388    1.243436    3.782444
  H     -1.950413   -3.174748    2.067495
  H     -1.419069   -2.872860    4.394145
  H     -1.652638    3.791638    1.149233
  C     -2.321813   -1.199134    0.150745
  H     -3.235623   -0.583375    0.205529
  H     -2.778828   -2.189212    0.046581
  O      1.865128    0.000044   -1.558728
  C      2.228482   -0.415405   -2.715901
  O      1.586288   -1.247695   -3.297102
  C      3.698047   -0.382148   -3.101910
  H      4.099843   -1.382542   -3.328896
  H      4.355345   -0.058125   -2.311875
  H      3.820838    0.259251   -3.963907

 Total Charge           Charge          ....    0
 Multiplicity           Mult            ....    1
 Number of Electrons    NEL             ....  154
 Basis Dimension        Dim             ....  339

ORBITAL ENERGIES
----------------

  NO   OCC          E(Eh)            E(eV)
   0   2.0000     -19.471130      -529.8364
   1   2.0000     -19.466332      -529.7058
   2   2.0000     -19.434738      -528.8461
   3   2.0000     -19.414936      -528.3073
   4   2.0000     -14.734103      -400.9353
   5   2.0000     -10.530400      -286.5468
   6   2.0000     -10.522248      -286.3249
   7   2.0000     -10.514891      -286.1247
   8   2.0000     -10.507230      -285.9163
   9   2.0000     -10.498854      -285.6883
  10   2.0000     -10.484736      -285.3042
  11   2.0000     -10.484295      -285.2922
  12   2.0000     -10.479271      -285.1555
  13   2.0000     -10.477765      -285.1145
  14   2.0000     -10.474931      -285.0374
  15   2.0000     -10.474879      -285.0359
  16   2.0000     -10.419532      -283.5299
  17   2.0000     -10.409505      -283.2570
  18   2.0000      -3.673004       -99.9475
  19   2.0000      -2.321931       -63.1830
  20   2.0000      -2.314399       -62.9780
  21   2.0000      -2.283060       -62.1252
  22   2.0000      -1.151936       -31.3458
  23   2.0000      -1.149389       -31.2765
  24   2.0000      -1.087923       -29.6039
  25   2.0000      -1.044673       -28.4270
  26   2.0000      -1.038800       -28.2672
  27   2.0000      -0.995630       -27.0925
  28   2.0000      -0.904219       -24.6050
  29   2.0000      -0.863074       -23.4854
  30   2.0000      -0.822409       -22.3789
  31   2.0000      -0.812708       -22.1149
  32   2.0000      -0.801566       -21.8117
  33   2.0000      -0.788381       -21.4529
  34   2.0000      -0.728918       -19.8349
  35   2.0000      -0.711277       -19.3548
  36   2.0000      -0.682622       -18.5751
  37   2.0000      -0.612672       -16.6717
  38   2.0000      -0.599591       -16.3157
  39   2.0000      -0.584601       -15.9078
  40   2.0000      -0.578619       -15.7450
  41   2.0000      -0.576626       -15.6908
  42   2.0000      -0.566786       -15.4230
  43   2.0000      -0.542566       -14.7640
  44   2.0000      -0.531432       -14.4610
  45   2.0000      -0.518860       -14.1189
  46   2.0000      -0.507727       -13.8159
  47   2.0000      -0.503825       -13.7098
  48   2.0000      -0.491806       -13.3827
  49   2.0000      -0.489700       -13.3254
  50   2.0000      -0.488084       -13.2814
  51   2.0000      -0.487197       -13.2573
  52   2.0000      -0.479714       -13.0537
  53   2.0000      -0.477038       -12.9809
  54   2.0000      -0.459210       -12.4957
  55   2.0000      -0.448198       -12.1961
  56   2.0000      -0.441854       -12.0235
  57   2.0000      -0.437070       -11.8933
  58   2.0000      -0.434492       -11.8231
  59   2.0000      -0.424960       -11.5637
  60   2.0000      -0.418562       -11.3896
  61   2.0000      -0.415296       -11.3008
  62   2.0000      -0.412934       -11.2365
  63   2.0000      -0.404337       -11.0026
  64   2.0000      -0.379748       -10.3335
  65   2.0000      -0.361756        -9.8439
  66   2.0000      -0.358325        -9.7505
  67   2.0000      -0.344083        -9.3630
  68   2.0000      -0.327304        -8.9064
  69   2.0000      -0.322499        -8.7756
  70   2.0000      -0.320818        -8.7299
  71   2.0000      -0.307485        -8.3671
  72   2.0000      -0.298791        -8.1305
  73   2.0000      -0.287492        -7.8231
  74   2.0000      -0.271970        -7.4007
  75   2.0000      -0.266203        -7.2438
  76   2.0000      -0.255859        -6.9623
  77   0.0000      -0.179859        -4.8942
  78   0.0000      -0.097412        -2.6507
  79   0.0000      -0.026607        -0.7240
  80   0.0000      -0.006211        -0.1690
  81   0.0000       0.050354         1.3702

MULLIKEN ATOMIC CHARGES
-----------------------
   0 Pd:    0.484195
   1 O :   -0.480878
   2 C :    0.584519
   3 O :   -0.463498
   4 C :   -0.744011
   5 H :    0.239780
   6 H :    0.249055
   7 H :    0.237508
   8 N :   -0.484746
   9 C :   -0.542660
  10 H :    0.321398
  11 H :    0.215386
  12 H :    0.262888
  13 C :   -0.559996
  14 H :    0.295254
  15 H :    0.232827
  16 H :    0.293663
  17 C :   -0.043564
  18 C :   -0.236826
  19 C :   -0.230107
  20 C :   -0.183913
  21 C :   -0.297707
  22 C :    0.057569
  23 H :    0.240893
  24 H :    0.258446
  25 H :    0.223103
  26 H :    0.243178
  27 H :    0.091518
  28 C :   -0.323126
  29 H :    0.276435
  30 H :    0.258075
  31 O :   -0.518395
  32 C :    0.525538
  33 O :   -0.455182
  34 C :   -0.744879
  35 H :    0.245821
  36 H :    0.242043
  37 H :    0.230394
Sum of atomic charges:    0.0000000

LOEWDIN ATOMIC CHARGES
----------------------
   0 Pd:   -0.234954
   1 O :   -0.173160
   2 C :    0.132021
   3 O :   -0.248883
   4 C :   -0.381481
   5 H :    0.147342
   6 H :    0.156826
   7 H :    0.139906
   8 N :   -0.047791
   9 C :   -0.242371
  10 H :    0.169723
  11 H :    0.118535
  12 H :    0.150979
  13 C :   -0.238353
  14 H :    0.158840
  15 H :    0.124119
  16 H :    0.162846
  17 C :   -0.063897
  18 C :   -0.109931
  19 C :   -0.125033
  20 C :   -0.109031
  21 C :   -0.121342
  22 C :    0.014782
  23 H :    0.146540
  24 H :    0.155085
  25 H :    0.145307
  26 H :    0.146118
  27 H :    0.096097
  28 C :   -0.100427
  29 H :    0.157597
  30 H :    0.144193
  31 O :   -0.144696
  32 C :    0.099918
  33 O :   -0.273418
  34 C :   -0.381469
  35 H :    0.149050
  36 H :    0.137027
  37 H :    0.143387

  Mayer bond orders larger than 0.100000
B(  0-Pd,  1-O ) :   0.6022 B(  0-Pd,  3-O ) :   0.1614 B(  0-Pd,  8-N ) :   0.4391
B(  0-Pd, 22-C ) :   0.2276 B(  0-Pd, 27-H ) :   0.1246 B(  0-Pd, 31-O ) :   0.6547
B(  1-O ,  2-C ) :   1.3526 B(  2-C ,  3-O ) :   1.7259 B(  2-C ,  4-C ) :   0.9366
B(  4-C ,  5-H ) :   0.9172 B(  4-C ,  6-H ) :   0.9115 B(  4-C ,  7-H ) :   0.9135
B(  8-N ,  9-C ) :   0.9101 B(  8-N , 13-C ) :   0.9125 B(  8-N , 28-C ) :   0.8774
B(  9-C , 10-H ) :   0.8609 B(  9-C , 11-H ) :   0.9032 B(  9-C , 12-H ) :   0.9108
B( 13-C , 14-H ) :   0.8871 B( 13-C , 15-H ) :   0.9009 B( 13-C , 16-H ) :   0.8903
B( 17-C , 18-C ) :   1.3695 B( 17-C , 22-C ) :   1.3861 B( 17-C , 28-C ) :   0.9391
B( 18-C , 19-C ) :   1.4562 B( 18-C , 25-H ) :   0.9118 B( 19-C , 20-C ) :   1.4161
B( 19-C , 26-H ) :   0.9068 B( 20-C , 21-C ) :   1.3993 B( 20-C , 23-H ) :   0.9062
B( 21-C , 22-C ) :   1.4465 B( 21-C , 24-H ) :   0.9005 B( 22-C , 27-H ) :   0.5730
B( 28-C , 29-H ) :   0.8977 B( 28-C , 30-H ) :   0.9079 B( 31-O , 32-C ) :   1.2904
B( 32-C , 33-O ) :   1.8973 B( 32-C , 34-C ) :   0.9222 B( 34-C , 35-H ) :   0.9192
B( 34-C , 36-H ) :   0.9096 B( 34-C , 37-H ) :   0.9194

Dispersion correction           -0.025424318
FINAL SINGLE POINT ENERGY      -988.165883603493
Dispersion correction            ... done

DIPOLE MOMENT
-------------
                                X             Y             Z
Electronic contribution:     14.72406       5.76163     -11.67571
Nuclear contribution   :    -17.13867      -6.59626      13.25133
                        -----------------------------------------
Total Dipole Moment    :     -2.41461      -0.83463       1.57562
                        -----------------------------------------
Magnitude (a.u.)       :      3.00158
Magnitude (Debye)      :      7.62942

Rotational constants in cm-1:     0.013354     0.008267     0.006261
Rotational constants in MHz :   400.339874   247.830825   187.710657

                             ****ORCA TERMINATED NORMALLY****
TOTAL RUN TIME: 0 days 0 hours 19 minutes 13 seconds 847 msec
