                         Program Version 5.0.3 -  RELEASE  -
|  1> ! EnGrad PBEh-3c
|  2> %output
|  3> xyzfile=True
|  4> end
|  5> %scf
|  6> maxiter 250
|  7> end
|  8> %output
|  9> Print[P_Hirshfeld] = 1
| 10> end
| 11> % maxcore
| 12> 4000
| 13> *xyz 0 1
| 14> Pd   0.39305002   0.25738146  -0.10823448
| 15> O    1.95011857   1.24257686   0.65731426
| 16> C    1.52570454   2.61854144   0.32801751
| 17> O    0.67188083   2.95553645  -0.14185532
| 18> C    2.80438455   3.61802890   0.62481002
| 19> H    2.33656041   4.53698682   1.04724199
| 20> H    3.20528395   3.93229561  -0.34350444
| 21> H    3.59748403   3.29620577   1.26914910
| 22> N   -1.45361944  -0.84555335  -1.07853291
| 23> C   -1.18541112  -2.05370428  -1.80294540
| 24> H   -0.59314675  -1.80526986  -2.64986307
| 25> H   -2.16348761  -2.42082453  -2.08721021
| 26> H   -0.66972702  -2.78107272  -1.18028838
| 27> C   -2.05552681   0.21633797  -1.86817642
| 28> H   -2.17832769   1.13036441  -1.32435773
| 29> H   -2.98652048  -0.19775428  -2.19103496
| 30> H   -1.37695831   0.33599671  -2.71036576
| 31> C   -1.73848677  -1.08943385   1.49253055
| 32> C   -1.74512055  -2.25281958   2.39189146
| 33> C   -1.35864144  -2.06281214   3.70447819
| 34> C   -1.11019698  -0.80652943   4.17775839
| 35> C   -0.98969965   0.34192386   3.31355598
| 36> C   -1.26165104   0.07815031   2.04035753
| 37> H   -0.79790485  -0.67423227   5.21928059
| 38> H   -0.81130603   1.24275415   3.73302662
| 39> H   -2.12126940  -3.15748080   2.04050133
| 40> H   -1.57849785  -2.86408213   4.40036901
| 41> H   -1.47264497   3.81410940   1.07362271
| 42> C   -2.33318623  -1.20402368   0.18128156
| 43> H   -3.15755189  -0.46090289   0.18920226
| 44> H   -2.80182251  -2.15127106  -0.00876576
| 45> O    1.90386604   0.26714990  -1.56307241
| 46> C    2.21732723  -0.74272661  -2.56798308
| 47> O    1.51799264  -1.40853260  -3.36200745
| 48> C    3.72866641  -0.18935599  -3.11297298
| 49> H    4.02157728  -1.23632907  -3.41952128
| 50> H    4.33007229   0.12500585  -2.35410443
| 51> H    3.74027201   0.38668948  -4.01371344
| 52> *
| 53>
| 54>                          ****END OF INPUT****

CARTESIAN COORDINATES (ANGSTROEM)
---------------------------------
  Pd     0.393050    0.257381   -0.108234
  O      1.950119    1.242577    0.657314
  C      1.525705    2.618541    0.328018
  O      0.671881    2.955536   -0.141855
  C      2.804385    3.618029    0.624810
  H      2.336560    4.536987    1.047242
  H      3.205284    3.932296   -0.343504
  H      3.597484    3.296206    1.269149
  N     -1.453619   -0.845553   -1.078533
  C     -1.185411   -2.053704   -1.802945
  H     -0.593147   -1.805270   -2.649863
  H     -2.163488   -2.420825   -2.087210
  H     -0.669727   -2.781073   -1.180288
  C     -2.055527    0.216338   -1.868176
  H     -2.178328    1.130364   -1.324358
  H     -2.986520   -0.197754   -2.191035
  H     -1.376958    0.335997   -2.710366
  C     -1.738487   -1.089434    1.492531
  C     -1.745121   -2.252820    2.391891
  C     -1.358641   -2.062812    3.704478
  C     -1.110197   -0.806529    4.177758
  C     -0.989700    0.341924    3.313556
  C     -1.261651    0.078150    2.040358
  H     -0.797905   -0.674232    5.219281
  H     -0.811306    1.242754    3.733027
  H     -2.121269   -3.157481    2.040501
  H     -1.578498   -2.864082    4.400369
  H     -1.472645    3.814109    1.073623
  C     -2.333186   -1.204024    0.181282
  H     -3.157552   -0.460903    0.189202
  H     -2.801823   -2.151271   -0.008766
  O      1.903866    0.267150   -1.563072
  C      2.217327   -0.742727   -2.567983
  O      1.517993   -1.408533   -3.362007
  C      3.728666   -0.189356   -3.112973
  H      4.021577   -1.236329   -3.419521
  H      4.330072    0.125006   -2.354104
  H      3.740272    0.386689   -4.013713

 Total Charge           Charge          ....    0
 Multiplicity           Mult            ....    1
 Number of Electrons    NEL             ....  154
 Basis Dimension        Dim             ....  339

ORBITAL ENERGIES
----------------

  NO   OCC          E(Eh)            E(eV)
   0   2.0000     -19.494412      -530.4699
   1   2.0000     -19.476727      -529.9887
   2   2.0000     -19.472942      -529.8857
   3   2.0000     -19.470842      -529.8286
   4   2.0000     -14.703753      -400.1095
   5   2.0000     -10.564138      -287.4648
   6   2.0000     -10.547713      -287.0179
   7   2.0000     -10.522988      -286.3451
   8   2.0000     -10.512671      -286.0643
   9   2.0000     -10.511318      -286.0275
  10   2.0000     -10.495625      -285.6005
  11   2.0000     -10.493259      -285.5361
  12   2.0000     -10.488827      -285.4155
  13   2.0000     -10.483091      -285.2594
  14   2.0000     -10.475088      -285.0416
  15   2.0000     -10.464162      -284.7443
  16   2.0000     -10.417685      -283.4796
  17   2.0000     -10.415055      -283.4080
  18   2.0000      -3.648589       -99.2831
  19   2.0000      -2.297356       -62.5142
  20   2.0000      -2.287431       -62.2442
  21   2.0000      -2.263526       -61.5937
  22   2.0000      -1.276597       -34.7380
  23   2.0000      -1.116610       -30.3845
  24   2.0000      -1.063382       -28.9361
  25   2.0000      -1.026305       -27.9272
  26   2.0000      -1.010775       -27.5046
  27   2.0000      -1.003330       -27.3020
  28   2.0000      -0.909707       -24.7544
  29   2.0000      -0.883605       -24.0441
  30   2.0000      -0.824739       -22.4423
  31   2.0000      -0.809820       -22.0363
  32   2.0000      -0.774901       -21.0861
  33   2.0000      -0.768609       -20.9149
  34   2.0000      -0.731572       -19.9071
  35   2.0000      -0.712465       -19.3872
  36   2.0000      -0.678183       -18.4543
  37   2.0000      -0.619872       -16.8676
  38   2.0000      -0.585367       -15.9286
  39   2.0000      -0.579862       -15.7788
  40   2.0000      -0.578702       -15.7473
  41   2.0000      -0.572339       -15.5741
  42   2.0000      -0.567202       -15.4344
  43   2.0000      -0.557195       -15.1620
  44   2.0000      -0.552138       -15.0244
  45   2.0000      -0.534485       -14.5441
  46   2.0000      -0.530195       -14.4273
  47   2.0000      -0.519845       -14.1457
  48   2.0000      -0.509171       -13.8553
  49   2.0000      -0.494979       -13.4691
  50   2.0000      -0.491532       -13.3753
  51   2.0000      -0.482461       -13.1284
  52   2.0000      -0.474448       -12.9104
  53   2.0000      -0.472566       -12.8592
  54   2.0000      -0.465788       -12.6747
  55   2.0000      -0.460284       -12.5250
  56   2.0000      -0.456784       -12.4297
  57   2.0000      -0.439991       -11.9728
  58   2.0000      -0.438489       -11.9319
  59   2.0000      -0.432689       -11.7741
  60   2.0000      -0.427977       -11.6458
  61   2.0000      -0.421084       -11.4583
  62   2.0000      -0.399125       -10.8607
  63   2.0000      -0.383300       -10.4301
  64   2.0000      -0.374499       -10.1906
  65   2.0000      -0.354683        -9.6514
  66   2.0000      -0.351187        -9.5563
  67   2.0000      -0.338623        -9.2144
  68   2.0000      -0.328786        -8.9467
  69   2.0000      -0.319173        -8.6852
  70   2.0000      -0.317627        -8.6431
  71   2.0000      -0.302228        -8.2240
  72   2.0000      -0.295446        -8.0395
  73   2.0000      -0.292211        -7.9515
  74   2.0000      -0.287546        -7.8245
  75   2.0000      -0.269440        -7.3318
  76   2.0000      -0.251929        -6.8553
  77   0.0000      -0.179780        -4.8921
  78   0.0000      -0.069154        -1.8818
  79   0.0000      -0.038443        -1.0461
  80   0.0000      -0.010711        -0.2915
  81   0.0000       0.029456         0.8015

MULLIKEN ATOMIC CHARGES
-----------------------
   0 Pd:    0.305415
   1 O :   -0.527489
   2 C :    0.506108
   3 O :   -0.188689
   4 C :   -0.757137
   5 H :    0.206224
   6 H :    0.240343
   7 H :    0.246273
   8 N :   -0.454439
   9 C :   -0.529312
  10 H :    0.310626
  11 H :    0.196665
  12 H :    0.249669
  13 C :   -0.527347
  14 H :    0.279990
  15 H :    0.220647
  16 H :    0.279786
  17 C :    0.063070
  18 C :   -0.242672
  19 C :   -0.184190
  20 C :   -0.249919
  21 C :   -0.233908
  22 C :    0.002041
  23 H :    0.244771
  24 H :    0.274917
  25 H :    0.245033
  26 H :    0.235581
  27 H :    0.039914
  28 C :   -0.348417
  29 H :    0.260471
  30 H :    0.250742
  31 O :   -0.510501
  32 C :    0.519131
  33 O :   -0.424920
  34 C :   -0.713809
  35 H :    0.204504
  36 H :    0.262053
  37 H :    0.248773
Sum of atomic charges:    0.0000000

LOEWDIN ATOMIC CHARGES
----------------------
   0 Pd:   -0.376902
   1 O :   -0.233263
   2 C :    0.119292
   3 O :    0.030920
   4 C :   -0.408851
   5 H :    0.129397
   6 H :    0.146196
   7 H :    0.138972
   8 N :   -0.101194
   9 C :   -0.248119
  10 H :    0.164305
  11 H :    0.108028
  12 H :    0.144333
  13 C :   -0.236780
  14 H :    0.155716
  15 H :    0.117414
  16 H :    0.161123
  17 C :   -0.043754
  18 C :   -0.100791
  19 C :   -0.127364
  20 C :   -0.101908
  21 C :   -0.107071
  22 C :    0.068192
  23 H :    0.149625
  24 H :    0.162846
  25 H :    0.146696
  26 H :    0.151137
  27 H :    0.045016
  28 C :   -0.104478
  29 H :    0.157722
  30 H :    0.141895
  31 O :   -0.239774
  32 C :    0.225091
  33 O :   -0.261384
  34 C :   -0.394564
  35 H :    0.135648
  36 H :    0.139961
  37 H :    0.146673

  Mayer bond orders larger than 0.100000
B(  0-Pd,  1-O ) :   0.8123 B(  0-Pd,  8-N ) :   0.3374 B(  0-Pd, 22-C ) :   0.2927
B(  0-Pd, 27-H ) :   0.2110 B(  0-Pd, 31-O ) :   0.6891 B(  1-O ,  2-C ) :   1.0060
B(  2-C ,  3-O ) :   2.1556 B(  2-C ,  4-C ) :   0.8856 B(  4-C ,  5-H ) :   0.9247
B(  4-C ,  6-H ) :   0.9163 B(  4-C ,  7-H ) :   0.9143 B(  8-N ,  9-C ) :   0.9359
B(  8-N , 13-C ) :   0.9266 B(  8-N , 28-C ) :   0.8858 B(  9-C , 10-H ) :   0.8596
B(  9-C , 11-H ) :   0.9084 B(  9-C , 12-H ) :   0.9132 B( 13-C , 14-H ) :   0.8949
B( 13-C , 15-H ) :   0.9072 B( 13-C , 16-H ) :   0.8955 B( 17-C , 18-C ) :   1.3731
B( 17-C , 22-C ) :   1.3613 B( 17-C , 28-C ) :   0.9578 B( 18-C , 19-C ) :   1.4276
B( 18-C , 21-C ) :   0.1043 B( 18-C , 25-H ) :   0.9010 B( 19-C , 20-C ) :   1.4291
B( 19-C , 26-H ) :   0.9115 B( 20-C , 21-C ) :   1.3521 B( 20-C , 23-H ) :   0.9030
B( 21-C , 22-C ) :   1.4789 B( 21-C , 24-H ) :   0.8931 B( 22-C , 27-H ) :   0.5306
B( 28-C , 29-H ) :   0.8991 B( 28-C , 30-H ) :   0.9062 B( 31-O , 32-C ) :   1.1732
B( 31-O , 33-O ) :   0.1195 B( 32-C , 33-O ) :   1.9015 B( 32-C , 34-C ) :   0.8861
B( 34-C , 35-H ) :   0.9250 B( 34-C , 36-H ) :   0.8991 B( 34-C , 37-H ) :   0.9150

Dispersion correction           -0.025359457
FINAL SINGLE POINT ENERGY      -988.019840132464
Dispersion correction            ... done

DIPOLE MOMENT
-------------
                                X             Y             Z
Electronic contribution:     14.79076      12.02637      -3.05432
Nuclear contribution   :    -17.34710     -12.94960       4.87903
                        -----------------------------------------
Total Dipole Moment    :     -2.55634      -0.92323       1.82470
                        -----------------------------------------
Magnitude (a.u.)       :      3.27365
Magnitude (Debye)      :      8.32095

Rotational constants in cm-1:     0.013130     0.008258     0.006192
Rotational constants in MHz :   393.622602   247.566902   185.641300

                             ****ORCA TERMINATED NORMALLY****
TOTAL RUN TIME: 0 days 0 hours 14 minutes 24 seconds 527 msec
