                         Program Version 5.0.3 -  RELEASE  -
|  1> ! EnGrad PBEh-3c
|  2> %output
|  3> xyzfile=True
|  4> end
|  5> %scf
|  6> maxiter 250
|  7> end
|  8> %output
|  9> Print[P_Hirshfeld] = 1
| 10> end
| 11> % maxcore
| 12> 4000
| 13> *xyz 0 1
| 14> Pd   0.39224645   0.17175317  -0.22327471
| 15> O    1.93791673   1.33055654   0.66452297
| 16> C    1.67974538   2.59940725   0.35253655
| 17> O    0.66317636   2.92125350  -0.14639228
| 18> C    2.77553752   3.65533353   0.61747090
| 19> H    2.32331400   4.56152631   1.04478150
| 20> H    3.18404310   3.95385834  -0.35045256
| 21> H    3.56882527   3.31464970   1.26230024
| 22> N   -1.41113542  -0.81126026  -0.99122110
| 23> C   -1.21251117  -1.99470553  -1.82267270
| 24> H   -0.67367808  -1.76718121  -2.72489150
| 25> H   -2.18303775  -2.36036625  -2.17156803
| 26> H   -0.64886456  -2.72460778  -1.25448058
| 27> C   -2.04424981   0.21823699  -1.81405977
| 28> H   -2.20015803   1.14166640  -1.28190971
| 29> H   -3.01317570  -0.13748745  -2.15725446
| 30> H   -1.42052962   0.41549943  -2.67976013
| 31> C   -1.62845336  -1.11581864   1.45702100
| 32> C   -1.59056189  -2.22588811   2.34878687
| 33> C   -1.34881203  -2.05398202   3.69466395
| 34> C   -1.04489700  -0.80697566   4.17552208
| 35> C   -1.13996115   0.30481207   3.32767930
| 36> C   -1.41341450   0.11980694   2.00525089
| 37> H   -0.81719955  -0.67000631   5.22845117
| 38> H   -0.94866603   1.24325484   3.76930980
| 39> H   -1.99582279  -3.17015850   2.06032080
| 40> H   -1.46144151  -2.87052723   4.39579919
| 41> H   -1.60479996   3.79761031   1.12913758
| 42> C   -2.32483562  -1.20043388   0.15886072
| 43> H   -3.21487346  -0.55082469   0.20118960
| 44> H   -2.78493936  -2.17912849   0.03187126
| 45> O    1.87542352   0.07103495  -1.55988274
| 46> C    2.22551759  -0.50239963  -2.67658788
| 47> O    1.56813690  -1.29044213  -3.31435276
| 48> C    3.70618464  -0.33090788  -3.10485016
| 49> H    4.07904182  -1.34368187  -3.35298257
| 50> H    4.34862830  -0.00945289  -2.32309875
| 51> H    3.79942530   0.29312102  -3.97714430
| 52> *
| 53>
| 54>                          ****END OF INPUT****

CARTESIAN COORDINATES (ANGSTROEM)
---------------------------------
  Pd     0.392246    0.171753   -0.223275
  O      1.937917    1.330557    0.664523
  C      1.679745    2.599407    0.352537
  O      0.663176    2.921254   -0.146392
  C      2.775538    3.655334    0.617471
  H      2.323314    4.561526    1.044782
  H      3.184043    3.953858   -0.350453
  H      3.568825    3.314650    1.262300
  N     -1.411135   -0.811260   -0.991221
  C     -1.212511   -1.994706   -1.822673
  H     -0.673678   -1.767181   -2.724892
  H     -2.183038   -2.360366   -2.171568
  H     -0.648865   -2.724608   -1.254481
  C     -2.044250    0.218237   -1.814060
  H     -2.200158    1.141666   -1.281910
  H     -3.013176   -0.137487   -2.157254
  H     -1.420530    0.415499   -2.679760
  C     -1.628453   -1.115819    1.457021
  C     -1.590562   -2.225888    2.348787
  C     -1.348812   -2.053982    3.694664
  C     -1.044897   -0.806976    4.175522
  C     -1.139961    0.304812    3.327679
  C     -1.413414    0.119807    2.005251
  H     -0.817200   -0.670006    5.228451
  H     -0.948666    1.243255    3.769310
  H     -1.995823   -3.170158    2.060321
  H     -1.461442   -2.870527    4.395799
  H     -1.604800    3.797610    1.129138
  C     -2.324836   -1.200434    0.158861
  H     -3.214873   -0.550825    0.201190
  H     -2.784939   -2.179128    0.031871
  O      1.875424    0.071035   -1.559883
  C      2.225518   -0.502400   -2.676588
  O      1.568137   -1.290442   -3.314353
  C      3.706185   -0.330908   -3.104850
  H      4.079042   -1.343682   -3.352983
  H      4.348628   -0.009453   -2.323099
  H      3.799425    0.293121   -3.977144

 Total Charge           Charge          ....    0
 Multiplicity           Mult            ....    1
 Number of Electrons    NEL             ....  154
 Basis Dimension        Dim             ....  339

ORBITAL ENERGIES
----------------

  NO   OCC          E(Eh)            E(eV)
   0   2.0000     -19.471542      -529.8476
   1   2.0000     -19.467096      -529.7266
   2   2.0000     -19.446976      -529.1791
   3   2.0000     -19.422665      -528.5176
   4   2.0000     -14.726750      -400.7352
   5   2.0000     -10.533579      -286.6332
   6   2.0000     -10.527325      -286.4631
   7   2.0000     -10.514778      -286.1216
   8   2.0000     -10.512845      -286.0691
   9   2.0000     -10.503611      -285.8178
  10   2.0000     -10.488206      -285.3986
  11   2.0000     -10.483686      -285.2756
  12   2.0000     -10.482268      -285.2370
  13   2.0000     -10.481726      -285.2223
  14   2.0000     -10.477954      -285.1196
  15   2.0000     -10.471380      -284.9407
  16   2.0000     -10.418720      -283.5078
  17   2.0000     -10.406079      -283.1638
  18   2.0000      -3.667254       -99.7911
  19   2.0000      -2.315867       -63.0179
  20   2.0000      -2.308085       -62.8062
  21   2.0000      -2.278347       -61.9970
  22   2.0000      -1.165236       -31.7077
  23   2.0000      -1.137566       -30.9547
  24   2.0000      -1.081864       -29.4390
  25   2.0000      -1.047861       -28.5137
  26   2.0000      -1.042424       -28.3658
  27   2.0000      -1.000400       -27.2223
  28   2.0000      -0.907657       -24.6986
  29   2.0000      -0.870736       -23.6939
  30   2.0000      -0.823540       -22.4097
  31   2.0000      -0.813620       -22.1397
  32   2.0000      -0.793373       -21.5888
  33   2.0000      -0.782128       -21.2828
  34   2.0000      -0.725544       -19.7431
  35   2.0000      -0.718931       -19.5631
  36   2.0000      -0.683557       -18.6005
  37   2.0000      -0.615574       -16.7506
  38   2.0000      -0.592718       -16.1287
  39   2.0000      -0.581570       -15.8253
  40   2.0000      -0.577921       -15.7260
  41   2.0000      -0.574516       -15.6334
  42   2.0000      -0.567577       -15.4445
  43   2.0000      -0.545436       -14.8421
  44   2.0000      -0.535722       -14.5777
  45   2.0000      -0.512689       -13.9510
  46   2.0000      -0.509751       -13.8710
  47   2.0000      -0.505983       -13.7685
  48   2.0000      -0.494917       -13.4674
  49   2.0000      -0.491761       -13.3815
  50   2.0000      -0.488570       -13.2947
  51   2.0000      -0.483089       -13.1455
  52   2.0000      -0.481362       -13.0985
  53   2.0000      -0.475906       -12.9501
  54   2.0000      -0.464133       -12.6297
  55   2.0000      -0.450800       -12.2669
  56   2.0000      -0.446363       -12.1462
  57   2.0000      -0.439793       -11.9674
  58   2.0000      -0.435882       -11.8609
  59   2.0000      -0.429088       -11.6761
  60   2.0000      -0.425524       -11.5791
  61   2.0000      -0.412871       -11.2348
  62   2.0000      -0.409850       -11.1526
  63   2.0000      -0.398980       -10.8568
  64   2.0000      -0.377527       -10.2730
  65   2.0000      -0.358349        -9.7512
  66   2.0000      -0.352601        -9.5948
  67   2.0000      -0.345029        -9.3887
  68   2.0000      -0.330388        -8.9903
  69   2.0000      -0.326464        -8.8835
  70   2.0000      -0.322900        -8.7866
  71   2.0000      -0.307972        -8.3804
  72   2.0000      -0.302877        -8.2417
  73   2.0000      -0.290918        -7.9163
  74   2.0000      -0.279590        -7.6080
  75   2.0000      -0.272872        -7.4252
  76   2.0000      -0.256676        -6.9845
  77   0.0000      -0.181712        -4.9446
  78   0.0000      -0.090949        -2.4748
  79   0.0000      -0.028709        -0.7812
  80   0.0000      -0.008451        -0.2300
  81   0.0000       0.051706         1.4070

MULLIKEN ATOMIC CHARGES
-----------------------
   0 Pd:    0.438770
   1 O :   -0.503859
   2 C :    0.576624
   3 O :   -0.405312
   4 C :   -0.745900
   5 H :    0.230159
   6 H :    0.247212
   7 H :    0.240756
   8 N :   -0.474991
   9 C :   -0.538824
  10 H :    0.320360
  11 H :    0.209314
  12 H :    0.258966
  13 C :   -0.551304
  14 H :    0.290339
  15 H :    0.229492
  16 H :    0.291085
  17 C :   -0.015403
  18 C :   -0.237838
  19 C :   -0.219535
  20 C :   -0.201524
  21 C :   -0.280054
  22 C :    0.044691
  23 H :    0.245044
  24 H :    0.264232
  25 H :    0.229194
  26 H :    0.243839
  27 H :    0.084945
  28 C :   -0.329566
  29 H :    0.272577
  30 H :    0.257514
  31 O :   -0.524620
  32 C :    0.540059
  33 O :   -0.459894
  34 C :   -0.743735
  35 H :    0.233423
  36 H :    0.247345
  37 H :    0.236422
Sum of atomic charges:   -0.0000000

LOEWDIN ATOMIC CHARGES
----------------------
   0 Pd:   -0.262198
   1 O :   -0.196583
   2 C :    0.133289
   3 O :   -0.186299
   4 C :   -0.386670
   5 H :    0.142408
   6 H :    0.154097
   7 H :    0.139574
   8 N :   -0.060751
   9 C :   -0.243795
  10 H :    0.168940
  11 H :    0.115047
  12 H :    0.149179
  13 C :   -0.237433
  14 H :    0.157820
  15 H :    0.122008
  16 H :    0.162643
  17 C :   -0.057699
  18 C :   -0.106930
  19 C :   -0.124437
  20 C :   -0.106814
  21 C :   -0.117358
  22 C :    0.031710
  23 H :    0.147829
  24 H :    0.158187
  25 H :    0.146057
  26 H :    0.147909
  27 H :    0.089846
  28 C :   -0.099960
  29 H :    0.157337
  30 H :    0.143945
  31 O :   -0.165225
  32 C :    0.125685
  33 O :   -0.280941
  34 C :   -0.388424
  35 H :    0.145399
  36 H :    0.138137
  37 H :    0.144471

  Mayer bond orders larger than 0.100000
B(  0-Pd,  1-O ) :   0.6754 B(  0-Pd,  3-O ) :   0.1381 B(  0-Pd,  8-N ) :   0.4129
B(  0-Pd, 22-C ) :   0.2366 B(  0-Pd, 27-H ) :   0.1465 B(  0-Pd, 31-O ) :   0.6526
B(  1-O ,  2-C ) :   1.2446 B(  2-C ,  3-O ) :   1.8466 B(  2-C ,  4-C ) :   0.9259
B(  4-C ,  5-H ) :   0.9198 B(  4-C ,  6-H ) :   0.9131 B(  4-C ,  7-H ) :   0.9135
B(  8-N ,  9-C ) :   0.9172 B(  8-N , 13-C ) :   0.9168 B(  8-N , 28-C ) :   0.8793
B(  9-C , 10-H ) :   0.8592 B(  9-C , 11-H ) :   0.9046 B(  9-C , 12-H ) :   0.9117
B( 13-C , 14-H ) :   0.8895 B( 13-C , 15-H ) :   0.9024 B( 13-C , 16-H ) :   0.8914
B( 17-C , 18-C ) :   1.3666 B( 17-C , 22-C ) :   1.3909 B( 17-C , 28-C ) :   0.9414
B( 18-C , 19-C ) :   1.4584 B( 18-C , 25-H ) :   0.9083 B( 19-C , 20-C ) :   1.4194
B( 19-C , 26-H ) :   0.9071 B( 20-C , 21-C ) :   1.3992 B( 20-C , 23-H ) :   0.9040
B( 21-C , 22-C ) :   1.4505 B( 21-C , 24-H ) :   0.8983 B( 22-C , 27-H ) :   0.5790
B( 28-C , 29-H ) :   0.8986 B( 28-C , 30-H ) :   0.9080 B( 31-O , 32-C ) :   1.2827
B( 31-O , 33-O ) :   0.1045 B( 32-C , 33-O ) :   1.9070 B( 32-C , 34-C ) :   0.9103
B( 34-C , 35-H ) :   0.9221 B( 34-C , 36-H ) :   0.9081 B( 34-C , 37-H ) :   0.9192

Dispersion correction           -0.025417153
FINAL SINGLE POINT ENERGY      -988.195458425119
Dispersion correction            ... done

DIPOLE MOMENT
-------------
                                X             Y             Z
Electronic contribution:     14.62241       7.44331      -9.25254
Nuclear contribution   :    -17.19406      -8.28484      11.02615
                        -----------------------------------------
Total Dipole Moment    :     -2.57165      -0.84153       1.77361
                        -----------------------------------------
Magnitude (a.u.)       :      3.23532
Magnitude (Debye)      :      8.22352

Rotational constants in cm-1:     0.013310     0.008269     0.006246
Rotational constants in MHz :   399.022226   247.892857   187.259073

                             ****ORCA TERMINATED NORMALLY****
TOTAL RUN TIME: 0 days 0 hours 17 minutes 13 seconds 435 msec
