                         Program Version 5.0.3 -  RELEASE  -
|  1> ! EnGrad PBEh-3c
|  2> %output
|  3> xyzfile=True
|  4> end
|  5> %scf
|  6> maxiter 250
|  7> end
|  8> %output
|  9> Print[P_Hirshfeld] = 1
| 10> end
| 11> % maxcore
| 12> 4000
| 13> *xyz 0 1
| 14> Pd   0.41542760   0.32273487  -0.04831291
| 15> O    1.91245385   1.18889139   0.65381157
| 16> C    1.63595520   2.61824791   0.38399193
| 17> O    0.50819248   3.00015848  -0.22176614
| 18> C    2.77904063   3.59236997   0.62559220
| 19> H    2.32811650   4.51771324   1.04360096
| 20> H    3.20676455   3.92762017  -0.33929835
| 21> H    3.60971743   3.29764871   1.27235544
| 22> N   -1.46192443  -0.83563396  -1.07041271
| 23> C   -1.18418659  -2.05477936  -1.82849393
| 24> H   -0.56263179  -1.77244054  -2.66305917
| 25> H   -2.17095938  -2.43181770  -2.07161440
| 26> H   -0.67776948  -2.79566065  -1.20524417
| 27> C   -2.06894032   0.23168573  -1.87701009
| 28> H   -2.17801514   1.14873008  -1.29065476
| 29> H   -3.00495603  -0.19153925  -2.19479176
| 30> H   -1.37954529   0.35503748  -2.70817076
| 31> C   -1.79452195  -1.09310887   1.53355197
| 32> C   -1.76827344  -2.23864680   2.39249442
| 33> C   -1.31802457  -2.06012273   3.69868598
| 34> C   -1.14339956  -0.78512800   4.18660453
| 35> C   -0.96620040   0.35084701   3.33954159
| 36> C   -1.21449534   0.07917382   2.04175027
| 37> H   -0.80266989  -0.66066549   5.21314540
| 38> H   -0.83319923   1.30671200   3.74332108
| 39> H   -2.07686597  -3.18416651   1.99448880
| 40> H   -1.53901515  -2.88084849   4.38334599
| 41> H   -1.48435071   3.75154388   1.08591466
| 42> C   -2.32919121  -1.19845379   0.15341018
| 43> H   -3.12569991  -0.45786818   0.17471058
| 44> H   -2.75660739  -2.17597257  -0.03515208
| 45> O    1.95418221   0.27196177  -1.58215377
| 46> C    2.18619305  -0.87123901  -2.55980236
| 47> O    1.49005986  -1.32936649  -3.39289790
| 48> C    3.71488971  -0.24721990  -3.08823621
| 49> H    3.99654301  -1.23584821  -3.42223359
| 50> H    4.35115759   0.14921123  -2.30999924
| 51> H    3.75837158   0.37645916  -4.01965091
| 52> *
| 53>
| 54>                          ****END OF INPUT****

CARTESIAN COORDINATES (ANGSTROEM)
---------------------------------
  Pd     0.415428    0.322735   -0.048313
  O      1.912454    1.188891    0.653812
  C      1.635955    2.618248    0.383992
  O      0.508192    3.000158   -0.221766
  C      2.779041    3.592370    0.625592
  H      2.328117    4.517713    1.043601
  H      3.206765    3.927620   -0.339298
  H      3.609717    3.297649    1.272355
  N     -1.461924   -0.835634   -1.070413
  C     -1.184187   -2.054779   -1.828494
  H     -0.562632   -1.772441   -2.663059
  H     -2.170959   -2.431818   -2.071614
  H     -0.677769   -2.795661   -1.205244
  C     -2.068940    0.231686   -1.877010
  H     -2.178015    1.148730   -1.290655
  H     -3.004956   -0.191539   -2.194792
  H     -1.379545    0.355037   -2.708171
  C     -1.794522   -1.093109    1.533552
  C     -1.768273   -2.238647    2.392494
  C     -1.318025   -2.060123    3.698686
  C     -1.143400   -0.785128    4.186605
  C     -0.966200    0.350847    3.339542
  C     -1.214495    0.079174    2.041750
  H     -0.802670   -0.660665    5.213145
  H     -0.833199    1.306712    3.743321
  H     -2.076866   -3.184167    1.994489
  H     -1.539015   -2.880848    4.383346
  H     -1.484351    3.751544    1.085915
  C     -2.329191   -1.198454    0.153410
  H     -3.125700   -0.457868    0.174711
  H     -2.756607   -2.175973   -0.035152
  O      1.954182    0.271962   -1.582154
  C      2.186193   -0.871239   -2.559802
  O      1.490060   -1.329366   -3.392898
  C      3.714890   -0.247220   -3.088236
  H      3.996543   -1.235848   -3.422234
  H      4.351158    0.149211   -2.309999
  H      3.758372    0.376459   -4.019651

 Total Charge           Charge          ....    0
 Multiplicity           Mult            ....    1
 Number of Electrons    NEL             ....  154
 Basis Dimension        Dim             ....  339

ORBITAL ENERGIES
----------------

  NO   OCC          E(Eh)            E(eV)
   0   2.0000     -19.516029      -531.0581
   1   2.0000     -19.492575      -530.4199
   2   2.0000     -19.490246      -530.3566
   3   2.0000     -19.467294      -529.7320
   4   2.0000     -14.695088      -399.8737
   5   2.0000     -10.590760      -288.1892
   6   2.0000     -10.563841      -287.4567
   7   2.0000     -10.508695      -285.9561
   8   2.0000     -10.500377      -285.7298
   9   2.0000     -10.498256      -285.6721
  10   2.0000     -10.483503      -285.2706
  11   2.0000     -10.479746      -285.1684
  12   2.0000     -10.479232      -285.1544
  13   2.0000     -10.473882      -285.0088
  14   2.0000     -10.471931      -284.9557
  15   2.0000     -10.466613      -284.8110
  16   2.0000     -10.451833      -284.4088
  17   2.0000     -10.421206      -283.5754
  18   2.0000      -3.650961       -99.3477
  19   2.0000      -2.304310       -62.7035
  20   2.0000      -2.285739       -62.1981
  21   2.0000      -2.265424       -61.6453
  22   2.0000      -1.170569       -31.8528
  23   2.0000      -1.113251       -30.2931
  24   2.0000      -1.051681       -28.6177
  25   2.0000      -1.040171       -28.3045
  26   2.0000      -0.990773       -26.9603
  27   2.0000      -0.987621       -26.8745
  28   2.0000      -0.892381       -24.2829
  29   2.0000      -0.865247       -23.5446
  30   2.0000      -0.823653       -22.4127
  31   2.0000      -0.814425       -22.1616
  32   2.0000      -0.798748       -21.7350
  33   2.0000      -0.757577       -20.6147
  34   2.0000      -0.710542       -19.3348
  35   2.0000      -0.703899       -19.1541
  36   2.0000      -0.668178       -18.1820
  37   2.0000      -0.616982       -16.7889
  38   2.0000      -0.602741       -16.4014
  39   2.0000      -0.580787       -15.8040
  40   2.0000      -0.565604       -15.3909
  41   2.0000      -0.559452       -15.2235
  42   2.0000      -0.552784       -15.0420
  43   2.0000      -0.543108       -14.7787
  44   2.0000      -0.523036       -14.2325
  45   2.0000      -0.521220       -14.1831
  46   2.0000      -0.505756       -13.7623
  47   2.0000      -0.500854       -13.6289
  48   2.0000      -0.490719       -13.3531
  49   2.0000      -0.488274       -13.2866
  50   2.0000      -0.483915       -13.1680
  51   2.0000      -0.481653       -13.1064
  52   2.0000      -0.471496       -12.8300
  53   2.0000      -0.469801       -12.7839
  54   2.0000      -0.461328       -12.5534
  55   2.0000      -0.448573       -12.2063
  56   2.0000      -0.446120       -12.1395
  57   2.0000      -0.442733       -12.0474
  58   2.0000      -0.434887       -11.8339
  59   2.0000      -0.432419       -11.7667
  60   2.0000      -0.424838       -11.5604
  61   2.0000      -0.415194       -11.2980
  62   2.0000      -0.408204       -11.1078
  63   2.0000      -0.401614       -10.9285
  64   2.0000      -0.373008       -10.1501
  65   2.0000      -0.351556        -9.5663
  66   2.0000      -0.345028        -9.3887
  67   2.0000      -0.336849        -9.1661
  68   2.0000      -0.327632        -8.9153
  69   2.0000      -0.319122        -8.6838
  70   2.0000      -0.315800        -8.5933
  71   2.0000      -0.306588        -8.3427
  72   2.0000      -0.302716        -8.2373
  73   2.0000      -0.290721        -7.9109
  74   2.0000      -0.286649        -7.8001
  75   2.0000      -0.255129        -6.9424
  76   2.0000      -0.243567        -6.6278
  77   0.0000      -0.168453        -4.5838
  78   0.0000      -0.063139        -1.7181
  79   0.0000      -0.021568        -0.5869
  80   0.0000      -0.005735        -0.1561
  81   0.0000       0.004648         0.1265

MULLIKEN ATOMIC CHARGES
-----------------------
   0 Pd:    0.384783
   1 O :   -0.516315
   2 C :    0.620346
   3 O :   -0.447859
   4 C :   -0.743007
   5 H :    0.246938
   6 H :    0.272454
   7 H :    0.258138
   8 N :   -0.455836
   9 C :   -0.531018
  10 H :    0.300495
  11 H :    0.201961
  12 H :    0.246140
  13 C :   -0.520475
  14 H :    0.277803
  15 H :    0.217589
  16 H :    0.275172
  17 C :    0.060880
  18 C :   -0.246705
  19 C :   -0.196249
  20 C :   -0.238392
  21 C :   -0.257386
  22 C :   -0.022993
  23 H :    0.233901
  24 H :    0.267239
  25 H :    0.237874
  26 H :    0.227103
  27 H :    0.065792
  28 C :   -0.324903
  29 H :    0.259427
  30 H :    0.234368
  31 O :   -0.509272
  32 C :    0.466381
  33 O :   -0.328976
  34 C :   -0.701592
  35 H :    0.210612
  36 H :    0.243158
  37 H :    0.232422
Sum of atomic charges:    0.0000000

LOEWDIN ATOMIC CHARGES
----------------------
   0 Pd:   -0.364769
   1 O :   -0.169519
   2 C :    0.300356
   3 O :   -0.254993
   4 C :   -0.376822
   5 H :    0.155486
   6 H :    0.169434
   7 H :    0.151323
   8 N :   -0.118313
   9 C :   -0.247231
  10 H :    0.161855
  11 H :    0.110812
  12 H :    0.140681
  13 C :   -0.235040
  14 H :    0.158710
  15 H :    0.116726
  16 H :    0.158536
  17 C :   -0.047668
  18 C :   -0.112922
  19 C :   -0.130656
  20 C :   -0.113991
  21 C :   -0.116706
  22 C :    0.047530
  23 H :    0.145045
  24 H :    0.161618
  25 H :    0.144361
  26 H :    0.147492
  27 H :    0.073094
  28 C :   -0.109928
  29 H :    0.155734
  30 H :    0.136021
  31 O :   -0.278535
  32 C :    0.191683
  33 O :   -0.157739
  34 C :   -0.403085
  35 H :    0.128786
  36 H :    0.139733
  37 H :    0.142901

  Mayer bond orders larger than 0.100000
B(  0-Pd,  1-O ) :   0.7342 B(  0-Pd,  3-O ) :   0.1276 B(  0-Pd,  8-N ) :   0.3323
B(  0-Pd, 22-C ) :   0.3584 B(  0-Pd, 27-H ) :   0.2298 B(  0-Pd, 31-O ) :   0.6991
B(  1-O ,  2-C ) :   1.1318 B(  2-C ,  3-O ) :   1.7214 B(  2-C ,  4-C ) :   0.9536
B(  4-C ,  5-H ) :   0.9056 B(  4-C ,  6-H ) :   0.8948 B(  4-C ,  7-H ) :   0.9022
B(  8-N ,  9-C ) :   0.9333 B(  8-N , 13-C ) :   0.9242 B(  8-N , 28-C ) :   0.8961
B(  9-C , 10-H ) :   0.8669 B(  9-C , 11-H ) :   0.9086 B(  9-C , 12-H ) :   0.9145
B( 13-C , 14-H ) :   0.8963 B( 13-C , 15-H ) :   0.9084 B( 13-C , 16-H ) :   0.8986
B( 17-C , 18-C ) :   1.4085 B( 17-C , 22-C ) :   1.3290 B( 17-C , 28-C ) :   0.9642
B( 18-C , 19-C ) :   1.3958 B( 18-C , 25-H ) :   0.9057 B( 19-C , 20-C ) :   1.4369
B( 19-C , 26-H ) :   0.9152 B( 20-C , 21-C ) :   1.3485 B( 20-C , 23-H ) :   0.9076
B( 21-C , 22-C ) :   1.4636 B( 21-C , 24-H ) :   0.8984 B( 22-C , 27-H ) :   0.4618
B( 28-C , 29-H ) :   0.8990 B( 28-C , 30-H ) :   0.9101 B( 31-O , 32-C ) :   1.0953
B( 31-O , 33-O ) :   0.1160 B( 32-C , 33-O ) :   2.0070 B( 32-C , 34-C ) :   0.8600
B( 34-C , 35-H ) :   0.9143 B( 34-C , 36-H ) :   0.9107 B( 34-C , 37-H ) :   0.9200

Dispersion correction           -0.025283073
FINAL SINGLE POINT ENERGY      -988.043952793288
Dispersion correction            ... done

DIPOLE MOMENT
-------------
                                X             Y             Z
Electronic contribution:     17.11541      15.77945       0.03451
Nuclear contribution   :    -18.72090     -16.41853       1.60413
                        -----------------------------------------
Total Dipole Moment    :     -1.60549      -0.63908       1.63864
                        -----------------------------------------
Magnitude (a.u.)       :      2.38142
Magnitude (Debye)      :      6.05309

Rotational constants in cm-1:     0.013009     0.008237     0.006202
Rotational constants in MHz :   390.011619   246.935677   185.929521

                             ****ORCA TERMINATED NORMALLY****
TOTAL RUN TIME: 0 days 0 hours 12 minutes 21 seconds 608 msec
