                         Program Version 5.0.3 -  RELEASE  -
|  1> ! EnGrad PBEh-3c
|  2> %output
|  3> xyzfile=True
|  4> end
|  5> %scf
|  6> maxiter 250
|  7> end
|  8> %output
|  9> Print[P_Hirshfeld] = 1
| 10> end
| 11> % maxcore
| 12> 4000
| 13> *xyz 0 1
| 14> Pd   0.39886404   0.21485436  -0.17332786
| 15> O    1.93064777   1.29011498   0.66146516
| 16> C    1.66724447   2.60478574   0.36151621
| 17> O    0.61893267   2.94377873  -0.16790947
| 18> C    2.77653757   3.63735914   0.61978931
| 19> H    2.32468498   4.54901887   1.04444449
| 20> H    3.19052946   3.94636806  -0.34726833
| 21> H    3.58049887   3.30979637   1.26517072
| 22> N   -1.42563430  -0.81821829  -1.01382816
| 23> C   -1.20442527  -2.01185498  -1.82433451
| 24> H   -0.64197738  -1.76868260  -2.70724005
| 25> H   -2.17958971  -2.38076370  -2.14303398
| 26> H   -0.65711613  -2.74489145  -1.24042492
| 27> C   -2.05129828   0.22207624  -1.83203038
| 28> H   -2.19383684   1.14368289  -1.28440619
| 29> H   -3.01082921  -0.15291778  -2.16797034
| 30> H   -1.40882971   0.39823918  -2.68787059
| 31> C   -1.67586144  -1.10933562   1.47886851
| 32> C   -1.64129372  -2.22953037   2.36126419
| 33> C   -1.34002304  -2.05573503   3.69581213
| 34> C   -1.07301681  -0.80073875   4.17868582
| 35> C   -1.09035716   0.31795380   3.33106566
| 36> C   -1.35662847   0.10820729   2.01567047
| 37> H   -0.81305173  -0.66733976   5.22408179
| 38> H   -0.91570339   1.26137013   3.76189073
| 39> H   -2.01895842  -3.17415741   2.04152755
| 40> H   -1.48358668  -2.87347367   4.39224414
| 41> H   -1.57041497   3.78445960   1.11679861
| 42> C   -2.32607902  -1.19986862   0.15730474
| 43> H   -3.18941683  -0.52428813   0.19363056
| 44> H   -2.77685135  -2.17822756   0.01273791
| 45> O    1.89790699   0.12839411  -1.56624051
| 46> C    2.21429150  -0.60769328  -2.64324878
| 47> O    1.54584802  -1.30155398  -3.33677527
| 48> C    3.70866970  -0.30701723  -3.10010733
| 49> H    4.05549065  -1.31289829  -3.37275186
| 50> H    4.34935034   0.03584141  -2.31935920
| 51> H    3.78770558   0.31691180  -3.98927878
| 52> *
| 53>
| 54>                          ****END OF INPUT****

CARTESIAN COORDINATES (ANGSTROEM)
---------------------------------
  Pd     0.398864    0.214854   -0.173328
  O      1.930648    1.290115    0.661465
  C      1.667244    2.604786    0.361516
  O      0.618933    2.943779   -0.167909
  C      2.776538    3.637359    0.619789
  H      2.324685    4.549019    1.044444
  H      3.190529    3.946368   -0.347268
  H      3.580499    3.309796    1.265171
  N     -1.425634   -0.818218   -1.013828
  C     -1.204425   -2.011855   -1.824335
  H     -0.641977   -1.768683   -2.707240
  H     -2.179590   -2.380764   -2.143034
  H     -0.657116   -2.744891   -1.240425
  C     -2.051298    0.222076   -1.832030
  H     -2.193837    1.143683   -1.284406
  H     -3.010829   -0.152918   -2.167970
  H     -1.408830    0.398239   -2.687871
  C     -1.675861   -1.109336    1.478869
  C     -1.641294   -2.229530    2.361264
  C     -1.340023   -2.055735    3.695812
  C     -1.073017   -0.800739    4.178686
  C     -1.090357    0.317954    3.331066
  C     -1.356628    0.108207    2.015670
  H     -0.813052   -0.667340    5.224082
  H     -0.915703    1.261370    3.761891
  H     -2.018958   -3.174157    2.041528
  H     -1.483587   -2.873474    4.392244
  H     -1.570415    3.784460    1.116799
  C     -2.326079   -1.199869    0.157305
  H     -3.189417   -0.524288    0.193631
  H     -2.776851   -2.178228    0.012738
  O      1.897907    0.128394   -1.566241
  C      2.214291   -0.607693   -2.643249
  O      1.545848   -1.301554   -3.336775
  C      3.708670   -0.307017   -3.100107
  H      4.055491   -1.312898   -3.372752
  H      4.349350    0.035841   -2.319359
  H      3.787706    0.316912   -3.989279

 Total Charge           Charge          ....    0
 Multiplicity           Mult            ....    1
 Number of Electrons    NEL             ....  154
 Basis Dimension        Dim             ....  339

ORBITAL ENERGIES
----------------

  NO   OCC          E(Eh)            E(eV)
   0   2.0000     -19.485196      -530.2191
   1   2.0000     -19.466135      -529.7005
   2   2.0000     -19.459544      -529.5211
   3   2.0000     -19.439826      -528.9846
   4   2.0000     -14.718384      -400.5076
   5   2.0000     -10.551005      -287.1074
   6   2.0000     -10.534449      -286.6569
   7   2.0000     -10.511714      -286.0383
   8   2.0000     -10.510939      -286.0172
   9   2.0000     -10.501895      -285.7711
  10   2.0000     -10.486587      -285.3545
  11   2.0000     -10.482222      -285.2358
  12   2.0000     -10.481326      -285.2114
  13   2.0000     -10.479305      -285.1564
  14   2.0000     -10.477000      -285.0937
  15   2.0000     -10.469707      -284.8952
  16   2.0000     -10.428640      -283.7777
  17   2.0000     -10.406131      -283.1652
  18   2.0000      -3.661568       -99.6363
  19   2.0000      -2.310936       -62.8838
  20   2.0000      -2.300892       -62.6105
  21   2.0000      -2.273538       -61.8661
  22   2.0000      -1.147774       -31.2325
  23   2.0000      -1.142906       -31.1000
  24   2.0000      -1.073528       -29.2122
  25   2.0000      -1.046685       -28.4817
  26   2.0000      -1.039401       -28.2835
  27   2.0000      -0.998587       -27.1729
  28   2.0000      -0.904575       -24.6147
  29   2.0000      -0.870683       -23.6925
  30   2.0000      -0.821190       -22.3457
  31   2.0000      -0.810817       -22.0634
  32   2.0000      -0.801941       -21.8219
  33   2.0000      -0.773668       -21.0526
  34   2.0000      -0.720977       -19.6188
  35   2.0000      -0.717549       -19.5255
  36   2.0000      -0.680071       -18.5057
  37   2.0000      -0.613183       -16.6856
  38   2.0000      -0.590889       -16.0789
  39   2.0000      -0.579202       -15.7609
  40   2.0000      -0.576197       -15.6791
  41   2.0000      -0.571398       -15.5485
  42   2.0000      -0.566291       -15.4096
  43   2.0000      -0.544564       -14.8183
  44   2.0000      -0.532824       -14.4989
  45   2.0000      -0.513611       -13.9761
  46   2.0000      -0.506494       -13.7824
  47   2.0000      -0.504645       -13.7321
  48   2.0000      -0.496479       -13.5099
  49   2.0000      -0.491365       -13.3707
  50   2.0000      -0.486622       -13.2417
  51   2.0000      -0.481049       -13.0900
  52   2.0000      -0.479620       -13.0511
  53   2.0000      -0.475529       -12.9398
  54   2.0000      -0.464871       -12.6498
  55   2.0000      -0.449254       -12.2248
  56   2.0000      -0.447525       -12.1778
  57   2.0000      -0.439398       -11.9566
  58   2.0000      -0.437403       -11.9023
  59   2.0000      -0.433384       -11.7930
  60   2.0000      -0.428262       -11.6536
  61   2.0000      -0.412281       -11.2187
  62   2.0000      -0.404818       -11.0156
  63   2.0000      -0.393661       -10.7121
  64   2.0000      -0.373425       -10.1614
  65   2.0000      -0.357434        -9.7263
  66   2.0000      -0.350456        -9.5364
  67   2.0000      -0.344456        -9.3731
  68   2.0000      -0.330788        -9.0012
  69   2.0000      -0.328635        -8.9426
  70   2.0000      -0.322474        -8.7750
  71   2.0000      -0.309215        -8.4142
  72   2.0000      -0.306653        -8.3445
  73   2.0000      -0.294355        -8.0098
  74   2.0000      -0.286235        -7.7889
  75   2.0000      -0.274569        -7.4714
  76   2.0000      -0.253942        -6.9101
  77   0.0000      -0.178772        -4.8646
  78   0.0000      -0.083436        -2.2704
  79   0.0000      -0.024467        -0.6658
  80   0.0000      -0.007267        -0.1978
  81   0.0000       0.052470         1.4278

MULLIKEN ATOMIC CHARGES
-----------------------
   0 Pd:    0.411776
   1 O :   -0.510460
   2 C :    0.602702
   3 O :   -0.426481
   4 C :   -0.743049
   5 H :    0.235059
   6 H :    0.255089
   7 H :    0.245687
   8 N :   -0.465956
   9 C :   -0.535450
  10 H :    0.315318
  11 H :    0.206321
  12 H :    0.254932
  13 C :   -0.541955
  14 H :    0.286486
  15 H :    0.225742
  16 H :    0.286780
  17 C :    0.019618
  18 C :   -0.243887
  19 C :   -0.206786
  20 C :   -0.219908
  21 C :   -0.266151
  22 C :    0.016203
  23 H :    0.243880
  24 H :    0.264501
  25 H :    0.232723
  26 H :    0.238609
  27 H :    0.081089
  28 C :   -0.331349
  29 H :    0.268877
  30 H :    0.252100
  31 O :   -0.530818
  32 C :    0.537765
  33 O :   -0.423012
  34 C :   -0.739696
  35 H :    0.222194
  36 H :    0.245019
  37 H :    0.236488
Sum of atomic charges:    0.0000000

LOEWDIN ATOMIC CHARGES
----------------------
   0 Pd:   -0.290167
   1 O :   -0.193856
   2 C :    0.190078
   3 O :   -0.212592
   4 C :   -0.382458
   5 H :    0.146102
   6 H :    0.158730
   7 H :    0.142777
   8 N :   -0.075089
   9 C :   -0.244033
  10 H :    0.166926
  11 H :    0.113234
  12 H :    0.146698
  13 C :   -0.236191
  14 H :    0.158039
  15 H :    0.120128
  16 H :    0.161483
  17 C :   -0.054248
  18 C :   -0.108974
  19 C :   -0.124565
  20 C :   -0.109759
  21 C :   -0.115873
  22 C :    0.037406
  23 H :    0.147298
  24 H :    0.159179
  25 H :    0.145350
  26 H :    0.148009
  27 H :    0.086772
  28 C :   -0.102063
  29 H :    0.156779
  30 H :    0.142040
  31 O :   -0.198205
  32 C :    0.139653
  33 O :   -0.242921
  34 C :   -0.396485
  35 H :    0.139027
  36 H :    0.137639
  37 H :    0.144132

  Mayer bond orders larger than 0.100000
B(  0-Pd,  1-O ) :   0.7005 B(  0-Pd,  3-O ) :   0.1360 B(  0-Pd,  8-N ) :   0.3919
B(  0-Pd, 22-C ) :   0.2650 B(  0-Pd, 27-H ) :   0.1687 B(  0-Pd, 31-O ) :   0.6644
B(  1-O ,  2-C ) :   1.2045 B(  2-C ,  3-O ) :   1.8090 B(  2-C ,  4-C ) :   0.9359
B(  4-C ,  5-H ) :   0.9161 B(  4-C ,  6-H ) :   0.9082 B(  4-C ,  7-H ) :   0.9103
B(  8-N ,  9-C ) :   0.9221 B(  8-N , 13-C ) :   0.9193 B(  8-N , 28-C ) :   0.8837
B(  9-C , 10-H ) :   0.8609 B(  9-C , 11-H ) :   0.9058 B(  9-C , 12-H ) :   0.9127
B( 13-C , 14-H ) :   0.8916 B( 13-C , 15-H ) :   0.9041 B( 13-C , 16-H ) :   0.8934
B( 17-C , 18-C ) :   1.3762 B( 17-C , 22-C ) :   1.3808 B( 17-C , 28-C ) :   0.9455
B( 18-C , 19-C ) :   1.4495 B( 18-C , 21-C ) :   0.1004 B( 18-C , 25-H ) :   0.9059
B( 19-C , 20-C ) :   1.4214 B( 19-C , 26-H ) :   0.9104 B( 20-C , 21-C ) :   1.3963
B( 20-C , 23-H ) :   0.9042 B( 21-C , 22-C ) :   1.4498 B( 21-C , 24-H ) :   0.8987
B( 22-C , 27-H ) :   0.5539 B( 28-C , 29-H ) :   0.8989 B( 28-C , 30-H ) :   0.9090
B( 31-O , 32-C ) :   1.2481 B( 31-O , 33-O ) :   0.1068 B( 32-C , 33-O ) :   1.9505
B( 32-C , 34-C ) :   0.8970 B( 34-C , 35-H ) :   0.9209 B( 34-C , 36-H ) :   0.9102
B( 34-C , 37-H ) :   0.9201

Dispersion correction           -0.025386683
FINAL SINGLE POINT ENERGY      -988.202951284303
Dispersion correction            ... done

DIPOLE MOMENT
-------------
                                X             Y             Z
Electronic contribution:     15.26958       9.83021      -6.53192
Nuclear contribution   :    -17.62993     -10.60679       8.33642
                        -----------------------------------------
Total Dipole Moment    :     -2.36035      -0.77658       1.80450
                        -----------------------------------------
Magnitude (a.u.)       :      3.07092
Magnitude (Debye)      :      7.80567

Rotational constants in cm-1:     0.013241     0.008263     0.006237
Rotational constants in MHz :   396.948715   247.730912   186.990468

                             ****ORCA TERMINATED NORMALLY****
TOTAL RUN TIME: 0 days 0 hours 12 minutes 8 seconds 460 msec
