                         Program Version 5.0.3 -  RELEASE  -
|  1> ! EnGrad PBEh-3c
|  2> %output
|  3> xyzfile=True
|  4> end
|  5> %scf
|  6> maxiter 250
|  7> end
|  8> %output
|  9> Print[P_Hirshfeld] = 1
| 10> end
| 11> % maxcore
| 12> 4000
| 13> *xyz -1 1
| 14> Pd  -2.24831990  -1.65690838   0.80013176
| 15> Cl  -3.65374361  -3.24370299  -0.10165465
| 16> Cl  -0.95151547  -4.37090831   1.60723531
| 17> Cl  -3.85419819  -0.07203341   0.45341504
| 18> N   -0.91836881  -0.16190327   1.43456588
| 19> C   -1.23148209   0.37730473   2.59831695
| 20> C   -0.74741821   1.61600268   3.02485685
| 21> C    0.08431925   2.30333180   2.17870758
| 22> C   -0.07138582   0.46516866   0.59324594
| 23> C    0.43748132   1.73340528   0.94789230
| 24> H    0.46978945   3.27353211   2.47007632
| 25> H   -1.92718589  -0.17127766   3.21960584
| 26> H   -1.03782554   2.01035427   3.98779707
| 27> C    0.35315419  -0.19985220  -0.61063582
| 28> C    1.29760497   2.42157613   0.03805203
| 29> C    1.63279510   1.85295283  -1.14052364
| 30> C    1.19219461   0.53434908  -1.47985795
| 31> H    1.66561208   3.40625346   0.29830354
| 32> H    2.27339474   2.39623839  -1.82590149
| 33> C   -0.00001252  -1.52879491  -0.92489492
| 34> C    1.63751716  -0.05140584  -2.67432829
| 35> C    0.43786202  -2.04959853  -2.12800872
| 36> C    1.28198377  -1.33896285  -2.98460478
| 37> H    2.27198363   0.50320349  -3.35543387
| 38> H    1.64292217  -1.77749567  -3.90966189
| 39> H   -0.21284419  -3.21204615  -0.09513894
| 40> H    0.17567951  -3.05878274  -2.42156375
| 41> *
| 42>
| 43>                          ****END OF INPUT****

CARTESIAN COORDINATES (ANGSTROEM)
---------------------------------
  Pd    -2.248320   -1.656908    0.800132
  Cl    -3.653744   -3.243703   -0.101655
  Cl    -0.951515   -4.370908    1.607235
  Cl    -3.854198   -0.072033    0.453415
  N     -0.918369   -0.161903    1.434566
  C     -1.231482    0.377305    2.598317
  C     -0.747418    1.616003    3.024857
  C      0.084319    2.303332    2.178708
  C     -0.071386    0.465169    0.593246
  C      0.437481    1.733405    0.947892
  H      0.469789    3.273532    2.470076
  H     -1.927186   -0.171278    3.219606
  H     -1.037826    2.010354    3.987797
  C      0.353154   -0.199852   -0.610636
  C      1.297605    2.421576    0.038052
  C      1.632795    1.852953   -1.140524
  C      1.192195    0.534349   -1.479858
  H      1.665612    3.406253    0.298304
  H      2.273395    2.396238   -1.825901
  C     -0.000013   -1.528795   -0.924895
  C      1.637517   -0.051406   -2.674328
  C      0.437862   -2.049599   -2.128009
  C      1.281984   -1.338963   -2.984605
  H      2.271984    0.503203   -3.355434
  H      1.642922   -1.777496   -3.909662
  H     -0.212844   -3.212046   -0.095139
  H      0.175680   -3.058783   -2.421564

 Total Charge           Charge          ....   -1
 Multiplicity           Mult            ....    1
 Number of Electrons    NEL             ....  164
 Basis Dimension        Dim             ....  313

ORBITAL ENERGIES
----------------

  NO   OCC          E(Eh)            E(eV)
   0   2.0000    -102.105901     -2778.4428
   1   2.0000    -102.084209     -2777.8525
   2   2.0000    -102.065763     -2777.3506
   3   2.0000     -14.601042      -397.3146
   4   2.0000     -10.420390      -283.5532
   5   2.0000     -10.415517      -283.4206
   6   2.0000     -10.399455      -282.9836
   7   2.0000     -10.393012      -282.8082
   8   2.0000     -10.384586      -282.5790
   9   2.0000     -10.380190      -282.4593
  10   2.0000     -10.379325      -282.4358
  11   2.0000     -10.378124      -282.4031
  12   2.0000     -10.374202      -282.2964
  13   2.0000     -10.360361      -281.9198
  14   2.0000     -10.359799      -281.9045
  15   2.0000     -10.359052      -281.8841
  16   2.0000     -10.346611      -281.5456
  17   2.0000      -9.569646      -260.4033
  18   2.0000      -9.548480      -259.8274
  19   2.0000      -9.527609      -259.2594
  20   2.0000      -7.256111      -197.4488
  21   2.0000      -7.250358      -197.2923
  22   2.0000      -7.250091      -197.2850
  23   2.0000      -7.235090      -196.8768
  24   2.0000      -7.229089      -196.7135
  25   2.0000      -7.228679      -196.7023
  26   2.0000      -7.212387      -196.2590
  27   2.0000      -7.210035      -196.1950
  28   2.0000      -7.208584      -196.1556
  29   2.0000      -3.524013       -95.8933
  30   2.0000      -2.175234       -59.1911
  31   2.0000      -2.164073       -58.8874
  32   2.0000      -2.135211       -58.1020
  33   2.0000      -0.996746       -27.1228
  34   2.0000      -0.891754       -24.2659
  35   2.0000      -0.853721       -23.2309
  36   2.0000      -0.821468       -22.3533
  37   2.0000      -0.785515       -21.3749
  38   2.0000      -0.750345       -20.4179
  39   2.0000      -0.726672       -19.7738
  40   2.0000      -0.694711       -18.9040
  41   2.0000      -0.671725       -18.2786
  42   2.0000      -0.653496       -17.7825
  43   2.0000      -0.649667       -17.6783
  44   2.0000      -0.642126       -17.4731
  45   2.0000      -0.615813       -16.7571
  46   2.0000      -0.580740       -15.8027
  47   2.0000      -0.535175       -14.5629
  48   2.0000      -0.524041       -14.2599
  49   2.0000      -0.502667       -13.6783
  50   2.0000      -0.467628       -12.7248
  51   2.0000      -0.466257       -12.6875
  52   2.0000      -0.438233       -11.9249
  53   2.0000      -0.419682       -11.4201
  54   2.0000      -0.416161       -11.3243
  55   2.0000      -0.407321       -11.0838
  56   2.0000      -0.394862       -10.7448
  57   2.0000      -0.383708       -10.4412
  58   2.0000      -0.360356        -9.8058
  59   2.0000      -0.350252        -9.5308
  60   2.0000      -0.343513        -9.3475
  61   2.0000      -0.322443        -8.7741
  62   2.0000      -0.310563        -8.4509
  63   2.0000      -0.300769        -8.1843
  64   2.0000      -0.275199        -7.4885
  65   2.0000      -0.267004        -7.2655
  66   2.0000      -0.260649        -7.0926
  67   2.0000      -0.247697        -6.7402
  68   2.0000      -0.235662        -6.4127
  69   2.0000      -0.231049        -6.2872
  70   2.0000      -0.227012        -6.1773
  71   2.0000      -0.218174        -5.9368
  72   2.0000      -0.193223        -5.2579
  73   2.0000      -0.179900        -4.8953
  74   2.0000      -0.167183        -4.5493
  75   2.0000      -0.165281        -4.4975
  76   2.0000      -0.163915        -4.4604
  77   2.0000      -0.156737        -4.2650
  78   2.0000      -0.147006        -4.0002
  79   2.0000      -0.145822        -3.9680
  80   2.0000      -0.128040        -3.4841
  81   2.0000      -0.122756        -3.3404
  82   0.0000       0.037143         1.0107
  83   0.0000       0.056306         1.5322
  84   0.0000       0.058749         1.5986
  85   0.0000       0.099023         2.6946
  86   0.0000       0.102589         2.7916

MULLIKEN ATOMIC CHARGES
-----------------------
   0 Pd:    0.210530
   1 Cl:   -0.307392
   2 Cl:   -0.513593
   3 Cl:   -0.358687
   4 N :   -0.569719
   5 C :    0.048365
   6 C :   -0.313119
   7 C :   -0.156766
   8 C :    0.403961
   9 C :    0.031326
  10 H :    0.213637
  11 H :    0.280997
  12 H :    0.223139
  13 C :   -0.032910
  14 C :   -0.299272
  15 C :   -0.276276
  16 C :    0.120013
  17 H :    0.197045
  18 H :    0.198770
  19 C :   -0.160708
  20 C :   -0.315837
  21 C :   -0.267521
  22 C :   -0.196839
  23 H :    0.190863
  24 H :    0.197650
  25 H :    0.224624
  26 H :    0.227718
Sum of atomic charges:   -1.0000000

LOEWDIN ATOMIC CHARGES
----------------------
   0 Pd:   -0.788012
   1 Cl:   -0.058456
   2 Cl:   -0.430959
   3 Cl:   -0.069463
   4 N :    0.031979
   5 C :    0.016245
   6 C :   -0.163487
   7 C :   -0.083416
   8 C :    0.093984
   9 C :   -0.049963
  10 H :    0.136841
  11 H :    0.166518
  12 H :    0.141964
  13 C :   -0.037056
  14 C :   -0.140296
  15 C :   -0.115013
  16 C :   -0.030611
  17 H :    0.130937
  18 H :    0.132722
  19 C :   -0.104296
  20 C :   -0.148904
  21 C :   -0.147251
  22 C :   -0.132895
  23 H :    0.125336
  24 H :    0.126700
  25 H :    0.260814
  26 H :    0.136038

  Mayer bond orders larger than 0.100000
B(  0-Pd,  1-Cl) :   0.9500 B(  0-Pd,  2-Cl) :   0.3080 B(  0-Pd,  3-Cl) :   0.9165
B(  0-Pd,  4-N ) :   0.3746 B(  2-Cl, 19-C ) :   0.1163 B(  2-Cl, 25-H ) :   0.3468
B(  4-N ,  5-C ) :   1.4588 B(  4-N ,  8-C ) :   1.1826 B(  5-C ,  6-C ) :   1.3242
B(  5-C , 11-H ) :   0.8933 B(  6-C ,  7-C ) :   1.4613 B(  6-C , 12-H ) :   0.9178
B(  7-C ,  9-C ) :   1.2803 B(  7-C , 10-H ) :   0.9279 B(  8-C ,  9-C ) :   1.2201
B(  8-C , 13-C ) :   1.1145 B(  9-C , 14-C ) :   1.1644 B( 13-C , 16-C ) :   1.2884
B( 13-C , 19-C ) :   1.3619 B( 14-C , 15-C ) :   1.6493 B( 14-C , 17-H ) :   0.9292
B( 15-C , 16-C ) :   1.1516 B( 15-C , 18-H ) :   0.9276 B( 16-C , 20-C ) :   1.2822
B( 19-C , 21-C ) :   1.4663 B( 19-C , 25-H ) :   0.4890 B( 20-C , 22-C ) :   1.4937
B( 20-C , 23-H ) :   0.9311 B( 21-C , 22-C ) :   1.3554 B( 21-C , 26-H ) :   0.9168
B( 22-C , 24-H ) :   0.9206

Dispersion correction           -0.024644345
FINAL SINGLE POINT ENERGY     -2061.374004852377
Dispersion correction            ... done

DIPOLE MOMENT
-------------
                                X             Y             Z
Electronic contribution:    -88.11928     -60.13290      34.86640
Nuclear contribution   :     91.20064      64.38253     -34.79860
                        -----------------------------------------
Total Dipole Moment    :      3.08136       4.24963       0.06780
                        -----------------------------------------
Magnitude (a.u.)       :      5.24964
Magnitude (Debye)      :     13.34352

Rotational constants in cm-1:     0.011733     0.007190     0.005726
Rotational constants in MHz :   351.743647   215.558683   171.649368

                             ****ORCA TERMINATED NORMALLY****
TOTAL RUN TIME: 0 days 0 hours 9 minutes 22 seconds 896 msec
