                         Program Version 5.0.3 -  RELEASE  -
|  1> ! EnGrad PBEh-3c
|  2> %output
|  3> xyzfile=True
|  4> end
|  5> %scf
|  6> maxiter 250
|  7> end
|  8> %output
|  9> Print[P_Hirshfeld] = 1
| 10> end
| 11> % maxcore
| 12> 4000
| 13> *xyz -1 1
| 14> Pd  -2.22874205  -1.72279440   0.75023081
| 15> Cl  -3.62475994  -3.22378630  -0.10101654
| 16> Cl  -0.89331492  -4.33665653   1.52598113
| 17> Cl  -3.86681970  -0.09178534   0.50710827
| 18> N   -0.95505421  -0.16044950   1.44640427
| 19> C   -1.23947423   0.39935856   2.59986476
| 20> C   -0.74608274   1.61515617   3.01515587
| 21> C    0.07769954   2.30129402   2.18140472
| 22> C   -0.06364448   0.45610648   0.61848759
| 23> C    0.44828168   1.75593519   0.94236062
| 24> H    0.47467498   3.28045078   2.46148120
| 25> H   -1.92986231  -0.16143032   3.21577372
| 26> H   -1.04457257   2.02228227   3.98325502
| 27> C    0.34594341  -0.19619445  -0.59476172
| 28> C    1.30262904   2.41688443   0.03320994
| 29> C    1.63536479   1.85685281  -1.12347383
| 30> C    1.20447073   0.54488390  -1.50143067
| 31> H    1.67483809   3.40671794   0.30289774
| 32> H    2.28466700   2.38614383  -1.82527427
| 33> C   -0.00494016  -1.66941718  -0.89263201
| 34> C    1.64565332  -0.05663247  -2.67286144
| 35> C    0.43673445  -2.04579759  -2.14091388
| 36> C    1.26342743  -1.32028445  -2.99775466
| 37> H    2.28181091   0.50413320  -3.34451607
| 38> H    1.63429730  -1.78203388  -3.90210460
| 39> H   -0.26451567  -3.13140281  -0.06665582
| 40> H    0.15004103  -3.04732748  -2.41894638
| 41> *
| 42>
| 43>                          ****END OF INPUT****

CARTESIAN COORDINATES (ANGSTROEM)
---------------------------------
  Pd    -2.228742   -1.722794    0.750231
  Cl    -3.624760   -3.223786   -0.101017
  Cl    -0.893315   -4.336657    1.525981
  Cl    -3.866820   -0.091785    0.507108
  N     -0.955054   -0.160449    1.446404
  C     -1.239474    0.399359    2.599865
  C     -0.746083    1.615156    3.015156
  C      0.077700    2.301294    2.181405
  C     -0.063644    0.456106    0.618488
  C      0.448282    1.755935    0.942361
  H      0.474675    3.280451    2.461481
  H     -1.929862   -0.161430    3.215774
  H     -1.044573    2.022282    3.983255
  C      0.345943   -0.196194   -0.594762
  C      1.302629    2.416884    0.033210
  C      1.635365    1.856853   -1.123474
  C      1.204471    0.544884   -1.501431
  H      1.674838    3.406718    0.302898
  H      2.284667    2.386144   -1.825274
  C     -0.004940   -1.669417   -0.892632
  C      1.645653   -0.056632   -2.672861
  C      0.436734   -2.045798   -2.140914
  C      1.263427   -1.320284   -2.997755
  H      2.281811    0.504133   -3.344516
  H      1.634297   -1.782034   -3.902105
  H     -0.264516   -3.131403   -0.066656
  H      0.150041   -3.047327   -2.418946

 Total Charge           Charge          ....   -1
 Multiplicity           Mult            ....    1
 Number of Electrons    NEL             ....  164
 Basis Dimension        Dim             ....  313

ORBITAL ENERGIES
----------------

  NO   OCC          E(Eh)            E(eV)
   0   2.0000    -102.102826     -2778.3592
   1   2.0000    -102.090575     -2778.0258
   2   2.0000    -102.065479     -2777.3429
   3   2.0000     -14.598108      -397.2347
   4   2.0000     -10.420156      -283.5469
   5   2.0000     -10.410097      -283.2731
   6   2.0000     -10.397371      -282.9268
   7   2.0000     -10.391783      -282.7748
   8   2.0000     -10.386604      -282.6339
   9   2.0000     -10.381479      -282.4944
  10   2.0000     -10.380672      -282.4724
  11   2.0000     -10.378514      -282.4137
  12   2.0000     -10.377095      -282.3751
  13   2.0000     -10.372822      -282.2588
  14   2.0000     -10.360570      -281.9255
  15   2.0000     -10.359112      -281.8858
  16   2.0000     -10.342782      -281.4414
  17   2.0000      -9.566240      -260.3106
  18   2.0000      -9.555952      -260.0307
  19   2.0000      -9.527596      -259.2591
  20   2.0000      -7.252701      -197.3560
  21   2.0000      -7.246982      -197.2004
  22   2.0000      -7.246729      -197.1935
  23   2.0000      -7.242618      -197.0817
  24   2.0000      -7.236405      -196.9126
  25   2.0000      -7.235956      -196.9004
  26   2.0000      -7.212162      -196.2529
  27   2.0000      -7.210140      -196.1979
  28   2.0000      -7.208662      -196.1577
  29   2.0000      -3.523728       -95.8855
  30   2.0000      -2.176298       -59.2201
  31   2.0000      -2.162543       -58.8458
  32   2.0000      -2.135281       -58.1040
  33   2.0000      -0.992071       -26.9956
  34   2.0000      -0.888051       -24.1651
  35   2.0000      -0.851619       -23.1737
  36   2.0000      -0.822270       -22.3751
  37   2.0000      -0.782764       -21.3001
  38   2.0000      -0.746254       -20.3066
  39   2.0000      -0.727152       -19.7868
  40   2.0000      -0.692654       -18.8481
  41   2.0000      -0.680651       -18.5215
  42   2.0000      -0.653194       -17.7743
  43   2.0000      -0.646143       -17.5825
  44   2.0000      -0.644858       -17.5475
  45   2.0000      -0.608271       -16.5519
  46   2.0000      -0.581351       -15.8194
  47   2.0000      -0.529855       -14.4181
  48   2.0000      -0.521556       -14.1923
  49   2.0000      -0.503065       -13.6891
  50   2.0000      -0.466396       -12.6913
  51   2.0000      -0.464433       -12.6379
  52   2.0000      -0.434079       -11.8119
  53   2.0000      -0.416151       -11.3241
  54   2.0000      -0.412486       -11.2243
  55   2.0000      -0.404745       -11.0137
  56   2.0000      -0.388959       -10.5841
  57   2.0000      -0.380049       -10.3417
  58   2.0000      -0.361969        -9.8497
  59   2.0000      -0.348280        -9.4772
  60   2.0000      -0.339385        -9.2351
  61   2.0000      -0.320180        -8.7125
  62   2.0000      -0.309091        -8.4108
  63   2.0000      -0.295941        -8.0530
  64   2.0000      -0.279392        -7.6027
  65   2.0000      -0.273429        -7.4404
  66   2.0000      -0.262650        -7.1471
  67   2.0000      -0.252706        -6.8765
  68   2.0000      -0.241454        -6.5703
  69   2.0000      -0.232878        -6.3369
  70   2.0000      -0.229268        -6.2387
  71   2.0000      -0.227301        -6.1852
  72   2.0000      -0.188162        -5.1201
  73   2.0000      -0.181371        -4.9354
  74   2.0000      -0.169652        -4.6165
  75   2.0000      -0.167136        -4.5480
  76   2.0000      -0.165427        -4.5015
  77   2.0000      -0.157071        -4.2741
  78   2.0000      -0.148224        -4.0334
  79   2.0000      -0.146776        -3.9940
  80   2.0000      -0.131116        -3.5679
  81   2.0000      -0.128882        -3.5071
  82   0.0000       0.038726         1.0538
  83   0.0000       0.055614         1.5133
  84   0.0000       0.060730         1.6526
  85   0.0000       0.106702         2.9035
  86   0.0000       0.122344         3.3291

MULLIKEN ATOMIC CHARGES
-----------------------
   0 Pd:    0.202001
   1 Cl:   -0.277591
   2 Cl:   -0.519433
   3 Cl:   -0.370029
   4 N :   -0.554476
   5 C :    0.050470
   6 C :   -0.312284
   7 C :   -0.156793
   8 C :    0.384140
   9 C :    0.047427
  10 H :    0.209573
  11 H :    0.275596
  12 H :    0.221251
  13 C :   -0.121603
  14 C :   -0.279416
  15 C :   -0.279497
  16 C :    0.162404
  17 H :    0.195332
  18 H :    0.195338
  19 C :   -0.209970
  20 C :   -0.312606
  21 C :   -0.245665
  22 C :   -0.178874
  23 H :    0.189822
  24 H :    0.200954
  25 H :    0.258674
  26 H :    0.225256
Sum of atomic charges:   -1.0000000

LOEWDIN ATOMIC CHARGES
----------------------
   0 Pd:   -0.815183
   1 Cl:   -0.001724
   2 Cl:   -0.429387
   3 Cl:   -0.096130
   4 N :    0.025849
   5 C :    0.011345
   6 C :   -0.167753
   7 C :   -0.082236
   8 C :    0.087937
   9 C :   -0.051598
  10 H :    0.134892
  11 H :    0.163673
  12 H :    0.142721
  13 C :   -0.016423
  14 C :   -0.140043
  15 C :   -0.116776
  16 C :   -0.033393
  17 H :    0.131548
  18 H :    0.131596
  19 C :   -0.113301
  20 C :   -0.149991
  21 C :   -0.154699
  22 C :   -0.129454
  23 H :    0.125346
  24 H :    0.130007
  25 H :    0.275879
  26 H :    0.137297

  Mayer bond orders larger than 0.100000
B(  0-Pd,  1-Cl) :   0.9908 B(  0-Pd,  2-Cl) :   0.3358 B(  0-Pd,  3-Cl) :   0.8858
B(  0-Pd,  4-N ) :   0.3555 B(  2-Cl, 19-C ) :   0.1046 B(  2-Cl, 25-H ) :   0.3321
B(  4-N ,  5-C ) :   1.4836 B(  4-N ,  8-C ) :   1.1785 B(  5-C ,  6-C ) :   1.3151
B(  5-C , 11-H ) :   0.8965 B(  6-C ,  7-C ) :   1.4619 B(  6-C , 12-H ) :   0.9188
B(  7-C ,  9-C ) :   1.2797 B(  7-C , 10-H ) :   0.9288 B(  8-C ,  9-C ) :   1.2262
B(  8-C , 13-C ) :   1.1461 B(  9-C , 14-C ) :   1.1762 B( 13-C , 16-C ) :   1.3035
B( 13-C , 19-C ) :   1.2750 B( 14-C , 15-C ) :   1.6308 B( 14-C , 17-H ) :   0.9296
B( 15-C , 16-C ) :   1.1629 B( 15-C , 18-H ) :   0.9272 B( 16-C , 20-C ) :   1.2594
B( 19-C , 21-C ) :   1.4842 B( 19-C , 25-H ) :   0.5184 B( 20-C , 22-C ) :   1.5132
B( 20-C , 23-H ) :   0.9297 B( 21-C , 22-C ) :   1.3207 B( 21-C , 26-H ) :   0.9154
B( 22-C , 24-H ) :   0.9222

Dispersion correction           -0.024702925
FINAL SINGLE POINT ENERGY     -2061.393983759449
Dispersion correction            ... done

DIPOLE MOMENT
-------------
                                X             Y             Z
Electronic contribution:    -87.42497     -63.68741      32.31734
Nuclear contribution   :     90.40298      67.77138     -32.31672
                        -----------------------------------------
Total Dipole Moment    :      2.97801       4.08396       0.00062
                        -----------------------------------------
Magnitude (a.u.)       :      5.05443
Magnitude (Debye)      :     12.84734

Rotational constants in cm-1:     0.011765     0.007259     0.005733
Rotational constants in MHz :   352.691238   217.630471   171.868161

                             ****ORCA TERMINATED NORMALLY****
TOTAL RUN TIME: 0 days 0 hours 10 minutes 53 seconds 733 msec
