                         Program Version 5.0.3 -  RELEASE  -
|  1> ! EnGrad PBEh-3c
|  2> %output
|  3> xyzfile=True
|  4> end
|  5> %scf
|  6> maxiter 250
|  7> end
|  8> %output
|  9> Print[P_Hirshfeld] = 1
| 10> end
| 11> % maxcore
| 12> 4000
| 13> *xyz -1 1
| 14> Pd  -2.21693709  -1.73440291   0.73521989
| 15> Cl  -3.61684712  -3.22386167  -0.10604264
| 16> Cl  -0.86670234  -4.32052851   1.48667946
| 17> Cl  -3.87097034  -0.10595542   0.53403727
| 18> N   -0.95763393  -0.15819481   1.44282392
| 19> C   -1.25193621   0.39490075   2.59954089
| 20> C   -0.74790792   1.62477576   3.02371316
| 21> C    0.08453890   2.31184553   2.17535399
| 22> C   -0.06310531   0.45707495   0.62255497
| 23> C    0.44288563   1.74900581   0.94703216
| 24> H    0.47445509   3.28059857   2.45836478
| 25> H   -1.93225879  -0.15458171   3.21524209
| 26> H   -1.04612686   2.02598047   3.97681569
| 27> C    0.34511298  -0.22422109  -0.59697165
| 28> C    1.30478898   2.42920950   0.04573468
| 29> C    1.64480461   1.85054606  -1.13955904
| 30> C    1.19245981   0.54053420  -1.48353329
| 31> H    1.67867552   3.40397451   0.30343536
| 32> H    2.28840496   2.38145610  -1.82130227
| 33> C    0.00251558  -1.68162018  -0.87244489
| 34> C    1.65233858  -0.05475962  -2.67947793
| 35> C    0.42785786  -2.05739154  -2.13928075
| 36> C    1.25559374  -1.31508451  -3.00142276
| 37> H    2.28775347   0.50380953  -3.34069668
| 38> H    1.62973555  -1.78343668  -3.90092108
| 39> H   -0.28360444  -3.09441783  -0.05827385
| 40> H    0.14048313  -3.04495695  -2.42387951
| 41> *
| 42>
| 43>                          ****END OF INPUT****

CARTESIAN COORDINATES (ANGSTROEM)
---------------------------------
  Pd    -2.216937   -1.734403    0.735220
  Cl    -3.616847   -3.223862   -0.106043
  Cl    -0.866702   -4.320529    1.486679
  Cl    -3.870970   -0.105955    0.534037
  N     -0.957634   -0.158195    1.442824
  C     -1.251936    0.394901    2.599541
  C     -0.747908    1.624776    3.023713
  C      0.084539    2.311846    2.175354
  C     -0.063105    0.457075    0.622555
  C      0.442886    1.749006    0.947032
  H      0.474455    3.280599    2.458365
  H     -1.932259   -0.154582    3.215242
  H     -1.046127    2.025980    3.976816
  C      0.345113   -0.224221   -0.596972
  C      1.304789    2.429209    0.045735
  C      1.644805    1.850546   -1.139559
  C      1.192460    0.540534   -1.483533
  H      1.678676    3.403975    0.303435
  H      2.288405    2.381456   -1.821302
  C      0.002516   -1.681620   -0.872445
  C      1.652339   -0.054760   -2.679478
  C      0.427858   -2.057392   -2.139281
  C      1.255594   -1.315085   -3.001423
  H      2.287753    0.503810   -3.340697
  H      1.629736   -1.783437   -3.900921
  H     -0.283604   -3.094418   -0.058274
  H      0.140483   -3.044957   -2.423880

 Total Charge           Charge          ....   -1
 Multiplicity           Mult            ....    1
 Number of Electrons    NEL             ....  164
 Basis Dimension        Dim             ....  313

ORBITAL ENERGIES
----------------

  NO   OCC          E(Eh)            E(eV)
   0   2.0000    -102.102238     -2778.3431
   1   2.0000    -102.091248     -2778.0441
   2   2.0000    -102.066007     -2777.3573
   3   2.0000     -14.597691      -397.2234
   4   2.0000     -10.420077      -283.5447
   5   2.0000     -10.410467      -283.2832
   6   2.0000     -10.396710      -282.9089
   7   2.0000     -10.391466      -282.7662
   8   2.0000     -10.387086      -282.6470
   9   2.0000     -10.381984      -282.5081
  10   2.0000     -10.381658      -282.4993
  11   2.0000     -10.380086      -282.4565
  12   2.0000     -10.378743      -282.4200
  13   2.0000     -10.371726      -282.2290
  14   2.0000     -10.360427      -281.9215
  15   2.0000     -10.359583      -281.8986
  16   2.0000     -10.344377      -281.4848
  17   2.0000      -9.565633      -260.2941
  18   2.0000      -9.556761      -260.0527
  19   2.0000      -9.528251      -259.2769
  20   2.0000      -7.252097      -197.3396
  21   2.0000      -7.246375      -197.1839
  22   2.0000      -7.246121      -197.1770
  23   2.0000      -7.243438      -197.1040
  24   2.0000      -7.237195      -196.9341
  25   2.0000      -7.236739      -196.9217
  26   2.0000      -7.212807      -196.2705
  27   2.0000      -7.210777      -196.2152
  28   2.0000      -7.209320      -196.1756
  29   2.0000      -3.523667       -95.8839
  30   2.0000      -2.176396       -59.2228
  31   2.0000      -2.162363       -58.8409
  32   2.0000      -2.135274       -58.1037
  33   2.0000      -0.990671       -26.9575
  34   2.0000      -0.884059       -24.0565
  35   2.0000      -0.849403       -23.1134
  36   2.0000      -0.817096       -22.2343
  37   2.0000      -0.780560       -21.2401
  38   2.0000      -0.743290       -20.2259
  39   2.0000      -0.725570       -19.7438
  40   2.0000      -0.692828       -18.8528
  41   2.0000      -0.681153       -18.5351
  42   2.0000      -0.651593       -17.7307
  43   2.0000      -0.646721       -17.5982
  44   2.0000      -0.644308       -17.5325
  45   2.0000      -0.610556       -16.6141
  46   2.0000      -0.580011       -15.7829
  47   2.0000      -0.530960       -14.4482
  48   2.0000      -0.520845       -14.1729
  49   2.0000      -0.500935       -13.6311
  50   2.0000      -0.466272       -12.6879
  51   2.0000      -0.465168       -12.6579
  52   2.0000      -0.434036       -11.8107
  53   2.0000      -0.415432       -11.3045
  54   2.0000      -0.411620       -11.2008
  55   2.0000      -0.403747       -10.9865
  56   2.0000      -0.389344       -10.5946
  57   2.0000      -0.381476       -10.3805
  58   2.0000      -0.362934        -9.8759
  59   2.0000      -0.344942        -9.3864
  60   2.0000      -0.342211        -9.3120
  61   2.0000      -0.319156        -8.6847
  62   2.0000      -0.307493        -8.3673
  63   2.0000      -0.294990        -8.0271
  64   2.0000      -0.283658        -7.7187
  65   2.0000      -0.273246        -7.4354
  66   2.0000      -0.261656        -7.1200
  67   2.0000      -0.252807        -6.8792
  68   2.0000      -0.241991        -6.5849
  69   2.0000      -0.232523        -6.3273
  70   2.0000      -0.229260        -6.2385
  71   2.0000      -0.227505        -6.1907
  72   2.0000      -0.187348        -5.0980
  73   2.0000      -0.180605        -4.9145
  74   2.0000      -0.170036        -4.6269
  75   2.0000      -0.167071        -4.5462
  76   2.0000      -0.164808        -4.4847
  77   2.0000      -0.157690        -4.2910
  78   2.0000      -0.148800        -4.0491
  79   2.0000      -0.146947        -3.9986
  80   2.0000      -0.131696        -3.5836
  81   2.0000      -0.129277        -3.5178
  82   0.0000       0.039634         1.0785
  83   0.0000       0.056608         1.5404
  84   0.0000       0.060670         1.6509
  85   0.0000       0.104066         2.8318
  86   0.0000       0.123371         3.3571

MULLIKEN ATOMIC CHARGES
-----------------------
   0 Pd:    0.199769
   1 Cl:   -0.274696
   2 Cl:   -0.517121
   3 Cl:   -0.371137
   4 N :   -0.551349
   5 C :    0.052945
   6 C :   -0.320547
   7 C :   -0.157926
   8 C :    0.372401
   9 C :    0.054919
  10 H :    0.211647
  11 H :    0.276701
  12 H :    0.221809
  13 C :   -0.083249
  14 C :   -0.299031
  15 C :   -0.270804
  16 C :    0.131732
  17 H :    0.197894
  18 H :    0.199430
  19 C :   -0.227164
  20 C :   -0.306382
  21 C :   -0.239034
  22 C :   -0.185382
  23 H :    0.191957
  24 H :    0.198467
  25 H :    0.266776
  26 H :    0.227377
Sum of atomic charges:   -1.0000000

LOEWDIN ATOMIC CHARGES
----------------------
   0 Pd:   -0.821432
   1 Cl:    0.004334
   2 Cl:   -0.425115
   3 Cl:   -0.099618
   4 N :    0.025919
   5 C :    0.012321
   6 C :   -0.167030
   7 C :   -0.083534
   8 C :    0.088266
   9 C :   -0.052481
  10 H :    0.135658
  11 H :    0.162455
  12 H :    0.141531
  13 C :   -0.015228
  14 C :   -0.140819
  15 C :   -0.118588
  16 C :   -0.032920
  17 H :    0.131350
  18 H :    0.132911
  19 C :   -0.118814
  20 C :   -0.149301
  21 C :   -0.148586
  22 C :   -0.132336
  23 H :    0.125886
  24 H :    0.128872
  25 H :    0.278485
  26 H :    0.137818

  Mayer bond orders larger than 0.100000
B(  0-Pd,  1-Cl) :   0.9950 B(  0-Pd,  2-Cl) :   0.3398 B(  0-Pd,  3-Cl) :   0.8799
B(  0-Pd,  4-N ) :   0.3528 B(  2-Cl, 19-C ) :   0.1002 B(  2-Cl, 25-H ) :   0.3352
B(  4-N ,  5-C ) :   1.4836 B(  4-N ,  8-C ) :   1.1853 B(  5-C ,  6-C ) :   1.3158
B(  5-C , 11-H ) :   0.8955 B(  6-C ,  7-C ) :   1.4656 B(  6-C , 12-H ) :   0.9188
B(  7-C ,  9-C ) :   1.2753 B(  7-C , 10-H ) :   0.9286 B(  8-C ,  9-C ) :   1.2169
B(  8-C , 13-C ) :   1.1346 B(  9-C , 14-C ) :   1.1785 B( 13-C , 16-C ) :   1.3014
B( 13-C , 19-C ) :   1.2745 B( 14-C , 15-C ) :   1.6256 B( 14-C , 17-H ) :   0.9289
B( 15-C , 16-C ) :   1.1674 B( 15-C , 18-H ) :   0.9270 B( 16-C , 20-C ) :   1.2531
B( 19-C , 21-C ) :   1.4794 B( 19-C , 25-H ) :   0.5164 B( 20-C , 22-C ) :   1.5252
B( 20-C , 23-H ) :   0.9289 B( 21-C , 22-C ) :   1.3150 B( 21-C , 26-H ) :   0.9150
B( 22-C , 24-H ) :   0.9234

Dispersion correction           -0.024731520
FINAL SINGLE POINT ENERGY     -2061.405778067190
Dispersion correction            ... done

DIPOLE MOMENT
-------------
                                X             Y             Z
Electronic contribution:    -86.93698     -64.28389      31.60409
Nuclear contribution   :     89.88454      68.34171     -31.58555
                        -----------------------------------------
Total Dipole Moment    :      2.94755       4.05782       0.01853
                        -----------------------------------------
Magnitude (a.u.)       :      5.01541
Magnitude (Debye)      :     12.74816

Rotational constants in cm-1:     0.011774     0.007300     0.005738
Rotational constants in MHz :   352.990471   218.851849   172.024119

                             ****ORCA TERMINATED NORMALLY****
TOTAL RUN TIME: 0 days 0 hours 12 minutes 49 seconds 413 msec
