                         Program Version 5.0.3 -  RELEASE  -
|  1> ! EnGrad PBEh-3c
|  2> %output
|  3> xyzfile=True
|  4> end
|  5> %scf
|  6> maxiter 250
|  7> end
|  8> %output
|  9> Print[P_Hirshfeld] = 1
| 10> end
| 11> % maxcore
| 12> 4000
| 13> *xyz -1 1
| 14> Pd  -2.21073764  -1.72679720   0.73377822
| 15> Cl  -3.61687047  -3.22956960  -0.11126239
| 16> Cl  -0.85631351  -4.31391725   1.46965100
| 17> Cl  -3.87174137  -0.11437248   0.54590548
| 18> N   -0.95232020  -0.15679615   1.43910780
| 19> C   -1.25464321   0.39494405   2.59782919
| 20> C   -0.74769572   1.62820469   3.02269120
| 21> C    0.08450074   2.31429712   2.17612274
| 22> C   -0.06497305   0.45454124   0.61680406
| 23> C    0.44069847   1.74325379   0.94847036
| 24> H    0.47468927   3.28207458   2.45769387
| 25> H   -1.93664741  -0.15317950   3.21737421
| 26> H   -1.04711902   2.02842565   3.97642415
| 27> C    0.34564452  -0.24065506  -0.59472118
| 28> C    1.30664851   2.42706260   0.04251181
| 29> C    1.64346850   1.84964890  -1.13587090
| 30> C    1.18586468   0.53027728  -1.47591421
| 31> H    1.68126586   3.40575456   0.30463990
| 32> H    2.29168310   2.38072030  -1.82163974
| 33> C    0.00958037  -1.66261191  -0.86932380
| 34> C    1.65000977  -0.05256371  -2.67639815
| 35> C    0.42253718  -2.06042225  -2.13129395
| 36> C    1.25189097  -1.31748919  -2.99970890
| 37> H    2.29211633   0.50455976  -3.34124048
| 38> H    1.62738667  -1.78361610  -3.90198513
| 39> H   -0.28740894  -3.08261484  -0.05615288
| 40> H    0.13687127  -3.04886049  -2.42962629
| 41> *
| 42>
| 43>                          ****END OF INPUT****

CARTESIAN COORDINATES (ANGSTROEM)
---------------------------------
  Pd    -2.210738   -1.726797    0.733778
  Cl    -3.616870   -3.229570   -0.111262
  Cl    -0.856314   -4.313917    1.469651
  Cl    -3.871741   -0.114372    0.545905
  N     -0.952320   -0.156796    1.439108
  C     -1.254643    0.394944    2.597829
  C     -0.747696    1.628205    3.022691
  C      0.084501    2.314297    2.176123
  C     -0.064973    0.454541    0.616804
  C      0.440698    1.743254    0.948470
  H      0.474689    3.282075    2.457694
  H     -1.936647   -0.153179    3.217374
  H     -1.047119    2.028426    3.976424
  C      0.345645   -0.240655   -0.594721
  C      1.306649    2.427063    0.042512
  C      1.643468    1.849649   -1.135871
  C      1.185865    0.530277   -1.475914
  H      1.681266    3.405755    0.304640
  H      2.291683    2.380720   -1.821640
  C      0.009580   -1.662612   -0.869324
  C      1.650010   -0.052564   -2.676398
  C      0.422537   -2.060422   -2.131294
  C      1.251891   -1.317489   -2.999709
  H      2.292116    0.504560   -3.341240
  H      1.627387   -1.783616   -3.901985
  H     -0.287409   -3.082615   -0.056153
  H      0.136871   -3.048860   -2.429626

 Total Charge           Charge          ....   -1
 Multiplicity           Mult            ....    1
 Number of Electrons    NEL             ....  164
 Basis Dimension        Dim             ....  313

ORBITAL ENERGIES
----------------

  NO   OCC          E(Eh)            E(eV)
   0   2.0000    -102.102551     -2778.3517
   1   2.0000    -102.090050     -2778.0115
   2   2.0000    -102.066526     -2777.3714
   3   2.0000     -14.597984      -397.2313
   4   2.0000     -10.420016      -283.5430
   5   2.0000     -10.411626      -283.3147
   6   2.0000     -10.396766      -282.9104
   7   2.0000     -10.392089      -282.7831
   8   2.0000     -10.384321      -282.5717
   9   2.0000     -10.382096      -282.5112
  10   2.0000     -10.381679      -282.4999
  11   2.0000     -10.380279      -282.4617
  12   2.0000     -10.378680      -282.4182
  13   2.0000     -10.367563      -282.1157
  14   2.0000     -10.360838      -281.9327
  15   2.0000     -10.360110      -281.9129
  16   2.0000     -10.345507      -281.5156
  17   2.0000      -9.566020      -260.3046
  18   2.0000      -9.555349      -260.0143
  19   2.0000      -9.528800      -259.2918
  20   2.0000      -7.252490      -197.3503
  21   2.0000      -7.246750      -197.1941
  22   2.0000      -7.246494      -197.1871
  23   2.0000      -7.242014      -197.0652
  24   2.0000      -7.235816      -196.8966
  25   2.0000      -7.235362      -196.8842
  26   2.0000      -7.213393      -196.2864
  27   2.0000      -7.211293      -196.2293
  28   2.0000      -7.209849      -196.1900
  29   2.0000      -3.523573       -95.8813
  30   2.0000      -2.176013       -59.2123
  31   2.0000      -2.162485       -58.8442
  32   2.0000      -2.135112       -58.0993
  33   2.0000      -0.991270       -26.9738
  34   2.0000      -0.883930       -24.0529
  35   2.0000      -0.849530       -23.1169
  36   2.0000      -0.816999       -22.2317
  37   2.0000      -0.780809       -21.2469
  38   2.0000      -0.743179       -20.2229
  39   2.0000      -0.726302       -19.7637
  40   2.0000      -0.692461       -18.8428
  41   2.0000      -0.680056       -18.5053
  42   2.0000      -0.650828       -17.7099
  43   2.0000      -0.647339       -17.6150
  44   2.0000      -0.644641       -17.5416
  45   2.0000      -0.611011       -16.6265
  46   2.0000      -0.579208       -15.7610
  47   2.0000      -0.531434       -14.4611
  48   2.0000      -0.520716       -14.1694
  49   2.0000      -0.500423       -13.6172
  50   2.0000      -0.465713       -12.6727
  51   2.0000      -0.464477       -12.6391
  52   2.0000      -0.434479       -11.8228
  53   2.0000      -0.416316       -11.3285
  54   2.0000      -0.411288       -11.1917
  55   2.0000      -0.403589       -10.9822
  56   2.0000      -0.389947       -10.6110
  57   2.0000      -0.381647       -10.3851
  58   2.0000      -0.361652        -9.8411
  59   2.0000      -0.344867        -9.3843
  60   2.0000      -0.342673        -9.3246
  61   2.0000      -0.319146        -8.6844
  62   2.0000      -0.307834        -8.3766
  63   2.0000      -0.296311        -8.0630
  64   2.0000      -0.282897        -7.6980
  65   2.0000      -0.272985        -7.4283
  66   2.0000      -0.261499        -7.1157
  67   2.0000      -0.253210        -6.8902
  68   2.0000      -0.240346        -6.5401
  69   2.0000      -0.231704        -6.3050
  70   2.0000      -0.228345        -6.2136
  71   2.0000      -0.227780        -6.1982
  72   2.0000      -0.187831        -5.1112
  73   2.0000      -0.180501        -4.9117
  74   2.0000      -0.170131        -4.6295
  75   2.0000      -0.167114        -4.5474
  76   2.0000      -0.164714        -4.4821
  77   2.0000      -0.158139        -4.3032
  78   2.0000      -0.149059        -4.0561
  79   2.0000      -0.146865        -3.9964
  80   2.0000      -0.131332        -3.5737
  81   2.0000      -0.128543        -3.4978
  82   0.0000       0.040643         1.1060
  83   0.0000       0.057445         1.5632
  84   0.0000       0.060823         1.6551
  85   0.0000       0.102877         2.7994
  86   0.0000       0.125183         3.4064

MULLIKEN ATOMIC CHARGES
-----------------------
   0 Pd:    0.201426
   1 Cl:   -0.280133
   2 Cl:   -0.514214
   3 Cl:   -0.368958
   4 N :   -0.554821
   5 C :    0.052212
   6 C :   -0.322048
   7 C :   -0.153718
   8 C :    0.374024
   9 C :    0.046212
  10 H :    0.212489
  11 H :    0.277689
  12 H :    0.221629
  13 C :   -0.059256
  14 C :   -0.299662
  15 C :   -0.265090
  16 C :    0.117310
  17 H :    0.197177
  18 H :    0.199141
  19 C :   -0.225916
  20 C :   -0.307920
  21 C :   -0.238770
  22 C :   -0.191275
  23 H :    0.192137
  24 H :    0.197814
  25 H :    0.264568
  26 H :    0.227952
Sum of atomic charges:   -1.0000000

LOEWDIN ATOMIC CHARGES
----------------------
   0 Pd:   -0.819321
   1 Cl:   -0.006091
   2 Cl:   -0.422216
   3 Cl:   -0.095172
   4 N :    0.027194
   5 C :    0.013212
   6 C :   -0.166253
   7 C :   -0.085112
   8 C :    0.089304
   9 C :   -0.051198
  10 H :    0.136133
  11 H :    0.163192
  12 H :    0.141222
  13 C :   -0.019534
  14 C :   -0.141265
  15 C :   -0.118467
  16 C :   -0.031246
  17 H :    0.130910
  18 H :    0.133064
  19 C :   -0.121582
  20 C :   -0.149476
  21 C :   -0.143767
  22 C :   -0.133113
  23 H :    0.125959
  24 H :    0.128082
  25 H :    0.277780
  26 H :    0.137759

  Mayer bond orders larger than 0.100000
B(  0-Pd,  1-Cl) :   0.9878 B(  0-Pd,  2-Cl) :   0.3348 B(  0-Pd,  3-Cl) :   0.8839
B(  0-Pd,  4-N ) :   0.3566 B(  2-Cl, 19-C ) :   0.1009 B(  2-Cl, 25-H ) :   0.3425
B(  4-N ,  5-C ) :   1.4767 B(  4-N ,  8-C ) :   1.1882 B(  5-C ,  6-C ) :   1.3192
B(  5-C , 11-H ) :   0.8949 B(  6-C ,  7-C ) :   1.4621 B(  6-C , 12-H ) :   0.9186
B(  7-C ,  9-C ) :   1.2786 B(  7-C , 10-H ) :   0.9281 B(  8-C ,  9-C ) :   1.2152
B(  8-C , 13-C ) :   1.1216 B(  9-C , 14-C ) :   1.1712 B( 13-C , 16-C ) :   1.2996
B( 13-C , 19-C ) :   1.2919 B( 14-C , 15-C ) :   1.6350 B( 14-C , 17-H ) :   0.9288
B( 15-C , 16-C ) :   1.1576 B( 15-C , 18-H ) :   0.9272 B( 16-C , 20-C ) :   1.2626
B( 19-C , 21-C ) :   1.4694 B( 19-C , 25-H ) :   0.5082 B( 20-C , 22-C ) :   1.5154
B( 20-C , 23-H ) :   0.9293 B( 21-C , 22-C ) :   1.3255 B( 21-C , 26-H ) :   0.9150
B( 22-C , 24-H ) :   0.9233

Dispersion correction           -0.024762964
FINAL SINGLE POINT ENERGY     -2061.410950134813
Dispersion correction            ... done

DIPOLE MOMENT
-------------
                                X             Y             Z
Electronic contribution:    -86.64242     -63.85148      31.57125
Nuclear contribution   :     89.59347      67.92082     -31.53229
                        -----------------------------------------
Total Dipole Moment    :      2.95105       4.06934       0.03896
                        -----------------------------------------
Magnitude (a.u.)       :      5.02690
Magnitude (Debye)      :     12.77737

Rotational constants in cm-1:     0.011792     0.007328     0.005748
Rotational constants in MHz :   353.528502   219.676452   172.326140

                             ****ORCA TERMINATED NORMALLY****
TOTAL RUN TIME: 0 days 0 hours 12 minutes 39 seconds 291 msec
