                         Program Version 5.0.3 -  RELEASE  -
|  1> ! EnGrad PBEh-3c
|  2> %output
|  3> xyzfile=True
|  4> end
|  5> %scf
|  6> maxiter 250
|  7> end
|  8> %output
|  9> Print[P_Hirshfeld] = 1
| 10> end
| 11> % maxcore
| 12> 4000
| 13> *xyz -1 1
| 14> Pd  -2.18136850  -1.72714135   0.70520179
| 15> Cl  -3.60100880  -3.24007956  -0.12931496
| 16> Cl  -0.79349629  -4.27958407   1.37371601
| 17> Cl  -3.88214614  -0.15281399   0.61243988
| 18> N   -0.95319867  -0.15161774   1.43438375
| 19> C   -1.26586276   0.40592275   2.59190063
| 20> C   -0.75042838   1.63717506   3.01754213
| 21> C    0.08351892   2.32087828   2.17504928
| 22> C   -0.06695863   0.44423300   0.61116031
| 23> C    0.43970477   1.73578783   0.94899712
| 24> H    0.47784474   3.29067982   2.45180522
| 25> H   -1.95212660  -0.14275277   3.22129940
| 26> H   -1.05343301   2.04226709   3.97213078
| 27> C    0.34681391  -0.28276307  -0.58155272
| 28> C    1.31301388   2.42334125   0.04006889
| 29> C    1.64318498   1.84213165  -1.12589886
| 30> C    1.17366808   0.50622769  -1.46084292
| 31> H    1.69345117   3.40862237   0.30964660
| 32> H    2.30576813   2.37149790  -1.81969887
| 33> C    0.02413025  -1.66109886  -0.84510413
| 34> C    1.64563645  -0.05028934  -2.66704737
| 35> C    0.40728645  -2.06685871  -2.11723726
| 36> C    1.23086608  -1.31835063  -2.99598491
| 37> H    2.30893516   0.50567547  -3.33552395
| 38> H    1.61464321  -1.78590889  -3.90146766
| 39> H   -0.32282237  -3.02106926  -0.03164195
| 40> H    0.11214268  -3.05377762  -2.44584356
| 41> *
| 42>
| 43>                          ****END OF INPUT****

CARTESIAN COORDINATES (ANGSTROEM)
---------------------------------
  Pd    -2.181369   -1.727141    0.705202
  Cl    -3.601009   -3.240080   -0.129315
  Cl    -0.793496   -4.279584    1.373716
  Cl    -3.882146   -0.152814    0.612440
  N     -0.953199   -0.151618    1.434384
  C     -1.265863    0.405923    2.591901
  C     -0.750428    1.637175    3.017542
  C      0.083519    2.320878    2.175049
  C     -0.066959    0.444233    0.611160
  C      0.439705    1.735788    0.948997
  H      0.477845    3.290680    2.451805
  H     -1.952127   -0.142753    3.221299
  H     -1.053433    2.042267    3.972131
  C      0.346814   -0.282763   -0.581553
  C      1.313014    2.423341    0.040069
  C      1.643185    1.842132   -1.125899
  C      1.173668    0.506228   -1.460843
  H      1.693451    3.408622    0.309647
  H      2.305768    2.371498   -1.819699
  C      0.024130   -1.661099   -0.845104
  C      1.645636   -0.050289   -2.667047
  C      0.407286   -2.066859   -2.117237
  C      1.230866   -1.318351   -2.995985
  H      2.308935    0.505675   -3.335524
  H      1.614643   -1.785909   -3.901468
  H     -0.322822   -3.021069   -0.031642
  H      0.112143   -3.053778   -2.445844

 Total Charge           Charge          ....   -1
 Multiplicity           Mult            ....    1
 Number of Electrons    NEL             ....  164
 Basis Dimension        Dim             ....  313

ORBITAL ENERGIES
----------------

  NO   OCC          E(Eh)            E(eV)
   0   2.0000    -102.102356     -2778.3464
   1   2.0000    -102.089141     -2777.9868
   2   2.0000    -102.069265     -2777.4459
   3   2.0000     -14.597533      -397.2191
   4   2.0000     -10.419528      -283.5298
   5   2.0000     -10.412167      -283.3295
   6   2.0000     -10.396396      -282.9003
   7   2.0000     -10.392611      -282.7973
   8   2.0000     -10.381724      -282.5011
   9   2.0000     -10.381119      -282.4846
  10   2.0000     -10.380490      -282.4675
  11   2.0000     -10.380009      -282.4544
  12   2.0000     -10.377834      -282.3952
  13   2.0000     -10.361858      -281.9605
  14   2.0000     -10.360574      -281.9256
  15   2.0000     -10.360029      -281.9107
  16   2.0000     -10.347556      -281.5713
  17   2.0000      -9.565903      -260.3015
  18   2.0000      -9.554277      -259.9851
  19   2.0000      -9.531898      -259.3761
  20   2.0000      -7.252387      -197.3475
  21   2.0000      -7.246615      -197.1904
  22   2.0000      -7.246355      -197.1833
  23   2.0000      -7.240935      -197.0359
  24   2.0000      -7.234772      -196.8682
  25   2.0000      -7.234319      -196.8558
  26   2.0000      -7.216578      -196.3731
  27   2.0000      -7.214259      -196.3100
  28   2.0000      -7.212889      -196.2727
  29   2.0000      -3.523751       -95.8861
  30   2.0000      -2.176005       -59.2121
  31   2.0000      -2.162801       -58.8528
  32   2.0000      -2.135248       -58.1030
  33   2.0000      -0.991233       -26.9728
  34   2.0000      -0.882371       -24.0105
  35   2.0000      -0.848935       -23.1007
  36   2.0000      -0.815975       -22.2038
  37   2.0000      -0.780113       -21.2280
  38   2.0000      -0.741469       -20.1764
  39   2.0000      -0.726594       -19.7716
  40   2.0000      -0.692261       -18.8374
  41   2.0000      -0.679022       -18.4771
  42   2.0000      -0.653196       -17.7744
  43   2.0000      -0.647730       -17.6256
  44   2.0000      -0.643762       -17.5176
  45   2.0000      -0.609677       -16.5902
  46   2.0000      -0.577163       -15.7054
  47   2.0000      -0.530865       -14.4456
  48   2.0000      -0.518658       -14.1134
  49   2.0000      -0.498550       -13.5662
  50   2.0000      -0.463872       -12.6226
  51   2.0000      -0.461832       -12.5671
  52   2.0000      -0.433104       -11.7854
  53   2.0000      -0.416559       -11.3351
  54   2.0000      -0.409906       -11.1541
  55   2.0000      -0.401848       -10.9348
  56   2.0000      -0.388845       -10.5810
  57   2.0000      -0.380851       -10.3635
  58   2.0000      -0.360495        -9.8096
  59   2.0000      -0.344212        -9.3665
  60   2.0000      -0.341578        -9.2948
  61   2.0000      -0.317934        -8.6514
  62   2.0000      -0.308011        -8.3814
  63   2.0000      -0.296637        -8.0719
  64   2.0000      -0.289164        -7.8686
  65   2.0000      -0.272585        -7.4174
  66   2.0000      -0.261324        -7.1110
  67   2.0000      -0.253729        -6.9043
  68   2.0000      -0.238592        -6.4924
  69   2.0000      -0.230955        -6.2846
  70   2.0000      -0.229514        -6.2454
  71   2.0000      -0.227093        -6.1795
  72   2.0000      -0.187287        -5.0963
  73   2.0000      -0.180157        -4.9023
  74   2.0000      -0.171927        -4.6784
  75   2.0000      -0.167599        -4.5606
  76   2.0000      -0.164489        -4.4760
  77   2.0000      -0.160138        -4.3576
  78   2.0000      -0.151422        -4.1204
  79   2.0000      -0.146987        -3.9997
  80   2.0000      -0.132286        -3.5997
  81   2.0000      -0.127557        -3.4710
  82   0.0000       0.043178         1.1749
  83   0.0000       0.058421         1.5897
  84   0.0000       0.061802         1.6817
  85   0.0000       0.101856         2.7717
  86   0.0000       0.131127         3.5682

MULLIKEN ATOMIC CHARGES
-----------------------
   0 Pd:    0.201568
   1 Cl:   -0.285074
   2 Cl:   -0.502453
   3 Cl:   -0.366483
   4 N :   -0.556703
   5 C :    0.050846
   6 C :   -0.323794
   7 C :   -0.149216
   8 C :    0.366577
   9 C :    0.034171
  10 H :    0.213129
  11 H :    0.277232
  12 H :    0.220819
  13 C :   -0.013156
  14 C :   -0.298039
  15 C :   -0.257402
  16 C :    0.096313
  17 H :    0.195888
  18 H :    0.197610
  19 C :   -0.239435
  20 C :   -0.309870
  21 C :   -0.238061
  22 C :   -0.198790
  23 H :    0.192190
  24 H :    0.196037
  25 H :    0.267587
  26 H :    0.228511
Sum of atomic charges:   -1.0000000

LOEWDIN ATOMIC CHARGES
----------------------
   0 Pd:   -0.823536
   1 Cl:   -0.015118
   2 Cl:   -0.408030
   3 Cl:   -0.092817
   4 N :    0.028349
   5 C :    0.012349
   6 C :   -0.166394
   7 C :   -0.087811
   8 C :    0.090719
   9 C :   -0.049378
  10 H :    0.136565
  11 H :    0.163915
  12 H :    0.140714
  13 C :   -0.024754
  14 C :   -0.143465
  15 C :   -0.118306
  16 C :   -0.028940
  17 H :    0.130238
  18 H :    0.132892
  19 C :   -0.129011
  20 C :   -0.149533
  21 C :   -0.133491
  22 C :   -0.134923
  23 H :    0.126233
  24 H :    0.126899
  25 H :    0.278078
  26 H :    0.138556

  Mayer bond orders larger than 0.100000
B(  0-Pd,  1-Cl) :   0.9815 B(  0-Pd,  2-Cl) :   0.3229 B(  0-Pd,  3-Cl) :   0.8824
B(  0-Pd,  4-N ) :   0.3615 B(  2-Cl, 19-C ) :   0.1001 B(  2-Cl, 25-H ) :   0.3691
B(  4-N ,  5-C ) :   1.4661 B(  4-N ,  8-C ) :   1.1941 B(  5-C ,  6-C ) :   1.3259
B(  5-C , 11-H ) :   0.8948 B(  6-C ,  7-C ) :   1.4531 B(  6-C , 12-H ) :   0.9184
B(  7-C ,  9-C ) :   1.2857 B(  7-C , 10-H ) :   0.9275 B(  8-C ,  9-C ) :   1.2097
B(  8-C , 13-C ) :   1.1023 B(  9-C , 14-C ) :   1.1615 B( 13-C , 16-C ) :   1.2902
B( 13-C , 19-C ) :   1.2948 B( 14-C , 15-C ) :   1.6461 B( 14-C , 17-H ) :   0.9285
B( 15-C , 16-C ) :   1.1418 B( 15-C , 18-H ) :   0.9277 B( 16-C , 20-C ) :   1.2815
B( 19-C , 21-C ) :   1.4448 B( 19-C , 25-H ) :   0.4795 B( 20-C , 22-C ) :   1.4924
B( 20-C , 23-H ) :   0.9297 B( 21-C , 22-C ) :   1.3441 B( 21-C , 26-H ) :   0.9147
B( 22-C , 24-H ) :   0.9240

Dispersion correction           -0.024791205
FINAL SINGLE POINT ENERGY     -2061.423472055621
Dispersion correction            ... done

DIPOLE MOMENT
-------------
                                X             Y             Z
Electronic contribution:    -85.37019     -63.82315      30.26860
Nuclear contribution   :     88.28000      67.83992     -30.17851
                        -----------------------------------------
Total Dipole Moment    :      2.90980       4.01677       0.09009
                        -----------------------------------------
Magnitude (a.u.)       :      4.96080
Magnitude (Debye)      :     12.60935

Rotational constants in cm-1:     0.011852     0.007450     0.005779
Rotational constants in MHz :   355.304986   223.339259   173.264148

                             ****ORCA TERMINATED NORMALLY****
TOTAL RUN TIME: 0 days 0 hours 10 minutes 59 seconds 43 msec
