                         Program Version 5.0.3 -  RELEASE  -
|  1> ! EnGrad PBEh-3c
|  2> %output
|  3> xyzfile=True
|  4> end
|  5> %scf
|  6> maxiter 250
|  7> end
|  8> %output
|  9> Print[P_Hirshfeld] = 1
| 10> end
| 11> % maxcore
| 12> 4000
| 13> *xyz -1 1
| 14> Pd  -2.16454591  -1.71168208   0.68895654
| 15> Cl  -3.59215427  -3.25015393  -0.14320409
| 16> Cl  -0.75228915  -4.25398702   1.30749111
| 17> Cl  -3.88771866  -0.17768208   0.65419586
| 18> N   -0.95236600  -0.15000026   1.43336958
| 19> C   -1.27031561   0.41241909   2.58779009
| 20> C   -0.75650809   1.63880496   3.01470818
| 21> C    0.08334762   2.32030653   2.16982786
| 22> C   -0.06753541   0.43836050   0.60747062
| 23> C    0.44112267   1.73079343   0.94641200
| 24> H    0.47967213   3.29604469   2.44813817
| 25> H   -1.96256141  -0.13553261   3.22205472
| 26> H   -1.05689042   2.04997688   3.96985718
| 27> C    0.35474310  -0.28761187  -0.57096114
| 28> C    1.31412045   2.42154206   0.04510390
| 29> C    1.64191090   1.83008317  -1.12479223
| 30> C    1.17355453   0.49437844  -1.45438599
| 31> H    1.69924537   3.40710899   0.31172723
| 32> H    2.31025087   2.36208952  -1.81599803
| 33> C    0.02531232  -1.65176158  -0.83847519
| 34> C    1.63802613  -0.05292237  -2.66016755
| 35> C    0.40178618  -2.06922641  -2.11163211
| 36> C    1.21909651  -1.32450699  -2.98727601
| 37> H    2.31504732   0.50380547  -3.32799821
| 38> H    1.60365657  -1.78591466  -3.90021683
| 39> H   -0.33921884  -2.99813307  -0.00651587
| 40> H    0.09836219  -3.05630441  -2.45414996
| 41> *
| 42>
| 43>                          ****END OF INPUT****

CARTESIAN COORDINATES (ANGSTROEM)
---------------------------------
  Pd    -2.164546   -1.711682    0.688957
  Cl    -3.592154   -3.250154   -0.143204
  Cl    -0.752289   -4.253987    1.307491
  Cl    -3.887719   -0.177682    0.654196
  N     -0.952366   -0.150000    1.433370
  C     -1.270316    0.412419    2.587790
  C     -0.756508    1.638805    3.014708
  C      0.083348    2.320307    2.169828
  C     -0.067535    0.438360    0.607471
  C      0.441123    1.730793    0.946412
  H      0.479672    3.296045    2.448138
  H     -1.962561   -0.135533    3.222055
  H     -1.056890    2.049977    3.969857
  C      0.354743   -0.287612   -0.570961
  C      1.314120    2.421542    0.045104
  C      1.641911    1.830083   -1.124792
  C      1.173555    0.494378   -1.454386
  H      1.699245    3.407109    0.311727
  H      2.310251    2.362090   -1.815998
  C      0.025312   -1.651762   -0.838475
  C      1.638026   -0.052922   -2.660168
  C      0.401786   -2.069226   -2.111632
  C      1.219097   -1.324507   -2.987276
  H      2.315047    0.503805   -3.327998
  H      1.603657   -1.785915   -3.900217
  H     -0.339219   -2.998133   -0.006516
  H      0.098362   -3.056304   -2.454150

 Total Charge           Charge          ....   -1
 Multiplicity           Mult            ....    1
 Number of Electrons    NEL             ....  164
 Basis Dimension        Dim             ....  313

ORBITAL ENERGIES
----------------

  NO   OCC          E(Eh)            E(eV)
   0   2.0000    -102.102798     -2778.3584
   1   2.0000    -102.087326     -2777.9374
   2   2.0000    -102.073211     -2777.5533
   3   2.0000     -14.597706      -397.2238
   4   2.0000     -10.418563      -283.5035
   5   2.0000     -10.412045      -283.3262
   6   2.0000     -10.396693      -282.9084
   7   2.0000     -10.391773      -282.7745
   8   2.0000     -10.381363      -282.4912
   9   2.0000     -10.380229      -282.4604
  10   2.0000     -10.378536      -282.4143
  11   2.0000     -10.377427      -282.3841
  12   2.0000     -10.375822      -282.3405
  13   2.0000     -10.361084      -281.9394
  14   2.0000     -10.359378      -281.8930
  15   2.0000     -10.354643      -281.7642
  16   2.0000     -10.346541      -281.5437
  17   2.0000      -9.566477      -260.3171
  18   2.0000      -9.552180      -259.9280
  19   2.0000      -9.536179      -259.4926
  20   2.0000      -7.252962      -197.3631
  21   2.0000      -7.247175      -197.2057
  22   2.0000      -7.246905      -197.1983
  23   2.0000      -7.238807      -196.9779
  24   2.0000      -7.232728      -196.8125
  25   2.0000      -7.232286      -196.8005
  26   2.0000      -7.220992      -196.4932
  27   2.0000      -7.218385      -196.4222
  28   2.0000      -7.217079      -196.3867
  29   2.0000      -3.524069       -95.8948
  30   2.0000      -2.176014       -59.2123
  31   2.0000      -2.163408       -58.8693
  32   2.0000      -2.135428       -58.1079
  33   2.0000      -0.991908       -26.9912
  34   2.0000      -0.882767       -24.0213
  35   2.0000      -0.848567       -23.0907
  36   2.0000      -0.815498       -22.1908
  37   2.0000      -0.779537       -21.2123
  38   2.0000      -0.741944       -20.1893
  39   2.0000      -0.724730       -19.7209
  40   2.0000      -0.692540       -18.8450
  41   2.0000      -0.677169       -18.4267
  42   2.0000      -0.659146       -17.9363
  43   2.0000      -0.646930       -17.6039
  44   2.0000      -0.643514       -17.5109
  45   2.0000      -0.608933       -16.5699
  46   2.0000      -0.576274       -15.6812
  47   2.0000      -0.530015       -14.4224
  48   2.0000      -0.517670       -14.0865
  49   2.0000      -0.497661       -13.5420
  50   2.0000      -0.463073       -12.6008
  51   2.0000      -0.460490       -12.5306
  52   2.0000      -0.431391       -11.7387
  53   2.0000      -0.416009       -11.3202
  54   2.0000      -0.410229       -11.1629
  55   2.0000      -0.401610       -10.9284
  56   2.0000      -0.387529       -10.5452
  57   2.0000      -0.379539       -10.3278
  58   2.0000      -0.360246        -9.8028
  59   2.0000      -0.344584        -9.3766
  60   2.0000      -0.340946        -9.2776
  61   2.0000      -0.317100        -8.6287
  62   2.0000      -0.307934        -8.3793
  63   2.0000      -0.296363        -8.0645
  64   2.0000      -0.292363        -7.9556
  65   2.0000      -0.271788        -7.3957
  66   2.0000      -0.261242        -7.1088
  67   2.0000      -0.254614        -6.9284
  68   2.0000      -0.236491        -6.4353
  69   2.0000      -0.231646        -6.3034
  70   2.0000      -0.230023        -6.2592
  71   2.0000      -0.224898        -6.1198
  72   2.0000      -0.187293        -5.0965
  73   2.0000      -0.179657        -4.8887
  74   2.0000      -0.173660        -4.7255
  75   2.0000      -0.167220        -4.5503
  76   2.0000      -0.164035        -4.4636
  77   2.0000      -0.162124        -4.4116
  78   2.0000      -0.154279        -4.1982
  79   2.0000      -0.146763        -3.9936
  80   2.0000      -0.133268        -3.6264
  81   2.0000      -0.126011        -3.4289
  82   0.0000       0.043241         1.1766
  83   0.0000       0.059242         1.6121
  84   0.0000       0.062214         1.6929
  85   0.0000       0.103229         2.8090
  86   0.0000       0.134022         3.6469

MULLIKEN ATOMIC CHARGES
-----------------------
   0 Pd:    0.205980
   1 Cl:   -0.294084
   2 Cl:   -0.489147
   3 Cl:   -0.361949
   4 N :   -0.561910
   5 C :    0.049673
   6 C :   -0.321778
   7 C :   -0.153781
   8 C :    0.371619
   9 C :    0.030409
  10 H :    0.212687
  11 H :    0.276487
  12 H :    0.220816
  13 C :    0.002070
  14 C :   -0.297423
  15 C :   -0.266190
  16 C :    0.105787
  17 H :    0.196365
  18 H :    0.196386
  19 C :   -0.242577
  20 C :   -0.314452
  21 C :   -0.242912
  22 C :   -0.199172
  23 H :    0.191317
  24 H :    0.194459
  25 H :    0.263377
  26 H :    0.227946
Sum of atomic charges:   -1.0000000

LOEWDIN ATOMIC CHARGES
----------------------
   0 Pd:   -0.822266
   1 Cl:   -0.031547
   2 Cl:   -0.393449
   3 Cl:   -0.084860
   4 N :    0.029831
   5 C :    0.011278
   6 C :   -0.167443
   7 C :   -0.087402
   8 C :    0.091863
   9 C :   -0.049342
  10 H :    0.136419
  11 H :    0.164363
  12 H :    0.140732
  13 C :   -0.028886
  14 C :   -0.145058
  15 C :   -0.117014
  16 C :   -0.029289
  17 H :    0.130509
  18 H :    0.132142
  19 C :   -0.132707
  20 C :   -0.149880
  21 C :   -0.131961
  22 C :   -0.134260
  23 H :    0.126132
  24 H :    0.126045
  25 H :    0.277081
  26 H :    0.138969

  Mayer bond orders larger than 0.100000
B(  0-Pd,  1-Cl) :   0.9699 B(  0-Pd,  2-Cl) :   0.3007 B(  0-Pd,  3-Cl) :   0.8882
B(  0-Pd,  4-N ) :   0.3705 B(  0-Pd, 19-C ) :   0.1081 B(  2-Cl, 19-C ) :   0.1034
B(  2-Cl, 25-H ) :   0.4031 B(  4-N ,  5-C ) :   1.4587 B(  4-N ,  8-C ) :   1.1895
B(  5-C ,  6-C ) :   1.3312 B(  5-C , 11-H ) :   0.8949 B(  6-C ,  7-C ) :   1.4478
B(  6-C , 12-H ) :   0.9183 B(  7-C ,  9-C ) :   1.2888 B(  7-C , 10-H ) :   0.9277
B(  8-C ,  9-C ) :   1.2059 B(  8-C , 13-C ) :   1.1068 B(  9-C , 14-C ) :   1.1628
B( 13-C , 16-C ) :   1.2842 B( 13-C , 19-C ) :   1.2847 B( 14-C , 15-C ) :   1.6449
B( 14-C , 17-H ) :   0.9286 B( 15-C , 16-C ) :   1.1403 B( 15-C , 18-H ) :   0.9282
B( 16-C , 20-C ) :   1.2869 B( 19-C , 21-C ) :   1.4391 B( 19-C , 25-H ) :   0.4426
B( 20-C , 22-C ) :   1.4807 B( 20-C , 23-H ) :   0.9304 B( 21-C , 22-C ) :   1.3542
B( 21-C , 26-H ) :   0.9147 B( 22-C , 24-H ) :   0.9242

Dispersion correction           -0.024756038
FINAL SINGLE POINT ENERGY     -2061.428760863247
Dispersion correction            ... done

DIPOLE MOMENT
-------------
                                X             Y             Z
Electronic contribution:    -84.65806     -63.02822      29.60776
Nuclear contribution   :     87.54763      66.99978     -29.44806
                        -----------------------------------------
Total Dipole Moment    :      2.88957       3.97156       0.15969
                        -----------------------------------------
Magnitude (a.u.)       :      4.91410
Magnitude (Debye)      :     12.49066

Rotational constants in cm-1:     0.011890     0.007540     0.005803
Rotational constants in MHz :   356.456901   226.043039   173.979773

                             ****ORCA TERMINATED NORMALLY****
TOTAL RUN TIME: 0 days 0 hours 11 minutes 2 seconds 740 msec
