                         Program Version 5.0.3 -  RELEASE  -
|  1> ! EnGrad PBEh-3c
|  2> %output
|  3> xyzfile=True
|  4> end
|  5> %scf
|  6> maxiter 250
|  7> end
|  8> %output
|  9> Print[P_Hirshfeld] = 1
| 10> end
| 11> % maxcore
| 12> 4000
| 13> *xyz -1 1
| 14> Pd  -2.14095916  -1.69837559   0.65480248
| 15> Cl  -3.57467738  -3.25811371  -0.16220952
| 16> Cl  -0.68096093  -4.20059690   1.19282366
| 17> Cl  -3.89598005  -0.21316354   0.72026484
| 18> N   -0.95900765  -0.14982587   1.43403784
| 19> C   -1.28198914   0.41839904   2.58590468
| 20> C   -0.76334595   1.64326071   3.00954516
| 21> C    0.08196483   2.31790035   2.16323360
| 22> C   -0.06411004   0.43281459   0.61274667
| 23> C    0.44402398   1.72756194   0.94370463
| 24> H    0.48121854   3.29979771   2.43952878
| 25> H   -1.97541197  -0.12216816   3.21856720
| 26> H   -1.06212996   2.06000537   3.96461185
| 27> C    0.36781617  -0.28664053  -0.55641613
| 28> C    1.31714188   2.41469176   0.04641259
| 29> C    1.64091609   1.81619880  -1.11838656
| 30> C    1.17997575   0.48675633  -1.44829687
| 31> H    1.70642009   3.40211391   0.31478066
| 32> H    2.31354178   2.34336017  -1.80920170
| 33> C    0.02137542  -1.66996393  -0.82502973
| 34> C    1.63012049  -0.06183861  -2.65577609
| 35> C    0.39293385  -2.07759227  -2.10550461
| 36> C    1.20505065  -1.32891783  -2.98073405
| 37> H    2.31896934   0.49799577  -3.31052814
| 38> H    1.58346764  -1.78562449  -3.89443074
| 39> H   -0.36892837  -2.95199807   0.04263895
| 40> H    0.07789758  -3.05554167  -2.46112004
| 41> *
| 42>
| 43>                          ****END OF INPUT****

CARTESIAN COORDINATES (ANGSTROEM)
---------------------------------
  Pd    -2.140959   -1.698376    0.654802
  Cl    -3.574677   -3.258114   -0.162210
  Cl    -0.680961   -4.200597    1.192824
  Cl    -3.895980   -0.213164    0.720265
  N     -0.959008   -0.149826    1.434038
  C     -1.281989    0.418399    2.585905
  C     -0.763346    1.643261    3.009545
  C      0.081965    2.317900    2.163234
  C     -0.064110    0.432815    0.612747
  C      0.444024    1.727562    0.943705
  H      0.481219    3.299798    2.439529
  H     -1.975412   -0.122168    3.218567
  H     -1.062130    2.060005    3.964612
  C      0.367816   -0.286641   -0.556416
  C      1.317142    2.414692    0.046413
  C      1.640916    1.816199   -1.118387
  C      1.179976    0.486756   -1.448297
  H      1.706420    3.402114    0.314781
  H      2.313542    2.343360   -1.809202
  C      0.021375   -1.669964   -0.825030
  C      1.630120   -0.061839   -2.655776
  C      0.392934   -2.077592   -2.105505
  C      1.205051   -1.328918   -2.980734
  H      2.318969    0.497996   -3.310528
  H      1.583468   -1.785624   -3.894431
  H     -0.368928   -2.951998    0.042639
  H      0.077898   -3.055542   -2.461120

 Total Charge           Charge          ....   -1
 Multiplicity           Mult            ....    1
 Number of Electrons    NEL             ....  164
 Basis Dimension        Dim             ....  313

ORBITAL ENERGIES
----------------

  NO   OCC          E(Eh)            E(eV)
   0   2.0000    -102.102680     -2778.3552
   1   2.0000    -102.085891     -2777.8983
   2   2.0000    -102.078984     -2777.7104
   3   2.0000     -14.597705      -397.2237
   4   2.0000     -10.416615      -283.4505
   5   2.0000     -10.411277      -283.3052
   6   2.0000     -10.395952      -282.8882
   7   2.0000     -10.389613      -282.7157
   8   2.0000     -10.380497      -282.4677
   9   2.0000     -10.377529      -282.3869
  10   2.0000     -10.375731      -282.3380
  11   2.0000     -10.375057      -282.3197
  12   2.0000     -10.372921      -282.2615
  13   2.0000     -10.358402      -281.8665
  14   2.0000     -10.356899      -281.8256
  15   2.0000     -10.349190      -281.6158
  16   2.0000     -10.343614      -281.4640
  17   2.0000      -9.566443      -260.3162
  18   2.0000      -9.550595      -259.8849
  19   2.0000      -9.542892      -259.6753
  20   2.0000      -7.252894      -197.3613
  21   2.0000      -7.247165      -197.2054
  22   2.0000      -7.246865      -197.1972
  23   2.0000      -7.237180      -196.9337
  24   2.0000      -7.231184      -196.7705
  25   2.0000      -7.230758      -196.7589
  26   2.0000      -7.227832      -196.6793
  27   2.0000      -7.224852      -196.5982
  28   2.0000      -7.223659      -196.5658
  29   2.0000      -3.524478       -95.9059
  30   2.0000      -2.176268       -59.2193
  31   2.0000      -2.164075       -58.8875
  32   2.0000      -2.135681       -58.1148
  33   2.0000      -0.990898       -26.9637
  34   2.0000      -0.881948       -23.9990
  35   2.0000      -0.846933       -23.0462
  36   2.0000      -0.814216       -22.1560
  37   2.0000      -0.778049       -21.1718
  38   2.0000      -0.740538       -20.1511
  39   2.0000      -0.721904       -19.6440
  40   2.0000      -0.692796       -18.8519
  41   2.0000      -0.677681       -18.4406
  42   2.0000      -0.669495       -18.2179
  43   2.0000      -0.646156       -17.5828
  44   2.0000      -0.641949       -17.4683
  45   2.0000      -0.606768       -16.5110
  46   2.0000      -0.574650       -15.6370
  47   2.0000      -0.527609       -14.3570
  48   2.0000      -0.516640       -14.0585
  49   2.0000      -0.496516       -13.5109
  50   2.0000      -0.461557       -12.5596
  51   2.0000      -0.459227       -12.4962
  52   2.0000      -0.429136       -11.6774
  53   2.0000      -0.414903       -11.2901
  54   2.0000      -0.409130       -11.1330
  55   2.0000      -0.400567       -10.9000
  56   2.0000      -0.385512       -10.4903
  57   2.0000      -0.378656       -10.3037
  58   2.0000      -0.360229        -9.8023
  59   2.0000      -0.343647        -9.3511
  60   2.0000      -0.339926        -9.2499
  61   2.0000      -0.316719        -8.6184
  62   2.0000      -0.309029        -8.4091
  63   2.0000      -0.301257        -8.1976
  64   2.0000      -0.293221        -7.9789
  65   2.0000      -0.270874        -7.3709
  66   2.0000      -0.260960        -7.1011
  67   2.0000      -0.255240        -6.9454
  68   2.0000      -0.235904        -6.4193
  69   2.0000      -0.234336        -6.3766
  70   2.0000      -0.228384        -6.2147
  71   2.0000      -0.223024        -6.0688
  72   2.0000      -0.186196        -5.0666
  73   2.0000      -0.179206        -4.8764
  74   2.0000      -0.176995        -4.8163
  75   2.0000      -0.167227        -4.5505
  76   2.0000      -0.166894        -4.5414
  77   2.0000      -0.162612        -4.4249
  78   2.0000      -0.157725        -4.2919
  79   2.0000      -0.146326        -3.9817
  80   2.0000      -0.135167        -3.6781
  81   2.0000      -0.124220        -3.3802
  82   0.0000       0.043782         1.1914
  83   0.0000       0.060040         1.6338
  84   0.0000       0.064464         1.7542
  85   0.0000       0.105685         2.8758
  86   0.0000       0.136881         3.7247

MULLIKEN ATOMIC CHARGES
-----------------------
   0 Pd:    0.205399
   1 Cl:   -0.301497
   2 Cl:   -0.467845
   3 Cl:   -0.358267
   4 N :   -0.565827
   5 C :    0.050205
   6 C :   -0.324028
   7 C :   -0.156723
   8 C :    0.373478
   9 C :    0.030993
  10 H :    0.211311
  11 H :    0.276438
  12 H :    0.220163
  13 C :   -0.007094
  14 C :   -0.293721
  15 C :   -0.275415
  16 C :    0.128018
  17 H :    0.195709
  18 H :    0.194245
  19 C :   -0.240577
  20 C :   -0.316707
  21 C :   -0.251614
  22 C :   -0.195828
  23 H :    0.189810
  24 H :    0.193296
  25 H :    0.260043
  26 H :    0.226035
Sum of atomic charges:   -1.0000000

LOEWDIN ATOMIC CHARGES
----------------------
   0 Pd:   -0.827555
   1 Cl:   -0.043365
   2 Cl:   -0.367333
   3 Cl:   -0.080009
   4 N :    0.030610
   5 C :    0.010998
   6 C :   -0.169281
   7 C :   -0.086762
   8 C :    0.091227
   9 C :   -0.049957
  10 H :    0.135810
  11 H :    0.163931
  12 H :    0.140547
  13 C :   -0.028136
  14 C :   -0.145709
  15 C :   -0.116440
  16 C :   -0.031135
  17 H :    0.130588
  18 H :    0.130920
  19 C :   -0.137320
  20 C :   -0.151032
  21 C :   -0.132596
  22 C :   -0.133102
  23 H :    0.125469
  24 H :    0.125693
  25 H :    0.274898
  26 H :    0.139041

  Mayer bond orders larger than 0.100000
B(  0-Pd,  1-Cl) :   0.9613 B(  0-Pd,  2-Cl) :   0.2733 B(  0-Pd,  3-Cl) :   0.8885
B(  0-Pd,  4-N ) :   0.3799 B(  0-Pd, 19-C ) :   0.1330 B(  2-Cl, 19-C ) :   0.1042
B(  2-Cl, 25-H ) :   0.4502 B(  4-N ,  5-C ) :   1.4578 B(  4-N ,  8-C ) :   1.1782
B(  5-C ,  6-C ) :   1.3322 B(  5-C , 11-H ) :   0.8944 B(  6-C ,  7-C ) :   1.4464
B(  6-C , 12-H ) :   0.9185 B(  7-C ,  9-C ) :   1.2892 B(  7-C , 10-H ) :   0.9281
B(  8-C ,  9-C ) :   1.2078 B(  8-C , 13-C ) :   1.1228 B(  9-C , 14-C ) :   1.1655
B( 13-C , 16-C ) :   1.2877 B( 13-C , 19-C ) :   1.2376 B( 14-C , 15-C ) :   1.6401
B( 14-C , 17-H ) :   0.9290 B( 15-C , 16-C ) :   1.1448 B( 15-C , 18-H ) :   0.9286
B( 16-C , 20-C ) :   1.2795 B( 19-C , 21-C ) :   1.4530 B( 19-C , 25-H ) :   0.3893
B( 20-C , 22-C ) :   1.4849 B( 20-C , 23-H ) :   0.9306 B( 21-C , 22-C ) :   1.3454
B( 21-C , 26-H ) :   0.9144 B( 22-C , 24-H ) :   0.9245

Dispersion correction           -0.024596719
FINAL SINGLE POINT ENERGY     -2061.438232808131
Dispersion correction            ... done

DIPOLE MOMENT
-------------
                                X             Y             Z
Electronic contribution:    -83.73634     -62.44606      28.15621
Nuclear contribution   :     86.57616      66.30259     -27.88668
                        -----------------------------------------
Total Dipole Moment    :      2.83982       3.85653       0.26953
                        -----------------------------------------
Magnitude (a.u.)       :      4.79688
Magnitude (Debye)      :     12.19269

Rotational constants in cm-1:     0.011943     0.007688     0.005837
Rotational constants in MHz :   358.027323   230.486611   174.978216

                             ****ORCA TERMINATED NORMALLY****
TOTAL RUN TIME: 0 days 0 hours 8 minutes 50 seconds 491 msec
