                         Program Version 5.0.3 -  RELEASE  -
|  1> ! EnGrad PBEh-3c
|  2> %output
|  3> xyzfile=True
|  4> end
|  5> %scf
|  6> maxiter 250
|  7> end
|  8> %output
|  9> Print[P_Hirshfeld] = 1
| 10> end
| 11> % maxcore
| 12> 4000
| 13> *xyz -1 1
| 14> Pd  -2.12370589  -1.67600119   0.61384653
| 15> Cl  -3.55592627  -3.26180390  -0.18294791
| 16> Cl  -0.59967498  -4.12347956   1.06042692
| 17> Cl  -3.90181396  -0.24523795   0.78756066
| 18> N   -0.96780106  -0.15213648   1.43785112
| 19> C   -1.29100871   0.42222500   2.58257149
| 20> C   -0.77090038   1.64392305   3.00208138
| 21> C    0.07938438   2.31400082   2.15916748
| 22> C   -0.05633492   0.43043579   0.62564300
| 23> C    0.44747439   1.72508792   0.94315433
| 24> H    0.47953047   3.29488854   2.42672725
| 25> H   -1.99142083  -0.11023761   3.21256602
| 26> H   -1.06648790   2.06631979   3.95818329
| 27> C    0.38342339  -0.29085329  -0.54803329
| 28> C    1.31879236   2.40439806   0.04735305
| 29> C    1.64284007   1.80424300  -1.11279174
| 30> C    1.19295833   0.48268690  -1.44239964
| 31> H    1.70851366   3.38947946   0.31581909
| 32> H    2.30893115   2.31760705  -1.80088187
| 33> C    0.01302481  -1.67381235  -0.81419652
| 34> C    1.62201067  -0.07563693  -2.65243450
| 35> C    0.38497785  -2.08901193  -2.09421236
| 36> C    1.19453485  -1.33596961  -2.97233082
| 37> H    2.31323434   0.48677179  -3.28649882
| 38> H    1.55729766  -1.78570225  -3.88811204
| 39> H   -0.39107531  -2.90277191   0.10501670
| 40> H    0.06097269  -3.05753230  -2.46257968
| 41> *
| 42>
| 43>                          ****END OF INPUT****

CARTESIAN COORDINATES (ANGSTROEM)
---------------------------------
  Pd    -2.123706   -1.676001    0.613847
  Cl    -3.555926   -3.261804   -0.182948
  Cl    -0.599675   -4.123480    1.060427
  Cl    -3.901814   -0.245238    0.787561
  N     -0.967801   -0.152136    1.437851
  C     -1.291009    0.422225    2.582571
  C     -0.770900    1.643923    3.002081
  C      0.079384    2.314001    2.159167
  C     -0.056335    0.430436    0.625643
  C      0.447474    1.725088    0.943154
  H      0.479530    3.294889    2.426727
  H     -1.991421   -0.110238    3.212566
  H     -1.066488    2.066320    3.958183
  C      0.383423   -0.290853   -0.548033
  C      1.318792    2.404398    0.047353
  C      1.642840    1.804243   -1.112792
  C      1.192958    0.482687   -1.442400
  H      1.708514    3.389479    0.315819
  H      2.308931    2.317607   -1.800882
  C      0.013025   -1.673812   -0.814197
  C      1.622011   -0.075637   -2.652434
  C      0.384978   -2.089012   -2.094212
  C      1.194535   -1.335970   -2.972331
  H      2.313234    0.486772   -3.286499
  H      1.557298   -1.785702   -3.888112
  H     -0.391075   -2.902772    0.105017
  H      0.060973   -3.057532   -2.462580

 Total Charge           Charge          ....   -1
 Multiplicity           Mult            ....    1
 Number of Electrons    NEL             ....  164
 Basis Dimension        Dim             ....  313

ORBITAL ENERGIES
----------------

  NO   OCC          E(Eh)            E(eV)
   0   2.0000    -102.101755     -2778.3300
   1   2.0000    -102.087299     -2777.9366
   2   2.0000    -102.083938     -2777.8452
   3   2.0000     -14.597131      -397.2081
   4   2.0000     -10.414158      -283.3836
   5   2.0000     -10.409298      -283.2514
   6   2.0000     -10.393745      -282.8282
   7   2.0000     -10.386211      -282.6232
   8   2.0000     -10.378710      -282.4190
   9   2.0000     -10.373055      -282.2652
  10   2.0000     -10.372220      -282.2424
  11   2.0000     -10.369815      -282.1770
  12   2.0000     -10.368348      -282.1371
  13   2.0000     -10.353435      -281.7313
  14   2.0000     -10.352553      -281.7073
  15   2.0000     -10.340147      -281.3697
  16   2.0000     -10.339036      -281.3395
  17   2.0000      -9.565654      -260.2947
  18   2.0000      -9.552980      -259.9498
  19   2.0000      -9.548542      -259.8290
  20   2.0000      -7.252046      -197.3382
  21   2.0000      -7.246414      -197.1849
  22   2.0000      -7.246079      -197.1758
  23   2.0000      -7.238063      -196.9577
  24   2.0000      -7.235052      -196.8758
  25   2.0000      -7.234562      -196.8624
  26   2.0000      -7.233530      -196.8344
  27   2.0000      -7.229182      -196.7160
  28   2.0000      -7.228785      -196.7052
  29   2.0000      -3.523987       -95.8926
  30   2.0000      -2.175580       -59.2006
  31   2.0000      -2.164051       -58.8868
  32   2.0000      -2.134937       -58.0946
  33   2.0000      -0.989769       -26.9330
  34   2.0000      -0.880498       -23.9596
  35   2.0000      -0.845284       -23.0014
  36   2.0000      -0.812159       -22.1000
  37   2.0000      -0.776497       -21.1296
  38   2.0000      -0.737741       -20.0750
  39   2.0000      -0.719575       -19.5806
  40   2.0000      -0.695653       -18.9297
  41   2.0000      -0.690390       -18.7865
  42   2.0000      -0.672112       -18.2891
  43   2.0000      -0.645179       -17.5562
  44   2.0000      -0.639779       -17.4093
  45   2.0000      -0.605024       -16.4635
  46   2.0000      -0.572175       -15.5697
  47   2.0000      -0.525779       -14.3072
  48   2.0000      -0.515121       -14.0172
  49   2.0000      -0.495260       -13.4767
  50   2.0000      -0.459710       -12.5093
  51   2.0000      -0.457790       -12.4571
  52   2.0000      -0.427838       -11.6421
  53   2.0000      -0.413688       -11.2570
  54   2.0000      -0.406647       -11.0654
  55   2.0000      -0.399365       -10.8673
  56   2.0000      -0.383007       -10.4222
  57   2.0000      -0.378185       -10.2909
  58   2.0000      -0.360994        -9.8231
  59   2.0000      -0.342376        -9.3165
  60   2.0000      -0.339887        -9.2488
  61   2.0000      -0.317408        -8.6371
  62   2.0000      -0.313755        -8.5377
  63   2.0000      -0.302588        -8.2338
  64   2.0000      -0.290925        -7.9165
  65   2.0000      -0.269769        -7.3408
  66   2.0000      -0.259951        -7.0736
  67   2.0000      -0.255612        -6.9556
  68   2.0000      -0.238703        -6.4954
  69   2.0000      -0.234058        -6.3690
  70   2.0000      -0.227065        -6.1787
  71   2.0000      -0.220268        -5.9938
  72   2.0000      -0.188194        -5.1210
  73   2.0000      -0.180882        -4.9220
  74   2.0000      -0.177305        -4.8247
  75   2.0000      -0.173205        -4.7132
  76   2.0000      -0.167311        -4.5528
  77   2.0000      -0.162787        -4.4297
  78   2.0000      -0.157424        -4.2837
  79   2.0000      -0.145018        -3.9461
  80   2.0000      -0.137236        -3.7344
  81   2.0000      -0.120965        -3.2916
  82   0.0000       0.045081         1.2267
  83   0.0000       0.062689         1.7058
  84   0.0000       0.068005         1.8505
  85   0.0000       0.108518         2.9529
  86   0.0000       0.140982         3.8363

MULLIKEN ATOMIC CHARGES
-----------------------
   0 Pd:    0.199182
   1 Cl:   -0.311131
   2 Cl:   -0.437578
   3 Cl:   -0.355301
   4 N :   -0.565436
   5 C :    0.051130
   6 C :   -0.327423
   7 C :   -0.157207
   8 C :    0.357946
   9 C :    0.041482
  10 H :    0.210328
  11 H :    0.275501
  12 H :    0.218835
  13 C :   -0.012590
  14 C :   -0.295335
  15 C :   -0.276795
  16 C :    0.143461
  17 H :    0.194103
  18 H :    0.193129
  19 C :   -0.227566
  20 C :   -0.316900
  21 C :   -0.266815
  22 C :   -0.192770
  23 H :    0.187550
  24 H :    0.191309
  25 H :    0.256378
  26 H :    0.222513
Sum of atomic charges:   -1.0000000

LOEWDIN ATOMIC CHARGES
----------------------
   0 Pd:   -0.837811
   1 Cl:   -0.055859
   2 Cl:   -0.324935
   3 Cl:   -0.074607
   4 N :    0.032013
   5 C :    0.009195
   6 C :   -0.170878
   7 C :   -0.085628
   8 C :    0.092745
   9 C :   -0.051998
  10 H :    0.135077
  11 H :    0.163220
  12 H :    0.140275
  13 C :   -0.027137
  14 C :   -0.146352
  15 C :   -0.116562
  16 C :   -0.034098
  17 H :    0.130132
  18 H :    0.129982
  19 C :   -0.145579
  20 C :   -0.152231
  21 C :   -0.131277
  22 C :   -0.133383
  23 H :    0.124075
  24 H :    0.124922
  25 H :    0.268449
  26 H :    0.138250

  Mayer bond orders larger than 0.100000
B(  0-Pd,  1-Cl) :   0.9522 B(  0-Pd,  2-Cl) :   0.2389 B(  0-Pd,  3-Cl) :   0.8877
B(  0-Pd,  4-N ) :   0.3884 B(  0-Pd, 19-C ) :   0.1734 B(  2-Cl, 25-H ) :   0.5073
B(  4-N ,  5-C ) :   1.4624 B(  4-N ,  8-C ) :   1.1687 B(  5-C ,  6-C ) :   1.3290
B(  5-C , 11-H ) :   0.8941 B(  6-C ,  7-C ) :   1.4488 B(  6-C , 12-H ) :   0.9193
B(  7-C ,  9-C ) :   1.2875 B(  7-C , 10-H ) :   0.9283 B(  8-C ,  9-C ) :   1.2150
B(  8-C , 13-C ) :   1.1352 B(  9-C , 14-C ) :   1.1667 B( 13-C , 16-C ) :   1.2820
B( 13-C , 19-C ) :   1.2013 B( 14-C , 15-C ) :   1.6368 B( 14-C , 17-H ) :   0.9296
B( 15-C , 16-C ) :   1.1526 B( 15-C , 18-H ) :   0.9282 B( 16-C , 20-C ) :   1.2780
B( 19-C , 21-C ) :   1.4644 B( 19-C , 25-H ) :   0.3213 B( 20-C , 22-C ) :   1.4904
B( 20-C , 23-H ) :   0.9304 B( 21-C , 22-C ) :   1.3383 B( 21-C , 26-H ) :   0.9144
B( 22-C , 24-H ) :   0.9250

Dispersion correction           -0.024686546
FINAL SINGLE POINT ENERGY     -2061.445286786439
Dispersion correction            ... done

DIPOLE MOMENT
-------------
                                X             Y             Z
Electronic contribution:    -83.17748     -61.57539      26.44300
Nuclear contribution   :     85.97759      65.24139     -26.03126
                        -----------------------------------------
Total Dipole Moment    :      2.80011       3.66601       0.41174
                        -----------------------------------------
Magnitude (a.u.)       :      4.63139
Magnitude (Debye)      :     11.77205

Rotational constants in cm-1:     0.012005     0.007868     0.005878
Rotational constants in MHz :   359.894724   235.876471   176.220116

                             ****ORCA TERMINATED NORMALLY****
TOTAL RUN TIME: 0 days 0 hours 10 minutes 53 seconds 453 msec
