                         Program Version 5.0.3 -  RELEASE  -
|  1> ! EnGrad PBEh-3c
|  2> %output
|  3> xyzfile=True
|  4> end
|  5> %scf
|  6> maxiter 250
|  7> end
|  8> %output
|  9> Print[P_Hirshfeld] = 1
| 10> end
| 11> % maxcore
| 12> 4000
| 13> *xyz 1 1
| 14> Ir   0.43065525  -0.68763696   1.07000726
| 15> C    0.04418999  -2.56623746   2.04046958
| 16> C    1.28916403  -2.05147886   2.52414825
| 17> C    1.46067276  -2.35580747   0.24378914
| 18> C    0.16321049  -2.78618722   0.65279371
| 19> C    2.15178788  -1.93061774   1.41057847
| 20> N   -0.87200531   0.07643044  -0.37194236
| 21> C   -2.30851221   0.22348190  -0.00602087
| 22> C   -2.77602660   1.66588467  -0.06980368
| 23> H   -3.79608653   1.74820884   0.30361362
| 24> H   -2.75832418   2.06366057  -1.08535424
| 25> H   -2.16234339   2.32359242   0.54163985
| 26> C   -3.21054760  -0.68344108  -0.82792653
| 27> H   -2.38547226  -0.09040011   1.03260839
| 28> H   -4.21715278  -0.67939590  -0.41204957
| 29> H   -3.29810250  -0.36985899  -1.86909570
| 30> H   -2.85970701  -1.71535129  -0.81942212
| 31> C   -0.56395686   0.28484745  -1.59744466
| 32> C    0.72173108   0.19930348  -2.23324142
| 33> H   -1.37454020   0.54744175  -2.27681085
| 34> C    2.00155285   0.33964941  -1.76613670
| 35> C    2.99841042   0.18554674  -2.74105199
| 36> S    0.76819075  -0.11387198  -3.93202446
| 37> C    2.46321720  -0.09730552  -3.96603616
| 38> H    2.30318100   0.82962959  -0.75709141
| 39> H    4.06144103   0.23810863  -2.56014854
| 40> H    3.00022902  -0.28734110  -4.88254137
| 41> H   -0.80927016  -2.83708621   2.64606948
| 42> H    1.52916423  -1.86580410   3.56070375
| 43> H    3.16260230  -1.54617604   1.42950961
| 44> O    1.36766801   1.36670718   1.10045263
| 45> O   -0.33570971   0.87876992   2.28518496
| 46> C    0.49479167   1.75465268   1.92876087
| 47> C    0.49177966   3.15338747   2.42753059
| 48> H    0.72531299   3.85884574   1.63210093
| 49> H    1.25791190   3.27479260   3.19549225
| 50> H   -0.47110713   3.39437171   2.87020989
| 51> H    1.88470075  -2.48452868  -0.73983089
| 52> H   -0.57268595  -3.25878133   0.01831901
| 53> *
| 54>
| 55>                          ****END OF INPUT****

CARTESIAN COORDINATES (ANGSTROEM)
---------------------------------
  Ir     0.430655   -0.687637    1.070007
  C      0.044190   -2.566237    2.040470
  C      1.289164   -2.051479    2.524148
  C      1.460673   -2.355807    0.243789
  C      0.163210   -2.786187    0.652794
  C      2.151788   -1.930618    1.410578
  N     -0.872005    0.076430   -0.371942
  C     -2.308512    0.223482   -0.006021
  C     -2.776027    1.665885   -0.069804
  H     -3.796087    1.748209    0.303614
  H     -2.758324    2.063661   -1.085354
  H     -2.162343    2.323592    0.541640
  C     -3.210548   -0.683441   -0.827927
  H     -2.385472   -0.090400    1.032608
  H     -4.217153   -0.679396   -0.412050
  H     -3.298102   -0.369859   -1.869096
  H     -2.859707   -1.715351   -0.819422
  C     -0.563957    0.284847   -1.597445
  C      0.721731    0.199303   -2.233241
  H     -1.374540    0.547442   -2.276811
  C      2.001553    0.339649   -1.766137
  C      2.998410    0.185547   -2.741052
  S      0.768191   -0.113872   -3.932024
  C      2.463217   -0.097306   -3.966036
  H      2.303181    0.829630   -0.757091
  H      4.061441    0.238109   -2.560149
  H      3.000229   -0.287341   -4.882541
  H     -0.809270   -2.837086    2.646069
  H      1.529164   -1.865804    3.560704
  H      3.162602   -1.546176    1.429510
  O      1.367668    1.366707    1.100453
  O     -0.335710    0.878770    2.285185
  C      0.494792    1.754653    1.928761
  C      0.491780    3.153387    2.427531
  H      0.725313    3.858846    1.632101
  H      1.257912    3.274793    3.195492
  H     -0.471107    3.394372    2.870210
  H      1.884701   -2.484529   -0.739831
  H     -0.572686   -3.258781    0.018319

 Total Charge           Charge          ....    1
 Multiplicity           Mult            ....    1
 Number of Electrons    NEL             ....  164
 Basis Dimension        Dim             ....  358

ORBITAL ENERGIES
----------------

  NO   OCC          E(Eh)            E(eV)
   0   2.0000     -89.745158     -2442.0899
   1   2.0000     -19.633044      -534.2423
   2   2.0000     -19.626312      -534.0591
   3   2.0000     -14.827560      -403.4784
   4   2.0000     -10.697166      -291.0847
   5   2.0000     -10.654604      -289.9265
   6   2.0000     -10.634133      -289.3695
   7   2.0000     -10.632785      -289.3328
   8   2.0000     -10.631815      -289.3064
   9   2.0000     -10.623496      -289.0800
  10   2.0000     -10.618992      -288.9575
  11   2.0000     -10.610133      -288.7164
  12   2.0000     -10.608153      -288.6625
  13   2.0000     -10.600851      -288.4638
  14   2.0000     -10.585639      -288.0499
  15   2.0000     -10.569907      -287.6218
  16   2.0000     -10.552358      -287.1443
  17   2.0000     -10.549298      -287.0610
  18   2.0000     -10.543032      -286.8905
  19   2.0000      -8.384915      -228.1651
  20   2.0000      -6.274988      -170.7511
  21   2.0000      -6.271485      -170.6558
  22   2.0000      -6.269512      -170.6021
  23   2.0000      -4.031555      -109.7042
  24   2.0000      -2.351582       -63.9898
  25   2.0000      -2.315745       -63.0146
  26   2.0000      -2.313321       -62.9487
  27   2.0000      -1.338134       -36.4125
  28   2.0000      -1.213764       -33.0282
  29   2.0000      -1.195926       -32.5428
  30   2.0000      -1.174065       -31.9479
  31   2.0000      -1.117799       -30.4168
  32   2.0000      -1.011544       -27.5255
  33   2.0000      -0.984554       -26.7911
  34   2.0000      -0.977824       -26.6079
  35   2.0000      -0.960956       -26.1489
  36   2.0000      -0.951232       -25.8843
  37   2.0000      -0.947819       -25.7915
  38   2.0000      -0.892962       -24.2987
  39   2.0000      -0.866026       -23.5658
  40   2.0000      -0.792717       -21.5709
  41   2.0000      -0.785388       -21.3715
  42   2.0000      -0.784705       -21.3529
  43   2.0000      -0.772756       -21.0277
  44   2.0000      -0.768244       -20.9050
  45   2.0000      -0.744130       -20.2488
  46   2.0000      -0.732518       -19.9328
  47   2.0000      -0.709346       -19.3023
  48   2.0000      -0.684436       -18.6245
  49   2.0000      -0.680491       -18.5171
  50   2.0000      -0.674913       -18.3653
  51   2.0000      -0.659489       -17.9456
  52   2.0000      -0.649693       -17.6791
  53   2.0000      -0.641530       -17.4569
  54   2.0000      -0.637795       -17.3553
  55   2.0000      -0.631081       -17.1726
  56   2.0000      -0.621988       -16.9251
  57   2.0000      -0.609008       -16.5720
  58   2.0000      -0.606384       -16.5005
  59   2.0000      -0.604786       -16.4571
  60   2.0000      -0.590748       -16.0751
  61   2.0000      -0.582592       -15.8531
  62   2.0000      -0.572554       -15.5800
  63   2.0000      -0.565984       -15.4012
  64   2.0000      -0.563762       -15.3408
  65   2.0000      -0.561947       -15.2914
  66   2.0000      -0.557393       -15.1674
  67   2.0000      -0.541587       -14.7373
  68   2.0000      -0.535235       -14.5645
  69   2.0000      -0.526211       -14.3189
  70   2.0000      -0.526140       -14.3170
  71   2.0000      -0.518192       -14.1007
  72   2.0000      -0.510269       -13.8851
  73   2.0000      -0.506530       -13.7834
  74   2.0000      -0.495912       -13.4945
  75   2.0000      -0.479934       -13.0597
  76   2.0000      -0.473204       -12.8765
  77   2.0000      -0.462487       -12.5849
  78   2.0000      -0.443844       -12.0776
  79   2.0000      -0.428632       -11.6637
  80   2.0000      -0.416851       -11.3431
  81   2.0000      -0.398833       -10.8528
  82   0.0000      -0.179878        -4.8947
  83   0.0000      -0.173717        -4.7271
  84   0.0000      -0.141335        -3.8459
  85   0.0000      -0.083415        -2.2698
  86   0.0000      -0.078451        -2.1347

MULLIKEN ATOMIC CHARGES
-----------------------
   0 Ir:    0.592224
   1 C :   -0.252634
   2 C :   -0.233287
   3 C :   -0.289767
   4 C :   -0.183493
   5 C :   -0.177284
   6 N :   -0.464123
   7 C :   -0.158785
   8 C :   -0.630057
   9 H :    0.255794
  10 H :    0.220273
  11 H :    0.249429
  12 C :   -0.644750
  13 H :    0.277759
  14 H :    0.263453
  15 H :    0.224636
  16 H :    0.235481
  17 C :    0.077705
  18 C :   -0.219193
  19 H :    0.268307
  20 C :   -0.242087
  21 C :   -0.138142
  22 S :    0.297343
  23 C :   -0.421310
  24 H :    0.314930
  25 H :    0.266728
  26 H :    0.295723
  27 H :    0.295304
  28 H :    0.293777
  29 H :    0.298563
  30 O :   -0.489023
  31 O :   -0.483503
  32 C :    0.665956
  33 C :   -0.773287
  34 H :    0.276902
  35 H :    0.282748
  36 H :    0.269882
  37 H :    0.291934
  38 H :    0.285875
Sum of atomic charges:    1.0000000

LOEWDIN ATOMIC CHARGES
----------------------
   0 Ir:   -0.177818
   1 C :   -0.039257
   2 C :   -0.066892
   3 C :   -0.085692
   4 C :   -0.034091
   5 C :   -0.012004
   6 N :   -0.036211
   7 C :   -0.069032
   8 C :   -0.349700
   9 H :    0.151020
  10 H :    0.132027
  11 H :    0.140014
  12 C :   -0.353516
  13 H :    0.153940
  14 H :    0.153555
  15 H :    0.132573
  16 H :    0.134145
  17 C :    0.039289
  18 C :   -0.236715
  19 H :    0.152475
  20 C :   -0.126186
  21 C :   -0.170201
  22 S :    0.453710
  23 C :   -0.253744
  24 H :    0.192685
  25 H :    0.159449
  26 H :    0.167621
  27 H :    0.187899
  28 H :    0.188545
  29 H :    0.190075
  30 O :   -0.214095
  31 O :   -0.180795
  32 C :    0.173537
  33 C :   -0.374681
  34 H :    0.169184
  35 H :    0.176892
  36 H :    0.162643
  37 H :    0.185534
  38 H :    0.183821

  Mayer bond orders larger than 0.100000
B(  0-Ir,  1-C ) :   0.5019 B(  0-Ir,  2-C ) :   0.4421 B(  0-Ir,  3-C ) :   0.5168
B(  0-Ir,  4-C ) :   0.4487 B(  0-Ir,  5-C ) :   0.4443 B(  0-Ir,  6-N ) :   0.4811
B(  0-Ir, 30-O ) :   0.4765 B(  0-Ir, 31-O ) :   0.5113 B(  1-C ,  2-C ) :   1.1312
B(  1-C ,  4-C ) :   1.1790 B(  1-C , 27-H ) :   0.9072 B(  2-C ,  5-C ) :   1.2103
B(  2-C , 28-H ) :   0.9094 B(  3-C ,  4-C ) :   1.1365 B(  3-C ,  5-C ) :   1.1398
B(  3-C , 37-H ) :   0.9079 B(  4-C , 38-H ) :   0.9108 B(  5-C , 29-H ) :   0.9017
B(  6-N ,  7-C ) :   0.8785 B(  6-N , 17-C ) :   1.6526 B(  7-C ,  8-C ) :   0.9824
B(  7-C , 12-C ) :   0.9791 B(  7-C , 13-H ) :   0.8850 B(  8-C ,  9-H ) :   0.9078
B(  8-C , 10-H ) :   0.9166 B(  8-C , 11-H ) :   0.9126 B( 12-C , 14-H ) :   0.9064
B( 12-C , 15-H ) :   0.9151 B( 12-C , 16-H ) :   0.9182 B( 17-C , 18-C ) :   1.1005
B( 17-C , 19-H ) :   0.8801 B( 18-C , 20-C ) :   1.4191 B( 18-C , 22-S ) :   1.1597
B( 20-C , 21-C ) :   1.3236 B( 20-C , 24-H ) :   0.8532 B( 21-C , 23-C ) :   1.4774
B( 21-C , 25-H ) :   0.9026 B( 22-S , 23-C ) :   1.2677 B( 23-C , 26-H ) :   0.8920
B( 30-O , 32-C ) :   1.4376 B( 31-O , 32-C ) :   1.4183 B( 32-C , 33-C ) :   0.9626
B( 33-C , 34-H ) :   0.8981 B( 33-C , 35-H ) :   0.8897 B( 33-C , 36-H ) :   0.9025

Dispersion correction           -0.029689855
FINAL SINGLE POINT ENERGY     -1288.420857434900
Dispersion correction            ... done

DIPOLE MOMENT
-------------
                                X             Y             Z
Electronic contribution:     23.05911     -63.79375     127.67445
Nuclear contribution   :    -23.08246      63.19586    -128.04622
                        -----------------------------------------
Total Dipole Moment    :     -0.02335      -0.59789      -0.37176
                        -----------------------------------------
Magnitude (a.u.)       :      0.70444
Magnitude (Debye)      :      1.79053

Rotational constants in cm-1:     0.011611     0.007661     0.006836
Rotational constants in MHz :   348.087674   229.657594   204.924973

                             ****ORCA TERMINATED NORMALLY****
TOTAL RUN TIME: 0 days 0 hours 18 minutes 19 seconds 203 msec
