                         Program Version 5.0.3 -  RELEASE  -
|  1> ! EnGrad PBEh-3c
|  2> %output
|  3> xyzfile=True
|  4> end
|  5> %scf
|  6> maxiter 250
|  7> end
|  8> %output
|  9> Print[P_Hirshfeld] = 1
| 10> end
| 11> % maxcore
| 12> 4000
| 13> *xyz 1 1
| 14> Ir   0.43667298  -0.64217436   1.08073055
| 15> C    0.03282063  -2.57389471   2.03895896
| 16> C    1.28746716  -2.05443871   2.52949416
| 17> C    1.46696840  -2.37080653   0.23430468
| 18> C    0.17882786  -2.79473274   0.63570306
| 19> C    2.15856617  -1.92876829   1.43730741
| 20> N   -0.87248600   0.06977186  -0.37648953
| 21> C   -2.31721898   0.22139544   0.00348396
| 22> C   -2.77341315   1.67287368  -0.06262407
| 23> H   -3.80000553   1.73951204   0.31153954
| 24> H   -2.76400280   2.06372534  -1.07527646
| 25> H   -2.16483403   2.31547698   0.55680738
| 26> C   -3.21232096  -0.68917396  -0.83571078
| 27> H   -2.38670705  -0.10131456   1.03224859
| 28> H   -4.21997555  -0.67860790  -0.41302221
| 29> H   -3.30433743  -0.36093357  -1.86995250
| 30> H   -2.86405662  -1.71465235  -0.82948365
| 31> C   -0.56653312   0.29209770  -1.60559437
| 32> C    0.71881586   0.19514709  -2.23523903
| 33> H   -1.37971055   0.54710064  -2.27665041
| 34> C    2.04541588   0.39761853  -1.67549511
| 35> C    2.98907123   0.16858195  -2.74851715
| 36> S    0.76189036  -0.11543327  -3.94328120
| 37> C    2.46252798  -0.09501403  -3.96800124
| 38> H    2.27144445   0.78774054  -0.82189975
| 39> H    4.05739924   0.23808359  -2.55361392
| 40> H    2.99869205  -0.28399657  -4.88223290
| 41> H   -0.81690460  -2.84154854   2.63017406
| 42> H    1.50845771  -1.86172023   3.56371218
| 43> H    3.15867068  -1.54207023   1.45210620
| 44> O    1.36227673   1.34649449   1.09234511
| 45> O   -0.34536069   0.87816971   2.29031688
| 46> C    0.52292291   1.75042573   1.89934555
| 47> C    0.48966753   3.15950549   2.42937055
| 48> H    0.72754164   3.86225214   1.62427706
| 49> H    1.26716039   3.27962480   3.18656417
| 50> H   -0.46242811   3.40149784   2.86877002
| 51> H    1.90536415  -2.47985889  -0.72946769
| 52> H   -0.55914848  -3.25731213   0.00520689
| 53> *
| 54>
| 55>                          ****END OF INPUT****

CARTESIAN COORDINATES (ANGSTROEM)
---------------------------------
  Ir     0.436673   -0.642174    1.080731
  C      0.032821   -2.573895    2.038959
  C      1.287467   -2.054439    2.529494
  C      1.466968   -2.370807    0.234305
  C      0.178828   -2.794733    0.635703
  C      2.158566   -1.928768    1.437307
  N     -0.872486    0.069772   -0.376490
  C     -2.317219    0.221395    0.003484
  C     -2.773413    1.672874   -0.062624
  H     -3.800006    1.739512    0.311540
  H     -2.764003    2.063725   -1.075276
  H     -2.164834    2.315477    0.556807
  C     -3.212321   -0.689174   -0.835711
  H     -2.386707   -0.101315    1.032249
  H     -4.219976   -0.678608   -0.413022
  H     -3.304337   -0.360934   -1.869952
  H     -2.864057   -1.714652   -0.829484
  C     -0.566533    0.292098   -1.605594
  C      0.718816    0.195147   -2.235239
  H     -1.379711    0.547101   -2.276650
  C      2.045416    0.397619   -1.675495
  C      2.989071    0.168582   -2.748517
  S      0.761890   -0.115433   -3.943281
  C      2.462528   -0.095014   -3.968001
  H      2.271444    0.787741   -0.821900
  H      4.057399    0.238084   -2.553614
  H      2.998692   -0.283997   -4.882233
  H     -0.816905   -2.841549    2.630174
  H      1.508458   -1.861720    3.563712
  H      3.158671   -1.542070    1.452106
  O      1.362277    1.346494    1.092345
  O     -0.345361    0.878170    2.290317
  C      0.522923    1.750426    1.899346
  C      0.489668    3.159505    2.429371
  H      0.727542    3.862252    1.624277
  H      1.267160    3.279625    3.186564
  H     -0.462428    3.401498    2.868770
  H      1.905364   -2.479859   -0.729468
  H     -0.559148   -3.257312    0.005207

 Total Charge           Charge          ....    1
 Multiplicity           Mult            ....    1
 Number of Electrons    NEL             ....  164
 Basis Dimension        Dim             ....  358

ORBITAL ENERGIES
----------------

  NO   OCC          E(Eh)            E(eV)
   0   2.0000     -89.750086     -2442.2240
   1   2.0000     -19.642368      -534.4960
   2   2.0000     -19.634068      -534.2701
   3   2.0000     -14.826627      -403.4530
   4   2.0000     -10.704103      -291.2735
   5   2.0000     -10.651748      -289.8488
   6   2.0000     -10.632551      -289.3264
   7   2.0000     -10.631889      -289.3084
   8   2.0000     -10.629746      -289.2501
   9   2.0000     -10.620147      -288.9889
  10   2.0000     -10.618995      -288.9575
  11   2.0000     -10.617070      -288.9052
  12   2.0000     -10.607699      -288.6502
  13   2.0000     -10.601257      -288.4749
  14   2.0000     -10.586418      -288.0711
  15   2.0000     -10.575092      -287.7629
  16   2.0000     -10.555968      -287.2425
  17   2.0000     -10.548453      -287.0380
  18   2.0000     -10.542508      -286.8762
  19   2.0000      -8.389218      -228.2822
  20   2.0000      -6.279323      -170.8691
  21   2.0000      -6.275782      -170.7727
  22   2.0000      -6.273854      -170.7203
  23   2.0000      -4.027153      -109.5844
  24   2.0000      -2.346029       -63.8387
  25   2.0000      -2.312001       -62.9127
  26   2.0000      -2.308451       -62.8161
  27   2.0000      -1.349214       -36.7140
  28   2.0000      -1.222299       -33.2605
  29   2.0000      -1.190202       -32.3870
  30   2.0000      -1.163304       -31.6551
  31   2.0000      -1.107244       -30.1296
  32   2.0000      -1.008924       -27.4542
  33   2.0000      -0.979574       -26.6556
  34   2.0000      -0.969031       -26.3687
  35   2.0000      -0.958505       -26.0823
  36   2.0000      -0.951010       -25.8783
  37   2.0000      -0.949732       -25.8435
  38   2.0000      -0.892555       -24.2877
  39   2.0000      -0.864138       -23.5144
  40   2.0000      -0.794404       -21.6168
  41   2.0000      -0.782812       -21.3014
  42   2.0000      -0.782117       -21.2825
  43   2.0000      -0.768747       -20.9187
  44   2.0000      -0.764613       -20.8062
  45   2.0000      -0.754551       -20.5324
  46   2.0000      -0.741037       -20.1646
  47   2.0000      -0.714259       -19.4360
  48   2.0000      -0.689151       -18.7527
  49   2.0000      -0.683312       -18.5939
  50   2.0000      -0.681441       -18.5429
  51   2.0000      -0.663631       -18.0583
  52   2.0000      -0.644699       -17.5432
  53   2.0000      -0.637926       -17.3588
  54   2.0000      -0.632313       -17.2061
  55   2.0000      -0.627941       -17.0871
  56   2.0000      -0.618807       -16.8386
  57   2.0000      -0.605869       -16.4865
  58   2.0000      -0.604286       -16.4435
  59   2.0000      -0.601286       -16.3618
  60   2.0000      -0.597884       -16.2692
  61   2.0000      -0.589333       -16.0366
  62   2.0000      -0.577096       -15.7036
  63   2.0000      -0.574973       -15.6458
  64   2.0000      -0.566049       -15.4030
  65   2.0000      -0.560496       -15.2519
  66   2.0000      -0.552239       -15.0272
  67   2.0000      -0.540197       -14.6995
  68   2.0000      -0.534983       -14.5576
  69   2.0000      -0.529427       -14.4064
  70   2.0000      -0.525636       -14.3033
  71   2.0000      -0.523437       -14.2434
  72   2.0000      -0.513394       -13.9702
  73   2.0000      -0.507695       -13.8151
  74   2.0000      -0.501032       -13.6338
  75   2.0000      -0.481573       -13.1043
  76   2.0000      -0.473556       -12.8861
  77   2.0000      -0.459272       -12.4974
  78   2.0000      -0.438365       -11.9285
  79   2.0000      -0.424656       -11.5555
  80   2.0000      -0.415870       -11.3164
  81   2.0000      -0.393828       -10.7166
  82   0.0000      -0.178313        -4.8522
  83   0.0000      -0.173933        -4.7329
  84   0.0000      -0.143958        -3.9173
  85   0.0000      -0.084602        -2.3021
  86   0.0000      -0.080159        -2.1812

MULLIKEN ATOMIC CHARGES
-----------------------
   0 Ir:    0.587010
   1 C :   -0.256438
   2 C :   -0.236202
   3 C :   -0.283783
   4 C :   -0.169335
   5 C :   -0.190186
   6 N :   -0.463733
   7 C :   -0.156248
   8 C :   -0.629698
   9 H :    0.253157
  10 H :    0.221474
  11 H :    0.250865
  12 C :   -0.645467
  13 H :    0.279943
  14 H :    0.260945
  15 H :    0.224735
  16 H :    0.237994
  17 C :    0.079585
  18 C :   -0.278102
  19 H :    0.267938
  20 C :   -0.179221
  21 C :   -0.167625
  22 S :    0.307161
  23 C :   -0.404869
  24 H :    0.317179
  25 H :    0.261575
  26 H :    0.295707
  27 H :    0.292261
  28 H :    0.292854
  29 H :    0.295732
  30 O :   -0.462928
  31 O :   -0.501645
  32 C :    0.664684
  33 C :   -0.770428
  34 H :    0.271368
  35 H :    0.281835
  36 H :    0.278388
  37 H :    0.289607
  38 H :    0.283912
Sum of atomic charges:    1.0000000

LOEWDIN ATOMIC CHARGES
----------------------
   0 Ir:   -0.183494
   1 C :   -0.045529
   2 C :   -0.073049
   3 C :   -0.090856
   4 C :   -0.029908
   5 C :   -0.019366
   6 N :   -0.037937
   7 C :   -0.064560
   8 C :   -0.349756
   9 H :    0.150637
  10 H :    0.132416
  11 H :    0.140343
  12 C :   -0.354416
  13 H :    0.154428
  14 H :    0.152800
  15 H :    0.132513
  16 H :    0.134934
  17 C :    0.030279
  18 C :   -0.225791
  19 H :    0.151712
  20 C :   -0.105546
  21 C :   -0.162919
  22 S :    0.457394
  23 C :   -0.259917
  24 H :    0.164814
  25 H :    0.156343
  26 H :    0.169404
  27 H :    0.185230
  28 H :    0.186644
  29 H :    0.186883
  30 O :   -0.165515
  31 O :   -0.197568
  32 C :    0.182157
  33 C :   -0.374476
  34 H :    0.167072
  35 H :    0.175746
  36 H :    0.164647
  37 H :    0.182683
  38 H :    0.181524

  Mayer bond orders larger than 0.100000
B(  0-Ir,  1-C ) :   0.4906 B(  0-Ir,  2-C ) :   0.4231 B(  0-Ir,  3-C ) :   0.4886
B(  0-Ir,  4-C ) :   0.4174 B(  0-Ir,  5-C ) :   0.4347 B(  0-Ir,  6-N ) :   0.4921
B(  0-Ir, 30-O ) :   0.4714 B(  0-Ir, 31-O ) :   0.5462 B(  1-C ,  2-C ) :   1.1383
B(  1-C ,  4-C ) :   1.1869 B(  1-C , 27-H ) :   0.9099 B(  2-C ,  5-C ) :   1.2234
B(  2-C , 28-H ) :   0.9098 B(  3-C ,  4-C ) :   1.1542 B(  3-C ,  5-C ) :   1.1455
B(  3-C , 37-H ) :   0.9101 B(  4-C , 38-H ) :   0.9121 B(  5-C , 29-H ) :   0.9026
B(  6-N ,  7-C ) :   0.8718 B(  6-N , 17-C ) :   1.6450 B(  7-C ,  8-C ) :   0.9831
B(  7-C , 12-C ) :   0.9796 B(  7-C , 13-H ) :   0.8849 B(  8-C ,  9-H ) :   0.9087
B(  8-C , 10-H ) :   0.9165 B(  8-C , 11-H ) :   0.9116 B( 12-C , 14-H ) :   0.9074
B( 12-C , 15-H ) :   0.9155 B( 12-C , 16-H ) :   0.9175 B( 17-C , 18-C ) :   1.1083
B( 17-C , 19-H ) :   0.8809 B( 18-C , 20-C ) :   1.4143 B( 18-C , 22-S ) :   1.1797
B( 20-C , 21-C ) :   1.3274 B( 20-C , 24-H ) :   0.8569 B( 21-C , 23-C ) :   1.4966
B( 21-C , 25-H ) :   0.9043 B( 22-S , 23-C ) :   1.2423 B( 23-C , 26-H ) :   0.8936
B( 30-O , 32-C ) :   1.4800 B( 31-O , 32-C ) :   1.3600 B( 32-C , 33-C ) :   0.9612
B( 33-C , 34-H ) :   0.8992 B( 33-C , 35-H ) :   0.8902 B( 33-C , 36-H ) :   0.8999

Dispersion correction           -0.029698173
FINAL SINGLE POINT ENERGY     -1288.406581966565
Dispersion correction            ... done

DIPOLE MOMENT
-------------
                                X             Y             Z
Electronic contribution:     23.63121     -59.21212     128.60128
Nuclear contribution   :    -23.63165      58.73348    -129.07141
                        -----------------------------------------
Total Dipole Moment    :     -0.00044      -0.47865      -0.47013
                        -----------------------------------------
Magnitude (a.u.)       :      0.67091
Magnitude (Debye)      :      1.70532

Rotational constants in cm-1:     0.011611     0.007652     0.006834
Rotational constants in MHz :   348.076521   229.391420   204.885440

                             ****ORCA TERMINATED NORMALLY****
TOTAL RUN TIME: 0 days 0 hours 18 minutes 18 seconds 265 msec
