                         Program Version 5.0.3 -  RELEASE  -
|  1> ! EnGrad PBEh-3c
|  2> %output
|  3> xyzfile=True
|  4> end
|  5> %scf
|  6> maxiter 250
|  7> end
|  8> %output
|  9> Print[P_Hirshfeld] = 1
| 10> end
| 11> % maxcore
| 12> 4000
| 13> *xyz 1 1
| 14> Ir   0.43672953  -0.64956219   1.07958492
| 15> C    0.03692409  -2.57201419   2.03281703
| 16> C    1.28297633  -2.05505641   2.53007705
| 17> C    1.47079376  -2.36715591   0.24278087
| 18> C    0.17940018  -2.79373834   0.63893219
| 19> C    2.15452362  -1.93003786   1.43329445
| 20> N   -0.87341497   0.07096675  -0.37656087
| 21> C   -2.31637975   0.22105054   0.00071243
| 22> C   -2.77566165   1.67018767  -0.06048779
| 23> H   -3.79971569   1.73879633   0.31258614
| 24> H   -2.76436300   2.06436767  -1.07432224
| 25> H   -2.16465910   2.31522405   0.55941668
| 26> C   -3.21375419  -0.68701191  -0.83479522
| 27> H   -2.38708833  -0.10303634   1.03326406
| 28> H   -4.22003266  -0.67893314  -0.41366180
| 29> H   -3.30512947  -0.35971644  -1.87038565
| 30> H   -2.86431492  -1.71547891  -0.83107776
| 31> C   -0.56716832   0.29099929  -1.60433537
| 32> C    0.73009359   0.19899859  -2.22788675
| 33> H   -1.38102613   0.54734987  -2.27726610
| 34> C    2.02443522   0.37544835  -1.72957747
| 35> C    2.99065804   0.17236947  -2.73639228
| 36> S    0.76308363  -0.11418208  -3.93964484
| 37> C    2.46001816  -0.09540758  -3.96804808
| 38> H    2.28043957   0.80281135  -0.78870096
| 39> H    4.05604251   0.23697772  -2.55452086
| 40> H    2.99916824  -0.28361951  -4.88217043
| 41> H   -0.81970049  -2.84342813   2.62894358
| 42> H    1.50563372  -1.86174400   3.56530885
| 43> H    3.15987138  -1.54121127   1.45574522
| 44> O    1.36871008   1.34496733   1.08566719
| 45> O   -0.33878162   0.88325881   2.28640898
| 46> C    0.51144680   1.75283237   1.90896815
| 47> C    0.49438754   3.15830292   2.42474295
| 48> H    0.72754304   3.86284737   1.62423930
| 49> H    1.26836256   3.28054146   3.18531329
| 50> H   -0.46296531   3.40189623   2.86901585
| 51> H    1.90938170  -2.48010558  -0.73031317
| 52> H   -0.55732375  -3.25806474   0.00254953
| 53> *
| 54>
| 55>                          ****END OF INPUT****

CARTESIAN COORDINATES (ANGSTROEM)
---------------------------------
  Ir     0.436730   -0.649562    1.079585
  C      0.036924   -2.572014    2.032817
  C      1.282976   -2.055056    2.530077
  C      1.470794   -2.367156    0.242781
  C      0.179400   -2.793738    0.638932
  C      2.154524   -1.930038    1.433294
  N     -0.873415    0.070967   -0.376561
  C     -2.316380    0.221051    0.000712
  C     -2.775662    1.670188   -0.060488
  H     -3.799716    1.738796    0.312586
  H     -2.764363    2.064368   -1.074322
  H     -2.164659    2.315224    0.559417
  C     -3.213754   -0.687012   -0.834795
  H     -2.387088   -0.103036    1.033264
  H     -4.220033   -0.678933   -0.413662
  H     -3.305129   -0.359716   -1.870386
  H     -2.864315   -1.715479   -0.831078
  C     -0.567168    0.290999   -1.604335
  C      0.730094    0.198999   -2.227887
  H     -1.381026    0.547350   -2.277266
  C      2.024435    0.375448   -1.729577
  C      2.990658    0.172369   -2.736392
  S      0.763084   -0.114182   -3.939645
  C      2.460018   -0.095408   -3.968048
  H      2.280440    0.802811   -0.788701
  H      4.056043    0.236978   -2.554521
  H      2.999168   -0.283620   -4.882170
  H     -0.819700   -2.843428    2.628944
  H      1.505634   -1.861744    3.565309
  H      3.159871   -1.541211    1.455745
  O      1.368710    1.344967    1.085667
  O     -0.338782    0.883259    2.286409
  C      0.511447    1.752832    1.908968
  C      0.494388    3.158303    2.424743
  H      0.727543    3.862847    1.624239
  H      1.268363    3.280541    3.185313
  H     -0.462965    3.401896    2.869016
  H      1.909382   -2.480106   -0.730313
  H     -0.557324   -3.258065    0.002550

 Total Charge           Charge          ....    1
 Multiplicity           Mult            ....    1
 Number of Electrons    NEL             ....  164
 Basis Dimension        Dim             ....  358

ORBITAL ENERGIES
----------------

  NO   OCC          E(Eh)            E(eV)
   0   2.0000     -89.746776     -2442.1339
   1   2.0000     -19.637573      -534.3655
   2   2.0000     -19.637405      -534.3610
   3   2.0000     -14.826921      -403.4610
   4   2.0000     -10.704174      -291.2754
   5   2.0000     -10.653335      -289.8920
   6   2.0000     -10.632268      -289.3187
   7   2.0000     -10.631814      -289.3064
   8   2.0000     -10.629391      -289.2404
   9   2.0000     -10.620579      -289.0006
  10   2.0000     -10.617565      -288.9186
  11   2.0000     -10.613151      -288.7985
  12   2.0000     -10.608352      -288.6679
  13   2.0000     -10.600883      -288.4647
  14   2.0000     -10.582742      -287.9710
  15   2.0000     -10.570757      -287.6449
  16   2.0000     -10.556478      -287.2564
  17   2.0000     -10.549005      -287.0530
  18   2.0000     -10.543246      -286.8963
  19   2.0000      -8.386113      -228.1977
  20   2.0000      -6.276195      -170.7840
  21   2.0000      -6.272685      -170.6884
  22   2.0000      -6.270743      -170.6356
  23   2.0000      -4.028024      -109.6081
  24   2.0000      -2.347189       -63.8703
  25   2.0000      -2.312634       -62.9300
  26   2.0000      -2.309418       -62.8425
  27   2.0000      -1.344267       -36.5794
  28   2.0000      -1.221142       -33.2290
  29   2.0000      -1.191635       -32.4260
  30   2.0000      -1.167388       -31.7662
  31   2.0000      -1.111945       -30.2576
  32   2.0000      -1.009323       -27.4651
  33   2.0000      -0.980175       -26.6719
  34   2.0000      -0.971627       -26.4393
  35   2.0000      -0.957719       -26.0609
  36   2.0000      -0.952572       -25.9208
  37   2.0000      -0.949901       -25.8481
  38   2.0000      -0.892923       -24.2977
  39   2.0000      -0.863269       -23.4907
  40   2.0000      -0.791263       -21.5314
  41   2.0000      -0.782525       -21.2936
  42   2.0000      -0.781890       -21.2763
  43   2.0000      -0.769085       -20.9279
  44   2.0000      -0.766520       -20.8581
  45   2.0000      -0.750296       -20.4166
  46   2.0000      -0.734937       -19.9986
  47   2.0000      -0.714577       -19.4446
  48   2.0000      -0.687119       -18.6975
  49   2.0000      -0.683266       -18.5926
  50   2.0000      -0.680243       -18.5103
  51   2.0000      -0.662374       -18.0241
  52   2.0000      -0.646342       -17.5879
  53   2.0000      -0.638244       -17.3675
  54   2.0000      -0.632580       -17.2134
  55   2.0000      -0.629103       -17.1188
  56   2.0000      -0.619679       -16.8623
  57   2.0000      -0.606004       -16.4902
  58   2.0000      -0.603397       -16.4193
  59   2.0000      -0.602164       -16.3857
  60   2.0000      -0.590284       -16.0624
  61   2.0000      -0.585195       -15.9240
  62   2.0000      -0.575432       -15.6583
  63   2.0000      -0.572100       -15.5676
  64   2.0000      -0.566508       -15.4155
  65   2.0000      -0.562505       -15.3065
  66   2.0000      -0.558359       -15.1937
  67   2.0000      -0.541209       -14.7270
  68   2.0000      -0.535535       -14.5727
  69   2.0000      -0.529218       -14.4008
  70   2.0000      -0.526421       -14.3247
  71   2.0000      -0.521288       -14.1850
  72   2.0000      -0.512572       -13.9478
  73   2.0000      -0.507505       -13.8099
  74   2.0000      -0.501227       -13.6391
  75   2.0000      -0.480965       -13.0877
  76   2.0000      -0.473799       -12.8927
  77   2.0000      -0.460562       -12.5325
  78   2.0000      -0.439216       -11.9517
  79   2.0000      -0.426074       -11.5941
  80   2.0000      -0.416156       -11.3242
  81   2.0000      -0.395198       -10.7539
  82   0.0000      -0.175042        -4.7631
  83   0.0000      -0.173446        -4.7197
  84   0.0000      -0.143940        -3.9168
  85   0.0000      -0.085873        -2.3367
  86   0.0000      -0.081821        -2.2265

MULLIKEN ATOMIC CHARGES
-----------------------
   0 Ir:    0.591449
   1 C :   -0.259844
   2 C :   -0.234850
   3 C :   -0.284153
   4 C :   -0.170450
   5 C :   -0.189312
   6 N :   -0.461953
   7 C :   -0.157182
   8 C :   -0.628832
   9 H :    0.254231
  10 H :    0.221158
  11 H :    0.249586
  12 C :   -0.645140
  13 H :    0.278420
  14 H :    0.261850
  15 H :    0.224635
  16 H :    0.237334
  17 C :    0.073542
  18 C :   -0.248970
  19 H :    0.269121
  20 C :   -0.209657
  21 C :   -0.155242
  22 S :    0.299172
  23 C :   -0.413636
  24 H :    0.321227
  25 H :    0.264373
  26 H :    0.295221
  27 H :    0.292902
  28 H :    0.293111
  29 H :    0.296785
  30 O :   -0.482808
  31 O :   -0.488894
  32 C :    0.670265
  33 C :   -0.772689
  34 H :    0.275112
  35 H :    0.283368
  36 H :    0.275416
  37 H :    0.290765
  38 H :    0.284570
Sum of atomic charges:    1.0000000

LOEWDIN ATOMIC CHARGES
----------------------
   0 Ir:   -0.182292
   1 C :   -0.047205
   2 C :   -0.071593
   3 C :   -0.089318
   4 C :   -0.031079
   5 C :   -0.019006
   6 N :   -0.037507
   7 C :   -0.065879
   8 C :   -0.349523
   9 H :    0.150763
  10 H :    0.132454
  11 H :    0.140045
  12 C :   -0.354183
  13 H :    0.153947
  14 H :    0.152993
  15 H :    0.132530
  16 H :    0.134914
  17 C :    0.034623
  18 C :   -0.228787
  19 H :    0.152355
  20 C :   -0.118717
  21 C :   -0.167935
  22 S :    0.452249
  23 C :   -0.256135
  24 H :    0.181810
  25 H :    0.157666
  26 H :    0.168033
  27 H :    0.186125
  28 H :    0.187145
  29 H :    0.188067
  30 O :   -0.191590
  31 O :   -0.182255
  32 C :    0.185256
  33 C :   -0.374501
  34 H :    0.168580
  35 H :    0.176852
  36 H :    0.164614
  37 H :    0.184082
  38 H :    0.182399

  Mayer bond orders larger than 0.100000
B(  0-Ir,  1-C ) :   0.4889 B(  0-Ir,  2-C ) :   0.4290 B(  0-Ir,  3-C ) :   0.4952
B(  0-Ir,  4-C ) :   0.4208 B(  0-Ir,  5-C ) :   0.4349 B(  0-Ir,  6-N ) :   0.4879
B(  0-Ir, 30-O ) :   0.4838 B(  0-Ir, 31-O ) :   0.5296 B(  1-C ,  2-C ) :   1.1364
B(  1-C ,  4-C ) :   1.1891 B(  1-C , 27-H ) :   0.9089 B(  2-C ,  5-C ) :   1.2206
B(  2-C , 28-H ) :   0.9095 B(  3-C ,  4-C ) :   1.1492 B(  3-C ,  5-C ) :   1.1464
B(  3-C , 37-H ) :   0.9089 B(  4-C , 38-H ) :   0.9116 B(  5-C , 29-H ) :   0.9021
B(  6-N ,  7-C ) :   0.8734 B(  6-N , 17-C ) :   1.6521 B(  7-C ,  8-C ) :   0.9826
B(  7-C , 12-C ) :   0.9795 B(  7-C , 13-H ) :   0.8853 B(  8-C ,  9-H ) :   0.9082
B(  8-C , 10-H ) :   0.9165 B(  8-C , 11-H ) :   0.9122 B( 12-C , 14-H ) :   0.9069
B( 12-C , 15-H ) :   0.9153 B( 12-C , 16-H ) :   0.9178 B( 17-C , 18-C ) :   1.1022
B( 17-C , 19-H ) :   0.8801 B( 18-C , 20-C ) :   1.4183 B( 18-C , 22-S ) :   1.1683
B( 20-C , 21-C ) :   1.3301 B( 20-C , 24-H ) :   0.8536 B( 21-C , 23-C ) :   1.4821
B( 21-C , 25-H ) :   0.9034 B( 22-S , 23-C ) :   1.2592 B( 23-C , 26-H ) :   0.8931
B( 30-O , 32-C ) :   1.4423 B( 31-O , 32-C ) :   1.3942 B( 32-C , 33-C ) :   0.9628
B( 33-C , 34-H ) :   0.8978 B( 33-C , 35-H ) :   0.8891 B( 33-C , 36-H ) :   0.9007

Dispersion correction           -0.029666961
FINAL SINGLE POINT ENERGY     -1288.427604832222
Dispersion correction            ... done

DIPOLE MOMENT
-------------
                                X             Y             Z
Electronic contribution:     23.59162     -59.93387     128.63708
Nuclear contribution   :    -23.63264      59.44901    -129.02302
                        -----------------------------------------
Total Dipole Moment    :     -0.04102      -0.48487      -0.38594
                        -----------------------------------------
Magnitude (a.u.)       :      0.62107
Magnitude (Debye)      :      1.57864

Rotational constants in cm-1:     0.011614     0.007656     0.006835
Rotational constants in MHz :   348.182891   229.526737   204.901978

                             ****ORCA TERMINATED NORMALLY****
TOTAL RUN TIME: 0 days 0 hours 17 minutes 43 seconds 559 msec
