                         Program Version 5.0.3 -  RELEASE  -
|  1> ! EnGrad PBEh-3c
|  2> %output
|  3> xyzfile=True
|  4> end
|  5> %scf
|  6> maxiter 250
|  7> end
|  8> %output
|  9> Print[P_Hirshfeld] = 1
| 10> end
| 11> % maxcore
| 12> 4000
| 13> *xyz 1 1
| 14> Ir   0.43844840  -0.64839299   1.08058156
| 15> C    0.03725408  -2.57189469   2.02864944
| 16> C    1.27952954  -2.05584813   2.53135923
| 17> C    1.47541212  -2.36655396   0.24712407
| 18> C    0.18184556  -2.79439355   0.63870576
| 19> C    2.15323375  -1.93054116   1.43434250
| 20> N   -0.87434870   0.07120196  -0.37746455
| 21> C   -2.31692314   0.22035017   0.00012138
| 22> C   -2.77679837   1.66931105  -0.05781593
| 23> H   -3.80003396   1.73692500   0.31441311
| 24> H   -2.76558585   2.06484499  -1.07227090
| 25> H   -2.16461866   2.31396044   0.56390590
| 26> C   -3.21499869  -0.68627572  -0.83524004
| 27> H   -2.38756151  -0.10608595   1.03408752
| 28> H   -4.22044223  -0.67903621  -0.41427840
| 29> H   -3.30664758  -0.35744117  -1.87086488
| 30> H   -2.86509291  -1.71621478  -0.83378762
| 31> C   -0.56640975   0.29138857  -1.60415311
| 32> C    0.73541693   0.20111190  -2.22450289
| 33> H   -1.38280594   0.54741533  -2.27795982
| 34> C    2.01876305   0.37428413  -1.74287382
| 35> C    2.99097390   0.17150594  -2.73290302
| 36> S    0.76312614  -0.11380459  -3.93790577
| 37> C    2.45857695  -0.09533900  -3.96708782
| 38> H    2.27922282   0.80218124  -0.78328313
| 39> H    4.05438884   0.23654678  -2.55396259
| 40> H    2.99913963  -0.28286985  -4.88220743
| 41> H   -0.82264153  -2.84478403   2.62516549
| 42> H    1.50050162  -1.86060773   3.56709082
| 43> H    3.15999517  -1.53998323   1.46205050
| 44> O    1.36974674   1.33961517   1.08126964
| 45> O   -0.33603454   0.88736757   2.28484110
| 46> C    0.50933351   1.75295273   1.90950244
| 47> C    0.49720391   3.15798517   2.42162475
| 48> H    0.72780893   3.86356676   1.62297180
| 49> H    1.27060565   3.28171593   3.18297616
| 50> H   -0.46187304   3.40332934   2.86895283
| 51> H    1.91535562  -2.47903130  -0.72936560
| 52> H   -0.55415928  -3.25757518  -0.00155163
| 53> *
| 54>
| 55>                          ****END OF INPUT****

CARTESIAN COORDINATES (ANGSTROEM)
---------------------------------
  Ir     0.438448   -0.648393    1.080582
  C      0.037254   -2.571895    2.028649
  C      1.279530   -2.055848    2.531359
  C      1.475412   -2.366554    0.247124
  C      0.181846   -2.794394    0.638706
  C      2.153234   -1.930541    1.434343
  N     -0.874349    0.071202   -0.377465
  C     -2.316923    0.220350    0.000121
  C     -2.776798    1.669311   -0.057816
  H     -3.800034    1.736925    0.314413
  H     -2.765586    2.064845   -1.072271
  H     -2.164619    2.313960    0.563906
  C     -3.214999   -0.686276   -0.835240
  H     -2.387562   -0.106086    1.034088
  H     -4.220442   -0.679036   -0.414278
  H     -3.306648   -0.357441   -1.870865
  H     -2.865093   -1.716215   -0.833788
  C     -0.566410    0.291389   -1.604153
  C      0.735417    0.201112   -2.224503
  H     -1.382806    0.547415   -2.277960
  C      2.018763    0.374284   -1.742874
  C      2.990974    0.171506   -2.732903
  S      0.763126   -0.113805   -3.937906
  C      2.458577   -0.095339   -3.967088
  H      2.279223    0.802181   -0.783283
  H      4.054389    0.236547   -2.553963
  H      2.999140   -0.282870   -4.882207
  H     -0.822642   -2.844784    2.625165
  H      1.500502   -1.860608    3.567091
  H      3.159995   -1.539983    1.462050
  O      1.369747    1.339615    1.081270
  O     -0.336035    0.887368    2.284841
  C      0.509334    1.752953    1.909502
  C      0.497204    3.157985    2.421625
  H      0.727809    3.863567    1.622972
  H      1.270606    3.281716    3.182976
  H     -0.461873    3.403329    2.868953
  H      1.915356   -2.479031   -0.729366
  H     -0.554159   -3.257575   -0.001552

 Total Charge           Charge          ....    1
 Multiplicity           Mult            ....    1
 Number of Electrons    NEL             ....  164
 Basis Dimension        Dim             ....  358

ORBITAL ENERGIES
----------------

  NO   OCC          E(Eh)            E(eV)
   0   2.0000     -89.745621     -2442.1025
   1   2.0000     -19.638976      -534.4037
   2   2.0000     -19.637059      -534.3516
   3   2.0000     -14.826999      -403.4632
   4   2.0000     -10.704711      -291.2900
   5   2.0000     -10.653887      -289.9070
   6   2.0000     -10.632146      -289.3154
   7   2.0000     -10.631435      -289.2960
   8   2.0000     -10.628850      -289.2257
   9   2.0000     -10.620526      -288.9992
  10   2.0000     -10.617680      -288.9218
  11   2.0000     -10.611438      -288.7519
  12   2.0000     -10.608752      -288.6788
  13   2.0000     -10.600568      -288.4561
  14   2.0000     -10.581030      -287.9245
  15   2.0000     -10.569487      -287.6104
  16   2.0000     -10.557129      -287.2741
  17   2.0000     -10.549275      -287.0604
  18   2.0000     -10.543666      -286.9077
  19   2.0000      -8.385030      -228.1683
  20   2.0000      -6.275111      -170.7545
  21   2.0000      -6.271608      -170.6591
  22   2.0000      -6.269646      -170.6057
  23   2.0000      -4.028052      -109.6089
  24   2.0000      -2.347270       -63.8725
  25   2.0000      -2.312598       -62.9290
  26   2.0000      -2.309468       -62.8438
  27   2.0000      -1.344884       -36.5961
  28   2.0000      -1.221336       -33.2342
  29   2.0000      -1.191886       -32.4329
  30   2.0000      -1.168376       -31.7931
  31   2.0000      -1.113347       -30.2957
  32   2.0000      -1.009409       -27.4674
  33   2.0000      -0.980017       -26.6676
  34   2.0000      -0.972040       -26.4505
  35   2.0000      -0.957337       -26.0505
  36   2.0000      -0.953309       -25.9409
  37   2.0000      -0.950378       -25.8611
  38   2.0000      -0.893012       -24.3001
  39   2.0000      -0.863093       -23.4859
  40   2.0000      -0.790658       -21.5149
  41   2.0000      -0.782116       -21.2825
  42   2.0000      -0.781559       -21.2673
  43   2.0000      -0.768779       -20.9195
  44   2.0000      -0.766887       -20.8680
  45   2.0000      -0.750629       -20.4257
  46   2.0000      -0.733823       -19.9683
  47   2.0000      -0.714512       -19.4429
  48   2.0000      -0.687396       -18.7050
  49   2.0000      -0.683210       -18.5911
  50   2.0000      -0.680728       -18.5236
  51   2.0000      -0.662842       -18.0369
  52   2.0000      -0.646605       -17.5950
  53   2.0000      -0.637981       -17.3604
  54   2.0000      -0.632365       -17.2075
  55   2.0000      -0.629320       -17.1247
  56   2.0000      -0.619902       -16.8684
  57   2.0000      -0.606460       -16.5026
  58   2.0000      -0.603179       -16.4133
  59   2.0000      -0.602106       -16.3841
  60   2.0000      -0.589893       -16.0518
  61   2.0000      -0.583904       -15.8888
  62   2.0000      -0.575475       -15.6595
  63   2.0000      -0.570059       -15.5121
  64   2.0000      -0.567088       -15.4312
  65   2.0000      -0.563005       -15.3202
  66   2.0000      -0.559235       -15.2175
  67   2.0000      -0.541408       -14.7325
  68   2.0000      -0.535738       -14.5782
  69   2.0000      -0.529558       -14.4100
  70   2.0000      -0.527005       -14.3405
  71   2.0000      -0.520475       -14.1628
  72   2.0000      -0.512524       -13.9465
  73   2.0000      -0.507341       -13.8055
  74   2.0000      -0.501632       -13.6501
  75   2.0000      -0.480718       -13.0810
  76   2.0000      -0.473861       -12.8944
  77   2.0000      -0.460944       -12.5429
  78   2.0000      -0.438954       -11.9445
  79   2.0000      -0.426403       -11.6030
  80   2.0000      -0.416068       -11.3218
  81   2.0000      -0.395518       -10.7626
  82   0.0000      -0.174187        -4.7399
  83   0.0000      -0.172322        -4.6891
  84   0.0000      -0.144357        -3.9281
  85   0.0000      -0.086407        -2.3513
  86   0.0000      -0.082318        -2.2400

MULLIKEN ATOMIC CHARGES
-----------------------
   0 Ir:    0.592057
   1 C :   -0.261885
   2 C :   -0.234756
   3 C :   -0.283533
   4 C :   -0.169500
   5 C :   -0.190632
   6 N :   -0.460248
   7 C :   -0.157235
   8 C :   -0.628247
   9 H :    0.254606
  10 H :    0.221047
  11 H :    0.248980
  12 C :   -0.644985
  13 H :    0.277758
  14 H :    0.262155
  15 H :    0.224581
  16 H :    0.237088
  17 C :    0.070298
  18 C :   -0.240467
  19 H :    0.269157
  20 C :   -0.213929
  21 C :   -0.152761
  22 S :    0.296324
  23 C :   -0.416360
  24 H :    0.320761
  25 H :    0.264968
  26 H :    0.294947
  27 H :    0.292837
  28 H :    0.293217
  29 H :    0.297050
  30 O :   -0.488995
  31 O :   -0.483501
  32 C :    0.672206
  33 C :   -0.773892
  34 H :    0.276316
  35 H :    0.283935
  36 H :    0.274772
  37 H :    0.291166
  38 H :    0.284698
Sum of atomic charges:    1.0000000

LOEWDIN ATOMIC CHARGES
----------------------
   0 Ir:   -0.182249
   1 C :   -0.049060
   2 C :   -0.071292
   3 C :   -0.089019
   4 C :   -0.031150
   5 C :   -0.020033
   6 N :   -0.037394
   7 C :   -0.066143
   8 C :   -0.349358
   9 H :    0.150774
  10 H :    0.132514
  11 H :    0.139955
  12 C :   -0.354155
  13 H :    0.153757
  14 H :    0.153029
  15 H :    0.132532
  16 H :    0.134968
  17 C :    0.035671
  18 C :   -0.228717
  19 H :    0.152494
  20 C :   -0.120883
  21 C :   -0.168981
  22 S :    0.450080
  23 C :   -0.255362
  24 H :    0.183960
  25 H :    0.157875
  26 H :    0.167743
  27 H :    0.186242
  28 H :    0.187256
  29 H :    0.188351
  30 O :   -0.197369
  31 O :   -0.175618
  32 C :    0.186020
  33 C :   -0.374574
  34 H :    0.168939
  35 H :    0.177191
  36 H :    0.164849
  37 H :    0.184556
  38 H :    0.182603

  Mayer bond orders larger than 0.100000
B(  0-Ir,  1-C ) :   0.4861 B(  0-Ir,  2-C ) :   0.4309 B(  0-Ir,  3-C ) :   0.4956
B(  0-Ir,  4-C ) :   0.4192 B(  0-Ir,  5-C ) :   0.4340 B(  0-Ir,  6-N ) :   0.4865
B(  0-Ir, 30-O ) :   0.4908 B(  0-Ir, 31-O ) :   0.5249 B(  1-C ,  2-C ) :   1.1361
B(  1-C ,  4-C ) :   1.1916 B(  1-C , 27-H ) :   0.9088 B(  2-C ,  5-C ) :   1.2201
B(  2-C , 28-H ) :   0.9093 B(  3-C ,  4-C ) :   1.1481 B(  3-C ,  5-C ) :   1.1479
B(  3-C , 37-H ) :   0.9084 B(  4-C , 38-H ) :   0.9113 B(  5-C , 29-H ) :   0.9019
B(  6-N ,  7-C ) :   0.8736 B(  6-N , 17-C ) :   1.6555 B(  7-C ,  8-C ) :   0.9823
B(  7-C , 12-C ) :   0.9794 B(  7-C , 13-H ) :   0.8855 B(  8-C ,  9-H ) :   0.9079
B(  8-C , 10-H ) :   0.9166 B(  8-C , 11-H ) :   0.9125 B( 12-C , 14-H ) :   0.9067
B( 12-C , 15-H ) :   0.9152 B( 12-C , 16-H ) :   0.9180 B( 17-C , 18-C ) :   1.0987
B( 17-C , 19-H ) :   0.8800 B( 18-C , 20-C ) :   1.4221 B( 18-C , 22-S ) :   1.1646
B( 20-C , 21-C ) :   1.3297 B( 20-C , 24-H ) :   0.8532 B( 21-C , 23-C ) :   1.4799
B( 21-C , 25-H ) :   0.9033 B( 22-S , 23-C ) :   1.2627 B( 23-C , 26-H ) :   0.8930
B( 30-O , 32-C ) :   1.4282 B( 31-O , 32-C ) :   1.4064 B( 32-C , 33-C ) :   0.9631
B( 33-C , 34-H ) :   0.8973 B( 33-C , 35-H ) :   0.8888 B( 33-C , 36-H ) :   0.9008

Dispersion correction           -0.029650613
FINAL SINGLE POINT ENERGY     -1288.428564162525
Dispersion correction            ... done

DIPOLE MOMENT
-------------
                                X             Y             Z
Electronic contribution:     23.72990     -59.80689     128.78050
Nuclear contribution   :    -23.78960      59.33195    -129.13638
                        -----------------------------------------
Total Dipole Moment    :     -0.05969      -0.47494      -0.35589
                        -----------------------------------------
Magnitude (a.u.)       :      0.59648
Magnitude (Debye)      :      1.51613

Rotational constants in cm-1:     0.011615     0.007660     0.006836
Rotational constants in MHz :   348.223880   229.626601   204.932958

                             ****ORCA TERMINATED NORMALLY****
TOTAL RUN TIME: 0 days 0 hours 17 minutes 42 seconds 711 msec
