                         Program Version 5.0.3 -  RELEASE  -
|  1> ! EnGrad PBEh-3c
|  2> %output
|  3> xyzfile=True
|  4> end
|  5> %scf
|  6> maxiter 250
|  7> end
|  8> %output
|  9> Print[P_Hirshfeld] = 1
| 10> end
| 11> % maxcore
| 12> 4000
| 13> *xyz 1 1
| 14> Ir   0.44861166  -0.64341530   1.08419917
| 15> C    0.02970930  -2.57428343   2.01342208
| 16> C    1.26242587  -2.05834428   2.53743767
| 17> C    1.50086396  -2.36532399   0.25997986
| 18> C    0.19626751  -2.79851929   0.63177617
| 19> C    2.15350362  -1.92933225   1.44980210
| 20> N   -0.87872382   0.07261209  -0.38110963
| 21> C   -2.32020369   0.21488769   0.00001943
| 22> C   -2.78068472   1.66541912  -0.04292805
| 23> H   -3.80335264   1.72589162   0.32602681
| 24> H   -2.77274483   2.06745731  -1.05838156
| 25> H   -2.16568177   2.30523432   0.58941207
| 26> C   -3.22067737  -0.68391939  -0.83970530
| 27> H   -2.39006772  -0.12350050   1.03609425
| 28> H   -4.22395794  -0.67961124  -0.41742012
| 29> H   -3.31571888  -0.34412145  -1.87305355
| 30> H   -2.87046636  -1.71841502  -0.84996767
| 31> C   -0.56097305   0.29504817  -1.60404370
| 32> C    0.73561462   0.20941661  -2.22079579
| 33> H   -1.38941565   0.54689867  -2.28099190
| 34> C    2.01211397   0.38609980  -1.76295512
| 35> C    2.99217400   0.16299521  -2.73397116
| 36> S    0.76207431  -0.11190864  -3.92869164
| 37> C    2.45628742  -0.09538769  -3.96088441
| 38> H    2.26500127   0.78710016  -0.77667871
| 39> H    4.04765267   0.23437843  -2.54840638
| 40> H    2.99743045  -0.27812801  -4.88056935
| 41> H   -0.83607477  -2.85130765   2.59909162
| 42> H    1.46939385  -1.85424208   3.57698713
| 43> H    3.15756617  -1.53413899   1.49931213
| 44> O    1.36510449   1.31334412   1.06612542
| 45> O   -0.32981377   0.90379131   2.28082549
| 46> C    0.51707881   1.75520278   1.89703698
| 47> C    0.50879024   3.15804856   2.40772031
| 48> H    0.73008630   3.86826356   1.61360837
| 49> H    1.28398605   3.28809685   3.16828973
| 50> H   -0.45107216   3.41070306   2.86645350
| 51> H    1.94894153  -2.47150596  -0.71791923
| 52> H   -0.53349676  -3.25346132  -0.02474876
| 53> *
| 54>
| 55>                          ****END OF INPUT****

CARTESIAN COORDINATES (ANGSTROEM)
---------------------------------
  Ir     0.448612   -0.643415    1.084199
  C      0.029709   -2.574283    2.013422
  C      1.262426   -2.058344    2.537438
  C      1.500864   -2.365324    0.259980
  C      0.196268   -2.798519    0.631776
  C      2.153504   -1.929332    1.449802
  N     -0.878724    0.072612   -0.381110
  C     -2.320204    0.214888    0.000019
  C     -2.780685    1.665419   -0.042928
  H     -3.803353    1.725892    0.326027
  H     -2.772745    2.067457   -1.058382
  H     -2.165682    2.305234    0.589412
  C     -3.220677   -0.683919   -0.839705
  H     -2.390068   -0.123500    1.036094
  H     -4.223958   -0.679611   -0.417420
  H     -3.315719   -0.344121   -1.873054
  H     -2.870466   -1.718415   -0.849968
  C     -0.560973    0.295048   -1.604044
  C      0.735615    0.209417   -2.220796
  H     -1.389416    0.546899   -2.280992
  C      2.012114    0.386100   -1.762955
  C      2.992174    0.162995   -2.733971
  S      0.762074   -0.111909   -3.928692
  C      2.456287   -0.095388   -3.960884
  H      2.265001    0.787100   -0.776679
  H      4.047653    0.234378   -2.548406
  H      2.997430   -0.278128   -4.880569
  H     -0.836075   -2.851308    2.599092
  H      1.469394   -1.854242    3.576987
  H      3.157566   -1.534139    1.499312
  O      1.365104    1.313344    1.066125
  O     -0.329814    0.903791    2.280825
  C      0.517079    1.755203    1.897037
  C      0.508790    3.158049    2.407720
  H      0.730086    3.868264    1.613608
  H      1.283986    3.288097    3.168290
  H     -0.451072    3.410703    2.866453
  H      1.948942   -2.471506   -0.717919
  H     -0.533497   -3.253461   -0.024749

 Total Charge           Charge          ....    1
 Multiplicity           Mult            ....    1
 Number of Electrons    NEL             ....  164
 Basis Dimension        Dim             ....  358

ORBITAL ENERGIES
----------------

  NO   OCC          E(Eh)            E(eV)
   0   2.0000     -89.743639     -2442.0486
   1   2.0000     -19.640124      -534.4350
   2   2.0000     -19.639491      -534.4177
   3   2.0000     -14.826281      -403.4436
   4   2.0000     -10.706259      -291.3321
   5   2.0000     -10.654117      -289.9133
   6   2.0000     -10.632247      -289.3182
   7   2.0000     -10.629940      -289.2554
   8   2.0000     -10.626938      -289.1737
   9   2.0000     -10.620601      -289.0012
  10   2.0000     -10.618130      -288.9340
  11   2.0000     -10.609426      -288.6972
  12   2.0000     -10.608615      -288.6751
  13   2.0000     -10.599607      -288.4300
  14   2.0000     -10.579150      -287.8733
  15   2.0000     -10.567387      -287.5532
  16   2.0000     -10.559250      -287.3318
  17   2.0000     -10.549648      -287.0705
  18   2.0000     -10.544424      -286.9284
  19   2.0000      -8.383273      -228.1205
  20   2.0000      -6.273357      -170.7067
  21   2.0000      -6.269855      -170.6114
  22   2.0000      -6.267855      -170.5570
  23   2.0000      -4.027680      -109.5988
  24   2.0000      -2.346922       -63.8630
  25   2.0000      -2.312062       -62.9144
  26   2.0000      -2.309157       -62.8354
  27   2.0000      -1.349249       -36.7149
  28   2.0000      -1.223242       -33.2861
  29   2.0000      -1.191291       -32.4167
  30   2.0000      -1.168426       -31.7945
  31   2.0000      -1.116124       -30.3713
  32   2.0000      -1.009807       -27.4782
  33   2.0000      -0.979189       -26.6451
  34   2.0000      -0.971828       -26.4448
  35   2.0000      -0.958705       -26.0877
  36   2.0000      -0.955235       -25.9933
  37   2.0000      -0.950035       -25.8518
  38   2.0000      -0.892359       -24.2823
  39   2.0000      -0.863149       -23.4875
  40   2.0000      -0.790435       -21.5088
  41   2.0000      -0.781383       -21.2625
  42   2.0000      -0.780871       -21.2486
  43   2.0000      -0.767965       -20.8974
  44   2.0000      -0.767062       -20.8728
  45   2.0000      -0.752720       -20.4826
  46   2.0000      -0.732145       -19.9227
  47   2.0000      -0.714737       -19.4490
  48   2.0000      -0.689890       -18.7729
  49   2.0000      -0.683282       -18.5930
  50   2.0000      -0.682426       -18.5698
  51   2.0000      -0.664963       -18.0946
  52   2.0000      -0.646448       -17.5907
  53   2.0000      -0.636650       -17.3241
  54   2.0000      -0.632114       -17.2007
  55   2.0000      -0.629367       -17.1259
  56   2.0000      -0.619927       -16.8691
  57   2.0000      -0.607380       -16.5276
  58   2.0000      -0.602828       -16.4038
  59   2.0000      -0.601245       -16.3607
  60   2.0000      -0.589235       -16.0339
  61   2.0000      -0.583342       -15.8735
  62   2.0000      -0.575924       -15.6717
  63   2.0000      -0.569260       -15.4903
  64   2.0000      -0.568215       -15.4619
  65   2.0000      -0.562631       -15.3100
  66   2.0000      -0.559589       -15.2272
  67   2.0000      -0.541640       -14.7388
  68   2.0000      -0.535560       -14.5733
  69   2.0000      -0.531659       -14.4672
  70   2.0000      -0.527846       -14.3634
  71   2.0000      -0.519282       -14.1304
  72   2.0000      -0.512114       -13.9353
  73   2.0000      -0.506705       -13.7882
  74   2.0000      -0.502703       -13.6792
  75   2.0000      -0.480359       -13.0712
  76   2.0000      -0.473917       -12.8959
  77   2.0000      -0.461656       -12.5623
  78   2.0000      -0.437138       -11.8951
  79   2.0000      -0.426854       -11.6153
  80   2.0000      -0.415709       -11.3120
  81   2.0000      -0.396500       -10.7893
  82   0.0000      -0.172211        -4.6861
  83   0.0000      -0.169936        -4.6242
  84   0.0000      -0.145847        -3.9687
  85   0.0000      -0.087112        -2.3704
  86   0.0000      -0.081777        -2.2253

MULLIKEN ATOMIC CHARGES
-----------------------
   0 Ir:    0.590438
   1 C :   -0.264795
   2 C :   -0.235983
   3 C :   -0.281096
   4 C :   -0.166175
   5 C :   -0.195909
   6 N :   -0.455990
   7 C :   -0.155536
   8 C :   -0.626602
   9 H :    0.254886
  10 H :    0.220494
  11 H :    0.247530
  12 C :   -0.644940
  13 H :    0.275995
  14 H :    0.262581
  15 H :    0.224497
  16 H :    0.236241
  17 C :    0.064464
  18 C :   -0.225838
  19 H :    0.266797
  20 C :   -0.221915
  21 C :   -0.143445
  22 S :    0.293971
  23 C :   -0.423483
  24 H :    0.319146
  25 H :    0.265924
  26 H :    0.294393
  27 H :    0.292016
  28 H :    0.293710
  29 H :    0.297195
  30 O :   -0.496113
  31 O :   -0.476691
  32 C :    0.677648
  33 C :   -0.778462
  34 H :    0.277677
  35 H :    0.284960
  36 H :    0.276096
  37 H :    0.291553
  38 H :    0.284759
Sum of atomic charges:    1.0000000

LOEWDIN ATOMIC CHARGES
----------------------
   0 Ir:   -0.183015
   1 C :   -0.054427
   2 C :   -0.069579
   3 C :   -0.088058
   4 C :   -0.029723
   5 C :   -0.024638
   6 N :   -0.038474
   7 C :   -0.066259
   8 C :   -0.348899
   9 H :    0.150448
  10 H :    0.132560
  11 H :    0.139905
  12 C :   -0.354398
  13 H :    0.153366
  14 H :    0.153029
  15 H :    0.132496
  16 H :    0.135079
  17 C :    0.035753
  18 C :   -0.231392
  19 H :    0.152246
  20 C :   -0.120246
  21 C :   -0.170521
  22 S :    0.448942
  23 C :   -0.253466
  24 H :    0.183577
  25 H :    0.158131
  26 H :    0.167727
  27 H :    0.185775
  28 H :    0.187540
  29 H :    0.188246
  30 O :   -0.194927
  31 O :   -0.169118
  32 C :    0.186418
  33 C :   -0.375071
  34 H :    0.168964
  35 H :    0.177755
  36 H :    0.166576
  37 H :    0.185039
  38 H :    0.182642

  Mayer bond orders larger than 0.100000
B(  0-Ir,  1-C ) :   0.4791 B(  0-Ir,  2-C ) :   0.4368 B(  0-Ir,  3-C ) :   0.4946
B(  0-Ir,  4-C ) :   0.4128 B(  0-Ir,  5-C ) :   0.4329 B(  0-Ir,  6-N ) :   0.4834
B(  0-Ir, 30-O ) :   0.5043 B(  0-Ir, 31-O ) :   0.5208 B(  1-C ,  2-C ) :   1.1346
B(  1-C ,  4-C ) :   1.1985 B(  1-C , 27-H ) :   0.9095 B(  2-C ,  5-C ) :   1.2191
B(  2-C , 28-H ) :   0.9083 B(  3-C ,  4-C ) :   1.1471 B(  3-C ,  5-C ) :   1.1510
B(  3-C , 37-H ) :   0.9076 B(  4-C , 38-H ) :   0.9107 B(  5-C , 29-H ) :   0.9017
B(  6-N ,  7-C ) :   0.8744 B(  6-N , 17-C ) :   1.6593 B(  7-C ,  8-C ) :   0.9811
B(  7-C , 12-C ) :   0.9790 B(  7-C , 13-H ) :   0.8860 B(  8-C ,  9-H ) :   0.9073
B(  8-C , 10-H ) :   0.9166 B(  8-C , 11-H ) :   0.9130 B( 12-C , 14-H ) :   0.9062
B( 12-C , 15-H ) :   0.9150 B( 12-C , 16-H ) :   0.9186 B( 17-C , 18-C ) :   1.0944
B( 17-C , 19-H ) :   0.8807 B( 18-C , 20-C ) :   1.4262 B( 18-C , 22-S ) :   1.1595
B( 20-C , 21-C ) :   1.3285 B( 20-C , 24-H ) :   0.8535 B( 21-C , 23-C ) :   1.4767
B( 21-C , 25-H ) :   0.9031 B( 22-S , 23-C ) :   1.2666 B( 23-C , 26-H ) :   0.8933
B( 30-O , 32-C ) :   1.4089 B( 31-O , 32-C ) :   1.4196 B( 32-C , 33-C ) :   0.9634
B( 33-C , 34-H ) :   0.8960 B( 33-C , 35-H ) :   0.8879 B( 33-C , 36-H ) :   0.9007

Dispersion correction           -0.029612177
FINAL SINGLE POINT ENERGY     -1288.428707489295
Dispersion correction            ... done

DIPOLE MOMENT
-------------
                                X             Y             Z
Electronic contribution:     24.68228     -59.27246     129.20677
Nuclear contribution   :    -24.74650      58.84659    -129.51954
                        -----------------------------------------
Total Dipole Moment    :     -0.06422      -0.42587      -0.31277
                        -----------------------------------------
Magnitude (a.u.)       :      0.53227
Magnitude (Debye)      :      1.35293

Rotational constants in cm-1:     0.011609     0.007674     0.006841
Rotational constants in MHz :   348.021569   230.072146   205.084505

                             ****ORCA TERMINATED NORMALLY****
TOTAL RUN TIME: 0 days 0 hours 17 minutes 31 seconds 760 msec
