                         Program Version 5.0.3 -  RELEASE  -
|  1> ! EnGrad PBEh-3c
|  2> %output
|  3> xyzfile=True
|  4> end
|  5> %scf
|  6> maxiter 250
|  7> end
|  8> %output
|  9> Print[P_Hirshfeld] = 1
| 10> end
| 11> % maxcore
| 12> 4000
| 13> *xyz 1 1
| 14> Ir   0.45091310  -0.65279837   1.08290743
| 15> C    0.02744118  -2.57457301   2.00406546
| 16> C    1.25193326  -2.05815269   2.54066388
| 17> C    1.51356403  -2.36196620   0.26861760
| 18> C    0.20513313  -2.79825839   0.62838219
| 19> C    2.15295674  -1.92807930   1.45921113
| 20> N   -0.87899955   0.07450741  -0.38029065
| 21> C   -2.32024644   0.21119134  -0.00045260
| 22> C   -2.78250470   1.66148827  -0.03422009
| 23> H   -3.80546800   1.72011706   0.33312647
| 24> H   -2.77615324   2.06916387  -1.04907046
| 25> H   -2.16714523   2.29957479   0.60293372
| 26> C   -3.22339959  -0.68222471  -0.84230281
| 27> H   -2.39114665  -0.13288224   1.03538980
| 28> H   -4.22628313  -0.68024682  -0.41916620
| 29> H   -3.32069769  -0.33682856  -1.87389746
| 30> H   -2.87393320  -1.71827826  -0.85939350
| 31> C   -0.56558642   0.29725802  -1.60272390
| 32> C    0.73744233   0.21621336  -2.22182705
| 33> H   -1.38920873   0.54577631  -2.28132105
| 34> C    2.00159880   0.38338887  -1.78117554
| 35> C    2.99352020   0.16381498  -2.73046469
| 36> S    0.76157027  -0.11073555  -3.92304004
| 37> C    2.45457137  -0.09807014  -3.96277322
| 38> H    2.26116443   0.78329776  -0.76573046
| 39> H    4.04674649   0.23261241  -2.54579889
| 40> H    2.99543234  -0.27561641  -4.87850399
| 41> H   -0.84483656  -2.85481384   2.58387131
| 42> H    1.45107732  -1.85105939   3.58212544
| 43> H    3.15727493  -1.53087385   1.52117101
| 44> O    1.36609175   1.30313750   1.05685274
| 45> O   -0.32479777   0.91301682   2.27753169
| 46> C    0.51436986   1.75657410   1.89578763
| 47> C    0.51699548   3.15888950   2.39866342
| 48> H    0.73166442   3.87130880   1.60774106
| 49> H    1.29134856   3.29101695   3.15894966
| 50> H   -0.44298720   3.41262254   2.86332766
| 51> H    1.96819565  -2.46662780  -0.71058053
| 52> H   -0.52073685  -3.25027549  -0.03818870
| 53> *
| 54>
| 55>                          ****END OF INPUT****

CARTESIAN COORDINATES (ANGSTROEM)
---------------------------------
  Ir     0.450913   -0.652798    1.082907
  C      0.027441   -2.574573    2.004065
  C      1.251933   -2.058153    2.540664
  C      1.513564   -2.361966    0.268618
  C      0.205133   -2.798258    0.628382
  C      2.152957   -1.928079    1.459211
  N     -0.879000    0.074507   -0.380291
  C     -2.320246    0.211191   -0.000453
  C     -2.782505    1.661488   -0.034220
  H     -3.805468    1.720117    0.333126
  H     -2.776153    2.069164   -1.049070
  H     -2.167145    2.299575    0.602934
  C     -3.223400   -0.682225   -0.842303
  H     -2.391147   -0.132882    1.035390
  H     -4.226283   -0.680247   -0.419166
  H     -3.320698   -0.336829   -1.873897
  H     -2.873933   -1.718278   -0.859393
  C     -0.565586    0.297258   -1.602724
  C      0.737442    0.216213   -2.221827
  H     -1.389209    0.545776   -2.281321
  C      2.001599    0.383389   -1.781176
  C      2.993520    0.163815   -2.730465
  S      0.761570   -0.110736   -3.923040
  C      2.454571   -0.098070   -3.962773
  H      2.261164    0.783298   -0.765730
  H      4.046746    0.232612   -2.545799
  H      2.995432   -0.275616   -4.878504
  H     -0.844837   -2.854814    2.583871
  H      1.451077   -1.851059    3.582125
  H      3.157275   -1.530874    1.521171
  O      1.366092    1.303138    1.056853
  O     -0.324798    0.913017    2.277532
  C      0.514370    1.756574    1.895788
  C      0.516995    3.158889    2.398663
  H      0.731664    3.871309    1.607741
  H      1.291349    3.291017    3.158950
  H     -0.442987    3.412623    2.863328
  H      1.968196   -2.466628   -0.710581
  H     -0.520737   -3.250275   -0.038189

 Total Charge           Charge          ....    1
 Multiplicity           Mult            ....    1
 Number of Electrons    NEL             ....  164
 Basis Dimension        Dim             ....  358

ORBITAL ENERGIES
----------------

  NO   OCC          E(Eh)            E(eV)
   0   2.0000     -89.742090     -2442.0064
   1   2.0000     -19.640961      -534.4577
   2   2.0000     -19.636730      -534.3426
   3   2.0000     -14.826566      -403.4514
   4   2.0000     -10.705781      -291.3191
   5   2.0000     -10.654699      -289.9291
   6   2.0000     -10.632429      -289.3231
   7   2.0000     -10.630210      -289.2627
   8   2.0000     -10.626838      -289.1710
   9   2.0000     -10.621528      -289.0265
  10   2.0000     -10.619181      -288.9626
  11   2.0000     -10.609901      -288.7101
  12   2.0000     -10.606170      -288.6086
  13   2.0000     -10.598783      -288.4076
  14   2.0000     -10.577004      -287.8149
  15   2.0000     -10.566285      -287.5232
  16   2.0000     -10.559229      -287.3312
  17   2.0000     -10.550126      -287.0835
  18   2.0000     -10.544942      -286.9425
  19   2.0000      -8.381904      -228.0832
  20   2.0000      -6.271968      -170.6689
  21   2.0000      -6.268482      -170.5741
  22   2.0000      -6.266500      -170.5201
  23   2.0000      -4.028631      -109.6246
  24   2.0000      -2.348124       -63.8957
  25   2.0000      -2.312856       -62.9360
  26   2.0000      -2.310173       -62.8630
  27   2.0000      -1.349137       -36.7119
  28   2.0000      -1.221044       -33.2263
  29   2.0000      -1.192270       -32.4433
  30   2.0000      -1.170902       -31.8619
  31   2.0000      -1.118020       -30.4229
  32   2.0000      -1.009722       -27.4759
  33   2.0000      -0.980679       -26.6856
  34   2.0000      -0.973421       -26.4881
  35   2.0000      -0.958450       -26.0808
  36   2.0000      -0.955895       -26.0112
  37   2.0000      -0.949507       -25.8374
  38   2.0000      -0.892386       -24.2831
  39   2.0000      -0.863434       -23.4952
  40   2.0000      -0.790059       -21.4986
  41   2.0000      -0.781992       -21.2791
  42   2.0000      -0.781345       -21.2615
  43   2.0000      -0.768758       -20.9190
  44   2.0000      -0.767684       -20.8897
  45   2.0000      -0.752454       -20.4753
  46   2.0000      -0.731666       -19.9096
  47   2.0000      -0.713234       -19.4081
  48   2.0000      -0.688752       -18.7419
  49   2.0000      -0.682873       -18.5819
  50   2.0000      -0.682309       -18.5666
  51   2.0000      -0.664745       -18.0886
  52   2.0000      -0.647880       -17.6297
  53   2.0000      -0.637536       -17.3482
  54   2.0000      -0.633153       -17.2290
  55   2.0000      -0.630278       -17.1507
  56   2.0000      -0.620415       -16.8824
  57   2.0000      -0.608271       -16.5519
  58   2.0000      -0.603385       -16.4189
  59   2.0000      -0.601908       -16.3787
  60   2.0000      -0.589459       -16.0400
  61   2.0000      -0.582413       -15.8483
  62   2.0000      -0.575390       -15.6572
  63   2.0000      -0.568930       -15.4814
  64   2.0000      -0.566960       -15.4278
  65   2.0000      -0.561292       -15.2735
  66   2.0000      -0.559872       -15.2349
  67   2.0000      -0.541812       -14.7435
  68   2.0000      -0.535725       -14.5778
  69   2.0000      -0.532259       -14.4835
  70   2.0000      -0.527422       -14.3519
  71   2.0000      -0.517621       -14.0852
  72   2.0000      -0.511447       -13.9172
  73   2.0000      -0.505684       -13.7604
  74   2.0000      -0.502630       -13.6773
  75   2.0000      -0.480354       -13.0711
  76   2.0000      -0.473881       -12.8950
  77   2.0000      -0.462652       -12.5894
  78   2.0000      -0.437925       -11.9165
  79   2.0000      -0.428099       -11.6492
  80   2.0000      -0.415425       -11.3043
  81   2.0000      -0.397028       -10.8037
  82   0.0000      -0.171657        -4.6710
  83   0.0000      -0.169145        -4.6027
  84   0.0000      -0.145873        -3.9694
  85   0.0000      -0.086831        -2.3628
  86   0.0000      -0.082182        -2.2363

MULLIKEN ATOMIC CHARGES
-----------------------
   0 Ir:    0.590615
   1 C :   -0.266697
   2 C :   -0.234380
   3 C :   -0.280885
   4 C :   -0.166850
   5 C :   -0.195335
   6 N :   -0.454149
   7 C :   -0.155875
   8 C :   -0.626086
   9 H :    0.255093
  10 H :    0.220410
  11 H :    0.247100
  12 C :   -0.645408
  13 H :    0.274970
  14 H :    0.262971
  15 H :    0.224738
  16 H :    0.236057
  17 C :    0.062790
  18 C :   -0.213687
  19 H :    0.267502
  20 C :   -0.231554
  21 C :   -0.141166
  22 S :    0.291182
  23 C :   -0.426788
  24 H :    0.317966
  25 H :    0.266475
  26 H :    0.294055
  27 H :    0.292331
  28 H :    0.294316
  29 H :    0.298008
  30 O :   -0.506427
  31 O :   -0.467424
  32 C :    0.678343
  33 C :   -0.780164
  34 H :    0.279400
  35 H :    0.285644
  36 H :    0.274862
  37 H :    0.292644
  38 H :    0.285404
Sum of atomic charges:    1.0000000

LOEWDIN ATOMIC CHARGES
----------------------
   0 Ir:   -0.182281
   1 C :   -0.055739
   2 C :   -0.066956
   3 C :   -0.085419
   4 C :   -0.030020
   5 C :   -0.024486
   6 N :   -0.038075
   7 C :   -0.066772
   8 C :   -0.348745
   9 H :    0.150360
  10 H :    0.132608
  11 H :    0.139896
  12 C :   -0.354529
  13 H :    0.152912
  14 H :    0.153232
  15 H :    0.132577
  16 H :    0.135098
  17 C :    0.038023
  18 C :   -0.234013
  19 H :    0.152253
  20 C :   -0.124544
  21 C :   -0.171099
  22 S :    0.448873
  23 C :   -0.253346
  24 H :    0.186155
  25 H :    0.158359
  26 H :    0.166856
  27 H :    0.186200
  28 H :    0.188045
  29 H :    0.188928
  30 O :   -0.207217
  31 O :   -0.161171
  32 C :    0.186007
  33 C :   -0.375320
  34 H :    0.169395
  35 H :    0.178079
  36 H :    0.166565
  37 H :    0.186033
  38 H :    0.183278

  Mayer bond orders larger than 0.100000
B(  0-Ir,  1-C ) :   0.4812 B(  0-Ir,  2-C ) :   0.4428 B(  0-Ir,  3-C ) :   0.5011
B(  0-Ir,  4-C ) :   0.4160 B(  0-Ir,  5-C ) :   0.4347 B(  0-Ir,  6-N ) :   0.4790
B(  0-Ir, 30-O ) :   0.5121 B(  0-Ir, 31-O ) :   0.5088 B(  1-C ,  2-C ) :   1.1313
B(  1-C ,  4-C ) :   1.1988 B(  1-C , 27-H ) :   0.9091 B(  2-C ,  5-C ) :   1.2173
B(  2-C , 28-H ) :   0.9078 B(  3-C ,  4-C ) :   1.1443 B(  3-C ,  5-C ) :   1.1492
B(  3-C , 37-H ) :   0.9067 B(  4-C , 38-H ) :   0.9100 B(  5-C , 29-H ) :   0.9014
B(  6-N ,  7-C ) :   0.8754 B(  6-N , 17-C ) :   1.6655 B(  7-C ,  8-C ) :   0.9806
B(  7-C , 12-C ) :   0.9791 B(  7-C , 13-H ) :   0.8863 B(  8-C ,  9-H ) :   0.9072
B(  8-C , 10-H ) :   0.9166 B(  8-C , 11-H ) :   0.9132 B( 12-C , 14-H ) :   0.9059
B( 12-C , 15-H ) :   0.9149 B( 12-C , 16-H ) :   0.9188 B( 17-C , 18-C ) :   1.0899
B( 17-C , 19-H ) :   0.8802 B( 18-C , 20-C ) :   1.4281 B( 18-C , 22-S ) :   1.1568
B( 20-C , 21-C ) :   1.3295 B( 20-C , 24-H ) :   0.8521 B( 21-C , 23-C ) :   1.4724
B( 21-C , 25-H ) :   0.9030 B( 22-S , 23-C ) :   1.2715 B( 23-C , 26-H ) :   0.8936
B( 30-O , 32-C ) :   1.3871 B( 31-O , 32-C ) :   1.4425 B( 32-C , 33-C ) :   0.9637
B( 33-C , 34-H ) :   0.8954 B( 33-C , 35-H ) :   0.8876 B( 33-C , 36-H ) :   0.9010

Dispersion correction           -0.029597423
FINAL SINGLE POINT ENERGY     -1288.426130365804
Dispersion correction            ... done

DIPOLE MOMENT
-------------
                                X             Y             Z
Electronic contribution:     24.87368     -60.21648     129.15380
Nuclear contribution   :    -24.96456      59.77762    -129.41655
                        -----------------------------------------
Total Dipole Moment    :     -0.09088      -0.43886      -0.26275
                        -----------------------------------------
Magnitude (a.u.)       :      0.51951
Magnitude (Debye)      :      1.32049

Rotational constants in cm-1:     0.011601     0.007682     0.006843
Rotational constants in MHz :   347.798734   230.307562   205.159199

                             ****ORCA TERMINATED NORMALLY****
TOTAL RUN TIME: 0 days 0 hours 17 minutes 44 seconds 24 msec
