                         Program Version 5.0.3 -  RELEASE  -
|  1> ! EnGrad PBEh-3c
|  2> %output
|  3> xyzfile=True
|  4> end
|  5> %scf
|  6> maxiter 250
|  7> end
|  8> %output
|  9> Print[P_Hirshfeld] = 1
| 10> end
| 11> % maxcore
| 12> 4000
| 13> *xyz 1 1
| 14> Ir   0.45344942  -0.65211914   1.08295753
| 15> C    0.02134722  -2.57735132   1.99503847
| 16> C    1.24084649  -2.05823997   2.54541717
| 17> C    1.52771601  -2.36211049   0.27390244
| 18> C    0.21833805  -2.80009121   0.61909316
| 19> C    2.15470015  -1.92567192   1.47771199
| 20> N   -0.87936283   0.07446643  -0.37993759
| 21> C   -2.32234357   0.20662882   0.00191074
| 22> C   -2.78364872   1.65875108  -0.02315035
| 23> H   -3.80879636   1.71186015   0.34302439
| 24> H   -2.78080436   2.07101939  -1.03574813
| 25> H   -2.16996819   2.29095797   0.62047347
| 26> C   -3.22658036  -0.68189507  -0.84720776
| 27> H   -2.39247453  -0.14533660   1.03372359
| 28> H   -4.22951520  -0.68079092  -0.42123169
| 29> H   -3.32749549  -0.32691039  -1.87485825
| 30> H   -2.87893910  -1.71718947  -0.87205302
| 31> C   -0.57032123   0.30102419  -1.60341140
| 32> C    0.73240070   0.22183558  -2.22513685
| 33> H   -1.39028506   0.54468783  -2.28170223
| 34> C    2.00505015   0.39299626  -1.77334356
| 35> C    2.99124929   0.16110735  -2.73099936
| 36> S    0.75909478  -0.10990652  -3.92208064
| 37> C    2.45299993  -0.10005804  -3.96348764
| 38> H    2.25043128   0.77104775  -0.76960226
| 39> H    4.04597800   0.23040345  -2.54117753
| 40> H    2.99332059  -0.27249563  -4.87725089
| 41> H   -0.85571818  -2.85985454   2.56315177
| 42> H    1.42588704  -1.84722837   3.58791088
| 43> H    3.15575751  -1.52651055   1.55016408
| 44> O    1.36570776   1.29135266   1.04697113
| 45> O   -0.32419088   0.91930560   2.27628165
| 46> C    0.52195233   1.75763772   1.88475822
| 47> C    0.52463397   3.16211119   2.39015799
| 48> H    0.73425002   3.87580744   1.59886653
| 49> H    1.30171328   3.29523766   3.14653320
| 50> H   -0.43133071   3.41577733   2.85893555
| 51> H    1.99363625  -2.46026071  -0.69883660
| 52> H   -0.50261358  -3.24671503  -0.05535462
| 53> *
| 54>
| 55>                          ****END OF INPUT****

CARTESIAN COORDINATES (ANGSTROEM)
---------------------------------
  Ir     0.453449   -0.652119    1.082958
  C      0.021347   -2.577351    1.995038
  C      1.240846   -2.058240    2.545417
  C      1.527716   -2.362110    0.273902
  C      0.218338   -2.800091    0.619093
  C      2.154700   -1.925672    1.477712
  N     -0.879363    0.074466   -0.379938
  C     -2.322344    0.206629    0.001911
  C     -2.783649    1.658751   -0.023150
  H     -3.808796    1.711860    0.343024
  H     -2.780804    2.071019   -1.035748
  H     -2.169968    2.290958    0.620473
  C     -3.226580   -0.681895   -0.847208
  H     -2.392475   -0.145337    1.033724
  H     -4.229515   -0.680791   -0.421232
  H     -3.327495   -0.326910   -1.874858
  H     -2.878939   -1.717189   -0.872053
  C     -0.570321    0.301024   -1.603411
  C      0.732401    0.221836   -2.225137
  H     -1.390285    0.544688   -2.281702
  C      2.005050    0.392996   -1.773344
  C      2.991249    0.161107   -2.730999
  S      0.759095   -0.109907   -3.922081
  C      2.453000   -0.100058   -3.963488
  H      2.250431    0.771048   -0.769602
  H      4.045978    0.230403   -2.541178
  H      2.993321   -0.272496   -4.877251
  H     -0.855718   -2.859855    2.563152
  H      1.425887   -1.847228    3.587911
  H      3.155758   -1.526511    1.550164
  O      1.365708    1.291353    1.046971
  O     -0.324191    0.919306    2.276282
  C      0.521952    1.757638    1.884758
  C      0.524634    3.162111    2.390158
  H      0.734250    3.875807    1.598867
  H      1.301713    3.295238    3.146533
  H     -0.431331    3.415777    2.858936
  H      1.993636   -2.460261   -0.698837
  H     -0.502614   -3.246715   -0.055355

 Total Charge           Charge          ....    1
 Multiplicity           Mult            ....    1
 Number of Electrons    NEL             ....  164
 Basis Dimension        Dim             ....  358

ORBITAL ENERGIES
----------------

  NO   OCC          E(Eh)            E(eV)
   0   2.0000     -89.742573     -2442.0196
   1   2.0000     -19.640779      -534.4528
   2   2.0000     -19.638633      -534.3944
   3   2.0000     -14.826319      -403.4446
   4   2.0000     -10.706966      -291.3514
   5   2.0000     -10.654134      -289.9137
   6   2.0000     -10.632552      -289.3264
   7   2.0000     -10.630149      -289.2611
   8   2.0000     -10.626433      -289.1599
   9   2.0000     -10.621660      -289.0301
  10   2.0000     -10.619637      -288.9750
  11   2.0000     -10.609843      -288.7085
  12   2.0000     -10.606767      -288.6248
  13   2.0000     -10.598606      -288.4027
  14   2.0000     -10.576655      -287.8054
  15   2.0000     -10.566880      -287.5394
  16   2.0000     -10.559789      -287.3465
  17   2.0000     -10.550088      -287.0825
  18   2.0000     -10.544853      -286.9400
  19   2.0000      -8.382350      -228.0953
  20   2.0000      -6.272404      -170.6808
  21   2.0000      -6.268918      -170.5859
  22   2.0000      -6.266983      -170.5333
  23   2.0000      -4.028458      -109.6199
  24   2.0000      -2.347901       -63.8896
  25   2.0000      -2.312744       -62.9330
  26   2.0000      -2.309953       -62.8570
  27   2.0000      -1.348933       -36.7063
  28   2.0000      -1.221626       -33.2421
  29   2.0000      -1.191438       -32.4207
  30   2.0000      -1.169846       -31.8331
  31   2.0000      -1.116599       -30.3842
  32   2.0000      -1.009060       -27.4579
  33   2.0000      -0.980371       -26.6773
  34   2.0000      -0.972891       -26.4737
  35   2.0000      -0.958227       -26.0747
  36   2.0000      -0.955910       -26.0116
  37   2.0000      -0.949057       -25.8252
  38   2.0000      -0.892056       -24.2741
  39   2.0000      -0.862991       -23.4832
  40   2.0000      -0.790012       -21.4973
  41   2.0000      -0.782086       -21.2816
  42   2.0000      -0.781327       -21.2610
  43   2.0000      -0.768604       -20.9148
  44   2.0000      -0.767407       -20.8822
  45   2.0000      -0.753286       -20.4979
  46   2.0000      -0.732230       -19.9250
  47   2.0000      -0.713868       -19.4253
  48   2.0000      -0.689419       -18.7600
  49   2.0000      -0.682968       -18.5845
  50   2.0000      -0.682472       -18.5710
  51   2.0000      -0.664658       -18.0863
  52   2.0000      -0.647423       -17.6173
  53   2.0000      -0.637348       -17.3431
  54   2.0000      -0.632879       -17.2215
  55   2.0000      -0.629828       -17.1385
  56   2.0000      -0.619742       -16.8640
  57   2.0000      -0.607464       -16.5299
  58   2.0000      -0.603133       -16.4121
  59   2.0000      -0.602013       -16.3816
  60   2.0000      -0.589518       -16.0416
  61   2.0000      -0.582282       -15.8447
  62   2.0000      -0.575879       -15.6705
  63   2.0000      -0.569601       -15.4996
  64   2.0000      -0.567447       -15.4410
  65   2.0000      -0.562253       -15.2997
  66   2.0000      -0.559828       -15.2337
  67   2.0000      -0.541905       -14.7460
  68   2.0000      -0.535593       -14.5742
  69   2.0000      -0.532574       -14.4921
  70   2.0000      -0.527201       -14.3459
  71   2.0000      -0.518129       -14.0990
  72   2.0000      -0.511599       -13.9213
  73   2.0000      -0.505935       -13.7672
  74   2.0000      -0.503411       -13.6985
  75   2.0000      -0.480739       -13.0816
  76   2.0000      -0.473762       -12.8917
  77   2.0000      -0.462510       -12.5855
  78   2.0000      -0.437684       -11.9100
  79   2.0000      -0.427960       -11.6454
  80   2.0000      -0.415282       -11.3004
  81   2.0000      -0.396287       -10.7835
  82   0.0000      -0.171282        -4.6608
  83   0.0000      -0.168951        -4.5974
  84   0.0000      -0.146316        -3.9815
  85   0.0000      -0.087658        -2.3853
  86   0.0000      -0.082065        -2.2331

MULLIKEN ATOMIC CHARGES
-----------------------
   0 Ir:    0.590018
   1 C :   -0.268882
   2 C :   -0.232934
   3 C :   -0.280699
   4 C :   -0.164361
   5 C :   -0.197061
   6 N :   -0.454205
   7 C :   -0.155199
   8 C :   -0.625965
   9 H :    0.254405
  10 H :    0.220599
  11 H :    0.247460
  12 C :   -0.646272
  13 H :    0.274865
  14 H :    0.262586
  15 H :    0.224952
  16 H :    0.236577
  17 C :    0.064223
  18 C :   -0.222554
  19 H :    0.267589
  20 C :   -0.225696
  21 C :   -0.144742
  22 S :    0.293699
  23 C :   -0.425286
  24 H :    0.319396
  25 H :    0.265742
  26 H :    0.294098
  27 H :    0.291911
  28 H :    0.294696
  29 H :    0.297901
  30 O :   -0.506761
  31 O :   -0.468768
  32 C :    0.679175
  33 C :   -0.780079
  34 H :    0.279006
  35 H :    0.285752
  36 H :    0.276444
  37 H :    0.292841
  38 H :    0.285531
Sum of atomic charges:    1.0000000

LOEWDIN ATOMIC CHARGES
----------------------
   0 Ir:   -0.182848
   1 C :   -0.057750
   2 C :   -0.065738
   3 C :   -0.084648
   4 C :   -0.029116
   5 C :   -0.025679
   6 N :   -0.038740
   7 C :   -0.066045
   8 C :   -0.348781
   9 H :    0.150131
  10 H :    0.132673
  11 H :    0.140069
  12 C :   -0.354954
  13 H :    0.152759
  14 H :    0.153207
  15 H :    0.132596
  16 H :    0.135259
  17 C :    0.037213
  18 C :   -0.234726
  19 H :    0.152034
  20 C :   -0.123409
  21 C :   -0.170384
  22 S :    0.451159
  23 C :   -0.254425
  24 H :    0.183655
  25 H :    0.158103
  26 H :    0.166885
  27 H :    0.185892
  28 H :    0.188042
  29 H :    0.188631
  30 O :   -0.203391
  31 O :   -0.164567
  32 C :    0.189143
  33 C :   -0.375440
  34 H :    0.169092
  35 H :    0.177915
  36 H :    0.167072
  37 H :    0.185949
  38 H :    0.183162

  Mayer bond orders larger than 0.100000
B(  0-Ir,  1-C ) :   0.4830 B(  0-Ir,  2-C ) :   0.4423 B(  0-Ir,  3-C ) :   0.5004
B(  0-Ir,  4-C ) :   0.4129 B(  0-Ir,  5-C ) :   0.4347 B(  0-Ir,  6-N ) :   0.4789
B(  0-Ir, 30-O ) :   0.5123 B(  0-Ir, 31-O ) :   0.5099 B(  1-C ,  2-C ) :   1.1299
B(  1-C ,  4-C ) :   1.1985 B(  1-C , 27-H ) :   0.9095 B(  2-C ,  5-C ) :   1.2193
B(  2-C , 28-H ) :   0.9074 B(  3-C ,  4-C ) :   1.1472 B(  3-C ,  5-C ) :   1.1474
B(  3-C , 37-H ) :   0.9065 B(  4-C , 38-H ) :   0.9097 B(  5-C , 29-H ) :   0.9015
B(  6-N ,  7-C ) :   0.8749 B(  6-N , 17-C ) :   1.6652 B(  7-C ,  8-C ) :   0.9805
B(  7-C , 12-C ) :   0.9793 B(  7-C , 13-H ) :   0.8866 B(  8-C ,  9-H ) :   0.9074
B(  8-C , 10-H ) :   0.9166 B(  8-C , 11-H ) :   0.9130 B( 12-C , 14-H ) :   0.9061
B( 12-C , 15-H ) :   0.9149 B( 12-C , 16-H ) :   0.9187 B( 17-C , 18-C ) :   1.0917
B( 17-C , 19-H ) :   0.8802 B( 18-C , 20-C ) :   1.4247 B( 18-C , 22-S ) :   1.1608
B( 20-C , 21-C ) :   1.3320 B( 20-C , 24-H ) :   0.8520 B( 21-C , 23-C ) :   1.4714
B( 21-C , 25-H ) :   0.9034 B( 22-S , 23-C ) :   1.2702 B( 23-C , 26-H ) :   0.8941
B( 30-O , 32-C ) :   1.3868 B( 31-O , 32-C ) :   1.4388 B( 32-C , 33-C ) :   0.9637
B( 33-C , 34-H ) :   0.8954 B( 33-C , 35-H ) :   0.8876 B( 33-C , 36-H ) :   0.9004

Dispersion correction           -0.029604087
FINAL SINGLE POINT ENERGY     -1288.428165633231
Dispersion correction            ... done

DIPOLE MOMENT
-------------
                                X             Y             Z
Electronic contribution:     25.12231     -60.14482     129.18100
Nuclear contribution   :    -25.20764      59.72071    -129.44559
                        -----------------------------------------
Total Dipole Moment    :     -0.08533      -0.42411      -0.26459
                        -----------------------------------------
Magnitude (a.u.)       :      0.50711
Magnitude (Debye)      :      1.28897

Rotational constants in cm-1:     0.011591     0.007686     0.006845
Rotational constants in MHz :   347.492302   230.421424   205.221183

                             ****ORCA TERMINATED NORMALLY****
TOTAL RUN TIME: 0 days 0 hours 18 minutes 23 seconds 198 msec
