                         Program Version 5.0.3 -  RELEASE  -
|  1> ! EnGrad PBEh-3c
|  2> %output
|  3> xyzfile=True
|  4> end
|  5> %scf
|  6> maxiter 250
|  7> end
|  8> %output
|  9> Print[P_Hirshfeld] = 1
| 10> end
| 11> % maxcore
| 12> 4000
| 13> *xyz 1 1
| 14> Ir   0.45626305  -0.65716999   1.08007534
| 15> C    0.00615742  -2.58429965   1.97510210
| 16> C    1.21446004  -2.05761560   2.55635789
| 17> C    1.56244973  -2.35909730   0.28678437
| 18> C    0.24742247  -2.80334604   0.59745454
| 19> C    2.15906537  -1.91963317   1.52065322
| 20> N   -0.88074087   0.07475772  -0.37782137
| 21> C   -2.32575375   0.19559552   0.00678201
| 22> C   -2.78700741   1.65011893   0.00334567
| 23> H   -3.81592440   1.69286433   0.36665723
| 24> H   -2.79053165   2.07562747  -1.00296058
| 25> H   -2.17725543   2.27010927   0.66055443
| 26> C   -3.23386323  -0.67974751  -0.85799807
| 27> H   -2.39523643  -0.17425694   1.02878153
| 28> H   -4.23655533  -0.68236544  -0.42618301
| 29> H   -3.34304140  -0.30392273  -1.87694219
| 30> H   -2.89078241  -1.71383350  -0.90206226
| 31> C   -0.57645060   0.30826010  -1.60290658
| 32> C    0.71501296   0.23654240  -2.23472559
| 33> H   -1.39363838   0.54262249  -2.28348961
| 34> C    2.00992058   0.41197181  -1.74722992
| 35> C    2.98658075   0.15791429  -2.73856169
| 36> S    0.75339880  -0.10835201  -3.92200070
| 37> C    2.44961489  -0.10467526  -3.95980433
| 38> H    2.22712942   0.74265443  -0.77990548
| 39> H    4.04540083   0.22497603  -2.53094171
| 40> H    2.98882877  -0.26657612  -4.87696617
| 41> H   -0.88101998  -2.87042448   2.51285357
| 42> H    1.36602303  -1.83808711   3.60158565
| 43> H    3.15247950  -1.51634870   1.61913381
| 44> O    1.36093233   1.27193372   1.03070884
| 45> O   -0.32364220   0.93099896   2.27346568
| 46> C    0.54234260   1.75725997   1.85630215
| 47> C    0.54276247   3.16925627   2.36908409
| 48> H    0.74096915   3.88659920   1.57650603
| 49> H    1.32662871   3.30405814   3.11671944
| 50> H   -0.40244408   3.42110015   2.84698907
| 51> H    2.05279743  -2.44391859  -0.66929462
| 52> H   -0.45845240  -3.23683890  -0.09576719
| 53> *
| 54>
| 55>                          ****END OF INPUT****

CARTESIAN COORDINATES (ANGSTROEM)
---------------------------------
  Ir     0.456263   -0.657170    1.080075
  C      0.006157   -2.584300    1.975102
  C      1.214460   -2.057616    2.556358
  C      1.562450   -2.359097    0.286784
  C      0.247422   -2.803346    0.597455
  C      2.159065   -1.919633    1.520653
  N     -0.880741    0.074758   -0.377821
  C     -2.325754    0.195596    0.006782
  C     -2.787007    1.650119    0.003346
  H     -3.815924    1.692864    0.366657
  H     -2.790532    2.075627   -1.002961
  H     -2.177255    2.270109    0.660554
  C     -3.233863   -0.679748   -0.857998
  H     -2.395236   -0.174257    1.028782
  H     -4.236555   -0.682365   -0.426183
  H     -3.343041   -0.303923   -1.876942
  H     -2.890782   -1.713833   -0.902062
  C     -0.576451    0.308260   -1.602907
  C      0.715013    0.236542   -2.234726
  H     -1.393638    0.542622   -2.283490
  C      2.009921    0.411972   -1.747230
  C      2.986581    0.157914   -2.738562
  S      0.753399   -0.108352   -3.922001
  C      2.449615   -0.104675   -3.959804
  H      2.227129    0.742654   -0.779905
  H      4.045401    0.224976   -2.530942
  H      2.988829   -0.266576   -4.876966
  H     -0.881020   -2.870424    2.512854
  H      1.366023   -1.838087    3.601586
  H      3.152480   -1.516349    1.619134
  O      1.360932    1.271934    1.030709
  O     -0.323642    0.930999    2.273466
  C      0.542343    1.757260    1.856302
  C      0.542762    3.169256    2.369084
  H      0.740969    3.886599    1.576506
  H      1.326629    3.304058    3.116719
  H     -0.402444    3.421100    2.846989
  H      2.052797   -2.443919   -0.669295
  H     -0.458452   -3.236839   -0.095767

 Total Charge           Charge          ....    1
 Multiplicity           Mult            ....    1
 Number of Electrons    NEL             ....  164
 Basis Dimension        Dim             ....  358

ORBITAL ENERGIES
----------------

  NO   OCC          E(Eh)            E(eV)
   0   2.0000     -89.744179     -2442.0633
   1   2.0000     -19.642643      -534.5035
   2   2.0000     -19.637311      -534.3584
   3   2.0000     -14.825988      -403.4356
   4   2.0000     -10.707377      -291.3625
   5   2.0000     -10.653033      -289.8838
   6   2.0000     -10.633418      -289.3500
   7   2.0000     -10.630956      -289.2830
   8   2.0000     -10.626543      -289.1629
   9   2.0000     -10.622871      -289.0630
  10   2.0000     -10.621214      -289.0179
  11   2.0000     -10.609429      -288.6972
  12   2.0000     -10.609179      -288.6904
  13   2.0000     -10.598667      -288.4044
  14   2.0000     -10.578188      -287.8471
  15   2.0000     -10.569452      -287.6094
  16   2.0000     -10.559553      -287.3400
  17   2.0000     -10.549838      -287.0757
  18   2.0000     -10.544041      -286.9179
  19   2.0000      -8.383895      -228.1374
  20   2.0000      -6.273957      -170.7230
  21   2.0000      -6.270448      -170.6276
  22   2.0000      -6.268555      -170.5761
  23   2.0000      -4.028653      -109.6252
  24   2.0000      -2.348028       -63.8931
  25   2.0000      -2.313066       -62.9417
  26   2.0000      -2.310075       -62.8603
  27   2.0000      -1.349946       -36.7339
  28   2.0000      -1.223058       -33.2811
  29   2.0000      -1.190057       -32.3831
  30   2.0000      -1.167403       -31.7666
  31   2.0000      -1.113658       -30.3042
  32   2.0000      -1.008328       -27.4380
  33   2.0000      -0.980687       -26.6859
  34   2.0000      -0.971970       -26.4486
  35   2.0000      -0.958850       -26.0916
  36   2.0000      -0.953869       -25.9561
  37   2.0000      -0.948086       -25.7987
  38   2.0000      -0.891071       -24.2473
  39   2.0000      -0.863031       -23.4843
  40   2.0000      -0.791314       -21.5328
  41   2.0000      -0.783046       -21.3078
  42   2.0000      -0.782183       -21.2843
  43   2.0000      -0.769000       -20.9256
  44   2.0000      -0.766512       -20.8578
  45   2.0000      -0.754414       -20.5287
  46   2.0000      -0.734673       -19.9915
  47   2.0000      -0.714267       -19.4362
  48   2.0000      -0.690213       -18.7817
  49   2.0000      -0.683633       -18.6026
  50   2.0000      -0.682251       -18.5650
  51   2.0000      -0.664463       -18.0810
  52   2.0000      -0.646484       -17.5917
  53   2.0000      -0.637548       -17.3486
  54   2.0000      -0.633143       -17.2287
  55   2.0000      -0.629054       -17.1174
  56   2.0000      -0.618565       -16.8320
  57   2.0000      -0.606299       -16.4982
  58   2.0000      -0.603209       -16.4142
  59   2.0000      -0.602460       -16.3938
  60   2.0000      -0.589507       -16.0413
  61   2.0000      -0.584712       -15.9108
  62   2.0000      -0.576407       -15.6848
  63   2.0000      -0.573022       -15.5927
  64   2.0000      -0.568848       -15.4791
  65   2.0000      -0.561114       -15.2687
  66   2.0000      -0.557604       -15.1732
  67   2.0000      -0.541380       -14.7317
  68   2.0000      -0.534892       -14.5552
  69   2.0000      -0.532141       -14.4803
  70   2.0000      -0.526569       -14.3287
  71   2.0000      -0.519694       -14.1416
  72   2.0000      -0.511296       -13.9131
  73   2.0000      -0.506921       -13.7940
  74   2.0000      -0.503475       -13.7002
  75   2.0000      -0.481515       -13.1027
  76   2.0000      -0.473474       -12.8839
  77   2.0000      -0.462663       -12.5897
  78   2.0000      -0.438469       -11.9314
  79   2.0000      -0.427844       -11.6422
  80   2.0000      -0.415168       -11.2973
  81   2.0000      -0.395769       -10.7694
  82   0.0000      -0.172852        -4.7035
  83   0.0000      -0.169199        -4.6041
  84   0.0000      -0.146597        -3.9891
  85   0.0000      -0.086965        -2.3664
  86   0.0000      -0.080423        -2.1884

MULLIKEN ATOMIC CHARGES
-----------------------
   0 Ir:    0.585440
   1 C :   -0.271100
   2 C :   -0.229720
   3 C :   -0.282424
   4 C :   -0.161024
   5 C :   -0.197394
   6 N :   -0.456384
   7 C :   -0.153067
   8 C :   -0.626481
   9 H :    0.253094
  10 H :    0.220750
  11 H :    0.249070
  12 C :   -0.648447
  13 H :    0.274881
  14 H :    0.262026
  15 H :    0.225446
  16 H :    0.237260
  17 C :    0.068320
  18 C :   -0.240603
  19 H :    0.266218
  20 C :   -0.211473
  21 C :   -0.148856
  22 S :    0.300259
  23 C :   -0.422834
  24 H :    0.320004
  25 H :    0.264152
  26 H :    0.294498
  27 H :    0.291471
  28 H :    0.295947
  29 H :    0.297728
  30 O :   -0.496961
  31 O :   -0.477081
  32 C :    0.676136
  33 C :   -0.778835
  34 H :    0.276602
  35 H :    0.284516
  36 H :    0.279606
  37 H :    0.293115
  38 H :    0.286147
Sum of atomic charges:    1.0000000

LOEWDIN ATOMIC CHARGES
----------------------
   0 Ir:   -0.183948
   1 C :   -0.059782
   2 C :   -0.062155
   3 C :   -0.082793
   4 C :   -0.027093
   5 C :   -0.026974
   6 N :   -0.040145
   7 C :   -0.064698
   8 C :   -0.349040
   9 H :    0.149623
  10 H :    0.132662
  11 H :    0.140741
  12 C :   -0.355886
  13 H :    0.152670
  14 H :    0.153222
  15 H :    0.132633
  16 H :    0.135362
  17 C :    0.035271
  18 C :   -0.236032
  19 H :    0.151482
  20 C :   -0.117441
  21 C :   -0.168409
  22 S :    0.455442
  23 C :   -0.256782
  24 H :    0.175818
  25 H :    0.157800
  26 H :    0.167920
  27 H :    0.185356
  28 H :    0.188380
  29 H :    0.188155
  30 O :   -0.185296
  31 O :   -0.179374
  32 C :    0.189081
  33 C :   -0.375951
  34 H :    0.167585
  35 H :    0.176661
  36 H :    0.167408
  37 H :    0.185554
  38 H :    0.182973

  Mayer bond orders larger than 0.100000
B(  0-Ir,  1-C ) :   0.4916 B(  0-Ir,  2-C ) :   0.4410 B(  0-Ir,  3-C ) :   0.5003
B(  0-Ir,  4-C ) :   0.4118 B(  0-Ir,  5-C ) :   0.4352 B(  0-Ir,  6-N ) :   0.4798
B(  0-Ir, 30-O ) :   0.5029 B(  0-Ir, 31-O ) :   0.5167 B(  1-C ,  2-C ) :   1.1264
B(  1-C ,  4-C ) :   1.1937 B(  1-C , 27-H ) :   0.9103 B(  2-C ,  5-C ) :   1.2229
B(  2-C , 28-H ) :   0.9065 B(  3-C ,  4-C ) :   1.1533 B(  3-C ,  5-C ) :   1.1416
B(  3-C , 37-H ) :   0.9064 B(  4-C , 38-H ) :   0.9090 B(  5-C , 29-H ) :   0.9016
B(  6-N ,  7-C ) :   0.8744 B(  6-N , 17-C ) :   1.6608 B(  7-C ,  8-C ) :   0.9802
B(  7-C , 12-C ) :   0.9795 B(  7-C , 13-H ) :   0.8869 B(  8-C ,  9-H ) :   0.9078
B(  8-C , 10-H ) :   0.9165 B(  8-C , 11-H ) :   0.9121 B( 12-C , 14-H ) :   0.9062
B( 12-C , 15-H ) :   0.9149 B( 12-C , 16-H ) :   0.9186 B( 17-C , 18-C ) :   1.0971
B( 17-C , 19-H ) :   0.8808 B( 18-C , 20-C ) :   1.4204 B( 18-C , 22-S ) :   1.1680
B( 20-C , 21-C ) :   1.3308 B( 20-C , 24-H ) :   0.8530 B( 21-C , 23-C ) :   1.4765
B( 21-C , 25-H ) :   0.9041 B( 22-S , 23-C ) :   1.2621 B( 23-C , 26-H ) :   0.8945
B( 30-O , 32-C ) :   1.4084 B( 31-O , 32-C ) :   1.4183 B( 32-C , 33-C ) :   0.9621
B( 33-C , 34-H ) :   0.8962 B( 33-C , 35-H ) :   0.8885 B( 33-C , 36-H ) :   0.8994

Dispersion correction           -0.029636056
FINAL SINGLE POINT ENERGY     -1288.427650924096
Dispersion correction            ... done

DIPOLE MOMENT
-------------
                                X             Y             Z
Electronic contribution:     25.45525     -60.67297     128.89830
Nuclear contribution   :    -25.49131      60.24529    -129.20292
                        -----------------------------------------
Total Dipole Moment    :     -0.03605      -0.42768      -0.30462
                        -----------------------------------------
Magnitude (a.u.)       :      0.52631
Magnitude (Debye)      :      1.33778

Rotational constants in cm-1:     0.011568     0.007695     0.006852
Rotational constants in MHz :   346.790855   230.698281   205.424036

                             ****ORCA TERMINATED NORMALLY****
TOTAL RUN TIME: 0 days 0 hours 18 minutes 24 seconds 445 msec
