                         Program Version 5.0.3 -  RELEASE  -
|  1> ! EnGrad PBEh-3c
|  2> %output
|  3> xyzfile=True
|  4> end
|  5> %scf
|  6> maxiter 250
|  7> end
|  8> %output
|  9> Print[P_Hirshfeld] = 1
| 10> end
| 11> % maxcore
| 12> 4000
| 13> *xyz 1 1
| 14> Ir   0.45416314  -0.65340036   1.08222642
| 15> C    0.01749410  -2.57911386   1.98998132
| 16> C    1.23415318  -2.05808159   2.54819244
| 17> C    1.53652673  -2.36134615   0.27717013
| 18> C    0.22571574  -2.80091685   0.61360421
| 19> C    2.15580746  -1.92414010   1.48860466
| 20> N   -0.87971239   0.07454032  -0.37940078
| 21> C   -2.32320861   0.20383006   0.00314641
| 22> C   -2.78450070   1.65656141  -0.01642924
| 23> H   -3.81060449   1.70704158   0.34901921
| 24> H   -2.78327183   2.07218830  -1.02743109
| 25> H   -2.17181670   2.28566939   0.63064059
| 26> C   -3.22842777  -0.68135031  -0.84994488
| 27> H   -2.39317513  -0.15267267   1.03246997
| 28> H   -4.23130103  -0.68119032  -0.42248767
| 29> H   -3.33143893  -0.32107923  -1.87538687
| 30> H   -2.88194333  -1.71633818  -0.87966530
| 31> C   -0.57187603   0.30285968  -1.60328335
| 32> C    0.72799004   0.22556618  -2.22756918
| 33> H   -1.39113568   0.54416393  -2.28215563
| 34> C    2.00628561   0.39780969  -1.76671945
| 35> C    2.99006505   0.16029738  -2.73291766
| 36> S    0.75764991  -0.10951219  -3.92206036
| 37> C    2.45214126  -0.10122927  -3.96255332
| 38> H    2.24452042   0.76384537  -0.77221583
| 39> H    4.04583159   0.22902671  -2.53858107
| 40> H    2.99218117  -0.27099406  -4.87717867
| 41> H   -0.86213635  -2.86253576   2.55039290
| 42> H    1.41070166  -1.84490955   3.59137969
| 43> H    3.15492600  -1.52393285   1.56765926
| 44> O    1.36449641   1.28642676   1.04284596
| 45> O   -0.32405170   0.92227179   2.27556734
| 46> C    0.52712462   1.75754190   1.87753992
| 47> C    0.52923253   3.16392364   2.38481229
| 48> H    0.73595443   3.87854493   1.59319446
| 49> H    1.30803345   3.29747510   3.13897050
| 50> H   -0.42400320   3.41712754   2.85590515
| 51> H    2.00864335  -2.45611530  -0.69134284
| 52> H   -0.49141145  -3.24420980  -0.06560586
| 53> *
| 54>
| 55>                          ****END OF INPUT****

CARTESIAN COORDINATES (ANGSTROEM)
---------------------------------
  Ir     0.454163   -0.653400    1.082226
  C      0.017494   -2.579114    1.989981
  C      1.234153   -2.058082    2.548192
  C      1.536527   -2.361346    0.277170
  C      0.225716   -2.800917    0.613604
  C      2.155807   -1.924140    1.488605
  N     -0.879712    0.074540   -0.379401
  C     -2.323209    0.203830    0.003146
  C     -2.784501    1.656561   -0.016429
  H     -3.810604    1.707042    0.349019
  H     -2.783272    2.072188   -1.027431
  H     -2.171817    2.285669    0.630641
  C     -3.228428   -0.681350   -0.849945
  H     -2.393175   -0.152673    1.032470
  H     -4.231301   -0.681190   -0.422488
  H     -3.331439   -0.321079   -1.875387
  H     -2.881943   -1.716338   -0.879665
  C     -0.571876    0.302860   -1.603283
  C      0.727990    0.225566   -2.227569
  H     -1.391136    0.544164   -2.282156
  C      2.006286    0.397810   -1.766719
  C      2.990065    0.160297   -2.732918
  S      0.757650   -0.109512   -3.922060
  C      2.452141   -0.101229   -3.962553
  H      2.244520    0.763845   -0.772216
  H      4.045832    0.229027   -2.538581
  H      2.992181   -0.270994   -4.877179
  H     -0.862136   -2.862536    2.550393
  H      1.410702   -1.844910    3.591380
  H      3.154926   -1.523933    1.567659
  O      1.364496    1.286427    1.042846
  O     -0.324052    0.922272    2.275567
  C      0.527125    1.757542    1.877540
  C      0.529233    3.163924    2.384812
  H      0.735954    3.878545    1.593194
  H      1.308033    3.297475    3.138971
  H     -0.424003    3.417128    2.855905
  H      2.008643   -2.456115   -0.691343
  H     -0.491411   -3.244210   -0.065606

 Total Charge           Charge          ....    1
 Multiplicity           Mult            ....    1
 Number of Electrons    NEL             ....  164
 Basis Dimension        Dim             ....  358

ORBITAL ENERGIES
----------------

  NO   OCC          E(Eh)            E(eV)
   0   2.0000     -89.742979     -2442.0306
   1   2.0000     -19.639895      -534.4287
   2   2.0000     -19.639649      -534.4220
   3   2.0000     -14.826227      -403.4421
   4   2.0000     -10.707057      -291.3538
   5   2.0000     -10.653847      -289.9059
   6   2.0000     -10.632751      -289.3319
   7   2.0000     -10.630330      -289.2660
   8   2.0000     -10.626441      -289.1601
   9   2.0000     -10.621942      -289.0377
  10   2.0000     -10.620007      -288.9851
  11   2.0000     -10.609726      -288.7053
  12   2.0000     -10.607370      -288.6412
  13   2.0000     -10.598617      -288.4030
  14   2.0000     -10.577025      -287.8155
  15   2.0000     -10.567502      -287.5564
  16   2.0000     -10.559711      -287.3443
  17   2.0000     -10.550012      -287.0804
  18   2.0000     -10.544638      -286.9342
  19   2.0000      -8.382739      -228.1059
  20   2.0000      -6.272795      -170.6914
  21   2.0000      -6.269303      -170.5964
  22   2.0000      -6.267379      -170.5441
  23   2.0000      -4.028512      -109.6214
  24   2.0000      -2.347940       -63.8907
  25   2.0000      -2.312828       -62.9353
  26   2.0000      -2.309988       -62.8580
  27   2.0000      -1.349020       -36.7087
  28   2.0000      -1.222187       -33.2574
  29   2.0000      -1.191089       -32.4112
  30   2.0000      -1.169294       -31.8181
  31   2.0000      -1.115814       -30.3628
  32   2.0000      -1.008873       -27.4528
  33   2.0000      -0.980454       -26.6795
  34   2.0000      -0.972722       -26.4691
  35   2.0000      -0.958354       -26.0781
  36   2.0000      -0.955396       -25.9977
  37   2.0000      -0.948787       -25.8178
  38   2.0000      -0.891812       -24.2674
  39   2.0000      -0.862960       -23.4823
  40   2.0000      -0.790297       -21.5051
  41   2.0000      -0.782340       -21.2886
  42   2.0000      -0.781579       -21.2679
  43   2.0000      -0.768730       -20.9182
  44   2.0000      -0.767132       -20.8747
  45   2.0000      -0.753501       -20.5038
  46   2.0000      -0.732682       -19.9373
  47   2.0000      -0.714151       -19.4330
  48   2.0000      -0.689667       -18.7668
  49   2.0000      -0.683082       -18.5876
  50   2.0000      -0.682453       -18.5705
  51   2.0000      -0.664561       -18.0836
  52   2.0000      -0.647153       -17.6099
  53   2.0000      -0.637406       -17.3447
  54   2.0000      -0.632938       -17.2231
  55   2.0000      -0.629677       -17.1344
  56   2.0000      -0.619436       -16.8557
  57   2.0000      -0.607098       -16.5200
  58   2.0000      -0.603193       -16.4137
  59   2.0000      -0.602179       -16.3861
  60   2.0000      -0.589504       -16.0412
  61   2.0000      -0.582395       -15.8478
  62   2.0000      -0.576034       -15.6747
  63   2.0000      -0.570018       -15.5110
  64   2.0000      -0.567989       -15.4558
  65   2.0000      -0.562585       -15.3087
  66   2.0000      -0.559381       -15.2215
  67   2.0000      -0.541836       -14.7441
  68   2.0000      -0.535421       -14.5695
  69   2.0000      -0.532498       -14.4900
  70   2.0000      -0.527078       -14.3425
  71   2.0000      -0.518555       -14.1106
  72   2.0000      -0.511555       -13.9201
  73   2.0000      -0.506197       -13.7743
  74   2.0000      -0.503540       -13.7020
  75   2.0000      -0.480974       -13.0880
  76   2.0000      -0.473731       -12.8909
  77   2.0000      -0.462555       -12.5868
  78   2.0000      -0.437882       -11.9154
  79   2.0000      -0.427942       -11.6449
  80   2.0000      -0.415225       -11.2989
  81   2.0000      -0.396190       -10.7809
  82   0.0000      -0.171580        -4.6689
  83   0.0000      -0.169089        -4.6012
  84   0.0000      -0.146389        -3.9834
  85   0.0000      -0.087463        -2.3800
  86   0.0000      -0.081636        -2.2214

MULLIKEN ATOMIC CHARGES
-----------------------
   0 Ir:    0.588874
   1 C :   -0.269462
   2 C :   -0.232100
   3 C :   -0.281140
   4 C :   -0.163464
   5 C :   -0.197152
   6 N :   -0.454785
   7 C :   -0.154678
   8 C :   -0.626082
   9 H :    0.254075
  10 H :    0.220636
  11 H :    0.247855
  12 C :   -0.646829
  13 H :    0.274881
  14 H :    0.262444
  15 H :    0.225085
  16 H :    0.236752
  17 C :    0.065265
  18 C :   -0.227233
  19 H :    0.267241
  20 C :   -0.222515
  21 C :   -0.145740
  22 S :    0.295440
  23 C :   -0.424662
  24 H :    0.319950
  25 H :    0.265344
  26 H :    0.294190
  27 H :    0.291804
  28 H :    0.295004
  29 H :    0.297857
  30 O :   -0.504348
  31 O :   -0.470882
  32 C :    0.678501
  33 C :   -0.779788
  34 H :    0.278382
  35 H :    0.285434
  36 H :    0.277248
  37 H :    0.292921
  38 H :    0.285680
Sum of atomic charges:    1.0000000

LOEWDIN ATOMIC CHARGES
----------------------
   0 Ir:   -0.183044
   1 C :   -0.058255
   2 C :   -0.064826
   3 C :   -0.084192
   4 C :   -0.028578
   5 C :   -0.026006
   6 N :   -0.039114
   7 C :   -0.065712
   8 C :   -0.348839
   9 H :    0.150004
  10 H :    0.132669
  11 H :    0.140231
  12 C :   -0.355191
  13 H :    0.152737
  14 H :    0.153213
  15 H :    0.132605
  16 H :    0.135285
  17 C :    0.036727
  18 C :   -0.235098
  19 H :    0.151887
  20 C :   -0.122000
  21 C :   -0.169909
  22 S :    0.452264
  23 C :   -0.255013
  24 H :    0.181867
  25 H :    0.158015
  26 H :    0.167139
  27 H :    0.185752
  28 H :    0.188112
  29 H :    0.188500
  30 O :   -0.198829
  31 O :   -0.168302
  32 C :    0.189087
  33 C :   -0.375584
  34 H :    0.168700
  35 H :    0.177591
  36 H :    0.167158
  37 H :    0.185845
  38 H :    0.183104

  Mayer bond orders larger than 0.100000
B(  0-Ir,  1-C ) :   0.4851 B(  0-Ir,  2-C ) :   0.4419 B(  0-Ir,  3-C ) :   0.5004
B(  0-Ir,  4-C ) :   0.4126 B(  0-Ir,  5-C ) :   0.4348 B(  0-Ir,  6-N ) :   0.4791
B(  0-Ir, 30-O ) :   0.5099 B(  0-Ir, 31-O ) :   0.5116 B(  1-C ,  2-C ) :   1.1290
B(  1-C ,  4-C ) :   1.1974 B(  1-C , 27-H ) :   0.9097 B(  2-C ,  5-C ) :   1.2203
B(  2-C , 28-H ) :   0.9072 B(  3-C ,  4-C ) :   1.1488 B(  3-C ,  5-C ) :   1.1460
B(  3-C , 37-H ) :   0.9065 B(  4-C , 38-H ) :   0.9096 B(  5-C , 29-H ) :   0.9015
B(  6-N ,  7-C ) :   0.8748 B(  6-N , 17-C ) :   1.6640 B(  7-C ,  8-C ) :   0.9804
B(  7-C , 12-C ) :   0.9794 B(  7-C , 13-H ) :   0.8866 B(  8-C ,  9-H ) :   0.9075
B(  8-C , 10-H ) :   0.9166 B(  8-C , 11-H ) :   0.9128 B( 12-C , 14-H ) :   0.9061
B( 12-C , 15-H ) :   0.9149 B( 12-C , 16-H ) :   0.9187 B( 17-C , 18-C ) :   1.0931
B( 17-C , 19-H ) :   0.8803 B( 18-C , 20-C ) :   1.4235 B( 18-C , 22-S ) :   1.1627
B( 20-C , 21-C ) :   1.3317 B( 20-C , 24-H ) :   0.8522 B( 21-C , 23-C ) :   1.4727
B( 21-C , 25-H ) :   0.9036 B( 22-S , 23-C ) :   1.2681 B( 23-C , 26-H ) :   0.8942
B( 30-O , 32-C ) :   1.3922 B( 31-O , 32-C ) :   1.4337 B( 32-C , 33-C ) :   0.9633
B( 33-C , 34-H ) :   0.8956 B( 33-C , 35-H ) :   0.8878 B( 33-C , 36-H ) :   0.9001

Dispersion correction           -0.029612780
FINAL SINGLE POINT ENERGY     -1288.429018346806
Dispersion correction            ... done

DIPOLE MOMENT
-------------
                                X             Y             Z
Electronic contribution:     25.20685     -60.27908     129.10938
Nuclear contribution   :    -25.27960      59.85378    -129.38404
                        -----------------------------------------
Total Dipole Moment    :     -0.07275      -0.42530      -0.27466
                        -----------------------------------------
Magnitude (a.u.)       :      0.51148
Magnitude (Debye)      :      1.30008

Rotational constants in cm-1:     0.011585     0.007688     0.006847
Rotational constants in MHz :   347.317608   230.494545   205.274900

                             ****ORCA TERMINATED NORMALLY****
TOTAL RUN TIME: 0 days 0 hours 18 minutes 33 seconds 364 msec
