                         Program Version 5.0.3 -  RELEASE  -
|  1> ! EnGrad PBEh-3c
|  2> %output
|  3> xyzfile=True
|  4> end
|  5> %scf
|  6> maxiter 250
|  7> end
|  8> %output
|  9> Print[P_Hirshfeld] = 1
| 10> end
| 11> % maxcore
| 12> 4000
| 13> *xyz 0 1
| 14> Pd   0.41927657   0.33654484  -0.37716966
| 15> O    2.01270076   1.41996367   0.60350351
| 16> C    1.71310015   2.58217853   0.31603584
| 17> O    0.54187235   2.83655405  -0.13748978
| 18> C    2.64489341   3.71522314   0.58714674
| 19> H    2.13693976   4.57190657   1.02680999
| 20> H    3.07299797   4.03946083  -0.36343055
| 21> H    3.46159520   3.41484028   1.23783068
| 22> N   -1.32699458  -0.62305546  -1.06518173
| 23> C   -1.26299611  -1.55323589  -2.21229410
| 24> H   -0.86184293  -1.09682183  -3.11261557
| 25> H   -2.24966339  -1.90140494  -2.55129716
| 26> H   -0.64493020  -2.41766214  -1.97347009
| 27> C   -2.16467304   0.46889979  -1.58626770
| 28> H   -2.29712714   1.24828516  -0.84669384
| 29> H   -3.17315050   0.15752168  -1.88619831
| 30> H   -1.70953445   0.94601404  -2.44877879
| 31> C   -1.49857837  -1.04540473   1.37635418
| 32> C   -0.82792496  -1.99577980   2.14225152
| 33> C   -0.72956912  -1.89510244   3.52456816
| 34> C   -1.10778760  -0.71981035   4.14671411
| 35> C   -1.78367203   0.24366410   3.40079017
| 36> C   -1.88801535   0.13808133   2.01956440
| 37> H   -0.98898103  -0.60817192   5.21492840
| 38> H   -2.33362067   0.97938745   3.97597052
| 39> H   -0.57297015  -2.96070408   1.72426891
| 40> H   -0.33564586  -2.71268454   4.11464601
| 41> H   -2.37766688   3.15899530   1.68678191
| 42> C   -2.05052403  -1.34390237   0.00665295
| 43> H   -3.12573620  -1.12113837   0.06379096
| 44> H   -2.04661729  -2.43437971  -0.09926900
| 45> O    1.87892023  -0.67314475  -1.18339501
| 46> C    2.27900176  -0.51972785  -2.40081939
| 47> O    1.56081620  -0.03391172  -3.25297426
| 48> C    3.62914265  -1.03919134  -2.84569996
| 49> H    3.62239244  -2.12851531  -2.90412484
| 50> H    4.40255072  -0.78370114  -2.11961588
| 51> H    3.98201709  -0.65007008  -3.80180793
| 52> *
| 53>
| 54>                          ****END OF INPUT****

CARTESIAN COORDINATES (ANGSTROEM)
---------------------------------
  Pd     0.419277    0.336545   -0.377170
  O      2.012701    1.419964    0.603504
  C      1.713100    2.582179    0.316036
  O      0.541872    2.836554   -0.137490
  C      2.644893    3.715223    0.587147
  H      2.136940    4.571907    1.026810
  H      3.072998    4.039461   -0.363431
  H      3.461595    3.414840    1.237831
  N     -1.326995   -0.623055   -1.065182
  C     -1.262996   -1.553236   -2.212294
  H     -0.861843   -1.096822   -3.112616
  H     -2.249663   -1.901405   -2.551297
  H     -0.644930   -2.417662   -1.973470
  C     -2.164673    0.468900   -1.586268
  H     -2.297127    1.248285   -0.846694
  H     -3.173151    0.157522   -1.886198
  H     -1.709534    0.946014   -2.448779
  C     -1.498578   -1.045405    1.376354
  C     -0.827925   -1.995780    2.142252
  C     -0.729569   -1.895102    3.524568
  C     -1.107788   -0.719810    4.146714
  C     -1.783672    0.243664    3.400790
  C     -1.888015    0.138081    2.019564
  H     -0.988981   -0.608172    5.214928
  H     -2.333621    0.979387    3.975971
  H     -0.572970   -2.960704    1.724269
  H     -0.335646   -2.712685    4.114646
  H     -2.377667    3.158995    1.686782
  C     -2.050524   -1.343902    0.006653
  H     -3.125736   -1.121138    0.063791
  H     -2.046617   -2.434380   -0.099269
  O      1.878920   -0.673145   -1.183395
  C      2.279002   -0.519728   -2.400819
  O      1.560816   -0.033912   -3.252974
  C      3.629143   -1.039191   -2.845700
  H      3.622392   -2.128515   -2.904125
  H      4.402551   -0.783701   -2.119616
  H      3.982017   -0.650070   -3.801808

 Total Charge           Charge          ....    0
 Multiplicity           Mult            ....    1
 Number of Electrons    NEL             ....  154
 Basis Dimension        Dim             ....  339

ORBITAL ENERGIES
----------------

  NO   OCC          E(Eh)            E(eV)
   0   2.0000     -19.479408      -530.0616
   1   2.0000     -19.478548      -530.0382
   2   2.0000     -19.431710      -528.7637
   3   2.0000     -19.422056      -528.5010
   4   2.0000     -14.739274      -401.0760
   5   2.0000     -10.532913      -286.6151
   6   2.0000     -10.530111      -286.5389
   7   2.0000     -10.524747      -286.3929
   8   2.0000     -10.517726      -286.2019
   9   2.0000     -10.502995      -285.8010
  10   2.0000     -10.486101      -285.3413
  11   2.0000     -10.484202      -285.2896
  12   2.0000     -10.482495      -285.2432
  13   2.0000     -10.480830      -285.1979
  14   2.0000     -10.477346      -285.1031
  15   2.0000     -10.474227      -285.0182
  16   2.0000     -10.417754      -283.4815
  17   2.0000     -10.417196      -283.4663
  18   2.0000      -3.667695       -99.8031
  19   2.0000      -2.317596       -63.0650
  20   2.0000      -2.310524       -62.8726
  21   2.0000      -2.276525       -61.9474
  22   2.0000      -1.165047       -31.7025
  23   2.0000      -1.152145       -31.3515
  24   2.0000      -1.093874       -29.7658
  25   2.0000      -1.048599       -28.5338
  26   2.0000      -1.035185       -28.1688
  27   2.0000      -0.991942       -26.9921
  28   2.0000      -0.901277       -24.5250
  29   2.0000      -0.860306       -23.4101
  30   2.0000      -0.824258       -22.4292
  31   2.0000      -0.814513       -22.1640
  32   2.0000      -0.805531       -21.9196
  33   2.0000      -0.797225       -21.6936
  34   2.0000      -0.735688       -20.0191
  35   2.0000      -0.706688       -19.2300
  36   2.0000      -0.684552       -18.6276
  37   2.0000      -0.609187       -16.5768
  38   2.0000      -0.599355       -16.3093
  39   2.0000      -0.587901       -15.9976
  40   2.0000      -0.584437       -15.9033
  41   2.0000      -0.580341       -15.7919
  42   2.0000      -0.567859       -15.4522
  43   2.0000      -0.543365       -14.7857
  44   2.0000      -0.530304       -14.4303
  45   2.0000      -0.517827       -14.0908
  46   2.0000      -0.508855       -13.8467
  47   2.0000      -0.507787       -13.8176
  48   2.0000      -0.501379       -13.6432
  49   2.0000      -0.497077       -13.5262
  50   2.0000      -0.491842       -13.3837
  51   2.0000      -0.487423       -13.2635
  52   2.0000      -0.483190       -13.1483
  53   2.0000      -0.477182       -12.9848
  54   2.0000      -0.460784       -12.5386
  55   2.0000      -0.446054       -12.1377
  56   2.0000      -0.444277       -12.0894
  57   2.0000      -0.439685       -11.9645
  58   2.0000      -0.433476       -11.7955
  59   2.0000      -0.431262       -11.7352
  60   2.0000      -0.425812       -11.5869
  61   2.0000      -0.424378       -11.5479
  62   2.0000      -0.414147       -11.2695
  63   2.0000      -0.407753       -11.0955
  64   2.0000      -0.378871       -10.3096
  65   2.0000      -0.373687       -10.1685
  66   2.0000      -0.348964        -9.4958
  67   2.0000      -0.341983        -9.3058
  68   2.0000      -0.335787        -9.1372
  69   2.0000      -0.324310        -8.8249
  70   2.0000      -0.321119        -8.7381
  71   2.0000      -0.306129        -8.3302
  72   2.0000      -0.297575        -8.0974
  73   2.0000      -0.294074        -8.0022
  74   2.0000      -0.274589        -7.4719
  75   2.0000      -0.269954        -7.3458
  76   2.0000      -0.266683        -7.2568
  77   0.0000      -0.162626        -4.4253
  78   0.0000      -0.086320        -2.3489
  79   0.0000      -0.020650        -0.5619
  80   0.0000      -0.009574        -0.2605
  81   0.0000       0.065183         1.7737

MULLIKEN ATOMIC CHARGES
-----------------------
   0 Pd:    0.531047
   1 O :   -0.453475
   2 C :    0.606281
   3 O :   -0.531357
   4 C :   -0.756666
   5 H :    0.248654
   6 H :    0.248762
   7 H :    0.237660
   8 N :   -0.485652
   9 C :   -0.548706
  10 H :    0.307641
  11 H :    0.226866
  12 H :    0.263869
  13 C :   -0.576568
  14 H :    0.296686
  15 H :    0.238169
  16 H :    0.304295
  17 C :   -0.069531
  18 C :   -0.196184
  19 C :   -0.232317
  20 C :   -0.193944
  21 C :   -0.273853
  22 C :    0.037782
  23 H :    0.243379
  24 H :    0.254709
  25 H :    0.225921
  26 H :    0.242392
  27 H :    0.042529
  28 C :   -0.306440
  29 H :    0.266571
  30 H :    0.262143
  31 O :   -0.536914
  32 C :    0.561175
  33 O :   -0.463458
  34 C :   -0.743276
  35 H :    0.232795
  36 H :    0.238200
  37 H :    0.250815
Sum of atomic charges:   -0.0000000

LOEWDIN ATOMIC CHARGES
----------------------
   0 Pd:   -0.219902
   1 O :   -0.139514
   2 C :    0.139611
   3 O :   -0.291607
   4 C :   -0.379787
   5 H :    0.151402
   6 H :    0.157517
   7 H :    0.142127
   8 N :   -0.040871
   9 C :   -0.240724
  10 H :    0.165317
  11 H :    0.123128
  12 H :    0.146025
  13 C :   -0.242124
  14 H :    0.160782
  15 H :    0.128001
  16 H :    0.166854
  17 C :   -0.066069
  18 C :   -0.101560
  19 C :   -0.122216
  20 C :   -0.117232
  21 C :   -0.133387
  22 C :    0.018793
  23 H :    0.147092
  24 H :    0.154837
  25 H :    0.149932
  26 H :    0.146395
  27 H :    0.043200
  28 C :   -0.101994
  29 H :    0.154297
  30 H :    0.150700
  31 O :   -0.158735
  32 C :    0.123610
  33 O :   -0.270232
  34 C :   -0.379908
  35 H :    0.146058
  36 H :    0.142659
  37 H :    0.147524

  Mayer bond orders larger than 0.100000
B(  0-Pd,  1-O ) :   0.5761 B(  0-Pd,  3-O ) :   0.3036 B(  0-Pd,  8-N ) :   0.4281
B(  0-Pd, 31-O ) :   0.6782 B(  1-O ,  2-C ) :   1.4341 B(  2-C ,  3-O ) :   1.6190
B(  2-C ,  4-C ) :   0.9417 B(  4-C ,  5-H ) :   0.9147 B(  4-C ,  6-H ) :   0.9102
B(  4-C ,  7-H ) :   0.9133 B(  8-N ,  9-C ) :   0.9149 B(  8-N , 13-C ) :   0.9095
B(  8-N , 28-C ) :   0.8896 B(  9-C , 10-H ) :   0.8780 B(  9-C , 11-H ) :   0.8991
B(  9-C , 12-H ) :   0.9093 B( 13-C , 14-H ) :   0.8796 B( 13-C , 15-H ) :   0.8994
B( 13-C , 16-H ) :   0.8852 B( 17-C , 18-C ) :   1.3915 B( 17-C , 22-C ) :   1.4036
B( 17-C , 28-C ) :   0.9471 B( 18-C , 19-C ) :   1.4374 B( 18-C , 25-H ) :   0.9099
B( 19-C , 20-C ) :   1.4313 B( 19-C , 26-H ) :   0.9076 B( 20-C , 21-C ) :   1.3896
B( 20-C , 23-H ) :   0.9062 B( 21-C , 22-C ) :   1.4634 B( 21-C , 24-H ) :   0.9046
B( 22-C , 27-H ) :   0.7518 B( 28-C , 29-H ) :   0.8938 B( 28-C , 30-H ) :   0.9112
B( 31-O , 32-C ) :   1.2527 B( 32-C , 33-O ) :   1.8706 B( 32-C , 34-C ) :   0.9369
B( 34-C , 35-H ) :   0.9147 B( 34-C , 36-H ) :   0.9111 B( 34-C , 37-H ) :   0.9170

Dispersion correction           -0.025661649
FINAL SINGLE POINT ENERGY      -988.220129455592
Dispersion correction            ... done

DIPOLE MOMENT
-------------
                                X             Y             Z
Electronic contribution:     16.39711      14.34371     -18.19927
Nuclear contribution   :    -18.44689     -16.11439      19.43578
                        -----------------------------------------
Total Dipole Moment    :     -2.04978      -1.77068       1.23651
                        -----------------------------------------
Magnitude (a.u.)       :      2.97756
Magnitude (Debye)      :      7.56835

Rotational constants in cm-1:     0.013400     0.008425     0.006822
Rotational constants in MHz :   401.723023   252.589018   204.520139

                             ****ORCA TERMINATED NORMALLY****
TOTAL RUN TIME: 0 days 0 hours 17 minutes 48 seconds 987 msec
