                         Program Version 5.0.3 -  RELEASE  -
|  1> ! EnGrad PBEh-3c
|  2> %output
|  3> xyzfile=True
|  4> end
|  5> %scf
|  6> maxiter 250
|  7> end
|  8> %output
|  9> Print[P_Hirshfeld] = 1
| 10> end
| 11> % maxcore
| 12> 4000
| 13> *xyz 0 1
| 14> Pd   0.54648550   0.38613853  -0.28758186
| 15> O    1.96245036   1.33344076   0.51717647
| 16> C    1.58413447   2.59249505   0.33473884
| 17> O    0.52216790   2.85400525  -0.16656135
| 18> C    2.65327640   3.68106565   0.59273895
| 19> H    2.15745719   4.55469215   1.01788747
| 20> H    3.09255556   4.01759928  -0.35603825
| 21> H    3.47662573   3.37856241   1.24683779
| 22> N   -1.39562868  -0.66027693  -1.13799367
| 23> C   -1.23127567  -1.64392046  -2.22708066
| 24> H   -0.74645854  -1.13524930  -3.05807521
| 25> H   -2.25026822  -1.99507646  -2.45658017
| 26> H   -0.62318735  -2.47651273  -1.88256691
| 27> C   -2.18215529   0.50048114  -1.61533309
| 28> H   -2.29192710   1.26653518  -0.84169222
| 29> H   -3.16015021   0.09959444  -1.91964917
| 30> H   -1.65347798   0.88575302  -2.49277884
| 31> C   -1.54207714  -0.97958063   1.40716838
| 32> C   -1.00722339  -2.05696501   2.17881940
| 33> C   -0.71647580  -1.87966041   3.52008607
| 34> C   -1.16067663  -0.74897064   4.16407311
| 35> C   -1.72789479   0.32577483   3.46916655
| 36> C   -1.78788973   0.16180374   2.13901069
| 37> H   -1.00776805  -0.60198449   5.21703179
| 38> H   -2.13294835   1.19018806   3.94712456
| 39> H   -0.74029113  -2.98942804   1.68999138
| 40> H   -0.40493350  -2.72576048   4.11560251
| 41> H   -2.27052510   2.92289772   1.60423515
| 42> C   -2.06129317  -1.30296279   0.03496430
| 43> H   -3.11300335  -1.00423547   0.01266907
| 44> H   -2.04829178  -2.38530138  -0.12737397
| 45> O    1.99664431  -0.75440166  -1.20953123
| 46> C    2.20270260  -0.50863083  -2.48208041
| 47> O    1.46426278  -0.03985948  -3.31266044
| 48> C    3.65177083  -0.96502852  -2.81245175
| 49> H    3.65343740  -2.05140976  -2.95627643
| 50> H    4.42009186  -0.71222886  -2.08370721
| 51> H    3.88644855  -0.53034068  -3.78371606
| 52> *
| 53>
| 54>                          ****END OF INPUT****

CARTESIAN COORDINATES (ANGSTROEM)
---------------------------------
  Pd     0.546485    0.386139   -0.287582
  O      1.962450    1.333441    0.517176
  C      1.584134    2.592495    0.334739
  O      0.522168    2.854005   -0.166561
  C      2.653276    3.681066    0.592739
  H      2.157457    4.554692    1.017887
  H      3.092556    4.017599   -0.356038
  H      3.476626    3.378562    1.246838
  N     -1.395629   -0.660277   -1.137994
  C     -1.231276   -1.643920   -2.227081
  H     -0.746459   -1.135249   -3.058075
  H     -2.250268   -1.995076   -2.456580
  H     -0.623187   -2.476513   -1.882567
  C     -2.182155    0.500481   -1.615333
  H     -2.291927    1.266535   -0.841692
  H     -3.160150    0.099594   -1.919649
  H     -1.653478    0.885753   -2.492779
  C     -1.542077   -0.979581    1.407168
  C     -1.007223   -2.056965    2.178819
  C     -0.716476   -1.879660    3.520086
  C     -1.160677   -0.748971    4.164073
  C     -1.727895    0.325775    3.469167
  C     -1.787890    0.161804    2.139011
  H     -1.007768   -0.601984    5.217032
  H     -2.132948    1.190188    3.947125
  H     -0.740291   -2.989428    1.689991
  H     -0.404934   -2.725760    4.115603
  H     -2.270525    2.922898    1.604235
  C     -2.061293   -1.302963    0.034964
  H     -3.113003   -1.004235    0.012669
  H     -2.048292   -2.385301   -0.127374
  O      1.996644   -0.754402   -1.209531
  C      2.202703   -0.508631   -2.482080
  O      1.464263   -0.039859   -3.312660
  C      3.651771   -0.965029   -2.812452
  H      3.653437   -2.051410   -2.956276
  H      4.420092   -0.712229   -2.083707
  H      3.886449   -0.530341   -3.783716

 Total Charge           Charge          ....    0
 Multiplicity           Mult            ....    1
 Number of Electrons    NEL             ....  154
 Basis Dimension        Dim             ....  339

ORBITAL ENERGIES
----------------

  NO   OCC          E(Eh)            E(eV)
   0   2.0000     -19.504449      -530.7430
   1   2.0000     -19.479439      -530.0625
   2   2.0000     -19.472168      -529.8646
   3   2.0000     -19.439938      -528.9876
   4   2.0000     -14.705726      -400.1631
   5   2.0000     -10.564932      -287.4864
   6   2.0000     -10.533508      -286.6313
   7   2.0000     -10.530904      -286.5605
   8   2.0000     -10.510774      -286.0127
   9   2.0000     -10.507942      -285.9356
  10   2.0000     -10.491785      -285.4960
  11   2.0000     -10.483548      -285.2718
  12   2.0000     -10.482981      -285.2564
  13   2.0000     -10.479413      -285.1593
  14   2.0000     -10.476672      -285.0847
  15   2.0000     -10.476040      -285.0675
  16   2.0000     -10.436821      -284.0003
  17   2.0000     -10.409120      -283.2466
  18   2.0000      -3.661107       -99.6238
  19   2.0000      -2.315768       -63.0152
  20   2.0000      -2.298781       -62.5530
  21   2.0000      -2.273017       -61.8519
  22   2.0000      -1.192945       -32.4617
  23   2.0000      -1.143583       -31.1185
  24   2.0000      -1.084233       -29.5035
  25   2.0000      -1.064609       -28.9695
  26   2.0000      -1.054646       -28.6984
  27   2.0000      -1.001477       -27.2516
  28   2.0000      -0.900880       -24.5142
  29   2.0000      -0.872540       -23.7430
  30   2.0000      -0.815011       -22.1776
  31   2.0000      -0.811466       -22.0811
  32   2.0000      -0.810467       -22.0539
  33   2.0000      -0.781174       -21.2568
  34   2.0000      -0.721147       -19.6234
  35   2.0000      -0.710763       -19.3408
  36   2.0000      -0.679920       -18.5016
  37   2.0000      -0.614490       -16.7211
  38   2.0000      -0.608617       -16.5613
  39   2.0000      -0.578387       -15.7387
  40   2.0000      -0.577276       -15.7085
  41   2.0000      -0.566837       -15.4244
  42   2.0000      -0.560556       -15.2535
  43   2.0000      -0.543153       -14.7799
  44   2.0000      -0.538092       -14.6422
  45   2.0000      -0.533824       -14.5261
  46   2.0000      -0.527634       -14.3577
  47   2.0000      -0.516759       -14.0617
  48   2.0000      -0.502771       -13.6811
  49   2.0000      -0.500709       -13.6250
  50   2.0000      -0.488800       -13.3009
  51   2.0000      -0.486345       -13.2341
  52   2.0000      -0.479517       -13.0483
  53   2.0000      -0.476121       -12.9559
  54   2.0000      -0.466621       -12.6974
  55   2.0000      -0.451567       -12.2878
  56   2.0000      -0.451162       -12.2767
  57   2.0000      -0.448117       -12.1939
  58   2.0000      -0.441204       -12.0058
  59   2.0000      -0.439313       -11.9543
  60   2.0000      -0.434884       -11.8338
  61   2.0000      -0.427200       -11.6247
  62   2.0000      -0.412081       -11.2133
  63   2.0000      -0.404753       -11.0139
  64   2.0000      -0.383914       -10.4468
  65   2.0000      -0.362568        -9.8660
  66   2.0000      -0.352229        -9.5847
  67   2.0000      -0.350339        -9.5332
  68   2.0000      -0.337980        -9.1969
  69   2.0000      -0.334597        -9.1048
  70   2.0000      -0.329584        -8.9684
  71   2.0000      -0.315073        -8.5736
  72   2.0000      -0.311864        -8.4863
  73   2.0000      -0.296632        -8.0718
  74   2.0000      -0.288304        -7.8451
  75   2.0000      -0.282743        -7.6938
  76   2.0000      -0.265646        -7.2286
  77   0.0000      -0.136613        -3.7174
  78   0.0000      -0.074931        -2.0390
  79   0.0000      -0.027042        -0.7358
  80   0.0000      -0.009962        -0.2711
  81   0.0000       0.055716         1.5161

MULLIKEN ATOMIC CHARGES
-----------------------
   0 Pd:    0.504126
   1 O :   -0.522459
   2 C :    0.609883
   3 O :   -0.421264
   4 C :   -0.757427
   5 H :    0.244207
   6 H :    0.258576
   7 H :    0.248038
   8 N :   -0.457041
   9 C :   -0.523860
  10 H :    0.296119
  11 H :    0.206067
  12 H :    0.255486
  13 C :   -0.539088
  14 H :    0.281268
  15 H :    0.216281
  16 H :    0.282197
  17 C :   -0.007785
  18 C :   -0.256896
  19 C :   -0.181876
  20 C :   -0.243089
  21 C :   -0.248854
  22 C :    0.042569
  23 H :    0.245439
  24 H :    0.274942
  25 H :    0.247617
  26 H :    0.233573
  27 H :   -0.021681
  28 C :   -0.313569
  29 H :    0.250636
  30 H :    0.254003
  31 O :   -0.529367
  32 C :    0.555429
  33 O :   -0.445062
  34 C :   -0.738882
  35 H :    0.227807
  36 H :    0.245292
  37 H :    0.228646
Sum of atomic charges:   -0.0000000

LOEWDIN ATOMIC CHARGES
----------------------
   0 Pd:   -0.232143
   1 O :   -0.148053
   2 C :    0.179067
   3 O :   -0.169836
   4 C :   -0.383721
   5 H :    0.148655
   6 H :    0.160400
   7 H :    0.146992
   8 N :   -0.104855
   9 C :   -0.239077
  10 H :    0.165779
  11 H :    0.114129
  12 H :    0.143788
  13 C :   -0.239277
  14 H :    0.159321
  15 H :    0.117656
  16 H :    0.160289
  17 C :   -0.063980
  18 C :   -0.090992
  19 C :   -0.128938
  20 C :   -0.108221
  21 C :   -0.137455
  22 C :    0.047728
  23 H :    0.147539
  24 H :    0.165059
  25 H :    0.152689
  26 H :    0.149349
  27 H :   -0.022170
  28 C :   -0.103022
  29 H :    0.145983
  30 H :    0.146566
  31 O :   -0.195630
  32 C :    0.133675
  33 O :   -0.251900
  34 C :   -0.389702
  35 H :    0.143175
  36 H :    0.144790
  37 H :    0.136342

  Mayer bond orders larger than 0.100000
B(  0-Pd,  1-O ) :   0.7280 B(  0-Pd,  3-O ) :   0.2402 B(  0-Pd,  8-N ) :   0.3511
B(  0-Pd, 31-O ) :   0.6657 B(  1-O ,  2-C ) :   1.2021 B(  2-C ,  3-O ) :   1.7944
B(  2-C ,  4-C ) :   0.9379 B(  4-C ,  5-H ) :   0.9122 B(  4-C ,  6-H ) :   0.9061
B(  4-C ,  7-H ) :   0.9102 B(  8-N ,  9-C ) :   0.9249 B(  8-N , 13-C ) :   0.9211
B(  8-N , 28-C ) :   0.9001 B(  9-C , 10-H ) :   0.8788 B(  9-C , 11-H ) :   0.9074
B(  9-C , 12-H ) :   0.9102 B( 13-C , 14-H ) :   0.8852 B( 13-C , 15-H ) :   0.9064
B( 13-C , 16-H ) :   0.8960 B( 17-C , 18-C ) :   1.3735 B( 17-C , 22-C ) :   1.4089
B( 17-C , 28-C ) :   0.9363 B( 18-C , 19-C ) :   1.4339 B( 18-C , 25-H ) :   0.9007
B( 19-C , 20-C ) :   1.4279 B( 19-C , 26-H ) :   0.9150 B( 20-C , 21-C ) :   1.3704
B( 20-C , 23-H ) :   0.9047 B( 21-C , 22-C ) :   1.4842 B( 21-C , 24-H ) :   0.8963
B( 22-C , 27-H ) :   0.7378 B( 28-C , 29-H ) :   0.8967 B( 28-C , 30-H ) :   0.9153
B( 31-O , 32-C ) :   1.2601 B( 31-O , 33-O ) :   0.1040 B( 32-C , 33-O ) :   1.9052
B( 32-C , 34-C ) :   0.9107 B( 34-C , 35-H ) :   0.9184 B( 34-C , 36-H ) :   0.9141
B( 34-C , 37-H ) :   0.9196

Dispersion correction           -0.025577415
FINAL SINGLE POINT ENERGY      -988.256923090116
Dispersion correction            ... done

DIPOLE MOMENT
-------------
                                X             Y             Z
Electronic contribution:     23.78871      17.63424     -12.86865
Nuclear contribution   :    -25.45306     -18.87235      14.51836
                        -----------------------------------------
Total Dipole Moment    :     -1.66434      -1.23811       1.64971
                        -----------------------------------------
Magnitude (a.u.)       :      2.65038
Magnitude (Debye)      :      6.73673

Rotational constants in cm-1:     0.013361     0.008341     0.006748
Rotational constants in MHz :   400.549854   250.044119   202.306587

                             ****ORCA TERMINATED NORMALLY****
TOTAL RUN TIME: 0 days 0 hours 22 minutes 53 seconds 215 msec
