                         Program Version 5.0.3 -  RELEASE  -
|  1> ! EnGrad PBEh-3c
|  2> %output
|  3> xyzfile=True
|  4> end
|  5> %scf
|  6> maxiter 250
|  7> end
|  8> %output
|  9> Print[P_Hirshfeld] = 1
| 10> end
| 11> % maxcore
| 12> 4000
| 13> *xyz 0 1
| 14> Pd   0.57650857   0.32911032  -0.29422338
| 15> O    1.94565376   1.39431471   0.48004122
| 16> C    1.59436106   2.54969085   0.33000356
| 17> O    0.46776910   2.86869503  -0.18059372
| 18> C    2.63439517   3.63247135   0.60369207
| 19> H    2.18248293   4.53926943   1.01388765
| 20> H    3.09929056   3.97839165  -0.33999042
| 21> H    3.47734633   3.33748013   1.25122790
| 22> N   -1.38141642  -0.65822513  -1.11843081
| 23> C   -1.21836113  -1.69212220  -2.19031993
| 24> H   -0.64929521  -1.19884869  -3.01026650
| 25> H   -2.24028440  -2.09954251  -2.39992628
| 26> H   -0.60435095  -2.52971408  -1.79695169
| 27> C   -2.17331298   0.47912468  -1.65058497
| 28> H   -2.28455336   1.26567688  -0.86322157
| 29> H   -3.15856064   0.07042965  -1.95988714
| 30> H   -1.61476788   0.83678375  -2.52684624
| 31> C   -1.57888358  -0.97058308   1.44683015
| 32> C   -1.14033391  -2.07110039   2.18750787
| 33> C   -0.77556460  -1.89738736   3.52885538
| 34> C   -1.17943685  -0.74644526   4.20033356
| 35> C   -1.65909113   0.38695581   3.54051535
| 36> C   -1.71712822   0.23399461   2.16917860
| 37> H   -1.02273513  -0.60776814   5.24271708
| 38> H   -1.92931999   1.39942439   3.93841052
| 39> H   -0.92434178  -3.01038575   1.66689297
| 40> H   -0.46258416  -2.73579685   4.11637357
| 41> H   -2.15625880   2.64892560   1.52414650
| 42> C   -2.07849323  -1.24014134   0.00780935
| 43> H   -3.11509466  -0.89920706  -0.02524913
| 44> H   -2.05847174  -2.32938387  -0.13373005
| 45> O    2.03453455  -0.77190352  -1.26123434
| 46> C    2.19256453  -0.51712100  -2.52050329
| 47> O    1.39458912  -0.08227199  -3.30877922
| 48> C    3.63735286  -0.88338980  -2.82992300
| 49> H    3.68918343  -1.96513484  -3.00555438
| 50> H    4.41150115  -0.63551064  -2.06098192
| 51> H    3.81682647  -0.40853219  -3.77202497
| 52> *
| 53>
| 54>                          ****END OF INPUT****

CARTESIAN COORDINATES (ANGSTROEM)
---------------------------------
  Pd     0.576509    0.329110   -0.294223
  O      1.945654    1.394315    0.480041
  C      1.594361    2.549691    0.330004
  O      0.467769    2.868695   -0.180594
  C      2.634395    3.632471    0.603692
  H      2.182483    4.539269    1.013888
  H      3.099291    3.978392   -0.339990
  H      3.477346    3.337480    1.251228
  N     -1.381416   -0.658225   -1.118431
  C     -1.218361   -1.692122   -2.190320
  H     -0.649295   -1.198849   -3.010267
  H     -2.240284   -2.099543   -2.399926
  H     -0.604351   -2.529714   -1.796952
  C     -2.173313    0.479125   -1.650585
  H     -2.284553    1.265677   -0.863222
  H     -3.158561    0.070430   -1.959887
  H     -1.614768    0.836784   -2.526846
  C     -1.578884   -0.970583    1.446830
  C     -1.140334   -2.071100    2.187508
  C     -0.775565   -1.897387    3.528855
  C     -1.179437   -0.746445    4.200334
  C     -1.659091    0.386956    3.540515
  C     -1.717128    0.233995    2.169179
  H     -1.022735   -0.607768    5.242717
  H     -1.929320    1.399424    3.938411
  H     -0.924342   -3.010386    1.666893
  H     -0.462584   -2.735797    4.116374
  H     -2.156259    2.648926    1.524147
  C     -2.078493   -1.240141    0.007809
  H     -3.115095   -0.899207   -0.025249
  H     -2.058472   -2.329384   -0.133730
  O      2.034535   -0.771904   -1.261234
  C      2.192565   -0.517121   -2.520503
  O      1.394589   -0.082272   -3.308779
  C      3.637353   -0.883390   -2.829923
  H      3.689183   -1.965135   -3.005554
  H      4.411501   -0.635511   -2.060982
  H      3.816826   -0.408532   -3.772025

 Total Charge           Charge          ....    0
 Multiplicity           Mult            ....    1
 Number of Electrons    NEL             ....  154
 Basis Dimension        Dim             ....  339

ORBITAL ENERGIES
----------------

  NO   OCC          E(Eh)            E(eV)
   0   2.0000     -19.515620      -531.0470
   1   2.0000     -19.476726      -529.9887
   2   2.0000     -19.455474      -529.4104
   3   2.0000     -19.443773      -529.0920
   4   2.0000     -14.709831      -400.2749
   5   2.0000     -10.557062      -287.2723
   6   2.0000     -10.534625      -286.6617
   7   2.0000     -10.534072      -286.6467
   8   2.0000     -10.508992      -285.9642
   9   2.0000     -10.505986      -285.8824
  10   2.0000     -10.488824      -285.4154
  11   2.0000     -10.488531      -285.4074
  12   2.0000     -10.485335      -285.3205
  13   2.0000     -10.483476      -285.2699
  14   2.0000     -10.481368      -285.2125
  15   2.0000     -10.477808      -285.1156
  16   2.0000     -10.431827      -283.8645
  17   2.0000     -10.413345      -283.3615
  18   2.0000      -3.667946       -99.8099
  19   2.0000      -2.322481       -63.1979
  20   2.0000      -2.305786       -62.7436
  21   2.0000      -2.279000       -62.0147
  22   2.0000      -1.210655       -32.9436
  23   2.0000      -1.155968       -31.4555
  24   2.0000      -1.072956       -29.1966
  25   2.0000      -1.066943       -29.0330
  26   2.0000      -1.064168       -28.9575
  27   2.0000      -0.991348       -26.9759
  28   2.0000      -0.893104       -24.3026
  29   2.0000      -0.861095       -23.4316
  30   2.0000      -0.812627       -22.1127
  31   2.0000      -0.808640       -22.0042
  32   2.0000      -0.807202       -21.9651
  33   2.0000      -0.792197       -21.5568
  34   2.0000      -0.714539       -19.4436
  35   2.0000      -0.705696       -19.2030
  36   2.0000      -0.678794       -18.4709
  37   2.0000      -0.626915       -17.0592
  38   2.0000      -0.603718       -16.4280
  39   2.0000      -0.583925       -15.8894
  40   2.0000      -0.573008       -15.5923
  41   2.0000      -0.563922       -15.3451
  42   2.0000      -0.558023       -15.1846
  43   2.0000      -0.543007       -14.7760
  44   2.0000      -0.533318       -14.5123
  45   2.0000      -0.528515       -14.3816
  46   2.0000      -0.526334       -14.3223
  47   2.0000      -0.523063       -14.2333
  48   2.0000      -0.509458       -13.8631
  49   2.0000      -0.497339       -13.5333
  50   2.0000      -0.496571       -13.5124
  51   2.0000      -0.491819       -13.3831
  52   2.0000      -0.483671       -13.1614
  53   2.0000      -0.473117       -12.8742
  54   2.0000      -0.461267       -12.5517
  55   2.0000      -0.448106       -12.1936
  56   2.0000      -0.443093       -12.0572
  57   2.0000      -0.441465       -12.0129
  58   2.0000      -0.437842       -11.9143
  59   2.0000      -0.434448       -11.8219
  60   2.0000      -0.431998       -11.7553
  61   2.0000      -0.428185       -11.6515
  62   2.0000      -0.411952       -11.2098
  63   2.0000      -0.396925       -10.8009
  64   2.0000      -0.378047       -10.2872
  65   2.0000      -0.366443        -9.9714
  66   2.0000      -0.354818        -9.6551
  67   2.0000      -0.349317        -9.5054
  68   2.0000      -0.338366        -9.2074
  69   2.0000      -0.329024        -8.9532
  70   2.0000      -0.326456        -8.8833
  71   2.0000      -0.319764        -8.7012
  72   2.0000      -0.311435        -8.4746
  73   2.0000      -0.298494        -8.1224
  74   2.0000      -0.295536        -8.0419
  75   2.0000      -0.285965        -7.7815
  76   2.0000      -0.280392        -7.6299
  77   0.0000      -0.117243        -3.1904
  78   0.0000      -0.085536        -2.3276
  79   0.0000      -0.020614        -0.5609
  80   0.0000      -0.014650        -0.3986
  81   0.0000       0.053174         1.4469

MULLIKEN ATOMIC CHARGES
-----------------------
   0 Pd:    0.532302
   1 O :   -0.455329
   2 C :    0.600548
   3 O :   -0.502204
   4 C :   -0.765272
   5 H :    0.247309
   6 H :    0.255108
   7 H :    0.239371
   8 N :   -0.450356
   9 C :   -0.535656
  10 H :    0.301346
  11 H :    0.211426
  12 H :    0.251935
  13 C :   -0.532223
  14 H :    0.276358
  15 H :    0.217183
  16 H :    0.282482
  17 C :   -0.007386
  18 C :   -0.255320
  19 C :   -0.190761
  20 C :   -0.245146
  21 C :   -0.249229
  22 C :    0.010684
  23 H :    0.243659
  24 H :    0.271565
  25 H :    0.241498
  26 H :    0.232860
  27 H :    0.019187
  28 C :   -0.302120
  29 H :    0.251420
  30 H :    0.245333
  31 O :   -0.521203
  32 C :    0.556367
  33 O :   -0.446607
  34 C :   -0.740879
  35 H :    0.232330
  36 H :    0.244717
  37 H :    0.234703
Sum of atomic charges:    0.0000000

LOEWDIN ATOMIC CHARGES
----------------------
   0 Pd:   -0.198162
   1 O :   -0.069554
   2 C :    0.150965
   3 O :   -0.269938
   4 C :   -0.383882
   5 H :    0.148299
   6 H :    0.159479
   7 H :    0.142773
   8 N :   -0.098425
   9 C :   -0.241546
  10 H :    0.172598
  11 H :    0.118132
  12 H :    0.142565
  13 C :   -0.236028
  14 H :    0.161037
  15 H :    0.119744
  16 H :    0.161235
  17 C :   -0.065896
  18 C :   -0.102558
  19 C :   -0.126117
  20 C :   -0.115706
  21 C :   -0.139816
  22 C :    0.021866
  23 H :    0.146495
  24 H :    0.168618
  25 H :    0.150670
  26 H :    0.147291
  27 H :    0.022102
  28 C :   -0.109676
  29 H :    0.145686
  30 H :    0.143365
  31 O :   -0.182960
  32 C :    0.116463
  33 O :   -0.249826
  34 C :   -0.384622
  35 H :    0.146626
  36 H :    0.149112
  37 H :    0.139589

  Mayer bond orders larger than 0.100000
B(  0-Pd,  1-O ) :   0.6471 B(  0-Pd,  3-O ) :   0.2704 B(  0-Pd,  8-N ) :   0.3685
B(  0-Pd, 31-O ) :   0.6731 B(  1-O ,  2-C ) :   1.3699 B(  2-C ,  3-O ) :   1.6770
B(  2-C ,  4-C ) :   0.9349 B(  4-C ,  5-H ) :   0.9132 B(  4-C ,  6-H ) :   0.9063
B(  4-C ,  7-H ) :   0.9113 B(  8-N ,  9-C ) :   0.9161 B(  8-N , 13-C ) :   0.9171
B(  8-N , 28-C ) :   0.9071 B(  9-C , 10-H ) :   0.8698 B(  9-C , 11-H ) :   0.9048
B(  9-C , 12-H ) :   0.9084 B( 13-C , 14-H ) :   0.8866 B( 13-C , 15-H ) :   0.9040
B( 13-C , 16-H ) :   0.8963 B( 17-C , 18-C ) :   1.3961 B( 17-C , 22-C ) :   1.3845
B( 17-C , 28-C ) :   0.9347 B( 18-C , 19-C ) :   1.4124 B( 18-C , 25-H ) :   0.9044
B( 19-C , 20-C ) :   1.4369 B( 19-C , 26-H ) :   0.9162 B( 20-C , 21-C ) :   1.3719
B( 20-C , 23-H ) :   0.9074 B( 21-C , 22-C ) :   1.4607 B( 21-C , 24-H ) :   0.8991
B( 22-C , 27-H ) :   0.7834 B( 28-C , 29-H ) :   0.8953 B( 28-C , 30-H ) :   0.9158
B( 31-O , 32-C ) :   1.2655 B( 31-O , 33-O ) :   0.1009 B( 32-C , 33-O ) :   1.9052
B( 32-C , 34-C ) :   0.9134 B( 34-C , 35-H ) :   0.9154 B( 34-C , 36-H ) :   0.9168
B( 34-C , 37-H ) :   0.9148

Dispersion correction           -0.025766178
FINAL SINGLE POINT ENERGY      -988.263582051131
Dispersion correction            ... done

DIPOLE MOMENT
-------------
                                X             Y             Z
Electronic contribution:     25.74072      14.43146     -13.31614
Nuclear contribution   :    -27.20663     -15.77792      14.84348
                        -----------------------------------------
Total Dipole Moment    :     -1.46591      -1.34645       1.52734
                        -----------------------------------------
Magnitude (a.u.)       :      2.50890
Magnitude (Debye)      :      6.37713

Rotational constants in cm-1:     0.013449     0.008319     0.006704
Rotational constants in MHz :   403.188355   249.403977   200.966361

                             ****ORCA TERMINATED NORMALLY****
TOTAL RUN TIME: 0 days 0 hours 16 minutes 30 seconds 429 msec
