                         Program Version 5.0.3 -  RELEASE  -
|  1> ! EnGrad PBEh-3c
|  2> %output
|  3> xyzfile=True
|  4> end
|  5> %scf
|  6> maxiter 250
|  7> end
|  8> %output
|  9> Print[P_Hirshfeld] = 1
| 10> end
| 11> % maxcore
| 12> 4000
| 13> *xyz 0 1
| 14> Pd   0.55924392   0.36190416  -0.29040420
| 15> O    1.95531257   1.35930939   0.50139569
| 16> C    1.58848030   2.57430523   0.33272656
| 17> O    0.49905091   2.86024773  -0.17252446
| 18> C    2.64525274   3.66041531   0.59739352
| 19> H    2.16809198   4.54813820   1.01618773
| 20> H    3.09541762   4.00093784  -0.34921866
| 21> H    3.47693195   3.36110433   1.24870339
| 22> N   -1.38958912  -0.65940501  -1.12968035
| 23> C   -1.22578758  -1.66440398  -2.21145904
| 24> H   -0.70516859  -1.16227612  -3.03775871
| 25> H   -2.24602556  -2.03946973  -2.43250487
| 26> H   -0.61518274  -2.49912086  -1.84618437
| 27> C   -2.17839772   0.49140563  -1.63031352
| 28> H   -2.28879360   1.26617044  -0.85084121
| 29> H   -3.15947471   0.08720074  -1.93674846
| 30> H   -1.63702797   0.86494333  -2.50725592
| 31> C   -1.55771819  -0.97575708   1.42402281
| 32> C   -1.06378925  -2.06297190   2.18251160
| 33> C   -0.74158582  -1.88719355   3.52381263
| 34> C   -1.16864886  -0.74789747   4.17948214
| 35> C   -1.69865640   0.35177393   3.49948651
| 36> C   -1.75781934   0.19248154   2.15183066
| 37> H   -1.01412837  -0.60444227   5.22794686
| 38> H   -2.04641565   1.27910389   3.94342149
| 39> H   -0.81850420  -2.99833410   1.68017562
| 40> H   -0.42943238  -2.73002547   4.11593018
| 41> H   -2.22196717   2.80647216   1.57020116
| 42> C   -2.06860240  -1.27626656   0.02342469
| 43> H   -3.11389206  -0.95960322  -0.00344443
| 44> H   -2.05261779  -2.36153901  -0.13007501
| 45> O    2.01274592  -0.76183915  -1.23150268
| 46> C    2.19839438  -0.51223876  -2.49840837
| 47> O    1.43465468  -0.05788285  -3.31101110
| 48> C    3.64564386  -0.93033581  -2.81987623
| 49> H    3.66862782  -2.01474689  -2.97721730
| 50> H    4.41644121  -0.67962714  -2.07405001
| 51> H    3.85686237  -0.47857767  -3.77874788
| 52> *
| 53>
| 54>                          ****END OF INPUT****

CARTESIAN COORDINATES (ANGSTROEM)
---------------------------------
  Pd     0.559244    0.361904   -0.290404
  O      1.955313    1.359309    0.501396
  C      1.588480    2.574305    0.332727
  O      0.499051    2.860248   -0.172524
  C      2.645253    3.660415    0.597394
  H      2.168092    4.548138    1.016188
  H      3.095418    4.000938   -0.349219
  H      3.476932    3.361104    1.248703
  N     -1.389589   -0.659405   -1.129680
  C     -1.225788   -1.664404   -2.211459
  H     -0.705169   -1.162276   -3.037759
  H     -2.246026   -2.039470   -2.432505
  H     -0.615183   -2.499121   -1.846184
  C     -2.178398    0.491406   -1.630314
  H     -2.288794    1.266170   -0.850841
  H     -3.159475    0.087201   -1.936748
  H     -1.637028    0.864943   -2.507256
  C     -1.557718   -0.975757    1.424023
  C     -1.063789   -2.062972    2.182512
  C     -0.741586   -1.887194    3.523813
  C     -1.168649   -0.747897    4.179482
  C     -1.698656    0.351774    3.499487
  C     -1.757819    0.192482    2.151831
  H     -1.014128   -0.604442    5.227947
  H     -2.046416    1.279104    3.943421
  H     -0.818504   -2.998334    1.680176
  H     -0.429432   -2.730025    4.115930
  H     -2.221967    2.806472    1.570201
  C     -2.068602   -1.276267    0.023425
  H     -3.113892   -0.959603   -0.003444
  H     -2.052618   -2.361539   -0.130075
  O      2.012746   -0.761839   -1.231503
  C      2.198394   -0.512239   -2.498408
  O      1.434655   -0.057883   -3.311011
  C      3.645644   -0.930336   -2.819876
  H      3.668628   -2.014747   -2.977217
  H      4.416441   -0.679627   -2.074050
  H      3.856862   -0.478578   -3.778748

 Total Charge           Charge          ....    0
 Multiplicity           Mult            ....    1
 Number of Electrons    NEL             ....  154
 Basis Dimension        Dim             ....  339

ORBITAL ENERGIES
----------------

  NO   OCC          E(Eh)            E(eV)
   0   2.0000     -19.509145      -530.8708
   1   2.0000     -19.473922      -529.9124
   2   2.0000     -19.469096      -529.7810
   3   2.0000     -19.441437      -529.0284
   4   2.0000     -14.707532      -400.2123
   5   2.0000     -10.561710      -287.3988
   6   2.0000     -10.533734      -286.6375
   7   2.0000     -10.532570      -286.6058
   8   2.0000     -10.510104      -285.9945
   9   2.0000     -10.507105      -285.9129
  10   2.0000     -10.490449      -285.4596
  11   2.0000     -10.485025      -285.3120
  12   2.0000     -10.482298      -285.2378
  13   2.0000     -10.481065      -285.2043
  14   2.0000     -10.479930      -285.1734
  15   2.0000     -10.477083      -285.0959
  16   2.0000     -10.434593      -283.9397
  17   2.0000     -10.410638      -283.2879
  18   2.0000      -3.664076       -99.7046
  19   2.0000      -2.318709       -63.0953
  20   2.0000      -2.301789       -62.6349
  21   2.0000      -2.275595       -61.9221
  22   2.0000      -1.192092       -32.4385
  23   2.0000      -1.148918       -31.2636
  24   2.0000      -1.083207       -29.4756
  25   2.0000      -1.068089       -29.0642
  26   2.0000      -1.058807       -28.8116
  27   2.0000      -0.997534       -27.1443
  28   2.0000      -0.897724       -24.4283
  29   2.0000      -0.867939       -23.6178
  30   2.0000      -0.814077       -22.1522
  31   2.0000      -0.810034       -22.0421
  32   2.0000      -0.809265       -22.0212
  33   2.0000      -0.785779       -21.3821
  34   2.0000      -0.717972       -19.5370
  35   2.0000      -0.709557       -19.3080
  36   2.0000      -0.679556       -18.4917
  37   2.0000      -0.618799       -16.8384
  38   2.0000      -0.606973       -16.5166
  39   2.0000      -0.580530       -15.7970
  40   2.0000      -0.575640       -15.6639
  41   2.0000      -0.565636       -15.3917
  42   2.0000      -0.559430       -15.2229
  43   2.0000      -0.540443       -14.7062
  44   2.0000      -0.535657       -14.5760
  45   2.0000      -0.532934       -14.5019
  46   2.0000      -0.526991       -14.3402
  47   2.0000      -0.517523       -14.0825
  48   2.0000      -0.504594       -13.7307
  49   2.0000      -0.499908       -13.6032
  50   2.0000      -0.492407       -13.3991
  51   2.0000      -0.488424       -13.2907
  52   2.0000      -0.481379       -13.0990
  53   2.0000      -0.474695       -12.9171
  54   2.0000      -0.465056       -12.6548
  55   2.0000      -0.450105       -12.2480
  56   2.0000      -0.447654       -12.1813
  57   2.0000      -0.445369       -12.1191
  58   2.0000      -0.438946       -11.9443
  59   2.0000      -0.436889       -11.8884
  60   2.0000      -0.433396       -11.7933
  61   2.0000      -0.430027       -11.7016
  62   2.0000      -0.411677       -11.2023
  63   2.0000      -0.402485       -10.9522
  64   2.0000      -0.379924       -10.3382
  65   2.0000      -0.364100        -9.9077
  66   2.0000      -0.354158        -9.6371
  67   2.0000      -0.349537        -9.5114
  68   2.0000      -0.337811        -9.1923
  69   2.0000      -0.333207        -9.0670
  70   2.0000      -0.329202        -8.9580
  71   2.0000      -0.318332        -8.6622
  72   2.0000      -0.312075        -8.4920
  73   2.0000      -0.297957        -8.1078
  74   2.0000      -0.291434        -7.9303
  75   2.0000      -0.284043        -7.7292
  76   2.0000      -0.272368        -7.4115
  77   0.0000      -0.129312        -3.5188
  78   0.0000      -0.079211        -2.1555
  79   0.0000      -0.023825        -0.6483
  80   0.0000      -0.012188        -0.3317
  81   0.0000       0.056062         1.5255

MULLIKEN ATOMIC CHARGES
-----------------------
   0 Pd:    0.517189
   1 O :   -0.498699
   2 C :    0.610544
   3 O :   -0.457293
   4 C :   -0.760470
   5 H :    0.245564
   6 H :    0.257102
   7 H :    0.244448
   8 N :   -0.454688
   9 C :   -0.528319
  10 H :    0.298059
  11 H :    0.208207
  12 H :    0.254074
  13 C :   -0.536165
  14 H :    0.279384
  15 H :    0.216536
  16 H :    0.282326
  17 C :   -0.006960
  18 C :   -0.256771
  19 C :   -0.185469
  20 C :   -0.243315
  21 C :   -0.250019
  22 C :    0.029411
  23 H :    0.244396
  24 H :    0.274163
  25 H :    0.245168
  26 H :    0.233090
  27 H :   -0.005056
  28 C :   -0.308161
  29 H :    0.251015
  30 H :    0.250495
  31 O :   -0.526276
  32 C :    0.555804
  33 O :   -0.445312
  34 C :   -0.740086
  35 H :    0.229764
  36 H :    0.244910
  37 H :    0.231409
Sum of atomic charges:    0.0000000

LOEWDIN ATOMIC CHARGES
----------------------
   0 Pd:   -0.216917
   1 O :   -0.117300
   2 C :    0.169368
   3 O :   -0.213187
   4 C :   -0.383841
   5 H :    0.148494
   6 H :    0.160003
   7 H :    0.145268
   8 N :   -0.102227
   9 C :   -0.239718
  10 H :    0.168497
  11 H :    0.115709
  12 H :    0.143310
  13 C :   -0.237986
  14 H :    0.160174
  15 H :    0.118474
  16 H :    0.160675
  17 C :   -0.065059
  18 C :   -0.095935
  19 C :   -0.127655
  20 C :   -0.111378
  21 C :   -0.138206
  22 C :    0.038357
  23 H :    0.147085
  24 H :    0.166034
  25 H :    0.151800
  26 H :    0.148446
  27 H :   -0.004182
  28 C :   -0.105538
  29 H :    0.145876
  30 H :    0.145237
  31 O :   -0.190343
  32 C :    0.125831
  33 O :   -0.250461
  34 C :   -0.387614
  35 H :    0.144620
  36 H :    0.146601
  37 H :    0.137687

  Mayer bond orders larger than 0.100000
B(  0-Pd,  1-O ) :   0.6943 B(  0-Pd,  3-O ) :   0.2517 B(  0-Pd,  8-N ) :   0.3587
B(  0-Pd, 31-O ) :   0.6694 B(  1-O ,  2-C ) :   1.2688 B(  2-C ,  3-O ) :   1.7444
B(  2-C ,  4-C ) :   0.9376 B(  4-C ,  5-H ) :   0.9127 B(  4-C ,  6-H ) :   0.9062
B(  4-C ,  7-H ) :   0.9107 B(  8-N ,  9-C ) :   0.9213 B(  8-N , 13-C ) :   0.9194
B(  8-N , 28-C ) :   0.9032 B(  9-C , 10-H ) :   0.8754 B(  9-C , 11-H ) :   0.9063
B(  9-C , 12-H ) :   0.9094 B( 13-C , 14-H ) :   0.8856 B( 13-C , 15-H ) :   0.9055
B( 13-C , 16-H ) :   0.8961 B( 17-C , 18-C ) :   1.3829 B( 17-C , 22-C ) :   1.3989
B( 17-C , 28-C ) :   0.9354 B( 18-C , 19-C ) :   1.4256 B( 18-C , 25-H ) :   0.9022
B( 19-C , 20-C ) :   1.4308 B( 19-C , 26-H ) :   0.9158 B( 20-C , 21-C ) :   1.3723
B( 20-C , 23-H ) :   0.9059 B( 21-C , 22-C ) :   1.4748 B( 21-C , 24-H ) :   0.8974
B( 22-C , 27-H ) :   0.7574 B( 28-C , 29-H ) :   0.8961 B( 28-C , 30-H ) :   0.9156
B( 31-O , 32-C ) :   1.2623 B( 31-O , 33-O ) :   0.1026 B( 32-C , 33-O ) :   1.9061
B( 32-C , 34-C ) :   0.9120 B( 34-C , 35-H ) :   0.9172 B( 34-C , 36-H ) :   0.9154
B( 34-C , 37-H ) :   0.9175

Dispersion correction           -0.025660725
FINAL SINGLE POINT ENERGY      -988.268065097210
Dispersion correction            ... done

DIPOLE MOMENT
-------------
                                X             Y             Z
Electronic contribution:     24.61035      16.27489     -13.05501
Nuclear contribution   :    -26.19824     -17.55736      14.65652
                        -----------------------------------------
Total Dipole Moment    :     -1.58789      -1.28247       1.60151
                        -----------------------------------------
Magnitude (a.u.)       :      2.59440
Magnitude (Debye)      :      6.59445

Rotational constants in cm-1:     0.013402     0.008333     0.006730
Rotational constants in MHz :   401.774117   249.812668   201.757511

                             ****ORCA TERMINATED NORMALLY****
TOTAL RUN TIME: 0 days 0 hours 20 minutes 9 seconds 373 msec
