                         Program Version 5.0.3 -  RELEASE  -
|  1> ! EnGrad PBEh-3c
|  2> %output
|  3> xyzfile=True
|  4> end
|  5> %scf
|  6> maxiter 250
|  7> end
|  8> %output
|  9> Print[P_Hirshfeld] = 1
| 10> end
| 11> % maxcore
| 12> 4000
| 13> *xyz 0 1
| 14> Pd   0.54769729   0.30932385  -0.31932148
| 15> O    1.95870459   1.38417542   0.49212671
| 16> C    1.61274084   2.58143860   0.31550582
| 17> O    0.47490920   2.85828294  -0.16705017
| 18> C    2.63438564   3.63999374   0.60406261
| 19> H    2.18160313   4.53716059   1.01593907
| 20> H    3.09490320   3.97336328  -0.33847836
| 21> H    3.46926718   3.33616676   1.24869922
| 22> N   -1.35392917  -0.64708165  -1.10463485
| 23> C   -1.22087214  -1.68072973  -2.17441938
| 24> H   -0.66849118  -1.21145569  -3.00949717
| 25> H   -2.22623858  -2.09046894  -2.41320327
| 26> H   -0.60906954  -2.52149873  -1.80127149
| 27> C   -2.16292939   0.46453953  -1.65246138
| 28> H   -2.28371251   1.25707969  -0.87754910
| 29> H   -3.15410382   0.08159918  -1.95869875
| 30> H   -1.62398431   0.84213495  -2.52133361
| 31> C   -1.57740513  -0.97277375   1.44318343
| 32> C   -1.11704736  -2.05314323   2.18455983
| 33> C   -0.80604260  -1.90377411   3.53059968
| 34> C   -1.16947777  -0.72744175   4.20033255
| 35> C   -1.65342466   0.38488132   3.51859818
| 36> C   -1.73378916   0.24769755   2.14371355
| 37> H   -1.01725924  -0.61393706   5.25200383
| 38> H   -1.92922661   1.36669603   3.94232514
| 39> H   -0.92494378  -3.00807592   1.67602652
| 40> H   -0.45987716  -2.74002481   4.11972707
| 41> H   -2.15530620   2.64074321   1.52971985
| 42> C   -2.08291120  -1.24211938   0.01641956
| 43> H   -3.11932842  -0.90886620  -0.01859112
| 44> H   -2.06759837  -2.32932353  -0.12499816
| 45> O    2.00052445  -0.74870702  -1.24884031
| 46> C    2.22791142  -0.53133831  -2.47938410
| 47> O    1.38938578  -0.08382433  -3.31746228
| 48> C    3.63139011  -0.88664039  -2.84793409
| 49> H    3.69077674  -1.96377231  -3.00556381
| 50> H    4.39921740  -0.63377001  -2.07220567
| 51> H    3.83481087  -0.40796923  -3.78149628
| 52> *
| 53>
| 54>                          ****END OF INPUT****

CARTESIAN COORDINATES (ANGSTROEM)
---------------------------------
  Pd     0.547697    0.309324   -0.319321
  O      1.958705    1.384175    0.492127
  C      1.612741    2.581439    0.315506
  O      0.474909    2.858283   -0.167050
  C      2.634386    3.639994    0.604063
  H      2.181603    4.537161    1.015939
  H      3.094903    3.973363   -0.338478
  H      3.469267    3.336167    1.248699
  N     -1.353929   -0.647082   -1.104635
  C     -1.220872   -1.680730   -2.174419
  H     -0.668491   -1.211456   -3.009497
  H     -2.226239   -2.090469   -2.413203
  H     -0.609070   -2.521499   -1.801271
  C     -2.162929    0.464540   -1.652461
  H     -2.283713    1.257080   -0.877549
  H     -3.154104    0.081599   -1.958699
  H     -1.623984    0.842135   -2.521334
  C     -1.577405   -0.972774    1.443183
  C     -1.117047   -2.053143    2.184560
  C     -0.806043   -1.903774    3.530600
  C     -1.169478   -0.727442    4.200333
  C     -1.653425    0.384881    3.518598
  C     -1.733789    0.247698    2.143714
  H     -1.017259   -0.613937    5.252004
  H     -1.929227    1.366696    3.942325
  H     -0.924944   -3.008076    1.676027
  H     -0.459877   -2.740025    4.119727
  H     -2.155306    2.640743    1.529720
  C     -2.082911   -1.242119    0.016420
  H     -3.119328   -0.908866   -0.018591
  H     -2.067598   -2.329324   -0.124998
  O      2.000524   -0.748707   -1.248840
  C      2.227911   -0.531338   -2.479384
  O      1.389386   -0.083824   -3.317462
  C      3.631390   -0.886640   -2.847934
  H      3.690777   -1.963772   -3.005564
  H      4.399217   -0.633770   -2.072206
  H      3.834811   -0.407969   -3.781496

 Total Charge           Charge          ....    0
 Multiplicity           Mult            ....    1
 Number of Electrons    NEL             ....  154
 Basis Dimension        Dim             ....  339

ORBITAL ENERGIES
----------------

  NO   OCC          E(Eh)            E(eV)
   0   2.0000     -19.503707      -530.7229
   1   2.0000     -19.481072      -530.1069
   2   2.0000     -19.456361      -529.4345
   3   2.0000     -19.427149      -528.6396
   4   2.0000     -14.715865      -400.4390
   5   2.0000     -10.554918      -287.2139
   6   2.0000     -10.533751      -286.6379
   7   2.0000     -10.533095      -286.6201
   8   2.0000     -10.509455      -285.9768
   9   2.0000     -10.504701      -285.8474
  10   2.0000     -10.486266      -285.3458
  11   2.0000     -10.485098      -285.3140
  12   2.0000     -10.482157      -285.2340
  13   2.0000     -10.481177      -285.2073
  14   2.0000     -10.480717      -285.1948
  15   2.0000     -10.477718      -285.1132
  16   2.0000     -10.430988      -283.8416
  17   2.0000     -10.414028      -283.3801
  18   2.0000      -3.667810       -99.8062
  19   2.0000      -2.320576       -63.1461
  20   2.0000      -2.307145       -62.7806
  21   2.0000      -2.278275       -61.9950
  22   2.0000      -1.184751       -32.2387
  23   2.0000      -1.146544       -31.1990
  24   2.0000      -1.075317       -29.2609
  25   2.0000      -1.063145       -28.9296
  26   2.0000      -1.038860       -28.2688
  27   2.0000      -0.990552       -26.9543
  28   2.0000      -0.893656       -24.3176
  29   2.0000      -0.860827       -23.4243
  30   2.0000      -0.816407       -22.2156
  31   2.0000      -0.813684       -22.1415
  32   2.0000      -0.806842       -21.9553
  33   2.0000      -0.799454       -21.7542
  34   2.0000      -0.716974       -19.5099
  35   2.0000      -0.704805       -19.1787
  36   2.0000      -0.681484       -18.5441
  37   2.0000      -0.615617       -16.7518
  38   2.0000      -0.603258       -16.4155
  39   2.0000      -0.591049       -16.0833
  40   2.0000      -0.573437       -15.6040
  41   2.0000      -0.566363       -15.4115
  42   2.0000      -0.559017       -15.2116
  43   2.0000      -0.535219       -14.5641
  44   2.0000      -0.533377       -14.5139
  45   2.0000      -0.529173       -14.3995
  46   2.0000      -0.519787       -14.1441
  47   2.0000      -0.513854       -13.9827
  48   2.0000      -0.505713       -13.7612
  49   2.0000      -0.499031       -13.5793
  50   2.0000      -0.492669       -13.4062
  51   2.0000      -0.490078       -13.3357
  52   2.0000      -0.484443       -13.1824
  53   2.0000      -0.472861       -12.8672
  54   2.0000      -0.460256       -12.5242
  55   2.0000      -0.446867       -12.1599
  56   2.0000      -0.444051       -12.0832
  57   2.0000      -0.439894       -11.9701
  58   2.0000      -0.436243       -11.8708
  59   2.0000      -0.432170       -11.7599
  60   2.0000      -0.430131       -11.7045
  61   2.0000      -0.426033       -11.5930
  62   2.0000      -0.413377       -11.2485
  63   2.0000      -0.399576       -10.8730
  64   2.0000      -0.378552       -10.3009
  65   2.0000      -0.364364        -9.9148
  66   2.0000      -0.355398        -9.6709
  67   2.0000      -0.346219        -9.4211
  68   2.0000      -0.340484        -9.2650
  69   2.0000      -0.328415        -8.9366
  70   2.0000      -0.326058        -8.8725
  71   2.0000      -0.316973        -8.6253
  72   2.0000      -0.306605        -8.3431
  73   2.0000      -0.297506        -8.0955
  74   2.0000      -0.289863        -7.8876
  75   2.0000      -0.284893        -7.7523
  76   2.0000      -0.278071        -7.5667
  77   0.0000      -0.119555        -3.2533
  78   0.0000      -0.084670        -2.3040
  79   0.0000      -0.020830        -0.5668
  80   0.0000      -0.010582        -0.2879
  81   0.0000       0.054998         1.4966

MULLIKEN ATOMIC CHARGES
-----------------------
   0 Pd:    0.549628
   1 O :   -0.484326
   2 C :    0.615465
   3 O :   -0.494155
   4 C :   -0.766735
   5 H :    0.249899
   6 H :    0.257375
   7 H :    0.246506
   8 N :   -0.459457
   9 C :   -0.543044
  10 H :    0.308044
  11 H :    0.214618
  12 H :    0.252178
  13 C :   -0.541420
  14 H :    0.274813
  15 H :    0.222881
  16 H :    0.290844
  17 C :   -0.011429
  18 C :   -0.248350
  19 C :   -0.197896
  20 C :   -0.237957
  21 C :   -0.248558
  22 C :    0.000189
  23 H :    0.242815
  24 H :    0.266012
  25 H :    0.239362
  26 H :    0.234924
  27 H :    0.036220
  28 C :   -0.305566
  29 H :    0.256184
  30 H :    0.248298
  31 O :   -0.508961
  32 C :    0.568159
  33 O :   -0.510592
  34 C :   -0.739015
  35 H :    0.235857
  36 H :    0.240329
  37 H :    0.246860
Sum of atomic charges:   -0.0000000

LOEWDIN ATOMIC CHARGES
----------------------
   0 Pd:   -0.197801
   1 O :   -0.115586
   2 C :    0.163152
   3 O :   -0.259727
   4 C :   -0.381440
   5 H :    0.150252
   6 H :    0.161898
   7 H :    0.147052
   8 N :   -0.083129
   9 C :   -0.243709
  10 H :    0.173790
  11 H :    0.118567
  12 H :    0.142024
  13 C :   -0.237509
  14 H :    0.158738
  15 H :    0.121842
  16 H :    0.163064
  17 C :   -0.065581
  18 C :   -0.104864
  19 C :   -0.124473
  20 C :   -0.116316
  21 C :   -0.138822
  22 C :    0.014588
  23 H :    0.146471
  24 H :    0.163192
  25 H :    0.150473
  26 H :    0.147115
  27 H :    0.039780
  28 C :   -0.106119
  29 H :    0.147958
  30 H :    0.144583
  31 O :   -0.154418
  32 C :    0.136165
  33 O :   -0.326141
  34 C :   -0.378473
  35 H :    0.149258
  36 H :    0.148122
  37 H :    0.146020

  Mayer bond orders larger than 0.100000
B(  0-Pd,  1-O ) :   0.6631 B(  0-Pd,  3-O ) :   0.2577 B(  0-Pd,  8-N ) :   0.3852
B(  0-Pd, 31-O ) :   0.6483 B(  1-O ,  2-C ) :   1.3191 B(  2-C ,  3-O ) :   1.7047
B(  2-C ,  4-C ) :   0.9438 B(  4-C ,  5-H ) :   0.9115 B(  4-C ,  6-H ) :   0.9042
B(  4-C ,  7-H ) :   0.9101 B(  8-N ,  9-C ) :   0.9151 B(  8-N , 13-C ) :   0.9165
B(  8-N , 28-C ) :   0.8990 B(  9-C , 10-H ) :   0.8644 B(  9-C , 11-H ) :   0.9034
B(  9-C , 12-H ) :   0.9091 B( 13-C , 14-H ) :   0.8881 B( 13-C , 15-H ) :   0.9030
B( 13-C , 16-H ) :   0.8922 B( 17-C , 18-C ) :   1.3969 B( 17-C , 22-C ) :   1.3866
B( 17-C , 28-C ) :   0.9374 B( 18-C , 19-C ) :   1.4261 B( 18-C , 25-H ) :   0.9051
B( 19-C , 20-C ) :   1.4304 B( 19-C , 26-H ) :   0.9150 B( 20-C , 21-C ) :   1.3858
B( 20-C , 23-H ) :   0.9076 B( 21-C , 22-C ) :   1.4591 B( 21-C , 24-H ) :   0.9015
B( 22-C , 27-H ) :   0.7915 B( 28-C , 29-H ) :   0.8952 B( 28-C , 30-H ) :   0.9155
B( 31-O , 32-C ) :   1.3134 B( 31-O , 33-O ) :   0.1009 B( 32-C , 33-O ) :   1.8148
B( 32-C , 34-C ) :   0.9300 B( 34-C , 35-H ) :   0.9124 B( 34-C , 36-H ) :   0.9154
B( 34-C , 37-H ) :   0.9141

Dispersion correction           -0.025861440
FINAL SINGLE POINT ENERGY      -988.288774760784
Dispersion correction            ... done

DIPOLE MOMENT
-------------
                                X             Y             Z
Electronic contribution:     24.13356      13.39352     -14.59165
Nuclear contribution   :    -25.65003     -14.68689      16.20953
                        -----------------------------------------
Total Dipole Moment    :     -1.51647      -1.29338       1.61788
                        -----------------------------------------
Magnitude (a.u.)       :      2.56711
Magnitude (Debye)      :      6.52508

Rotational constants in cm-1:     0.013498     0.008346     0.006718
Rotational constants in MHz :   404.653789   250.207940   201.409122

                             ****ORCA TERMINATED NORMALLY****
TOTAL RUN TIME: 0 days 0 hours 19 minutes 43 seconds 453 msec
