                         Program Version 5.0.3 -  RELEASE  -
|  1> ! EnGrad PBEh-3c
|  2> %output
|  3> xyzfile=True
|  4> end
|  5> %scf
|  6> maxiter 250
|  7> end
|  8> %output
|  9> Print[P_Hirshfeld] = 1
| 10> end
| 11> % maxcore
| 12> 4000
| 13> *xyz 0 1
| 14> Pd   0.51641922   0.28712667  -0.34680243
| 15> O    1.97087623   1.38795431   0.50321988
| 16> C    1.63285357   2.59559452   0.30128813
| 17> O    0.47943268   2.85060684  -0.15464133
| 18> C    2.63500852   3.64569802   0.60448285
| 19> H    2.18149242   4.53596632   1.01860548
| 20> H    3.09086058   3.96628512  -0.33629480
| 21> H    3.46055448   3.33225268   1.24642954
| 22> N   -1.32590784  -0.63697186  -1.08616521
| 23> C   -1.22055147  -1.67071606  -2.15553264
| 24> H   -0.68347451  -1.22809183  -3.00665971
| 25> H   -2.21246956  -2.08663679  -2.42463667
| 26> H   -0.61272068  -2.51587497  -1.80088260
| 27> C   -2.15094678   0.45012027  -1.65421947
| 28> H   -2.28224714   1.24692883  -0.89490174
| 29> H   -3.14992386   0.09115978  -1.95991848
| 30> H   -1.63111046   0.84565327  -2.51851021
| 31> C   -1.57911212  -0.97051641   1.43950672
| 32> C   -1.09856500  -2.03945162   2.18066095
| 33> C   -0.84051543  -1.90913935   3.53861512
| 34> C   -1.15804486  -0.71287385   4.20055704
| 35> C   -1.64337497   0.38690339   3.50084007
| 36> C   -1.74794941   0.26588321   2.11479848
| 37> H   -1.01255491  -0.62022458   5.26314332
| 38> H   -1.91909922   1.34501440   3.94720274
| 39> H   -0.93592959  -3.00449067   1.68559610
| 40> H   -0.46123282  -2.74311567   4.12177763
| 41> H   -2.14762770   2.61377001   1.53177615
| 42> C   -2.08620356  -1.24043021   0.02145243
| 43> H   -3.12481357  -0.91334906  -0.01330356
| 44> H   -2.07807631  -2.32594161  -0.11539931
| 45> O    1.96871377  -0.72752167  -1.23498705
| 46> C    2.23138898  -0.52773583  -2.47408738
| 47> O    1.40958387  -0.10377743  -3.29543517
| 48> C    3.62828764  -0.88561778  -2.86364458
| 49> H    3.69452584  -1.95875505  -3.00858293
| 50> H    4.38478960  -0.62866041  -2.08465052
| 51> H    3.84977722  -0.40035613  -3.79157154
| 52> *
| 53>
| 54>                          ****END OF INPUT****

CARTESIAN COORDINATES (ANGSTROEM)
---------------------------------
  Pd     0.516419    0.287127   -0.346802
  O      1.970876    1.387954    0.503220
  C      1.632854    2.595595    0.301288
  O      0.479433    2.850607   -0.154641
  C      2.635009    3.645698    0.604483
  H      2.181492    4.535966    1.018605
  H      3.090861    3.966285   -0.336295
  H      3.460554    3.332253    1.246430
  N     -1.325908   -0.636972   -1.086165
  C     -1.220551   -1.670716   -2.155533
  H     -0.683475   -1.228092   -3.006660
  H     -2.212470   -2.086637   -2.424637
  H     -0.612721   -2.515875   -1.800883
  C     -2.150947    0.450120   -1.654219
  H     -2.282247    1.246929   -0.894902
  H     -3.149924    0.091160   -1.959918
  H     -1.631110    0.845653   -2.518510
  C     -1.579112   -0.970516    1.439507
  C     -1.098565   -2.039452    2.180661
  C     -0.840515   -1.909139    3.538615
  C     -1.158045   -0.712874    4.200557
  C     -1.643375    0.386903    3.500840
  C     -1.747949    0.265883    2.114798
  H     -1.012555   -0.620225    5.263143
  H     -1.919099    1.345014    3.947203
  H     -0.935930   -3.004491    1.685596
  H     -0.461233   -2.743116    4.121778
  H     -2.147628    2.613770    1.531776
  C     -2.086204   -1.240430    0.021452
  H     -3.124814   -0.913349   -0.013304
  H     -2.078076   -2.325942   -0.115399
  O      1.968714   -0.727522   -1.234987
  C      2.231389   -0.527736   -2.474087
  O      1.409584   -0.103777   -3.295435
  C      3.628288   -0.885618   -2.863645
  H      3.694526   -1.958755   -3.008583
  H      4.384790   -0.628660   -2.084651
  H      3.849777   -0.400356   -3.791572

 Total Charge           Charge          ....    0
 Multiplicity           Mult            ....    1
 Number of Electrons    NEL             ....  154
 Basis Dimension        Dim             ....  339

ORBITAL ENERGIES
----------------

  NO   OCC          E(Eh)            E(eV)
   0   2.0000     -19.490161      -530.3542
   1   2.0000     -19.479003      -530.0506
   2   2.0000     -19.448678      -529.2254
   3   2.0000     -19.428093      -528.6653
   4   2.0000     -14.722747      -400.6263
   5   2.0000     -10.546980      -286.9979
   6   2.0000     -10.532627      -286.6073
   7   2.0000     -10.531327      -286.5720
   8   2.0000     -10.509994      -285.9915
   9   2.0000     -10.502696      -285.7929
  10   2.0000     -10.483571      -285.2725
  11   2.0000     -10.482718      -285.2493
  12   2.0000     -10.482096      -285.2323
  13   2.0000     -10.481189      -285.2077
  14   2.0000     -10.478893      -285.1452
  15   2.0000     -10.476485      -285.0797
  16   2.0000     -10.425647      -283.6963
  17   2.0000     -10.414509      -283.3932
  18   2.0000      -3.664734       -99.7225
  19   2.0000      -2.315706       -63.0136
  20   2.0000      -2.305979       -62.7489
  21   2.0000      -2.274627       -61.8958
  22   2.0000      -1.168528       -31.7973
  23   2.0000      -1.149484       -31.2791
  24   2.0000      -1.080006       -29.3885
  25   2.0000      -1.051424       -28.6107
  26   2.0000      -1.047512       -28.5042
  27   2.0000      -0.987081       -26.8598
  28   2.0000      -0.892815       -24.2947
  29   2.0000      -0.858086       -23.3497
  30   2.0000      -0.817300       -22.2399
  31   2.0000      -0.815811       -22.1993
  32   2.0000      -0.806967       -21.9587
  33   2.0000      -0.801420       -21.8078
  34   2.0000      -0.720990       -19.6191
  35   2.0000      -0.703511       -19.1435
  36   2.0000      -0.681799       -18.5527
  37   2.0000      -0.607591       -16.5334
  38   2.0000      -0.599754       -16.3201
  39   2.0000      -0.591601       -16.0983
  40   2.0000      -0.574355       -15.6290
  41   2.0000      -0.570492       -15.5239
  42   2.0000      -0.560304       -15.2466
  43   2.0000      -0.535181       -14.5630
  44   2.0000      -0.528642       -14.3851
  45   2.0000      -0.524789       -14.2802
  46   2.0000      -0.511603       -13.9214
  47   2.0000      -0.510381       -13.8882
  48   2.0000      -0.504971       -13.7410
  49   2.0000      -0.500166       -13.6102
  50   2.0000      -0.494641       -13.4599
  51   2.0000      -0.491282       -13.3685
  52   2.0000      -0.486347       -13.2342
  53   2.0000      -0.472349       -12.8533
  54   2.0000      -0.459188       -12.4951
  55   2.0000      -0.444626       -12.0989
  56   2.0000      -0.440875       -11.9968
  57   2.0000      -0.439839       -11.9686
  58   2.0000      -0.435410       -11.8481
  59   2.0000      -0.431316       -11.7367
  60   2.0000      -0.428482       -11.6596
  61   2.0000      -0.424161       -11.5420
  62   2.0000      -0.413557       -11.2534
  63   2.0000      -0.401159       -10.9161
  64   2.0000      -0.379726       -10.3329
  65   2.0000      -0.367501       -10.0002
  66   2.0000      -0.351748        -9.5715
  67   2.0000      -0.341906        -9.3037
  68   2.0000      -0.339769        -9.2456
  69   2.0000      -0.326183        -8.8759
  70   2.0000      -0.323003        -8.7894
  71   2.0000      -0.312870        -8.5136
  72   2.0000      -0.303363        -8.2549
  73   2.0000      -0.297747        -8.1021
  74   2.0000      -0.294132        -8.0037
  75   2.0000      -0.284161        -7.7324
  76   2.0000      -0.275765        -7.5039
  77   0.0000      -0.118987        -3.2378
  78   0.0000      -0.080649        -2.1946
  79   0.0000      -0.019202        -0.5225
  80   0.0000      -0.008014        -0.2181
  81   0.0000       0.059095         1.6081

MULLIKEN ATOMIC CHARGES
-----------------------
   0 Pd:    0.550062
   1 O :   -0.489910
   2 C :    0.615414
   3 O :   -0.501812
   4 C :   -0.765788
   5 H :    0.249861
   6 H :    0.255128
   7 H :    0.249068
   8 N :   -0.472204
   9 C :   -0.549242
  10 H :    0.308608
  11 H :    0.219413
  12 H :    0.256213
  13 C :   -0.549459
  14 H :    0.276862
  15 H :    0.228395
  16 H :    0.294923
  17 C :   -0.019481
  18 C :   -0.234485
  19 C :   -0.211213
  20 C :   -0.224254
  21 C :   -0.252301
  22 C :   -0.010922
  23 H :    0.241112
  24 H :    0.260251
  25 H :    0.235361
  26 H :    0.237280
  27 H :    0.057303
  28 C :   -0.307393
  29 H :    0.260046
  30 H :    0.250448
  31 O :   -0.522636
  32 C :    0.566627
  33 O :   -0.485711
  34 C :   -0.742073
  35 H :    0.237516
  36 H :    0.240873
  37 H :    0.248119
Sum of atomic charges:    0.0000000

LOEWDIN ATOMIC CHARGES
----------------------
   0 Pd:   -0.210729
   1 O :   -0.141180
   2 C :    0.160823
   3 O :   -0.268668
   4 C :   -0.380340
   5 H :    0.150382
   6 H :    0.161424
   7 H :    0.148367
   8 N :   -0.068059
   9 C :   -0.244043
  10 H :    0.171592
  11 H :    0.120345
  12 H :    0.142883
  13 C :   -0.237891
  14 H :    0.157751
  15 H :    0.124246
  16 H :    0.163098
  17 C :   -0.065395
  18 C :   -0.106515
  19 C :   -0.123510
  20 C :   -0.118334
  21 C :   -0.136849
  22 C :    0.003630
  23 H :    0.146442
  24 H :    0.158219
  25 H :    0.149728
  26 H :    0.146516
  27 H :    0.061716
  28 C :   -0.103531
  29 H :    0.149935
  30 H :    0.145465
  31 O :   -0.157082
  32 C :    0.127441
  33 O :   -0.294203
  34 C :   -0.378280
  35 H :    0.149536
  36 H :    0.148022
  37 H :    0.147048

  Mayer bond orders larger than 0.100000
B(  0-Pd,  1-O ) :   0.6486 B(  0-Pd,  3-O ) :   0.2513 B(  0-Pd,  8-N ) :   0.3988
B(  0-Pd, 31-O ) :   0.6722 B(  1-O ,  2-C ) :   1.3236 B(  2-C ,  3-O ) :   1.7047
B(  2-C ,  4-C ) :   0.9476 B(  4-C ,  5-H ) :   0.9119 B(  4-C ,  6-H ) :   0.9046
B(  4-C ,  7-H ) :   0.9101 B(  8-N ,  9-C ) :   0.9148 B(  8-N , 13-C ) :   0.9147
B(  8-N , 28-C ) :   0.8925 B(  9-C , 10-H ) :   0.8672 B(  9-C , 11-H ) :   0.9020
B(  9-C , 12-H ) :   0.9080 B( 13-C , 14-H ) :   0.8880 B( 13-C , 15-H ) :   0.9018
B( 13-C , 16-H ) :   0.8904 B( 17-C , 18-C ) :   1.3972 B( 17-C , 22-C ) :   1.3905
B( 17-C , 28-C ) :   0.9409 B( 18-C , 19-C ) :   1.4336 B( 18-C , 25-H ) :   0.9070
B( 19-C , 20-C ) :   1.4276 B( 19-C , 26-H ) :   0.9132 B( 20-C , 21-C ) :   1.3961
B( 20-C , 23-H ) :   0.9082 B( 21-C , 22-C ) :   1.4538 B( 21-C , 24-H ) :   0.9043
B( 22-C , 27-H ) :   0.8010 B( 28-C , 29-H ) :   0.8949 B( 28-C , 30-H ) :   0.9149
B( 31-O , 32-C ) :   1.2778 B( 32-C , 33-O ) :   1.8501 B( 32-C , 34-C ) :   0.9328
B( 34-C , 35-H ) :   0.9121 B( 34-C , 36-H ) :   0.9146 B( 34-C , 37-H ) :   0.9150

Dispersion correction           -0.025968973
FINAL SINGLE POINT ENERGY      -988.302419600605
Dispersion correction            ... done

DIPOLE MOMENT
-------------
                                X             Y             Z
Electronic contribution:     22.30230      12.14807     -16.32350
Nuclear contribution   :    -23.94750     -13.46721      17.72413
                        -----------------------------------------
Total Dipole Moment    :     -1.64520      -1.31915       1.40063
                        -----------------------------------------
Magnitude (a.u.)       :      2.53152
Magnitude (Debye)      :      6.43461

Rotational constants in cm-1:     0.013565     0.008378     0.006733
Rotational constants in MHz :   406.671444   251.167573   201.857025

                             ****ORCA TERMINATED NORMALLY****
TOTAL RUN TIME: 0 days 0 hours 24 minutes 42 seconds 831 msec
