                         Program Version 5.0.3 -  RELEASE  -
|  1> ! EnGrad PBEh-3c
|  2> %output
|  3> xyzfile=True
|  4> end
|  5> %scf
|  6> maxiter 250
|  7> end
|  8> %output
|  9> Print[P_Hirshfeld] = 1
| 10> end
| 11> % maxcore
| 12> 4000
| 13> *xyz 0 1
| 14> Pd   0.50463338   0.27513838  -0.35949895
| 15> O    1.97459509   1.38817246   0.49794040
| 16> C    1.62284706   2.59504738   0.28908915
| 17> O    0.48654739   2.84727173  -0.14483417
| 18> C    2.63868341   3.64672605   0.60431607
| 19> H    2.18412410   4.53320348   1.02078153
| 20> H    3.09017111   3.95487564  -0.33267067
| 21> H    3.45366015   3.32030849   1.24615186
| 22> N   -1.31166430  -0.63585477  -1.08075328
| 23> C   -1.20969859  -1.67671786  -2.13758709
| 24> H   -0.67847077  -1.25264562  -2.99355452
| 25> H   -2.19882122  -2.09880795  -2.41965403
| 26> H   -0.61271221  -2.51962249  -1.78388923
| 27> C   -2.14081583   0.44493157  -1.65750274
| 28> H   -2.27928582   1.23780954  -0.91419674
| 29> H   -3.14287797   0.09039721  -1.96724252
| 30> H   -1.62769097   0.83976462  -2.52474520
| 31> C   -1.59251202  -0.94981131   1.43726164
| 32> C   -1.11140140  -2.03807102   2.18496754
| 33> C   -0.87413191  -1.91001204   3.54944439
| 34> C   -1.15433364  -0.70782081   4.20338360
| 35> C   -1.62289004   0.40515637   3.48883697
| 36> C   -1.74460513   0.29224067   2.10940377
| 37> H   -1.01171224  -0.62555732   5.27570124
| 38> H   -1.87135531   1.36334750   3.94890883
| 39> H   -0.97823541  -3.00321087   1.68926172
| 40> H   -0.47525216  -2.74652324   4.12202124
| 41> H   -2.11850672   2.52725108   1.51992869
| 42> C   -2.08768264  -1.23047450   0.03262938
| 43> H   -3.12902605  -0.89634048  -0.01812275
| 44> H   -2.08837776  -2.31246721  -0.11013827
| 45> O    1.95912150  -0.72252039  -1.22736051
| 46> C    2.21697088  -0.52177418  -2.48264069
| 47> O    1.41379706  -0.12568220  -3.28190539
| 48> C    3.63152172  -0.87023796  -2.86819265
| 49> H    3.70445557  -1.94117662  -3.02172780
| 50> H    4.36917007  -0.61102187  -2.09405667
| 51> H    3.84826864  -0.37017554  -3.80044171
| 52> *
| 53>
| 54>                          ****END OF INPUT****

CARTESIAN COORDINATES (ANGSTROEM)
---------------------------------
  Pd     0.504633    0.275138   -0.359499
  O      1.974595    1.388172    0.497940
  C      1.622847    2.595047    0.289089
  O      0.486547    2.847272   -0.144834
  C      2.638683    3.646726    0.604316
  H      2.184124    4.533203    1.020782
  H      3.090171    3.954876   -0.332671
  H      3.453660    3.320308    1.246152
  N     -1.311664   -0.635855   -1.080753
  C     -1.209699   -1.676718   -2.137587
  H     -0.678471   -1.252646   -2.993555
  H     -2.198821   -2.098808   -2.419654
  H     -0.612712   -2.519622   -1.783889
  C     -2.140816    0.444932   -1.657503
  H     -2.279286    1.237810   -0.914197
  H     -3.142878    0.090397   -1.967243
  H     -1.627691    0.839765   -2.524745
  C     -1.592512   -0.949811    1.437262
  C     -1.111401   -2.038071    2.184968
  C     -0.874132   -1.910012    3.549444
  C     -1.154334   -0.707821    4.203384
  C     -1.622890    0.405156    3.488837
  C     -1.744605    0.292241    2.109404
  H     -1.011712   -0.625557    5.275701
  H     -1.871355    1.363347    3.948909
  H     -0.978235   -3.003211    1.689262
  H     -0.475252   -2.746523    4.122021
  H     -2.118507    2.527251    1.519929
  C     -2.087683   -1.230474    0.032629
  H     -3.129026   -0.896340   -0.018123
  H     -2.088378   -2.312467   -0.110138
  O      1.959121   -0.722520   -1.227361
  C      2.216971   -0.521774   -2.482641
  O      1.413797   -0.125682   -3.281905
  C      3.631522   -0.870238   -2.868193
  H      3.704456   -1.941177   -3.021728
  H      4.369170   -0.611022   -2.094057
  H      3.848269   -0.370176   -3.800442

 Total Charge           Charge          ....    0
 Multiplicity           Mult            ....    1
 Number of Electrons    NEL             ....  154
 Basis Dimension        Dim             ....  339

ORBITAL ENERGIES
----------------

  NO   OCC          E(Eh)            E(eV)
   0   2.0000     -19.481890      -530.1292
   1   2.0000     -19.476928      -529.9942
   2   2.0000     -19.446814      -529.1747
   3   2.0000     -19.434070      -528.8279
   4   2.0000     -14.724983      -400.6872
   5   2.0000     -10.541291      -286.8431
   6   2.0000     -10.531911      -286.5879
   7   2.0000     -10.530989      -286.5628
   8   2.0000     -10.510183      -285.9966
   9   2.0000     -10.503151      -285.8053
  10   2.0000     -10.484325      -285.2930
  11   2.0000     -10.483254      -285.2639
  12   2.0000     -10.481421      -285.2140
  13   2.0000     -10.481075      -285.2046
  14   2.0000     -10.479315      -285.1567
  15   2.0000     -10.475803      -285.0611
  16   2.0000     -10.420552      -283.5576
  17   2.0000     -10.414082      -283.3816
  18   2.0000      -3.662462       -99.6607
  19   2.0000      -2.312736       -62.9328
  20   2.0000      -2.304569       -62.7105
  21   2.0000      -2.272369       -61.8343
  22   2.0000      -1.166551       -31.7435
  23   2.0000      -1.157534       -31.4981
  24   2.0000      -1.081160       -29.4199
  25   2.0000      -1.058474       -28.8025
  26   2.0000      -1.054185       -28.6858
  27   2.0000      -0.984165       -26.7805
  28   2.0000      -0.891988       -24.2722
  29   2.0000      -0.857961       -23.3463
  30   2.0000      -0.818105       -22.2618
  31   2.0000      -0.811630       -22.0856
  32   2.0000      -0.806442       -21.9444
  33   2.0000      -0.799558       -21.7571
  34   2.0000      -0.723328       -19.6827
  35   2.0000      -0.703218       -19.1355
  36   2.0000      -0.680171       -18.5084
  37   2.0000      -0.605339       -16.4721
  38   2.0000      -0.595879       -16.2147
  39   2.0000      -0.588226       -16.0064
  40   2.0000      -0.575233       -15.6529
  41   2.0000      -0.572543       -15.5797
  42   2.0000      -0.560916       -15.2633
  43   2.0000      -0.534786       -14.5523
  44   2.0000      -0.528721       -14.3872
  45   2.0000      -0.521912       -14.2019
  46   2.0000      -0.513251       -13.9663
  47   2.0000      -0.507691       -13.8150
  48   2.0000      -0.503912       -13.7121
  49   2.0000      -0.499546       -13.5933
  50   2.0000      -0.496709       -13.5161
  51   2.0000      -0.493185       -13.4203
  52   2.0000      -0.488278       -13.2867
  53   2.0000      -0.471500       -12.8302
  54   2.0000      -0.459619       -12.5069
  55   2.0000      -0.444456       -12.0943
  56   2.0000      -0.441234       -12.0066
  57   2.0000      -0.439489       -11.9591
  58   2.0000      -0.436002       -11.8642
  59   2.0000      -0.431262       -11.7352
  60   2.0000      -0.428014       -11.6468
  61   2.0000      -0.425324       -11.5737
  62   2.0000      -0.414921       -11.2906
  63   2.0000      -0.403837       -10.9890
  64   2.0000      -0.379464       -10.3257
  65   2.0000      -0.370895       -10.0926
  66   2.0000      -0.350583        -9.5399
  67   2.0000      -0.340378        -9.2621
  68   2.0000      -0.339007        -9.2248
  69   2.0000      -0.324799        -8.8382
  70   2.0000      -0.322360        -8.7719
  71   2.0000      -0.313329        -8.5261
  72   2.0000      -0.303117        -8.2482
  73   2.0000      -0.301331        -8.1996
  74   2.0000      -0.296493        -8.0680
  75   2.0000      -0.287480        -7.8227
  76   2.0000      -0.276296        -7.5184
  77   0.0000      -0.110226        -2.9994
  78   0.0000      -0.077331        -2.1043
  79   0.0000      -0.019515        -0.5310
  80   0.0000      -0.007706        -0.2097
  81   0.0000       0.062043         1.6883

MULLIKEN ATOMIC CHARGES
-----------------------
   0 Pd:    0.545574
   1 O :   -0.494319
   2 C :    0.603403
   3 O :   -0.487904
   4 C :   -0.762725
   5 H :    0.245209
   6 H :    0.251788
   7 H :    0.248665
   8 N :   -0.480153
   9 C :   -0.552179
  10 H :    0.308110
  11 H :    0.219501
  12 H :    0.260229
  13 C :   -0.551903
  14 H :    0.279022
  15 H :    0.229716
  16 H :    0.295023
  17 C :   -0.022509
  18 C :   -0.227679
  19 C :   -0.213946
  20 C :   -0.221282
  21 C :   -0.249734
  22 C :   -0.021128
  23 H :    0.240132
  24 H :    0.258054
  25 H :    0.233990
  26 H :    0.237664
  27 H :    0.070139
  28 C :   -0.310832
  29 H :    0.259829
  30 H :    0.252121
  31 O :   -0.532849
  32 C :    0.559063
  33 O :   -0.449637
  34 C :   -0.744004
  35 H :    0.236704
  36 H :    0.246062
  37 H :    0.242786
Sum of atomic charges:    0.0000000

LOEWDIN ATOMIC CHARGES
----------------------
   0 Pd:   -0.220163
   1 O :   -0.153757
   2 C :    0.147764
   3 O :   -0.252335
   4 C :   -0.382445
   5 H :    0.147574
   6 H :    0.158419
   7 H :    0.147528
   8 N :   -0.063691
   9 C :   -0.244436
  10 H :    0.169811
  11 H :    0.120418
  12 H :    0.143633
  13 C :   -0.237359
  14 H :    0.156788
  15 H :    0.125025
  16 H :    0.162603
  17 C :   -0.063950
  18 C :   -0.105256
  19 C :   -0.124801
  20 C :   -0.118322
  21 C :   -0.135736
  22 C :   -0.006885
  23 H :    0.146639
  24 H :    0.156730
  25 H :    0.149184
  26 H :    0.146247
  27 H :    0.074765
  28 C :   -0.102546
  29 H :    0.150529
  30 H :    0.146055
  31 O :   -0.165358
  32 C :    0.116876
  33 O :   -0.251815
  34 C :   -0.380598
  35 H :    0.148685
  36 H :    0.148337
  37 H :    0.145842

  Mayer bond orders larger than 0.100000
B(  0-Pd,  1-O ) :   0.6472 B(  0-Pd,  3-O ) :   0.2367 B(  0-Pd,  8-N ) :   0.4022
B(  0-Pd, 31-O ) :   0.6957 B(  1-O ,  2-C ) :   1.3158 B(  2-C ,  3-O ) :   1.7352
B(  2-C ,  4-C ) :   0.9436 B(  4-C ,  5-H ) :   0.9143 B(  4-C ,  6-H ) :   0.9070
B(  4-C ,  7-H ) :   0.9116 B(  8-N ,  9-C ) :   0.9164 B(  8-N , 13-C ) :   0.9142
B(  8-N , 28-C ) :   0.8867 B(  9-C , 10-H ) :   0.8691 B(  9-C , 11-H ) :   0.9026
B(  9-C , 12-H ) :   0.9061 B( 13-C , 14-H ) :   0.8874 B( 13-C , 15-H ) :   0.9018
B( 13-C , 16-H ) :   0.8905 B( 17-C , 18-C ) :   1.3958 B( 17-C , 22-C ) :   1.3908
B( 17-C , 28-C ) :   0.9437 B( 18-C , 19-C ) :   1.4300 B( 18-C , 25-H ) :   0.9079
B( 19-C , 20-C ) :   1.4319 B( 19-C , 26-H ) :   0.9126 B( 20-C , 21-C ) :   1.3893
B( 20-C , 23-H ) :   0.9089 B( 21-C , 22-C ) :   1.4604 B( 21-C , 24-H ) :   0.9049
B( 22-C , 27-H ) :   0.8103 B( 28-C , 29-H ) :   0.8951 B( 28-C , 30-H ) :   0.9145
B( 31-O , 32-C ) :   1.2422 B( 32-C , 33-O ) :   1.8982 B( 32-C , 34-C ) :   0.9284
B( 34-C , 35-H ) :   0.9135 B( 34-C , 36-H ) :   0.9130 B( 34-C , 37-H ) :   0.9176

Dispersion correction           -0.026076558
FINAL SINGLE POINT ENERGY      -988.318060375968
Dispersion correction            ... done

DIPOLE MOMENT
-------------
                                X             Y             Z
Electronic contribution:     21.54861      11.47285     -17.20132
Nuclear contribution   :    -23.31532     -12.80289      18.43103
                        -----------------------------------------
Total Dipole Moment    :     -1.76671      -1.33004       1.22971
                        -----------------------------------------
Magnitude (a.u.)       :      2.53031
Magnitude (Debye)      :      6.43154

Rotational constants in cm-1:     0.013628     0.008396     0.006737
Rotational constants in MHz :   408.549525   251.704984   201.979652

                             ****ORCA TERMINATED NORMALLY****
TOTAL RUN TIME: 0 days 0 hours 17 minutes 18 seconds 235 msec
