                         Program Version 5.0.3 -  RELEASE  -
|  1> ! EnGrad PBEh-3c
|  2> %output
|  3> xyzfile=True
|  4> end
|  5> %scf
|  6> maxiter 250
|  7> end
|  8> %output
|  9> Print[P_Hirshfeld] = 1
| 10> end
| 11> % maxcore
| 12> 4000
| 13> *xyz 0 1
| 14> Pd   0.48547367   0.26622617  -0.37461875
| 15> O    1.97977572   1.37003641   0.47990803
| 16> C    1.60315675   2.59476933   0.27448662
| 17> O    0.49271684   2.84591645  -0.13040473
| 18> C    2.64352629   3.64562849   0.60167939
| 19> H    2.18774820   4.52996089   1.02750500
| 20> H    3.09309069   3.93325030  -0.33050586
| 21> H    3.43910964   3.29164015   1.24747799
| 22> N   -1.29463585  -0.64129128  -1.07769751
| 23> C   -1.18415103  -1.69527491  -2.10159915
| 24> H   -0.66760993  -1.30674156  -2.96452233
| 25> H   -2.16441468  -2.11921048  -2.40435493
| 26> H   -0.60967833  -2.52960619  -1.74175449
| 27> C   -2.11859156   0.43636588  -1.66825493
| 28> H   -2.27185289   1.22142176  -0.95498774
| 29> H   -3.12065661   0.08617265  -1.98166037
| 30> H   -1.61768228   0.82764730  -2.54095597
| 31> C   -1.61799403  -0.90169608   1.43951427
| 32> C   -1.15246807  -2.02028834   2.19576177
| 33> C   -0.94113529  -1.91165467   3.57095502
| 34> C   -1.15223545  -0.69141726   4.20709134
| 35> C   -1.57127727   0.44301146   3.46429671
| 36> C   -1.73839263   0.35762376   2.09734151
| 37> H   -1.01018017  -0.63599213   5.29695440
| 38> H   -1.76166778   1.39913431   3.95230010
| 39> H   -1.07242207  -2.99819642   1.69839476
| 40> H   -0.51243343  -2.75154090   4.12142231
| 41> H   -2.04903636   2.30388207   1.49756723
| 42> C   -2.09182202  -1.20588415   0.06003550
| 43> H   -3.13437452  -0.85866277  -0.03036430
| 44> H   -2.11242837  -2.28289138  -0.09676012
| 45> O    1.94571900  -0.71813348  -1.21373426
| 46> C    2.21389047  -0.52694466  -2.46227791
| 47> O    1.38676076  -0.15614198  -3.29261226
| 48> C    3.63375078  -0.83335568  -2.88027515
| 49> H    3.72848936  -1.90319646  -3.05386126
| 50> H    4.33673484  -0.56890100  -2.11382416
| 51> H    3.84455232  -0.30369849  -3.81742031
| 52> *
| 53>
| 54>                          ****END OF INPUT****

CARTESIAN COORDINATES (ANGSTROEM)
---------------------------------
  Pd     0.485474    0.266226   -0.374619
  O      1.979776    1.370036    0.479908
  C      1.603157    2.594769    0.274487
  O      0.492717    2.845916   -0.130405
  C      2.643526    3.645628    0.601679
  H      2.187748    4.529961    1.027505
  H      3.093091    3.933250   -0.330506
  H      3.439110    3.291640    1.247478
  N     -1.294636   -0.641291   -1.077698
  C     -1.184151   -1.695275   -2.101599
  H     -0.667610   -1.306742   -2.964522
  H     -2.164415   -2.119210   -2.404355
  H     -0.609678   -2.529606   -1.741754
  C     -2.118592    0.436366   -1.668255
  H     -2.271853    1.221422   -0.954988
  H     -3.120657    0.086173   -1.981660
  H     -1.617682    0.827647   -2.540956
  C     -1.617994   -0.901696    1.439514
  C     -1.152468   -2.020288    2.195762
  C     -0.941135   -1.911655    3.570955
  C     -1.152235   -0.691417    4.207091
  C     -1.571277    0.443011    3.464297
  C     -1.738393    0.357624    2.097342
  H     -1.010180   -0.635992    5.296954
  H     -1.761668    1.399134    3.952300
  H     -1.072422   -2.998196    1.698395
  H     -0.512433   -2.751541    4.121422
  H     -2.049036    2.303882    1.497567
  C     -2.091822   -1.205884    0.060035
  H     -3.134375   -0.858663   -0.030364
  H     -2.112428   -2.282891   -0.096760
  O      1.945719   -0.718133   -1.213734
  C      2.213890   -0.526945   -2.462278
  O      1.386761   -0.156142   -3.292612
  C      3.633751   -0.833356   -2.880275
  H      3.728489   -1.903196   -3.053861
  H      4.336735   -0.568901   -2.113824
  H      3.844552   -0.303698   -3.817420

 Total Charge           Charge          ....    0
 Multiplicity           Mult            ....    1
 Number of Electrons    NEL             ....  154
 Basis Dimension        Dim             ....  339

ORBITAL ENERGIES
----------------

  NO   OCC          E(Eh)            E(eV)
   0   2.0000     -19.480899      -530.1022
   1   2.0000     -19.476110      -529.9719
   2   2.0000     -19.452734      -529.3358
   3   2.0000     -19.429455      -528.7024
   4   2.0000     -14.726556      -400.7299
   5   2.0000     -10.540495      -286.8215
   6   2.0000     -10.533011      -286.6178
   7   2.0000     -10.530409      -286.5470
   8   2.0000     -10.509539      -285.9791
   9   2.0000     -10.503117      -285.8043
  10   2.0000     -10.485660      -285.3293
  11   2.0000     -10.482562      -285.2450
  12   2.0000     -10.480479      -285.1883
  13   2.0000     -10.479694      -285.1670
  14   2.0000     -10.476011      -285.0668
  15   2.0000     -10.475187      -285.0443
  16   2.0000     -10.418598      -283.5045
  17   2.0000     -10.414459      -283.3918
  18   2.0000      -3.662820       -99.6704
  19   2.0000      -2.312981       -62.9394
  20   2.0000      -2.305320       -62.7309
  21   2.0000      -2.272842       -61.8472
  22   2.0000      -1.169493       -31.8235
  23   2.0000      -1.150145       -31.2970
  24   2.0000      -1.081692       -29.4343
  25   2.0000      -1.059319       -28.8255
  26   2.0000      -1.050572       -28.5875
  27   2.0000      -0.980205       -26.6727
  28   2.0000      -0.891539       -24.2600
  29   2.0000      -0.858257       -23.3543
  30   2.0000      -0.822627       -22.3848
  31   2.0000      -0.807664       -21.9776
  32   2.0000      -0.804126       -21.8814
  33   2.0000      -0.799189       -21.7470
  34   2.0000      -0.726090       -19.7579
  35   2.0000      -0.701788       -19.0966
  36   2.0000      -0.678327       -18.4582
  37   2.0000      -0.604905       -16.4603
  38   2.0000      -0.596271       -16.2254
  39   2.0000      -0.585608       -15.9352
  40   2.0000      -0.577025       -15.7016
  41   2.0000      -0.574459       -15.6318
  42   2.0000      -0.560157       -15.2427
  43   2.0000      -0.535423       -14.5696
  44   2.0000      -0.527028       -14.3412
  45   2.0000      -0.521041       -14.1783
  46   2.0000      -0.510991       -13.9048
  47   2.0000      -0.508418       -13.8348
  48   2.0000      -0.503898       -13.7118
  49   2.0000      -0.498661       -13.5692
  50   2.0000      -0.494528       -13.4568
  51   2.0000      -0.491673       -13.3791
  52   2.0000      -0.487228       -13.2581
  53   2.0000      -0.472224       -12.8499
  54   2.0000      -0.460033       -12.5181
  55   2.0000      -0.448176       -12.1955
  56   2.0000      -0.440755       -11.9936
  57   2.0000      -0.439620       -11.9627
  58   2.0000      -0.434634       -11.8270
  59   2.0000      -0.431135       -11.7318
  60   2.0000      -0.429552       -11.6887
  61   2.0000      -0.424362       -11.5475
  62   2.0000      -0.416529       -11.3343
  63   2.0000      -0.408151       -11.1063
  64   2.0000      -0.378233       -10.2923
  65   2.0000      -0.369006       -10.0412
  66   2.0000      -0.351229        -9.5574
  67   2.0000      -0.339945        -9.2504
  68   2.0000      -0.339894        -9.2490
  69   2.0000      -0.334023        -9.0892
  70   2.0000      -0.320545        -8.7225
  71   2.0000      -0.319037        -8.6814
  72   2.0000      -0.309523        -8.4225
  73   2.0000      -0.302947        -8.2436
  74   2.0000      -0.295781        -8.0486
  75   2.0000      -0.285103        -7.7581
  76   2.0000      -0.276705        -7.5295
  77   0.0000      -0.082591        -2.2474
  78   0.0000      -0.075923        -2.0660
  79   0.0000      -0.021550        -0.5864
  80   0.0000      -0.006926        -0.1885
  81   0.0000       0.064057         1.7431

MULLIKEN ATOMIC CHARGES
-----------------------
   0 Pd:    0.557738
   1 O :   -0.509039
   2 C :    0.591594
   3 O :   -0.458062
   4 C :   -0.758291
   5 H :    0.239106
   6 H :    0.250891
   7 H :    0.249387
   8 N :   -0.489886
   9 C :   -0.558842
  10 H :    0.314387
  11 H :    0.217675
  12 H :    0.264533
  13 C :   -0.557809
  14 H :    0.279107
  15 H :    0.231950
  16 H :    0.299881
  17 C :   -0.016674
  18 C :   -0.224635
  19 C :   -0.214514
  20 C :   -0.221202
  21 C :   -0.231302
  22 C :   -0.067232
  23 H :    0.237847
  24 H :    0.251671
  25 H :    0.230156
  26 H :    0.238042
  27 H :    0.110505
  28 C :   -0.320253
  29 H :    0.257932
  30 H :    0.255251
  31 O :   -0.525987
  32 C :    0.565369
  33 O :   -0.478053
  34 C :   -0.739889
  35 H :    0.235691
  36 H :    0.250279
  37 H :    0.242681
Sum of atomic charges:   -0.0000000

LOEWDIN ATOMIC CHARGES
----------------------
   0 Pd:   -0.219567
   1 O :   -0.178089
   2 C :    0.141158
   3 O :   -0.219437
   4 C :   -0.384977
   5 H :    0.144758
   6 H :    0.156293
   7 H :    0.147648
   8 N :   -0.058100
   9 C :   -0.247127
  10 H :    0.170142
  11 H :    0.119083
  12 H :    0.144164
  13 C :   -0.236699
  14 H :    0.153446
  15 H :    0.125912
  16 H :    0.163911
  17 C :   -0.062199
  18 C :   -0.104028
  19 C :   -0.127435
  20 C :   -0.118318
  21 C :   -0.133699
  22 C :   -0.036179
  23 H :    0.146499
  24 H :    0.152747
  25 H :    0.147877
  26 H :    0.146114
  27 H :    0.111138
  28 C :   -0.100730
  29 H :    0.150393
  30 H :    0.147074
  31 O :   -0.155020
  32 C :    0.133720
  33 O :   -0.285572
  34 C :   -0.379044
  35 H :    0.148892
  36 H :    0.147019
  37 H :    0.148230

  Mayer bond orders larger than 0.100000
B(  0-Pd,  1-O ) :   0.6616 B(  0-Pd,  3-O ) :   0.2184 B(  0-Pd,  8-N ) :   0.4111
B(  0-Pd, 31-O ) :   0.6849 B(  1-O ,  2-C ) :   1.2784 B(  2-C ,  3-O ) :   1.7867
B(  2-C ,  4-C ) :   0.9393 B(  4-C ,  5-H ) :   0.9169 B(  4-C ,  6-H ) :   0.9082
B(  4-C ,  7-H ) :   0.9126 B(  8-N ,  9-C ) :   0.9192 B(  8-N , 13-C ) :   0.9148
B(  8-N , 28-C ) :   0.8753 B(  9-C , 10-H ) :   0.8639 B(  9-C , 11-H ) :   0.9039
B(  9-C , 12-H ) :   0.9042 B( 13-C , 14-H ) :   0.8882 B( 13-C , 15-H ) :   0.9020
B( 13-C , 16-H ) :   0.8883 B( 17-C , 18-C ) :   1.3953 B( 17-C , 22-C ) :   1.3870
B( 17-C , 28-C ) :   0.9481 B( 18-C , 19-C ) :   1.4211 B( 18-C , 25-H ) :   0.9102
B( 19-C , 20-C ) :   1.4361 B( 19-C , 26-H ) :   0.9117 B( 20-C , 21-C ) :   1.3837
B( 20-C , 23-H ) :   0.9107 B( 21-C , 22-C ) :   1.4628 B( 21-C , 24-H ) :   0.9068
B( 22-C , 27-H ) :   0.8403 B( 28-C , 29-H ) :   0.8953 B( 28-C , 30-H ) :   0.9140
B( 31-O , 32-C ) :   1.2610 B( 32-C , 33-O ) :   1.8545 B( 32-C , 34-C ) :   0.9322
B( 34-C , 35-H ) :   0.9141 B( 34-C , 36-H ) :   0.9085 B( 34-C , 37-H ) :   0.9200

Dispersion correction           -0.026300049
FINAL SINGLE POINT ENERGY      -988.351536421353
Dispersion correction            ... done

DIPOLE MOMENT
-------------
                                X             Y             Z
Electronic contribution:     20.45801      11.05831     -18.03484
Nuclear contribution   :    -22.32843     -12.27151      19.26209
                        -----------------------------------------
Total Dipole Moment    :     -1.87041      -1.21320       1.22725
                        -----------------------------------------
Magnitude (a.u.)       :      2.54489
Magnitude (Debye)      :      6.46859

Rotational constants in cm-1:     0.013738     0.008426     0.006744
Rotational constants in MHz :   411.863907   252.619280   202.184729

                             ****ORCA TERMINATED NORMALLY****
TOTAL RUN TIME: 0 days 0 hours 12 minutes 27 seconds 509 msec
