                         Program Version 5.0.3 -  RELEASE  -
|  1> ! EnGrad PBEh-3c
|  2> %output
|  3> xyzfile=True
|  4> end
|  5> %scf
|  6> maxiter 250
|  7> end
|  8> %output
|  9> Print[P_Hirshfeld] = 1
| 10> end
| 11> % maxcore
| 12> 4000
| 13> *xyz 0 1
| 14> Pd   0.47771477   0.28434528  -0.37089322
| 15> O    1.97853273   1.34757158   0.46189928
| 16> C    1.59378318   2.58791946   0.27717759
| 17> O    0.48782991   2.84963047  -0.12593540
| 18> C    2.64285665   3.64261137   0.59916504
| 19> H    2.18633799   4.53028997   1.03316073
| 20> H    3.09893295   3.92547682  -0.33676204
| 21> H    3.42917850   3.27305425   1.24953084
| 22> N   -1.30012249  -0.64907495  -1.08366511
| 23> C   -1.16854284  -1.70903270  -2.08631199
| 24> H   -0.66169905  -1.33364722  -2.95150904
| 25> H   -2.14094932  -2.11969985  -2.39309135
| 26> H   -0.60229780  -2.53656816  -1.71379867
| 27> C   -2.10474669   0.43362462  -1.67887080
| 28> H   -2.26664882   1.21904823  -0.97277969
| 29> H   -3.10050712   0.08240512  -1.98653290
| 30> H   -1.60935523   0.82579917  -2.55242350
| 31> C   -1.63095199  -0.86230846   1.44562597
| 32> C   -1.18343070  -1.99967647   2.20538666
| 33> C   -0.97094399  -1.90264158   3.57780328
| 34> C   -1.15467248  -0.68197833   4.20535223
| 35> C   -1.53958604   0.46458832   3.45061221
| 36> C   -1.73912921   0.41286199   2.08654859
| 37> H   -1.01084072  -0.63865538   5.30000284
| 38> H   -1.69829644   1.40792980   3.95500955
| 39> H   -1.12166770  -2.98157196   1.70675573
| 40> H   -0.53731463  -2.75048650   4.11854894
| 41> H   -2.00349325   2.10860126   1.49763001
| 42> C   -2.09414435  -1.19096899   0.07388717
| 43> H   -3.13244591  -0.84071574  -0.03913171
| 44> H   -2.12461826  -2.26580934  -0.08489846
| 45> O    1.94705924  -0.73085745  -1.19812464
| 46> C    2.17798594  -0.51735019  -2.47944403
| 47> O    1.39226917  -0.17812626  -3.28048011
| 48> C    3.63208898  -0.81682206  -2.88868554
| 49> H    3.74382331  -1.88444475  -3.07346135
| 50> H    4.32127309  -0.54407719  -2.12287422
| 51> H    3.84230725  -0.27109720  -3.82299537
| 52> *
| 53>
| 54>                          ****END OF INPUT****

CARTESIAN COORDINATES (ANGSTROEM)
---------------------------------
  Pd     0.477715    0.284345   -0.370893
  O      1.978533    1.347572    0.461899
  C      1.593783    2.587919    0.277178
  O      0.487830    2.849630   -0.125935
  C      2.642857    3.642611    0.599165
  H      2.186338    4.530290    1.033161
  H      3.098933    3.925477   -0.336762
  H      3.429178    3.273054    1.249531
  N     -1.300122   -0.649075   -1.083665
  C     -1.168543   -1.709033   -2.086312
  H     -0.661699   -1.333647   -2.951509
  H     -2.140949   -2.119700   -2.393091
  H     -0.602298   -2.536568   -1.713799
  C     -2.104747    0.433625   -1.678871
  H     -2.266649    1.219048   -0.972780
  H     -3.100507    0.082405   -1.986533
  H     -1.609355    0.825799   -2.552423
  C     -1.630952   -0.862308    1.445626
  C     -1.183431   -1.999676    2.205387
  C     -0.970944   -1.902642    3.577803
  C     -1.154672   -0.681978    4.205352
  C     -1.539586    0.464588    3.450612
  C     -1.739129    0.412862    2.086549
  H     -1.010841   -0.638655    5.300003
  H     -1.698296    1.407930    3.955010
  H     -1.121668   -2.981572    1.706756
  H     -0.537315   -2.750487    4.118549
  H     -2.003493    2.108601    1.497630
  C     -2.094144   -1.190969    0.073887
  H     -3.132446   -0.840716   -0.039132
  H     -2.124618   -2.265809   -0.084898
  O      1.947059   -0.730857   -1.198125
  C      2.177986   -0.517350   -2.479444
  O      1.392269   -0.178126   -3.280480
  C      3.632089   -0.816822   -2.888686
  H      3.743823   -1.884445   -3.073461
  H      4.321273   -0.544077   -2.122874
  H      3.842307   -0.271097   -3.822995

 Total Charge           Charge          ....    0
 Multiplicity           Mult            ....    1
 Number of Electrons    NEL             ....  154
 Basis Dimension        Dim             ....  339

ORBITAL ENERGIES
----------------

  NO   OCC          E(Eh)            E(eV)
   0   2.0000     -19.477918      -530.0211
   1   2.0000     -19.474791      -529.9360
   2   2.0000     -19.458022      -529.4797
   3   2.0000     -19.440367      -528.9993
   4   2.0000     -14.723270      -400.6405
   5   2.0000     -10.544453      -286.9292
   6   2.0000     -10.531799      -286.5848
   7   2.0000     -10.525306      -286.4081
   8   2.0000     -10.506897      -285.9072
   9   2.0000     -10.500945      -285.7452
  10   2.0000     -10.482787      -285.2511
  11   2.0000     -10.482082      -285.2320
  12   2.0000     -10.477472      -285.1065
  13   2.0000     -10.475932      -285.0646
  14   2.0000     -10.473409      -284.9959
  15   2.0000     -10.471918      -284.9554
  16   2.0000     -10.421903      -283.5944
  17   2.0000     -10.411460      -283.3102
  18   2.0000      -3.658794       -99.5608
  19   2.0000      -2.309217       -62.8370
  20   2.0000      -2.300766       -62.6070
  21   2.0000      -2.269367       -61.7526
  22   2.0000      -1.170717       -31.8568
  23   2.0000      -1.164332       -31.6831
  24   2.0000      -1.080738       -29.4084
  25   2.0000      -1.062301       -28.9067
  26   2.0000      -1.058617       -28.8064
  27   2.0000      -0.976543       -26.5731
  28   2.0000      -0.889178       -24.1958
  29   2.0000      -0.857470       -23.3330
  30   2.0000      -0.825486       -22.4626
  31   2.0000      -0.807075       -21.9616
  32   2.0000      -0.801671       -21.8146
  33   2.0000      -0.790810       -21.5190
  34   2.0000      -0.725551       -19.7433
  35   2.0000      -0.699190       -19.0259
  36   2.0000      -0.676065       -18.3967
  37   2.0000      -0.603418       -16.4199
  38   2.0000      -0.592111       -16.1122
  39   2.0000      -0.582242       -15.8436
  40   2.0000      -0.576815       -15.6959
  41   2.0000      -0.574442       -15.6314
  42   2.0000      -0.558759       -15.2046
  43   2.0000      -0.534376       -14.5411
  44   2.0000      -0.525667       -14.3041
  45   2.0000      -0.522677       -14.2228
  46   2.0000      -0.512755       -13.9528
  47   2.0000      -0.510320       -13.8865
  48   2.0000      -0.504522       -13.7287
  49   2.0000      -0.497240       -13.5306
  50   2.0000      -0.496720       -13.5164
  51   2.0000      -0.491565       -13.3762
  52   2.0000      -0.487763       -13.2727
  53   2.0000      -0.472953       -12.8697
  54   2.0000      -0.460055       -12.5187
  55   2.0000      -0.451305       -12.2806
  56   2.0000      -0.441706       -12.0194
  57   2.0000      -0.438047       -11.9199
  58   2.0000      -0.434515       -11.8237
  59   2.0000      -0.431477       -11.7411
  60   2.0000      -0.429324       -11.6825
  61   2.0000      -0.422224       -11.4893
  62   2.0000      -0.416131       -11.3235
  63   2.0000      -0.405444       -11.0327
  64   2.0000      -0.379197       -10.3185
  65   2.0000      -0.371696       -10.1144
  66   2.0000      -0.361194        -9.8286
  67   2.0000      -0.347786        -9.4637
  68   2.0000      -0.339881        -9.2486
  69   2.0000      -0.339789        -9.2461
  70   2.0000      -0.322558        -8.7772
  71   2.0000      -0.316322        -8.6076
  72   2.0000      -0.309199        -8.4137
  73   2.0000      -0.304568        -8.2877
  74   2.0000      -0.292698        -7.9647
  75   2.0000      -0.289971        -7.8905
  76   2.0000      -0.279062        -7.5937
  77   0.0000      -0.071553        -1.9471
  78   0.0000      -0.046216        -1.2576
  79   0.0000      -0.019082        -0.5193
  80   0.0000      -0.004570        -0.1243
  81   0.0000       0.066850         1.8191

MULLIKEN ATOMIC CHARGES
-----------------------
   0 Pd:    0.546125
   1 O :   -0.514174
   2 C :    0.594200
   3 O :   -0.453863
   4 C :   -0.755368
   5 H :    0.237463
   6 H :    0.250662
   7 H :    0.249782
   8 N :   -0.486704
   9 C :   -0.557896
  10 H :    0.310105
  11 H :    0.217849
  12 H :    0.267543
  13 C :   -0.558515
  14 H :    0.276078
  15 H :    0.232025
  16 H :    0.298271
  17 C :   -0.003335
  18 C :   -0.225449
  19 C :   -0.211448
  20 C :   -0.221507
  21 C :   -0.211144
  22 C :   -0.132254
  23 H :    0.235300
  24 H :    0.245419
  25 H :    0.227750
  26 H :    0.236644
  27 H :    0.153895
  28 C :   -0.326936
  29 H :    0.254262
  30 H :    0.255725
  31 O :   -0.539764
  32 C :    0.551148
  33 O :   -0.416764
  34 C :   -0.742386
  35 H :    0.232709
  36 H :    0.252051
  37 H :    0.232504
Sum of atomic charges:   -0.0000000

LOEWDIN ATOMIC CHARGES
----------------------
   0 Pd:   -0.231182
   1 O :   -0.180567
   2 C :    0.150238
   3 O :   -0.213938
   4 C :   -0.384431
   5 H :    0.144574
   6 H :    0.156418
   7 H :    0.148082
   8 N :   -0.061014
   9 C :   -0.246744
  10 H :    0.166953
  11 H :    0.118028
  12 H :    0.145718
  13 C :   -0.236517
  14 H :    0.151799
  15 H :    0.124621
  16 H :    0.162771
  17 C :   -0.057347
  18 C :   -0.105547
  19 C :   -0.128124
  20 C :   -0.120134
  21 C :   -0.130711
  22 C :   -0.065515
  23 H :    0.145622
  24 H :    0.148348
  25 H :    0.146604
  26 H :    0.145528
  27 H :    0.141834
  28 C :   -0.101102
  29 H :    0.148112
  30 H :    0.146775
  31 O :   -0.179798
  32 C :    0.117472
  33 O :   -0.216073
  34 C :   -0.385289
  35 H :    0.146142
  36 H :    0.145632
  37 H :    0.142763

  Mayer bond orders larger than 0.100000
B(  0-Pd,  1-O ) :   0.6681 B(  0-Pd,  3-O ) :   0.2179 B(  0-Pd,  8-N ) :   0.4063
B(  0-Pd, 31-O ) :   0.7087 B(  1-O ,  2-C ) :   1.2626 B(  2-C ,  3-O ) :   1.7900
B(  2-C ,  4-C ) :   0.9382 B(  4-C ,  5-H ) :   0.9174 B(  4-C ,  6-H ) :   0.9086
B(  4-C ,  7-H ) :   0.9120 B(  8-N ,  9-C ) :   0.9242 B(  8-N , 13-C ) :   0.9191
B(  8-N , 28-C ) :   0.8716 B(  9-C , 10-H ) :   0.8688 B(  9-C , 11-H ) :   0.9044
B(  9-C , 12-H ) :   0.9039 B( 13-C , 14-H ) :   0.8909 B( 13-C , 15-H ) :   0.9017
B( 13-C , 16-H ) :   0.8894 B( 17-C , 18-C ) :   1.3979 B( 17-C , 22-C ) :   1.3804
B( 17-C , 28-C ) :   0.9502 B( 18-C , 19-C ) :   1.4189 B( 18-C , 25-H ) :   0.9117
B( 19-C , 20-C ) :   1.4377 B( 19-C , 26-H ) :   0.9116 B( 20-C , 21-C ) :   1.3869
B( 20-C , 23-H ) :   0.9125 B( 21-C , 22-C ) :   1.4525 B( 21-C , 24-H ) :   0.9089
B( 22-C , 27-H ) :   0.8694 B( 28-C , 29-H ) :   0.8959 B( 28-C , 30-H ) :   0.9141
B( 31-O , 32-C ) :   1.2145 B( 32-C , 33-O ) :   1.9341 B( 32-C , 34-C ) :   0.9205
B( 34-C , 35-H ) :   0.9172 B( 34-C , 36-H ) :   0.9090 B( 34-C , 37-H ) :   0.9230

Dispersion correction           -0.026452959
FINAL SINGLE POINT ENERGY      -988.386952514771
Dispersion correction            ... done

DIPOLE MOMENT
-------------
                                X             Y             Z
Electronic contribution:     20.01546      12.18670     -18.01271
Nuclear contribution   :    -21.94689     -13.20866      19.07035
                        -----------------------------------------
Total Dipole Moment    :     -1.93143      -1.02196       1.05764
                        -----------------------------------------
Magnitude (a.u.)       :      2.42764
Magnitude (Debye)      :      6.17058

Rotational constants in cm-1:     0.013807     0.008450     0.006755
Rotational constants in MHz :   413.915602   253.336845   202.504098

                             ****ORCA TERMINATED NORMALLY****
TOTAL RUN TIME: 0 days 0 hours 11 minutes 0 seconds 28 msec
