                         Program Version 5.0.3 -  RELEASE  -
|  1> ! EnGrad PBEh-3c
|  2> %output
|  3> xyzfile=True
|  4> end
|  5> %scf
|  6> maxiter 250
|  7> end
|  8> %output
|  9> Print[P_Hirshfeld] = 1
| 10> end
| 11> % maxcore
| 12> 4000
| 13> *xyz 0 1
| 14> Pd   0.46647279   0.30856958  -0.36580245
| 15> O    1.96852221   1.32221807   0.42596227
| 16> C    1.59690554   2.56549599   0.28625278
| 17> O    0.46579743   2.85826692  -0.12037970
| 18> C    2.63719543   3.63221234   0.59666429
| 19> H    2.18735423   4.52729009   1.04222024
| 20> H    3.11062273   3.90822690  -0.34686852
| 21> H    3.41038600   3.23574991   1.25346606
| 22> N   -1.30381411  -0.65714294  -1.08467461
| 23> C   -1.14338224  -1.73713392  -2.05209711
| 24> H   -0.64223779  -1.38914390  -2.92658685
| 25> H   -2.09834732  -2.12933793  -2.36916515
| 26> H   -0.58430393  -2.55690459  -1.65125225
| 27> C   -2.07744482   0.42016530  -1.70554219
| 28> H   -2.25534653   1.21751798  -1.00688561
| 29> H   -3.06368402   0.07263151  -2.00043020
| 30> H   -1.58929927   0.81800767  -2.57796309
| 31> C   -1.65285713  -0.79592494   1.46523304
| 32> C   -1.25474542  -1.95451337   2.21868633
| 33> C   -1.03040821  -1.88989657   3.58901374
| 34> C   -1.16029999  -0.65604965   4.20553861
| 35> C   -1.47234605   0.50308664   3.43628534
| 36> C   -1.73603003   0.53315895   2.05679829
| 37> H   -1.01212906  -0.64170485   5.30241890
| 38> H   -1.56373268   1.43717809   3.96059334
| 39> H   -1.22946737  -2.94756039   1.72458034
| 40> H   -0.59479670  -2.74852364   4.11455149
| 41> H   -1.90641175   1.70451489   1.49994356
| 42> C   -2.10457804  -1.15620809   0.08811304
| 43> H   -3.12937034  -0.79998494  -0.05554380
| 44> H   -2.15185785  -2.23082208  -0.05890062
| 45> O    1.94455741  -0.74867765  -1.18361851
| 46> C    2.16060272  -0.52365635  -2.46704871
| 47> O    1.35748198  -0.20765282  -3.29336413
| 48> C    3.61753437  -0.77747171  -2.91442690
| 49> H    3.77653549  -1.84000179  -3.11594582
| 50> H    4.29563129  -0.48854199  -2.13547705
| 51> H    3.83341420  -0.20137388  -3.83060025
| 52> *
| 53>
| 54>                          ****END OF INPUT****

CARTESIAN COORDINATES (ANGSTROEM)
---------------------------------
  Pd     0.466473    0.308570   -0.365802
  O      1.968522    1.322218    0.425962
  C      1.596906    2.565496    0.286253
  O      0.465797    2.858267   -0.120380
  C      2.637195    3.632212    0.596664
  H      2.187354    4.527290    1.042220
  H      3.110623    3.908227   -0.346869
  H      3.410386    3.235750    1.253466
  N     -1.303814   -0.657143   -1.084675
  C     -1.143382   -1.737134   -2.052097
  H     -0.642238   -1.389144   -2.926587
  H     -2.098347   -2.129338   -2.369165
  H     -0.584304   -2.556905   -1.651252
  C     -2.077445    0.420165   -1.705542
  H     -2.255347    1.217518   -1.006886
  H     -3.063684    0.072632   -2.000430
  H     -1.589299    0.818008   -2.577963
  C     -1.652857   -0.795925    1.465233
  C     -1.254745   -1.954513    2.218686
  C     -1.030408   -1.889897    3.589014
  C     -1.160300   -0.656050    4.205539
  C     -1.472346    0.503087    3.436285
  C     -1.736030    0.533159    2.056798
  H     -1.012129   -0.641705    5.302419
  H     -1.563733    1.437178    3.960593
  H     -1.229467   -2.947560    1.724580
  H     -0.594797   -2.748524    4.114551
  H     -1.906412    1.704515    1.499944
  C     -2.104578   -1.156208    0.088113
  H     -3.129370   -0.799985   -0.055544
  H     -2.151858   -2.230822   -0.058901
  O      1.944557   -0.748678   -1.183619
  C      2.160603   -0.523656   -2.467049
  O      1.357482   -0.207653   -3.293364
  C      3.617534   -0.777472   -2.914427
  H      3.776535   -1.840002   -3.115946
  H      4.295631   -0.488542   -2.135477
  H      3.833414   -0.201374   -3.830600

 Total Charge           Charge          ....    0
 Multiplicity           Mult            ....    1
 Number of Electrons    NEL             ....  154
 Basis Dimension        Dim             ....  339

ORBITAL ENERGIES
----------------

  NO   OCC          E(Eh)            E(eV)
   0   2.0000     -19.490371      -530.3600
   1   2.0000     -19.476550      -529.9839
   2   2.0000     -19.462997      -529.6151
   3   2.0000     -19.438455      -528.9473
   4   2.0000     -14.721157      -400.5830
   5   2.0000     -10.554042      -287.1901
   6   2.0000     -10.534172      -286.6494
   7   2.0000     -10.505897      -285.8800
   8   2.0000     -10.503370      -285.8112
   9   2.0000     -10.498584      -285.6810
  10   2.0000     -10.481932      -285.2279
  11   2.0000     -10.477847      -285.1167
  12   2.0000     -10.474614      -285.0287
  13   2.0000     -10.474171      -285.0167
  14   2.0000     -10.469797      -284.8977
  15   2.0000     -10.468951      -284.8746
  16   2.0000     -10.430062      -283.8164
  17   2.0000     -10.412163      -283.3294
  18   2.0000      -3.661251       -99.6277
  19   2.0000      -2.313063       -62.9416
  20   2.0000      -2.301812       -62.6355
  21   2.0000      -2.272106       -61.8271
  22   2.0000      -1.169042       -31.8113
  23   2.0000      -1.151922       -31.3454
  24   2.0000      -1.081465       -29.4281
  25   2.0000      -1.065222       -28.9862
  26   2.0000      -1.056433       -28.7470
  27   2.0000      -0.970218       -26.4010
  28   2.0000      -0.884920       -24.0799
  29   2.0000      -0.856155       -23.2972
  30   2.0000      -0.828073       -22.5330
  31   2.0000      -0.811090       -22.0709
  32   2.0000      -0.798664       -21.7327
  33   2.0000      -0.787367       -21.4253
  34   2.0000      -0.724979       -19.7277
  35   2.0000      -0.695029       -18.9127
  36   2.0000      -0.678174       -18.4540
  37   2.0000      -0.606281       -16.4978
  38   2.0000      -0.597232       -16.2515
  39   2.0000      -0.582200       -15.8425
  40   2.0000      -0.576895       -15.6981
  41   2.0000      -0.575168       -15.6511
  42   2.0000      -0.558095       -15.1865
  43   2.0000      -0.532463       -14.4891
  44   2.0000      -0.527745       -14.3607
  45   2.0000      -0.525007       -14.2862
  46   2.0000      -0.515317       -14.0225
  47   2.0000      -0.509077       -13.8527
  48   2.0000      -0.506063       -13.7707
  49   2.0000      -0.498755       -13.5718
  50   2.0000      -0.493658       -13.4331
  51   2.0000      -0.492306       -13.3963
  52   2.0000      -0.485548       -13.2124
  53   2.0000      -0.481488       -13.1019
  54   2.0000      -0.460503       -12.5309
  55   2.0000      -0.452357       -12.3092
  56   2.0000      -0.444626       -12.0989
  57   2.0000      -0.444015       -12.0822
  58   2.0000      -0.434683       -11.8283
  59   2.0000      -0.430527       -11.7152
  60   2.0000      -0.428942       -11.6721
  61   2.0000      -0.414772       -11.2865
  62   2.0000      -0.414115       -11.2687
  63   2.0000      -0.407111       -11.0781
  64   2.0000      -0.403238       -10.9727
  65   2.0000      -0.377279       -10.2663
  66   2.0000      -0.369853       -10.0642
  67   2.0000      -0.350891        -9.5482
  68   2.0000      -0.344004        -9.3608
  69   2.0000      -0.343025        -9.3342
  70   2.0000      -0.323104        -8.7921
  71   2.0000      -0.314669        -8.5626
  72   2.0000      -0.310207        -8.4412
  73   2.0000      -0.306062        -8.3284
  74   2.0000      -0.292075        -7.9478
  75   2.0000      -0.288088        -7.8393
  76   2.0000      -0.281462        -7.6590
  77   0.0000      -0.073068        -1.9883
  78   0.0000      -0.021597        -0.5877
  79   0.0000      -0.005139        -0.1398
  80   0.0000       0.055830         1.5192
  81   0.0000       0.064349         1.7510

MULLIKEN ATOMIC CHARGES
-----------------------
   0 Pd:    0.561422
   1 O :   -0.506309
   2 C :    0.606735
   3 O :   -0.478608
   4 C :   -0.751491
   5 H :    0.241442
   6 H :    0.252678
   7 H :    0.247996
   8 N :   -0.481579
   9 C :   -0.561101
  10 H :    0.312967
  11 H :    0.220319
  12 H :    0.267341
  13 C :   -0.563088
  14 H :    0.268053
  15 H :    0.235085
  16 H :    0.303483
  17 C :    0.038399
  18 C :   -0.228930
  19 C :   -0.208940
  20 C :   -0.215399
  21 C :   -0.204364
  22 C :   -0.267483
  23 H :    0.232453
  24 H :    0.233231
  25 H :    0.222886
  26 H :    0.236070
  27 H :    0.255645
  28 C :   -0.333964
  29 H :    0.250734
  30 H :    0.256199
  31 O :   -0.536659
  32 C :    0.559250
  33 O :   -0.438436
  34 C :   -0.738926
  35 H :    0.232561
  36 H :    0.246321
  37 H :    0.234007
Sum of atomic charges:   -0.0000000

LOEWDIN ATOMIC CHARGES
----------------------
   0 Pd:   -0.217605
   1 O :   -0.160555
   2 C :    0.170071
   3 O :   -0.241269
   4 C :   -0.381132
   5 H :    0.147430
   6 H :    0.158996
   7 H :    0.148420
   8 N :   -0.061318
   9 C :   -0.248086
  10 H :    0.167452
  11 H :    0.117588
  12 H :    0.147027
  13 C :   -0.236777
  14 H :    0.148687
  15 H :    0.124025
  16 H :    0.164457
  17 C :   -0.044758
  18 C :   -0.114141
  19 C :   -0.125543
  20 C :   -0.125740
  21 C :   -0.118274
  22 C :   -0.117049
  23 H :    0.144876
  24 H :    0.141525
  25 H :    0.144202
  26 H :    0.145074
  27 H :    0.183416
  28 C :   -0.104111
  29 H :    0.144666
  30 H :    0.146228
  31 O :   -0.185057
  32 C :    0.132951
  33 O :   -0.241863
  34 C :   -0.385608
  35 H :    0.145709
  36 H :    0.143438
  37 H :    0.142647

  Mayer bond orders larger than 0.100000
B(  0-Pd,  1-O ) :   0.6587 B(  0-Pd,  3-O ) :   0.2408 B(  0-Pd,  8-N ) :   0.4123
B(  0-Pd, 31-O ) :   0.6887 B(  1-O ,  2-C ) :   1.2804 B(  1-O ,  3-O ) :   0.1014
B(  2-C ,  3-O ) :   1.7401 B(  2-C ,  4-C ) :   0.9406 B(  4-C ,  5-H ) :   0.9164
B(  4-C ,  6-H ) :   0.9076 B(  4-C ,  7-H ) :   0.9104 B(  8-N ,  9-C ) :   0.9256
B(  8-N , 13-C ) :   0.9232 B(  8-N , 28-C ) :   0.8669 B(  9-C , 10-H ) :   0.8655
B(  9-C , 11-H ) :   0.9034 B(  9-C , 12-H ) :   0.9054 B( 13-C , 14-H ) :   0.8963
B( 13-C , 15-H ) :   0.8997 B( 13-C , 16-H ) :   0.8871 B( 17-C , 18-C ) :   1.4033
B( 17-C , 22-C ) :   1.3322 B( 17-C , 28-C ) :   0.9510 B( 18-C , 19-C ) :   1.4166
B( 18-C , 25-H ) :   0.9156 B( 19-C , 20-C ) :   1.4330 B( 19-C , 26-H ) :   0.9109
B( 20-C , 21-C ) :   1.3969 B( 20-C , 23-H ) :   0.9154 B( 21-C , 22-C ) :   1.4368
B( 21-C , 24-H ) :   0.9139 B( 22-C , 27-H ) :   0.8955 B( 28-C , 29-H ) :   0.8964
B( 28-C , 30-H ) :   0.9136 B( 31-O , 32-C ) :   1.2331 B( 32-C , 33-O ) :   1.9002
B( 32-C , 34-C ) :   0.9208 B( 34-C , 35-H ) :   0.9176 B( 34-C , 36-H ) :   0.9101
B( 34-C , 37-H ) :   0.9224

Dispersion correction           -0.026103980
FINAL SINGLE POINT ENERGY      -988.477239534509
Dispersion correction            ... done

DIPOLE MOMENT
-------------
                                X             Y             Z
Electronic contribution:     19.62432      13.56917     -17.69179
Nuclear contribution   :    -21.45488     -14.41218      18.77817
                        -----------------------------------------
Total Dipole Moment    :     -1.83056      -0.84301       1.08638
                        -----------------------------------------
Magnitude (a.u.)       :      2.28951
Magnitude (Debye)      :      5.81947

Rotational constants in cm-1:     0.013918     0.008491     0.006768
Rotational constants in MHz :   417.254169   254.565032   202.892305

                             ****ORCA TERMINATED NORMALLY****
TOTAL RUN TIME: 0 days 0 hours 16 minutes 48 seconds 80 msec
