                         Program Version 5.0.3 -  RELEASE  -
|  1> ! EnGrad PBEh-3c
|  2> %output
|  3> xyzfile=True
|  4> end
|  5> %scf
|  6> maxiter 250
|  7> end
|  8> %output
|  9> Print[P_Hirshfeld] = 1
| 10> end
| 11> % maxcore
| 12> 4000
| 13> *xyz 0 1
| 14> Pd   0.47690519   0.33724936  -0.34615894
| 15> O    1.95308511   1.32013395   0.41514806
| 16> C    1.58556130   2.55239842   0.29784669
| 17> O    0.47201032   2.85820500  -0.11963259
| 18> C    2.63464172   3.62547486   0.59557260
| 19> H    2.18557808   4.52536610   1.04250616
| 20> H    3.11711295   3.91399761  -0.35365951
| 21> H    3.40878436   3.23254092   1.25554389
| 22> N   -1.32000155  -0.65829036  -1.08659105
| 23> C   -1.13919214  -1.74581194  -2.05424567
| 24> H   -0.63523957  -1.38724395  -2.93166973
| 25> H   -2.10123063  -2.12056926  -2.36288702
| 26> H   -0.57205107  -2.56516696  -1.63294427
| 27> C   -2.07540767   0.42395246  -1.71323603
| 28> H   -2.24996400   1.22912177  -1.00387579
| 29> H   -3.05552766   0.06371093  -2.00241580
| 30> H   -1.57731690   0.81953994  -2.58847553
| 31> C   -1.64954011  -0.77899412   1.47372364
| 32> C   -1.28076209  -1.93206298   2.21937492
| 33> C   -1.01546973  -1.87403376   3.58049865
| 34> C   -1.16557862  -0.65008562   4.19699671
| 35> C   -1.46479827   0.50187930   3.43610265
| 36> C   -1.72942596   0.55395830   2.04513276
| 37> H   -1.01223263  -0.62969422   5.27950033
| 38> H   -1.54992359   1.42518212   3.96428379
| 39> H   -1.23651753  -2.91856222   1.73546833
| 40> H   -0.62085824  -2.74044299   4.11266376
| 41> H   -1.88775911   1.56843465   1.53552982
| 42> C   -2.10846580  -1.14930949   0.07760605
| 43> H   -3.12555297  -0.79857227  -0.05574074
| 44> H   -2.15892517  -2.22980307  -0.04593184
| 45> O    1.95299455  -0.76394128  -1.19288979
| 46> C    2.15841348  -0.53276715  -2.46431536
| 47> O    1.34327020  -0.20188478  -3.30186951
| 48> C    3.60663948  -0.77367478  -2.91690300
| 49> H    3.78349254  -1.83436735  -3.12686044
| 50> H    4.30233220  -0.47935578  -2.13440243
| 51> H    3.82721340  -0.20129820  -3.82324228
| 52> *
| 53>
| 54>                          ****END OF INPUT****

CARTESIAN COORDINATES (ANGSTROEM)
---------------------------------
  Pd     0.476905    0.337249   -0.346159
  O      1.953085    1.320134    0.415148
  C      1.585561    2.552398    0.297847
  O      0.472010    2.858205   -0.119633
  C      2.634642    3.625475    0.595573
  H      2.185578    4.525366    1.042506
  H      3.117113    3.913998   -0.353660
  H      3.408784    3.232541    1.255544
  N     -1.320002   -0.658290   -1.086591
  C     -1.139192   -1.745812   -2.054246
  H     -0.635240   -1.387244   -2.931670
  H     -2.101231   -2.120569   -2.362887
  H     -0.572051   -2.565167   -1.632944
  C     -2.075408    0.423952   -1.713236
  H     -2.249964    1.229122   -1.003876
  H     -3.055528    0.063711   -2.002416
  H     -1.577317    0.819540   -2.588476
  C     -1.649540   -0.778994    1.473724
  C     -1.280762   -1.932063    2.219375
  C     -1.015470   -1.874034    3.580499
  C     -1.165579   -0.650086    4.196997
  C     -1.464798    0.501879    3.436103
  C     -1.729426    0.553958    2.045133
  H     -1.012233   -0.629694    5.279500
  H     -1.549924    1.425182    3.964284
  H     -1.236518   -2.918562    1.735468
  H     -0.620858   -2.740443    4.112664
  H     -1.887759    1.568435    1.535530
  C     -2.108466   -1.149309    0.077606
  H     -3.125553   -0.798572   -0.055741
  H     -2.158925   -2.229803   -0.045932
  O      1.952995   -0.763941   -1.192890
  C      2.158413   -0.532767   -2.464315
  O      1.343270   -0.201885   -3.301870
  C      3.606639   -0.773675   -2.916903
  H      3.783493   -1.834367   -3.126860
  H      4.302332   -0.479356   -2.134402
  H      3.827213   -0.201298   -3.823242

 Total Charge           Charge          ....    0
 Multiplicity           Mult            ....    1
 Number of Electrons    NEL             ....  154
 Basis Dimension        Dim             ....  339

ORBITAL ENERGIES
----------------

  NO   OCC          E(Eh)            E(eV)
   0   2.0000     -19.499244      -530.6014
   1   2.0000     -19.475697      -529.9606
   2   2.0000     -19.468870      -529.7749
   3   2.0000     -19.434091      -528.8285
   4   2.0000     -14.717196      -400.4753
   5   2.0000     -10.558290      -287.3057
   6   2.0000     -10.533071      -286.6194
   7   2.0000     -10.500899      -285.7440
   8   2.0000     -10.496501      -285.6243
   9   2.0000     -10.493059      -285.5306
  10   2.0000     -10.482514      -285.2437
  11   2.0000     -10.473303      -284.9931
  12   2.0000     -10.472492      -284.9710
  13   2.0000     -10.469641      -284.8934
  14   2.0000     -10.469499      -284.8896
  15   2.0000     -10.467948      -284.8473
  16   2.0000     -10.434210      -283.9293
  17   2.0000     -10.411183      -283.3027
  18   2.0000      -3.663768       -99.6962
  19   2.0000      -2.317145       -63.0527
  20   2.0000      -2.302685       -62.6593
  21   2.0000      -2.275075       -61.9079
  22   2.0000      -1.184609       -32.2348
  23   2.0000      -1.143734       -31.1226
  24   2.0000      -1.080623       -29.4052
  25   2.0000      -1.077813       -29.3288
  26   2.0000      -1.052860       -28.6498
  27   2.0000      -0.972342       -26.4588
  28   2.0000      -0.883605       -24.0441
  29   2.0000      -0.858071       -23.3493
  30   2.0000      -0.825085       -22.4517
  31   2.0000      -0.811240       -22.0750
  32   2.0000      -0.800269       -21.7764
  33   2.0000      -0.786153       -21.3923
  34   2.0000      -0.722003       -19.6467
  35   2.0000      -0.699180       -19.0256
  36   2.0000      -0.679786       -18.4979
  37   2.0000      -0.612384       -16.6638
  38   2.0000      -0.603311       -16.4169
  39   2.0000      -0.581506       -15.8236
  40   2.0000      -0.574823       -15.6417
  41   2.0000      -0.573192       -15.5973
  42   2.0000      -0.560635       -15.2557
  43   2.0000      -0.535939       -14.5836
  44   2.0000      -0.535304       -14.5664
  45   2.0000      -0.528564       -14.3830
  46   2.0000      -0.524196       -14.2641
  47   2.0000      -0.514619       -14.0035
  48   2.0000      -0.506474       -13.7818
  49   2.0000      -0.503999       -13.7145
  50   2.0000      -0.494079       -13.4446
  51   2.0000      -0.489705       -13.3255
  52   2.0000      -0.483330       -13.1521
  53   2.0000      -0.479343       -13.0436
  54   2.0000      -0.461115       -12.5476
  55   2.0000      -0.450354       -12.2548
  56   2.0000      -0.447839       -12.1863
  57   2.0000      -0.445947       -12.1348
  58   2.0000      -0.438765       -11.9394
  59   2.0000      -0.430099       -11.7036
  60   2.0000      -0.426915       -11.6169
  61   2.0000      -0.417597       -11.3634
  62   2.0000      -0.413347       -11.2477
  63   2.0000      -0.410493       -11.1701
  64   2.0000      -0.401870       -10.9355
  65   2.0000      -0.378257       -10.2929
  66   2.0000      -0.366997        -9.9865
  67   2.0000      -0.354159        -9.6371
  68   2.0000      -0.347233        -9.4487
  69   2.0000      -0.344650        -9.3784
  70   2.0000      -0.325766        -8.8646
  71   2.0000      -0.316781        -8.6201
  72   2.0000      -0.311120        -8.4660
  73   2.0000      -0.306621        -8.3436
  74   2.0000      -0.293859        -7.9963
  75   2.0000      -0.287751        -7.8301
  76   2.0000      -0.281800        -7.6682
  77   0.0000      -0.075740        -2.0610
  78   0.0000      -0.019073        -0.5190
  79   0.0000      -0.003713        -0.1010
  80   0.0000       0.058505         1.5920
  81   0.0000       0.063874         1.7381

MULLIKEN ATOMIC CHARGES
-----------------------
   0 Pd:    0.567633
   1 O :   -0.502193
   2 C :    0.607272
   3 O :   -0.468560
   4 C :   -0.753508
   5 H :    0.241456
   6 H :    0.252574
   7 H :    0.246554
   8 N :   -0.471711
   9 C :   -0.554952
  10 H :    0.312000
  11 H :    0.218479
  12 H :    0.263398
  13 C :   -0.559263
  14 H :    0.262984
  15 H :    0.233143
  16 H :    0.302666
  17 C :    0.038114
  18 C :   -0.236365
  19 C :   -0.208038
  20 C :   -0.210123
  21 C :   -0.218959
  22 C :   -0.267306
  23 H :    0.231333
  24 H :    0.229710
  25 H :    0.223958
  26 H :    0.237323
  27 H :    0.267427
  28 C :   -0.333292
  29 H :    0.249386
  30 H :    0.254765
  31 O :   -0.529791
  32 C :    0.563870
  33 O :   -0.461061
  34 C :   -0.738536
  35 H :    0.231966
  36 H :    0.240554
  37 H :    0.237090
Sum of atomic charges:   -0.0000000

LOEWDIN ATOMIC CHARGES
----------------------
   0 Pd:   -0.203420
   1 O :   -0.138562
   2 C :    0.162959
   3 O :   -0.225621
   4 C :   -0.381180
   5 H :    0.147476
   6 H :    0.159530
   7 H :    0.147344
   8 N :   -0.068378
   9 C :   -0.245461
  10 H :    0.168162
  11 H :    0.116673
  12 H :    0.147321
  13 C :   -0.236128
  14 H :    0.147906
  15 H :    0.122684
  16 H :    0.165161
  17 C :   -0.038315
  18 C :   -0.119495
  19 C :   -0.120379
  20 C :   -0.129031
  21 C :   -0.112617
  22 C :   -0.121458
  23 H :    0.143662
  24 H :    0.139510
  25 H :    0.143609
  26 H :    0.144284
  27 H :    0.175975
  28 C :   -0.108172
  29 H :    0.142408
  30 H :    0.145211
  31 O :   -0.184560
  32 C :    0.135193
  33 O :   -0.267364
  34 C :   -0.384991
  35 H :    0.145405
  36 H :    0.142472
  37 H :    0.142187

  Mayer bond orders larger than 0.100000
B(  0-Pd,  1-O ) :   0.6677 B(  0-Pd,  3-O ) :   0.2520 B(  0-Pd,  8-N ) :   0.4045
B(  0-Pd, 31-O ) :   0.6645 B(  1-O ,  2-C ) :   1.2797 B(  1-O ,  3-O ) :   0.1003
B(  2-C ,  3-O ) :   1.7420 B(  2-C ,  4-C ) :   0.9384 B(  4-C ,  5-H ) :   0.9162
B(  4-C ,  6-H ) :   0.9083 B(  4-C ,  7-H ) :   0.9100 B(  8-N ,  9-C ) :   0.9226
B(  8-N , 13-C ) :   0.9252 B(  8-N , 28-C ) :   0.8753 B(  9-C , 10-H ) :   0.8644
B(  9-C , 11-H ) :   0.9034 B(  9-C , 12-H ) :   0.9077 B( 13-C , 14-H ) :   0.8988
B( 13-C , 15-H ) :   0.8999 B( 13-C , 16-H ) :   0.8873 B( 17-C , 18-C ) :   1.4069
B( 17-C , 22-C ) :   1.3382 B( 17-C , 28-C ) :   0.9457 B( 18-C , 19-C ) :   1.4225
B( 18-C , 25-H ) :   0.9163 B( 19-C , 20-C ) :   1.4329 B( 19-C , 26-H ) :   0.9102
B( 20-C , 21-C ) :   1.4064 B( 20-C , 23-H ) :   0.9160 B( 21-C , 22-C ) :   1.4353
B( 21-C , 24-H ) :   0.9158 B( 22-C , 27-H ) :   0.8975 B( 28-C , 29-H ) :   0.8968
B( 28-C , 30-H ) :   0.9146 B( 31-O , 32-C ) :   1.2647 B( 31-O , 33-O ) :   0.1003
B( 32-C , 33-O ) :   1.8695 B( 32-C , 34-C ) :   0.9216 B( 34-C , 35-H ) :   0.9175
B( 34-C , 36-H ) :   0.9127 B( 34-C , 37-H ) :   0.9202

Dispersion correction           -0.026099865
FINAL SINGLE POINT ENERGY      -988.501787402692
Dispersion correction            ... done

DIPOLE MOMENT
-------------
                                X             Y             Z
Electronic contribution:     20.28042      15.16749     -16.47850
Nuclear contribution   :    -22.04746     -15.91946      17.68798
                        -----------------------------------------
Total Dipole Moment    :     -1.76704      -0.75197       1.20948
                        -----------------------------------------
Magnitude (a.u.)       :      2.26952
Magnitude (Debye)      :      5.76866

Rotational constants in cm-1:     0.013939     0.008514     0.006779
Rotational constants in MHz :   417.880829   255.235844   203.231413

                             ****ORCA TERMINATED NORMALLY****
TOTAL RUN TIME: 0 days 0 hours 16 minutes 5 seconds 516 msec
