                         Program Version 5.0.3 -  RELEASE  -
|  1> ! EnGrad PBEh-3c
|  2> %output
|  3> xyzfile=True
|  4> end
|  5> %scf
|  6> maxiter 250
|  7> end
|  8> %output
|  9> Print[P_Hirshfeld] = 1
| 10> end
| 11> % maxcore
| 12> 4000
| 13> *xyz 0 1
| 14> Pd   0.45575154   0.37698210  -0.33750613
| 15> O    2.01979251   1.32145761   0.58947914
| 16> C    1.57756005   2.65876908   0.29481883
| 17> O    0.60294192   2.82316347  -0.12560806
| 18> C    2.66635329   3.71350883   0.58446310
| 19> H    2.13738867   4.56678403   1.02446760
| 20> H    3.07860488   4.03784184  -0.36117034
| 21> H    3.46673164   3.41043225   1.23980342
| 22> N   -1.36443387  -0.64599901  -1.12385537
| 23> C   -1.24117217  -1.58748657  -2.22876765
| 24> H   -0.84006694  -1.10349471  -3.09307815
| 25> H   -2.24899260  -1.91429158  -2.52114087
| 26> H   -0.64543031  -2.42441017  -1.95414486
| 27> C   -2.17545252   0.49999740  -1.58525890
| 28> H   -2.29611017   1.25096689  -0.84764478
| 29> H   -3.16374260   0.13718034  -1.89085119
| 30> H   -1.69463815   0.92826252  -2.45873510
| 31> C   -1.52455797  -0.99390469   1.36674339
| 32> C   -0.86728162  -2.03181316   2.16917033
| 33> C   -0.71345674  -1.87835914   3.51999261
| 34> C   -1.12345632  -0.74157412   4.13601916
| 35> C   -1.78389295   0.27737971   3.39219526
| 36> C   -1.85475184   0.11994554   2.07835058
| 37> H   -0.99082769  -0.60398952   5.21737120
| 38> H   -2.28647665   1.00975413   3.96106150
| 39> H   -0.60535189  -2.96779367   1.71829305
| 40> H   -0.35595921  -2.71841984   4.11613776
| 41> H   -2.35669185   3.12582645   1.66906353
| 42> C   -2.04870886  -1.35127597   0.05395262
| 43> H   -3.11999488  -1.09403982   0.05073980
| 44> H   -2.04969152  -2.42293811  -0.11151284
| 45> O    1.92155577  -0.70713720  -1.16634772
| 46> C    2.22996555  -0.49843721  -2.45001626
| 47> O    1.54708645  -0.03564033  -3.27158976
| 48> C    3.65882053  -1.02980770  -2.81404915
| 49> H    3.62784934  -2.11159112  -2.91729513
| 50> H    4.40378228  -0.77180267  -2.11997741
| 51> H    3.95914482  -0.62189824  -3.80316690
| 52> *
| 53>
| 54>                          ****END OF INPUT****

CARTESIAN COORDINATES (ANGSTROEM)
---------------------------------
  Pd     0.455752    0.376982   -0.337506
  O      2.019793    1.321458    0.589479
  C      1.577560    2.658769    0.294819
  O      0.602942    2.823163   -0.125608
  C      2.666353    3.713509    0.584463
  H      2.137389    4.566784    1.024468
  H      3.078605    4.037842   -0.361170
  H      3.466732    3.410432    1.239803
  N     -1.364434   -0.645999   -1.123855
  C     -1.241172   -1.587487   -2.228768
  H     -0.840067   -1.103495   -3.093078
  H     -2.248993   -1.914292   -2.521141
  H     -0.645430   -2.424410   -1.954145
  C     -2.175453    0.499997   -1.585259
  H     -2.296110    1.250967   -0.847645
  H     -3.163743    0.137180   -1.890851
  H     -1.694638    0.928263   -2.458735
  C     -1.524558   -0.993905    1.366743
  C     -0.867282   -2.031813    2.169170
  C     -0.713457   -1.878359    3.519993
  C     -1.123456   -0.741574    4.136019
  C     -1.783893    0.277380    3.392195
  C     -1.854752    0.119946    2.078351
  H     -0.990828   -0.603990    5.217371
  H     -2.286477    1.009754    3.961061
  H     -0.605352   -2.967794    1.718293
  H     -0.355959   -2.718420    4.116138
  H     -2.356692    3.125826    1.669064
  C     -2.048709   -1.351276    0.053953
  H     -3.119995   -1.094040    0.050740
  H     -2.049692   -2.422938   -0.111513
  O      1.921556   -0.707137   -1.166348
  C      2.229966   -0.498437   -2.450016
  O      1.547086   -0.035640   -3.271590
  C      3.658821   -1.029808   -2.814049
  H      3.627849   -2.111591   -2.917295
  H      4.403782   -0.771803   -2.119977
  H      3.959145   -0.621898   -3.803167

 Total Charge           Charge          ....    0
 Multiplicity           Mult            ....    1
 Number of Electrons    NEL             ....  154
 Basis Dimension        Dim             ....  339

ORBITAL ENERGIES
----------------

  NO   OCC          E(Eh)            E(eV)
   0   2.0000     -19.488300      -530.3036
   1   2.0000     -19.465814      -529.6917
   2   2.0000     -19.460210      -529.5392
   3   2.0000     -19.437816      -528.9299
   4   2.0000     -14.717287      -400.4777
   5   2.0000     -10.545294      -286.9520
   6   2.0000     -10.528489      -286.4948
   7   2.0000     -10.526484      -286.4402
   8   2.0000     -10.514604      -286.1169
   9   2.0000     -10.509088      -285.9668
  10   2.0000     -10.492219      -285.5078
  11   2.0000     -10.486082      -285.3408
  12   2.0000     -10.482408      -285.2408
  13   2.0000     -10.480512      -285.1892
  14   2.0000     -10.474525      -285.0263
  15   2.0000     -10.473380      -284.9952
  16   2.0000     -10.424484      -283.6646
  17   2.0000     -10.407496      -283.2024
  18   2.0000      -3.648711       -99.2865
  19   2.0000      -2.298112       -62.5348
  20   2.0000      -2.290396       -62.3249
  21   2.0000      -2.260963       -61.5239
  22   2.0000      -1.251981       -34.0681
  23   2.0000      -1.158278       -31.5183
  24   2.0000      -1.071423       -29.1549
  25   2.0000      -1.047873       -28.5141
  26   2.0000      -1.020442       -27.7677
  27   2.0000      -1.002989       -27.2927
  28   2.0000      -0.907578       -24.6965
  29   2.0000      -0.876928       -23.8624
  30   2.0000      -0.823043       -22.3961
  31   2.0000      -0.813633       -22.1401
  32   2.0000      -0.806317       -21.9410
  33   2.0000      -0.781199       -21.2575
  34   2.0000      -0.729153       -19.8412
  35   2.0000      -0.716984       -19.5101
  36   2.0000      -0.681427       -18.5426
  37   2.0000      -0.612801       -16.6752
  38   2.0000      -0.589788       -16.0489
  39   2.0000      -0.582281       -15.8447
  40   2.0000      -0.578276       -15.7357
  41   2.0000      -0.575792       -15.6681
  42   2.0000      -0.566555       -15.4167
  43   2.0000      -0.546420       -14.8688
  44   2.0000      -0.544126       -14.8064
  45   2.0000      -0.536104       -14.5881
  46   2.0000      -0.529044       -14.3960
  47   2.0000      -0.520946       -14.1757
  48   2.0000      -0.507910       -13.8209
  49   2.0000      -0.505356       -13.7514
  50   2.0000      -0.491464       -13.3734
  51   2.0000      -0.489182       -13.3113
  52   2.0000      -0.483331       -13.1521
  53   2.0000      -0.476866       -12.9762
  54   2.0000      -0.466060       -12.6821
  55   2.0000      -0.455283       -12.3889
  56   2.0000      -0.452583       -12.3154
  57   2.0000      -0.447719       -12.1830
  58   2.0000      -0.444562       -12.0972
  59   2.0000      -0.439093       -11.9483
  60   2.0000      -0.438006       -11.9187
  61   2.0000      -0.424618       -11.5544
  62   2.0000      -0.414586       -11.2815
  63   2.0000      -0.393329       -10.7030
  64   2.0000      -0.376371       -10.2416
  65   2.0000      -0.362914        -9.8754
  66   2.0000      -0.343207        -9.3391
  67   2.0000      -0.341380        -9.2894
  68   2.0000      -0.331405        -9.0180
  69   2.0000      -0.328486        -8.9386
  70   2.0000      -0.322295        -8.7701
  71   2.0000      -0.305732        -8.3194
  72   2.0000      -0.296050        -8.0559
  73   2.0000      -0.287480        -7.8227
  74   2.0000      -0.285045        -7.7565
  75   2.0000      -0.274312        -7.4644
  76   2.0000      -0.258746        -7.0408
  77   0.0000      -0.150641        -4.0992
  78   0.0000      -0.069273        -1.8850
  79   0.0000      -0.034102        -0.9280
  80   0.0000      -0.003416        -0.0930
  81   0.0000       0.066556         1.8111

MULLIKEN ATOMIC CHARGES
-----------------------
   0 Pd:    0.432454
   1 O :   -0.553233
   2 C :    0.554145
   3 O :   -0.283018
   4 C :   -0.759675
   5 H :    0.227710
   6 H :    0.250460
   7 H :    0.259592
   8 N :   -0.472975
   9 C :   -0.529933
  10 H :    0.297306
  11 H :    0.208133
  12 H :    0.264957
  13 C :   -0.557430
  14 H :    0.290466
  15 H :    0.224611
  16 H :    0.288743
  17 C :   -0.031661
  18 C :   -0.223213
  19 C :   -0.187950
  20 C :   -0.233351
  21 C :   -0.250377
  22 C :    0.057094
  23 H :    0.246966
  24 H :    0.270117
  25 H :    0.242086
  26 H :    0.241217
  27 H :   -0.031782
  28 C :   -0.322589
  29 H :    0.254962
  30 H :    0.264183
  31 O :   -0.542172
  32 C :    0.542526
  33 O :   -0.402127
  34 C :   -0.742544
  35 H :    0.227941
  36 H :    0.254175
  37 H :    0.224183
Sum of atomic charges:    0.0000000

LOEWDIN ATOMIC CHARGES
----------------------
   0 Pd:   -0.286753
   1 O :   -0.260626
   2 C :    0.127119
   3 O :   -0.022257
   4 C :   -0.387848
   5 H :    0.142742
   6 H :    0.155094
   7 H :    0.150714
   8 N :   -0.077324
   9 C :   -0.240060
  10 H :    0.160789
  11 H :    0.113949
  12 H :    0.145894
  13 C :   -0.240267
  14 H :    0.156941
  15 H :    0.120863
  16 H :    0.161119
  17 C :   -0.060797
  18 C :   -0.081054
  19 C :   -0.130443
  20 C :   -0.103467
  21 C :   -0.133313
  22 C :    0.048663
  23 H :    0.149296
  24 H :    0.162885
  25 H :    0.152879
  26 H :    0.150478
  27 H :   -0.033832
  28 C :   -0.096848
  29 H :    0.149883
  30 H :    0.150839
  31 O :   -0.196349
  32 C :    0.123356
  33 O :   -0.204010
  34 C :   -0.390846
  35 H :    0.142425
  36 H :    0.143496
  37 H :    0.136671

  Mayer bond orders larger than 0.100000
B(  0-Pd,  1-O ) :   0.7883 B(  0-Pd,  3-O ) :   0.1853 B(  0-Pd,  8-N ) :   0.3622
B(  0-Pd, 31-O ) :   0.7004 B(  1-O ,  2-C ) :   1.0755 B(  2-C ,  3-O ) :   2.0034
B(  2-C ,  4-C ) :   0.9252 B(  4-C ,  5-H ) :   0.9169 B(  4-C ,  6-H ) :   0.9105
B(  4-C ,  7-H ) :   0.9109 B(  8-N ,  9-C ) :   0.9304 B(  8-N , 13-C ) :   0.9205
B(  8-N , 28-C ) :   0.8863 B(  9-C , 10-H ) :   0.8834 B(  9-C , 11-H ) :   0.9067
B(  9-C , 12-H ) :   0.9086 B( 13-C , 14-H ) :   0.8816 B( 13-C , 15-H ) :   0.9052
B( 13-C , 16-H ) :   0.8921 B( 17-C , 18-C ) :   1.3578 B( 17-C , 20-C ) :   0.1028
B( 17-C , 22-C ) :   1.4289 B( 17-C , 28-C ) :   0.9444 B( 18-C , 19-C ) :   1.4530
B( 18-C , 21-C ) :   0.1053 B( 18-C , 25-H ) :   0.9025 B( 19-C , 20-C ) :   1.4299
B( 19-C , 26-H ) :   0.9081 B( 20-C , 21-C ) :   1.3655 B( 20-C , 23-H ) :   0.9033
B( 21-C , 22-C ) :   1.4951 B( 21-C , 24-H ) :   0.8959 B( 22-C , 27-H ) :   0.7086
B( 28-C , 29-H ) :   0.8974 B( 28-C , 30-H ) :   0.9125 B( 31-O , 32-C ) :   1.2101
B( 32-C , 33-O ) :   1.9570 B( 32-C , 34-C ) :   0.9144 B( 34-C , 35-H ) :   0.9196
B( 34-C , 36-H ) :   0.9079 B( 34-C , 37-H ) :   0.9256

Dispersion correction           -0.025589777
FINAL SINGLE POINT ENERGY      -988.178014545412
Dispersion correction            ... done

DIPOLE MOMENT
-------------
                                X             Y             Z
Electronic contribution:     18.20914      17.04098     -16.01150
Nuclear contribution   :    -20.39027     -18.37604      17.29937
                        -----------------------------------------
Total Dipole Moment    :     -2.18112      -1.33505       1.28786
                        -----------------------------------------
Magnitude (a.u.)       :      2.86326
Magnitude (Debye)      :      7.27782

Rotational constants in cm-1:     0.013361     0.008393     0.006802
Rotational constants in MHz :   400.552832   251.604505   203.932467

                             ****ORCA TERMINATED NORMALLY****
TOTAL RUN TIME: 0 days 0 hours 10 minutes 23 seconds 710 msec
