                         Program Version 5.0.3 -  RELEASE  -
|  1> ! EnGrad PBEh-3c
|  2> %output
|  3> xyzfile=True
|  4> end
|  5> %scf
|  6> maxiter 250
|  7> end
|  8> %output
|  9> Print[P_Hirshfeld] = 1
| 10> end
| 11> % maxcore
| 12> 4000
| 13> *xyz 0 1
| 14> Pd   0.47521102   0.33032953  -0.34930039
| 15> O    1.95167245   1.33000676   0.41822518
| 16> C    1.59288638   2.55721397   0.29742018
| 17> O    0.47049034   2.85378344  -0.11755917
| 18> C    2.63267338   3.62067123   0.59570583
| 19> H    2.18723658   4.52077762   1.04016136
| 20> H    3.11609492   3.91381491  -0.35054117
| 21> H    3.40901479   3.23371284   1.25546453
| 22> N   -1.31249945  -0.65164102  -1.07952513
| 23> C   -1.13874652  -1.74571932  -2.05167053
| 24> H   -0.63049784  -1.38632220  -2.93389862
| 25> H   -2.10850834  -2.12354911  -2.36308100
| 26> H   -0.56872672  -2.56738872  -1.62705968
| 27> C   -2.07536730   0.42496936  -1.71525511
| 28> H   -2.24732160   1.23194413  -1.00466293
| 29> H   -3.05864662   0.06055319  -2.00640763
| 30> H   -1.57257746   0.81792352  -2.59132622
| 31> C   -1.64944949  -0.78032425   1.47024127
| 32> C   -1.28606272  -1.92343540   2.21824356
| 33> C   -1.01243554  -1.87091098   3.57385905
| 34> C   -1.16451501  -0.64449361   4.19424315
| 35> C   -1.46643574   0.50190618   3.43410077
| 36> C   -1.71789331   0.53320431   2.05006516
| 37> H   -1.01165365  -0.62235519   5.27173911
| 38> H   -1.54671686   1.42720459   3.96820965
| 39> H   -1.23991068  -2.90854083   1.73847254
| 40> H   -0.63193636  -2.73816410   4.11322846
| 41> H   -1.88521714   1.54308898   1.54665255
| 42> C   -2.10973720  -1.14636041   0.07156069
| 43> H   -3.12931068  -0.79700663  -0.05413863
| 44> H   -2.16240392  -2.22987141  -0.03967694
| 45> O    1.94865922  -0.76130302  -1.20276859
| 46> C    2.16244555  -0.53848420  -2.46751255
| 47> O    1.34123007  -0.20164913  -3.29519036
| 48> C    3.60365730  -0.77151734  -2.91602092
| 49> H    3.78457089  -1.82954462  -3.13002357
| 50> H    4.30462055  -0.47713786  -2.13520663
| 51> H    3.82362291  -0.20114919  -3.82058701
| 52> *
| 53>
| 54>                          ****END OF INPUT****

CARTESIAN COORDINATES (ANGSTROEM)
---------------------------------
  Pd     0.475211    0.330330   -0.349300
  O      1.951672    1.330007    0.418225
  C      1.592886    2.557214    0.297420
  O      0.470490    2.853783   -0.117559
  C      2.632673    3.620671    0.595706
  H      2.187237    4.520778    1.040161
  H      3.116095    3.913815   -0.350541
  H      3.409015    3.233713    1.255465
  N     -1.312499   -0.651641   -1.079525
  C     -1.138747   -1.745719   -2.051671
  H     -0.630498   -1.386322   -2.933899
  H     -2.108508   -2.123549   -2.363081
  H     -0.568727   -2.567389   -1.627060
  C     -2.075367    0.424969   -1.715255
  H     -2.247322    1.231944   -1.004663
  H     -3.058647    0.060553   -2.006408
  H     -1.572577    0.817924   -2.591326
  C     -1.649449   -0.780324    1.470241
  C     -1.286063   -1.923435    2.218244
  C     -1.012436   -1.870911    3.573859
  C     -1.164515   -0.644494    4.194243
  C     -1.466436    0.501906    3.434101
  C     -1.717893    0.533204    2.050065
  H     -1.011654   -0.622355    5.271739
  H     -1.546717    1.427205    3.968210
  H     -1.239911   -2.908541    1.738473
  H     -0.631936   -2.738164    4.113228
  H     -1.885217    1.543089    1.546653
  C     -2.109737   -1.146360    0.071561
  H     -3.129311   -0.797007   -0.054139
  H     -2.162404   -2.229871   -0.039677
  O      1.948659   -0.761303   -1.202769
  C      2.162446   -0.538484   -2.467513
  O      1.341230   -0.201649   -3.295190
  C      3.603657   -0.771517   -2.916021
  H      3.784571   -1.829545   -3.130024
  H      4.304621   -0.477138   -2.135207
  H      3.823623   -0.201149   -3.820587

 Total Charge           Charge          ....    0
 Multiplicity           Mult            ....    1
 Number of Electrons    NEL             ....  154
 Basis Dimension        Dim             ....  339

ORBITAL ENERGIES
----------------

  NO   OCC          E(Eh)            E(eV)
   0   2.0000     -19.497155      -530.5446
   1   2.0000     -19.474595      -529.9307
   2   2.0000     -19.465463      -529.6822
   3   2.0000     -19.432045      -528.7728
   4   2.0000     -14.719429      -400.5360
   5   2.0000     -10.555859      -287.2395
   6   2.0000     -10.531364      -286.5730
   7   2.0000     -10.501777      -285.7679
   8   2.0000     -10.493622      -285.5460
   9   2.0000     -10.488914      -285.4179
  10   2.0000     -10.483943      -285.2826
  11   2.0000     -10.472300      -284.9658
  12   2.0000     -10.471042      -284.9315
  13   2.0000     -10.470469      -284.9159
  14   2.0000     -10.468222      -284.8548
  15   2.0000     -10.467018      -284.8220
  16   2.0000     -10.432987      -283.8960
  17   2.0000     -10.411251      -283.3045
  18   2.0000      -3.663996       -99.7024
  19   2.0000      -2.317197       -63.0541
  20   2.0000      -2.302990       -62.6675
  21   2.0000      -2.275174       -61.9106
  22   2.0000      -1.183485       -32.2043
  23   2.0000      -1.145793       -31.1786
  24   2.0000      -1.080646       -29.4059
  25   2.0000      -1.074808       -29.2470
  26   2.0000      -1.052588       -28.6424
  27   2.0000      -0.974563       -26.5192
  28   2.0000      -0.883956       -24.0537
  29   2.0000      -0.858903       -23.3719
  30   2.0000      -0.823607       -22.4115
  31   2.0000      -0.813699       -22.1419
  32   2.0000      -0.801014       -21.7967
  33   2.0000      -0.788545       -21.4574
  34   2.0000      -0.722622       -19.6635
  35   2.0000      -0.699344       -19.0301
  36   2.0000      -0.680770       -18.5247
  37   2.0000      -0.612404       -16.6644
  38   2.0000      -0.603530       -16.4229
  39   2.0000      -0.582532       -15.8515
  40   2.0000      -0.574934       -15.6447
  41   2.0000      -0.572957       -15.5910
  42   2.0000      -0.560755       -15.2589
  43   2.0000      -0.535297       -14.5662
  44   2.0000      -0.534611       -14.5475
  45   2.0000      -0.528909       -14.3924
  46   2.0000      -0.522847       -14.2274
  47   2.0000      -0.514302       -13.9949
  48   2.0000      -0.505960       -13.7679
  49   2.0000      -0.505163       -13.7462
  50   2.0000      -0.494367       -13.4524
  51   2.0000      -0.490606       -13.3501
  52   2.0000      -0.484253       -13.1772
  53   2.0000      -0.480128       -13.0649
  54   2.0000      -0.461124       -12.5478
  55   2.0000      -0.449685       -12.2366
  56   2.0000      -0.447078       -12.1656
  57   2.0000      -0.444958       -12.1079
  58   2.0000      -0.437872       -11.9151
  59   2.0000      -0.430338       -11.7101
  60   2.0000      -0.427006       -11.6194
  61   2.0000      -0.417111       -11.3502
  62   2.0000      -0.413906       -11.2630
  63   2.0000      -0.411333       -11.1929
  64   2.0000      -0.402281       -10.9466
  65   2.0000      -0.377938       -10.2842
  66   2.0000      -0.366786        -9.9808
  67   2.0000      -0.354394        -9.6436
  68   2.0000      -0.346222        -9.4212
  69   2.0000      -0.344861        -9.3842
  70   2.0000      -0.325328        -8.8526
  71   2.0000      -0.316410        -8.6100
  72   2.0000      -0.311368        -8.4727
  73   2.0000      -0.306056        -8.3282
  74   2.0000      -0.294249        -8.0069
  75   2.0000      -0.287359        -7.8194
  76   2.0000      -0.280718        -7.6387
  77   0.0000      -0.076181        -2.0730
  78   0.0000      -0.016934        -0.4608
  79   0.0000      -0.001844        -0.0502
  80   0.0000       0.058816         1.6005
  81   0.0000       0.065024         1.7694

MULLIKEN ATOMIC CHARGES
-----------------------
   0 Pd:    0.572159
   1 O :   -0.499542
   2 C :    0.609162
   3 O :   -0.475943
   4 C :   -0.756400
   5 H :    0.242783
   6 H :    0.253134
   7 H :    0.247469
   8 N :   -0.474487
   9 C :   -0.553644
  10 H :    0.312140
  11 H :    0.217872
  12 H :    0.263259
  13 C :   -0.557229
  14 H :    0.263896
  15 H :    0.233122
  16 H :    0.303026
  17 C :    0.048770
  18 C :   -0.239629
  19 C :   -0.208766
  20 C :   -0.213082
  21 C :   -0.217450
  22 C :   -0.269745
  23 H :    0.231111
  24 H :    0.230149
  25 H :    0.222197
  26 H :    0.236788
  27 H :    0.264763
  28 C :   -0.334818
  29 H :    0.250434
  30 H :    0.255727
  31 O :   -0.529102
  32 C :    0.563551
  33 O :   -0.463455
  34 C :   -0.740585
  35 H :    0.232594
  36 H :    0.240967
  37 H :    0.238805
Sum of atomic charges:   -0.0000000

LOEWDIN ATOMIC CHARGES
----------------------
   0 Pd:   -0.200810
   1 O :   -0.137257
   2 C :    0.159107
   3 O :   -0.233119
   4 C :   -0.380333
   5 H :    0.148057
   6 H :    0.160158
   7 H :    0.148026
   8 N :   -0.065543
   9 C :   -0.244187
  10 H :    0.168867
  11 H :    0.117074
  12 H :    0.147536
  13 C :   -0.234826
  14 H :    0.148536
  15 H :    0.123446
  16 H :    0.165659
  17 C :   -0.041146
  18 C :   -0.118985
  19 C :   -0.120715
  20 C :   -0.127548
  21 C :   -0.114143
  22 C :   -0.119848
  23 H :    0.142799
  24 H :    0.140142
  25 H :    0.142433
  26 H :    0.144082
  27 H :    0.173549
  28 C :   -0.107704
  29 H :    0.142981
  30 H :    0.145685
  31 O :   -0.180513
  32 C :    0.129203
  33 O :   -0.268652
  34 C :   -0.383916
  35 H :    0.145855
  36 H :    0.143168
  37 H :    0.142879

  Mayer bond orders larger than 0.100000
B(  0-Pd,  1-O ) :   0.6610 B(  0-Pd,  3-O ) :   0.2556 B(  0-Pd,  8-N ) :   0.4084
B(  0-Pd, 31-O ) :   0.6628 B(  1-O ,  2-C ) :   1.2917 B(  2-C ,  3-O ) :   1.7329
B(  2-C ,  4-C ) :   0.9408 B(  4-C ,  5-H ) :   0.9156 B(  4-C ,  6-H ) :   0.9077
B(  4-C ,  7-H ) :   0.9098 B(  8-N ,  9-C ) :   0.9189 B(  8-N , 13-C ) :   0.9224
B(  8-N , 28-C ) :   0.8769 B(  9-C , 10-H ) :   0.8637 B(  9-C , 11-H ) :   0.9033
B(  9-C , 12-H ) :   0.9073 B( 13-C , 14-H ) :   0.8982 B( 13-C , 15-H ) :   0.9000
B( 13-C , 16-H ) :   0.8870 B( 17-C , 18-C ) :   1.4055 B( 17-C , 22-C ) :   1.3437
B( 17-C , 28-C ) :   0.9421 B( 18-C , 19-C ) :   1.4280 B( 18-C , 25-H ) :   0.9169
B( 19-C , 20-C ) :   1.4297 B( 19-C , 26-H ) :   0.9107 B( 20-C , 21-C ) :   1.4124
B( 20-C , 23-H ) :   0.9158 B( 21-C , 22-C ) :   1.4349 B( 21-C , 24-H ) :   0.9156
B( 22-C , 27-H ) :   0.8994 B( 28-C , 29-H ) :   0.8969 B( 28-C , 30-H ) :   0.9145
B( 31-O , 32-C ) :   1.2696 B( 32-C , 33-O ) :   1.8678 B( 32-C , 34-C ) :   0.9234
B( 34-C , 35-H ) :   0.9169 B( 34-C , 36-H ) :   0.9129 B( 34-C , 37-H ) :   0.9196

Dispersion correction           -0.026131910
FINAL SINGLE POINT ENERGY      -988.509367740640
Dispersion correction            ... done

DIPOLE MOMENT
-------------
                                X             Y             Z
Electronic contribution:     20.20039      14.75749     -16.66455
Nuclear contribution   :    -21.95231     -15.54045      17.85307
                        -----------------------------------------
Total Dipole Moment    :     -1.75192      -0.78296       1.18852
                        -----------------------------------------
Magnitude (a.u.)       :      2.25717
Magnitude (Debye)      :      5.73728

Rotational constants in cm-1:     0.013966     0.008528     0.006785
Rotational constants in MHz :   418.684942   255.665550   203.412630

                             ****ORCA TERMINATED NORMALLY****
TOTAL RUN TIME: 0 days 0 hours 10 minutes 51 seconds 14 msec
