                         Program Version 5.0.3 -  RELEASE  -
|  1> ! EnGrad PBEh-3c
|  2> %output
|  3> xyzfile=True
|  4> end
|  5> %scf
|  6> maxiter 250
|  7> end
|  8> %output
|  9> Print[P_Hirshfeld] = 1
| 10> end
| 11> % maxcore
| 12> 4000
| 13> *xyz 0 1
| 14> Pd   0.47338308   0.32742520  -0.35081656
| 15> O    1.94753155   1.34002664   0.41706762
| 16> C    1.59700123   2.56499000   0.29793538
| 17> O    0.46632830   2.84453817  -0.10978961
| 18> C    2.62998632   3.60905747   0.59435212
| 19> H    2.19032453   4.50765443   1.03571120
| 20> H    3.11629987   3.91130306  -0.34480629
| 21> H    3.40607511   3.22899199   1.25667869
| 22> N   -1.30013683  -0.64040237  -1.07079763
| 23> C   -1.12995082  -1.75304868  -2.04228546
| 24> H   -0.61446364  -1.39365612  -2.93290739
| 25> H   -2.11724756  -2.12845467  -2.35540412
| 26> H   -0.55591119  -2.57515057  -1.59795048
| 27> C   -2.07046998   0.43056379  -1.72545818
| 28> H   -2.23708451   1.24115669  -1.01382447
| 29> H   -3.05597017   0.04871238  -2.01918328
| 30> H   -1.55386108   0.81257788  -2.60470753
| 31> C   -1.65447843  -0.76860673   1.46024658
| 32> C   -1.31544759  -1.89431055   2.21812897
| 33> C   -1.01224168  -1.85032563   3.56069665
| 34> C   -1.16288854  -0.62857975   4.18093644
| 35> C   -1.45577356   0.51001303   3.43145700
| 36> C   -1.68695135   0.50520650   2.05803918
| 37> H   -1.01033523  -0.59891221   5.24907270
| 38> H   -1.51260882   1.43478076   3.97864378
| 39> H   -1.26865492  -2.86933281   1.74995300
| 40> H   -0.67720072  -2.72943094   4.11181808
| 41> H   -1.85797183   1.37170366   1.58260941
| 42> C   -2.11398562  -1.13190930   0.06475909
| 43> H   -3.13860852  -0.78484567  -0.05455976
| 44> H   -2.17670230  -2.22201431  -0.01623718
| 45> O    1.94093847  -0.76561548  -1.22132777
| 46> C    2.16539056  -0.55372718  -2.47347431
| 47> O    1.32366189  -0.20142606  -3.28802266
| 48> C    3.59725855  -0.76006484  -2.91433039
| 49> H    3.79411096  -1.80913891  -3.14785465
| 50> H    4.30522324  -0.46092404  -2.14104137
| 51> H    3.81070495  -0.18807420  -3.81484849
| 52> *
| 53>
| 54>                          ****END OF INPUT****

CARTESIAN COORDINATES (ANGSTROEM)
---------------------------------
  Pd     0.473383    0.327425   -0.350817
  O      1.947532    1.340027    0.417068
  C      1.597001    2.564990    0.297935
  O      0.466328    2.844538   -0.109790
  C      2.629986    3.609057    0.594352
  H      2.190325    4.507654    1.035711
  H      3.116300    3.911303   -0.344806
  H      3.406075    3.228992    1.256679
  N     -1.300137   -0.640402   -1.070798
  C     -1.129951   -1.753049   -2.042285
  H     -0.614464   -1.393656   -2.932907
  H     -2.117248   -2.128455   -2.355404
  H     -0.555911   -2.575151   -1.597950
  C     -2.070470    0.430564   -1.725458
  H     -2.237085    1.241157   -1.013824
  H     -3.055970    0.048712   -2.019183
  H     -1.553861    0.812578   -2.604708
  C     -1.654478   -0.768607    1.460247
  C     -1.315448   -1.894311    2.218129
  C     -1.012242   -1.850326    3.560697
  C     -1.162889   -0.628580    4.180936
  C     -1.455774    0.510013    3.431457
  C     -1.686951    0.505207    2.058039
  H     -1.010335   -0.598912    5.249073
  H     -1.512609    1.434781    3.978644
  H     -1.268655   -2.869333    1.749953
  H     -0.677201   -2.729431    4.111818
  H     -1.857972    1.371704    1.582609
  C     -2.113986   -1.131909    0.064759
  H     -3.138609   -0.784846   -0.054560
  H     -2.176702   -2.222014   -0.016237
  O      1.940938   -0.765615   -1.221328
  C      2.165391   -0.553727   -2.473474
  O      1.323662   -0.201426   -3.288023
  C      3.597259   -0.760065   -2.914330
  H      3.794111   -1.809139   -3.147855
  H      4.305223   -0.460924   -2.141041
  H      3.810705   -0.188074   -3.814848

 Total Charge           Charge          ....    0
 Multiplicity           Mult            ....    1
 Number of Electrons    NEL             ....  154
 Basis Dimension        Dim             ....  339

ORBITAL ENERGIES
----------------

  NO   OCC          E(Eh)            E(eV)
   0   2.0000     -19.495069      -530.4878
   1   2.0000     -19.472482      -529.8732
   2   2.0000     -19.464096      -529.6450
   3   2.0000     -19.427482      -528.6487
   4   2.0000     -14.721865      -400.6023
   5   2.0000     -10.554091      -287.1914
   6   2.0000     -10.529153      -286.5128
   7   2.0000     -10.503053      -285.8026
   8   2.0000     -10.486575      -285.3542
   9   2.0000     -10.485962      -285.3375
  10   2.0000     -10.476619      -285.0833
  11   2.0000     -10.468687      -284.8675
  12   2.0000     -10.465985      -284.7939
  13   2.0000     -10.464830      -284.7625
  14   2.0000     -10.464042      -284.7410
  15   2.0000     -10.463080      -284.7149
  16   2.0000     -10.432096      -283.8718
  17   2.0000     -10.411200      -283.3032
  18   2.0000      -3.664609       -99.7191
  19   2.0000      -2.318003       -63.0761
  20   2.0000      -2.303221       -62.6738
  21   2.0000      -2.275827       -61.9284
  22   2.0000      -1.184702       -32.2374
  23   2.0000      -1.145433       -31.1688
  24   2.0000      -1.079585       -29.3770
  25   2.0000      -1.072614       -29.1873
  26   2.0000      -1.048142       -28.5214
  27   2.0000      -0.980674       -26.6855
  28   2.0000      -0.886712       -24.1287
  29   2.0000      -0.863229       -23.4897
  30   2.0000      -0.820503       -22.3270
  31   2.0000      -0.818867       -22.2825
  32   2.0000      -0.802654       -21.8413
  33   2.0000      -0.792546       -21.5663
  34   2.0000      -0.724387       -19.7116
  35   2.0000      -0.704677       -19.1752
  36   2.0000      -0.683602       -18.6017
  37   2.0000      -0.616781       -16.7835
  38   2.0000      -0.607097       -16.5200
  39   2.0000      -0.583993       -15.8913
  40   2.0000      -0.575016       -15.6470
  41   2.0000      -0.571475       -15.5506
  42   2.0000      -0.564240       -15.3537
  43   2.0000      -0.539878       -14.6908
  44   2.0000      -0.535803       -14.5799
  45   2.0000      -0.530340       -14.4313
  46   2.0000      -0.523145       -14.2355
  47   2.0000      -0.515769       -14.0348
  48   2.0000      -0.508794       -13.8450
  49   2.0000      -0.505661       -13.7597
  50   2.0000      -0.494601       -13.4588
  51   2.0000      -0.490564       -13.3489
  52   2.0000      -0.485096       -13.2001
  53   2.0000      -0.480825       -13.0839
  54   2.0000      -0.461187       -12.5495
  55   2.0000      -0.449364       -12.2278
  56   2.0000      -0.447399       -12.1743
  57   2.0000      -0.444623       -12.0988
  58   2.0000      -0.437882       -11.9154
  59   2.0000      -0.430837       -11.7237
  60   2.0000      -0.426263       -11.5992
  61   2.0000      -0.418099       -11.3770
  62   2.0000      -0.415533       -11.3072
  63   2.0000      -0.412482       -11.2242
  64   2.0000      -0.404065       -10.9952
  65   2.0000      -0.378520       -10.3000
  66   2.0000      -0.365018        -9.9326
  67   2.0000      -0.355738        -9.6801
  68   2.0000      -0.346056        -9.4167
  69   2.0000      -0.344272        -9.3681
  70   2.0000      -0.325717        -8.8632
  71   2.0000      -0.316090        -8.6012
  72   2.0000      -0.311521        -8.4769
  73   2.0000      -0.304815        -8.2944
  74   2.0000      -0.295404        -8.0384
  75   2.0000      -0.286714        -7.8019
  76   2.0000      -0.278005        -7.5649
  77   0.0000      -0.077023        -2.0959
  78   0.0000      -0.012014        -0.3269
  79   0.0000       0.001355         0.0369
  80   0.0000       0.058421         1.5897
  81   0.0000       0.066061         1.7976

MULLIKEN ATOMIC CHARGES
-----------------------
   0 Pd:    0.580332
   1 O :   -0.499943
   2 C :    0.612221
   3 O :   -0.478962
   4 C :   -0.761808
   5 H :    0.244860
   6 H :    0.255135
   7 H :    0.249849
   8 N :   -0.478972
   9 C :   -0.547906
  10 H :    0.312648
  11 H :    0.215016
  12 H :    0.262023
  13 C :   -0.552005
  14 H :    0.265023
  15 H :    0.231804
  16 H :    0.303611
  17 C :    0.067308
  18 C :   -0.258413
  19 C :   -0.202240
  20 C :   -0.218817
  21 C :   -0.225537
  22 C :   -0.247705
  23 H :    0.229904
  24 H :    0.228545
  25 H :    0.219118
  26 H :    0.234063
  27 H :    0.258090
  28 C :   -0.341642
  29 H :    0.250742
  30 H :    0.257946
  31 O :   -0.525183
  32 C :    0.564325
  33 O :   -0.478081
  34 C :   -0.743626
  35 H :    0.233699
  36 H :    0.242785
  37 H :    0.241794
Sum of atomic charges:    0.0000000

LOEWDIN ATOMIC CHARGES
----------------------
   0 Pd:   -0.193520
   1 O :   -0.137018
   2 C :    0.154442
   3 O :   -0.233964
   4 C :   -0.379186
   5 H :    0.148909
   6 H :    0.161498
   7 H :    0.149768
   8 N :   -0.063306
   9 C :   -0.241245
  10 H :    0.170386
  11 H :    0.117101
  12 H :    0.148309
  13 C :   -0.231991
  14 H :    0.149496
  15 H :    0.124338
  16 H :    0.166962
  17 C :   -0.044369
  18 C :   -0.117881
  19 C :   -0.120664
  20 C :   -0.124758
  21 C :   -0.111986
  22 C :   -0.115785
  23 H :    0.140576
  24 H :    0.141436
  25 H :    0.139267
  26 H :    0.143678
  27 H :    0.156679
  28 C :   -0.107265
  29 H :    0.143315
  30 H :    0.146802
  31 O :   -0.174521
  32 C :    0.124917
  33 O :   -0.283519
  34 C :   -0.382180
  35 H :    0.146643
  36 H :    0.144556
  37 H :    0.144081

  Mayer bond orders larger than 0.100000
B(  0-Pd,  1-O ) :   0.6578 B(  0-Pd,  3-O ) :   0.2621 B(  0-Pd,  8-N ) :   0.4136
B(  0-Pd, 31-O ) :   0.6511 B(  1-O ,  2-C ) :   1.2976 B(  2-C ,  3-O ) :   1.7282
B(  2-C ,  4-C ) :   0.9449 B(  4-C ,  5-H ) :   0.9144 B(  4-C ,  6-H ) :   0.9064
B(  4-C ,  7-H ) :   0.9093 B(  8-N ,  9-C ) :   0.9117 B(  8-N , 13-C ) :   0.9172
B(  8-N , 28-C ) :   0.8798 B(  9-C , 10-H ) :   0.8609 B(  9-C , 11-H ) :   0.9037
B(  9-C , 12-H ) :   0.9071 B( 13-C , 14-H ) :   0.8976 B( 13-C , 15-H ) :   0.9007
B( 13-C , 16-H ) :   0.8863 B( 17-C , 18-C ) :   1.4007 B( 17-C , 22-C ) :   1.3772
B( 17-C , 28-C ) :   0.9320 B( 18-C , 19-C ) :   1.4370 B( 18-C , 25-H ) :   0.9182
B( 19-C , 20-C ) :   1.4248 B( 19-C , 26-H ) :   0.9126 B( 20-C , 21-C ) :   1.4225
B( 20-C , 23-H ) :   0.9156 B( 21-C , 22-C ) :   1.4434 B( 21-C , 24-H ) :   0.9174
B( 22-C , 27-H ) :   0.9023 B( 28-C , 29-H ) :   0.8975 B( 28-C , 30-H ) :   0.9147
B( 31-O , 32-C ) :   1.2880 B( 32-C , 33-O ) :   1.8494 B( 32-C , 34-C ) :   0.9272
B( 34-C , 35-H ) :   0.9160 B( 34-C , 36-H ) :   0.9125 B( 34-C , 37-H ) :   0.9184

Dispersion correction           -0.026238332
FINAL SINGLE POINT ENERGY      -988.513995549036
Dispersion correction            ... done

DIPOLE MOMENT
-------------
                                X             Y             Z
Electronic contribution:     20.16139      14.57141     -16.73368
Nuclear contribution   :    -21.86463     -15.35008      17.91399
                        -----------------------------------------
Total Dipole Moment    :     -1.70324      -0.77867       1.18031
                        -----------------------------------------
Magnitude (a.u.)       :      2.21371
Magnitude (Debye)      :      5.62680

Rotational constants in cm-1:     0.014043     0.008570     0.006803
Rotational constants in MHz :   420.996196   256.935243   203.955124

                             ****ORCA TERMINATED NORMALLY****
TOTAL RUN TIME: 0 days 0 hours 11 minutes 9 seconds 947 msec
