                         Program Version 5.0.3 -  RELEASE  -
|  1> ! EnGrad PBEh-3c
|  2> %output
|  3> xyzfile=True
|  4> end
|  5> %scf
|  6> maxiter 250
|  7> end
|  8> %output
|  9> Print[P_Hirshfeld] = 1
| 10> end
| 11> % maxcore
| 12> 4000
| 13> *xyz 0 1
| 14> Pd   0.47684445   0.32319053  -0.35728285
| 15> O    1.95510745   1.35100949   0.42311826
| 16> C    1.60235568   2.57233440   0.29690720
| 17> O    0.45379443   2.83257461  -0.10025209
| 18> C    2.63101185   3.60727602   0.59276663
| 19> H    2.18846119   4.49394285   1.02684395
| 20> H    3.11011501   3.91585223  -0.33629191
| 21> H    3.40697337   3.23711385   1.25596875
| 22> N   -1.28863795  -0.62602111  -1.07256340
| 23> C   -1.13081452  -1.74540062  -2.05170572
| 24> H   -0.60929658  -1.37568246  -2.94264432
| 25> H   -2.13542042  -2.11870061  -2.35587445
| 26> H   -0.54891479  -2.56655315  -1.59778905
| 27> C   -2.07548448   0.44559035  -1.72705633
| 28> H   -2.23143152   1.25615511  -1.00780431
| 29> H   -3.06206773   0.04512588  -2.02454910
| 30> H   -1.54392761   0.81844697  -2.60536154
| 31> C   -1.64857150  -0.78742442   1.44014512
| 32> C   -1.30925180  -1.87785385   2.20984231
| 33> C   -0.98686877  -1.82782993   3.54116992
| 34> C   -1.15663854  -0.61525490   4.16673658
| 35> C   -1.46966054   0.50682439   3.44196190
| 36> C   -1.64585825   0.35442126   2.11999426
| 37> H   -1.01074127  -0.56530669   5.22337850
| 38> H   -1.53602654   1.42923218   3.98931180
| 39> H   -1.24635131  -2.83393359   1.74980165
| 40> H   -0.69982037  -2.71398388   4.10387655
| 41> H   -1.88471463   1.37329443   1.58373306
| 42> C   -2.11457773  -1.13005574   0.05683994
| 43> H   -3.15010187  -0.79447483  -0.05207438
| 44> H   -2.17275628  -2.22500936   0.00386666
| 45> O    1.93058307  -0.76980763  -1.23488337
| 46> C    2.17359108  -0.56421766  -2.47515807
| 47> O    1.31147953  -0.18034068  -3.28687938
| 48> C    3.59952358  -0.77187781  -2.90223774
| 49> H    3.78747350  -1.81451962  -3.14307579
| 50> H    4.31517855  -0.47002504  -2.13876360
| 51> H    3.80556798  -0.21041756  -3.80532826
| 52> *
| 53>
| 54>                          ****END OF INPUT****

CARTESIAN COORDINATES (ANGSTROEM)
---------------------------------
  Pd     0.476844    0.323191   -0.357283
  O      1.955107    1.351009    0.423118
  C      1.602356    2.572334    0.296907
  O      0.453794    2.832575   -0.100252
  C      2.631012    3.607276    0.592767
  H      2.188461    4.493943    1.026844
  H      3.110115    3.915852   -0.336292
  H      3.406973    3.237114    1.255969
  N     -1.288638   -0.626021   -1.072563
  C     -1.130815   -1.745401   -2.051706
  H     -0.609297   -1.375682   -2.942644
  H     -2.135420   -2.118701   -2.355874
  H     -0.548915   -2.566553   -1.597789
  C     -2.075484    0.445590   -1.727056
  H     -2.231432    1.256155   -1.007804
  H     -3.062068    0.045126   -2.024549
  H     -1.543928    0.818447   -2.605362
  C     -1.648572   -0.787424    1.440145
  C     -1.309252   -1.877854    2.209842
  C     -0.986869   -1.827830    3.541170
  C     -1.156639   -0.615255    4.166737
  C     -1.469661    0.506824    3.441962
  C     -1.645858    0.354421    2.119994
  H     -1.010741   -0.565307    5.223378
  H     -1.536027    1.429232    3.989312
  H     -1.246351   -2.833934    1.749802
  H     -0.699820   -2.713984    4.103877
  H     -1.884715    1.373294    1.583733
  C     -2.114578   -1.130056    0.056840
  H     -3.150102   -0.794475   -0.052074
  H     -2.172756   -2.225009    0.003867
  O      1.930583   -0.769808   -1.234883
  C      2.173591   -0.564218   -2.475158
  O      1.311480   -0.180341   -3.286879
  C      3.599524   -0.771878   -2.902238
  H      3.787473   -1.814520   -3.143076
  H      4.315179   -0.470025   -2.138764
  H      3.805568   -0.210418   -3.805328

 Total Charge           Charge          ....    0
 Multiplicity           Mult            ....    1
 Number of Electrons    NEL             ....  154
 Basis Dimension        Dim             ....  339

ORBITAL ENERGIES
----------------

  NO   OCC          E(Eh)            E(eV)
   0   2.0000     -19.493631      -530.4487
   1   2.0000     -19.473968      -529.9136
   2   2.0000     -19.462888      -529.6121
   3   2.0000     -19.424565      -528.5693
   4   2.0000     -14.724722      -400.6800
   5   2.0000     -10.553586      -287.1777
   6   2.0000     -10.530430      -286.5476
   7   2.0000     -10.507182      -285.9150
   8   2.0000     -10.488349      -285.4025
   9   2.0000     -10.480176      -285.1801
  10   2.0000     -10.473602      -285.0012
  11   2.0000     -10.467511      -284.8355
  12   2.0000     -10.458978      -284.6032
  13   2.0000     -10.458069      -284.5785
  14   2.0000     -10.457257      -284.5564
  15   2.0000     -10.456384      -284.5327
  16   2.0000     -10.429870      -283.8112
  17   2.0000     -10.412417      -283.3363
  18   2.0000      -3.665529       -99.7441
  19   2.0000      -2.318634       -63.0932
  20   2.0000      -2.304390       -62.7056
  21   2.0000      -2.276503       -61.9468
  22   2.0000      -1.182141       -32.1677
  23   2.0000      -1.144170       -31.1345
  24   2.0000      -1.077674       -29.3250
  25   2.0000      -1.068136       -29.0655
  26   2.0000      -1.040825       -28.3223
  27   2.0000      -0.996565       -27.1179
  28   2.0000      -0.894838       -24.3498
  29   2.0000      -0.861818       -23.4513
  30   2.0000      -0.823092       -22.3975
  31   2.0000      -0.818095       -22.2615
  32   2.0000      -0.807201       -21.9651
  33   2.0000      -0.797811       -21.7096
  34   2.0000      -0.723095       -19.6764
  35   2.0000      -0.706962       -19.2374
  36   2.0000      -0.683472       -18.5982
  37   2.0000      -0.616682       -16.7808
  38   2.0000      -0.606778       -16.5113
  39   2.0000      -0.587620       -15.9899
  40   2.0000      -0.574794       -15.6409
  41   2.0000      -0.571956       -15.5637
  42   2.0000      -0.563399       -15.3309
  43   2.0000      -0.537362       -14.6224
  44   2.0000      -0.533421       -14.5151
  45   2.0000      -0.525664       -14.3041
  46   2.0000      -0.522323       -14.2131
  47   2.0000      -0.515577       -14.0296
  48   2.0000      -0.506303       -13.7772
  49   2.0000      -0.499060       -13.5801
  50   2.0000      -0.495944       -13.4953
  51   2.0000      -0.492011       -13.3883
  52   2.0000      -0.488527       -13.2935
  53   2.0000      -0.482848       -13.1390
  54   2.0000      -0.459707       -12.5093
  55   2.0000      -0.453039       -12.3278
  56   2.0000      -0.448227       -12.1969
  57   2.0000      -0.444366       -12.0918
  58   2.0000      -0.438207       -11.9242
  59   2.0000      -0.433262       -11.7897
  60   2.0000      -0.426944       -11.6177
  61   2.0000      -0.419448       -11.4138
  62   2.0000      -0.416440       -11.3319
  63   2.0000      -0.410156       -11.1609
  64   2.0000      -0.394240       -10.7278
  65   2.0000      -0.379339       -10.3223
  66   2.0000      -0.363870        -9.9014
  67   2.0000      -0.355877        -9.6839
  68   2.0000      -0.345824        -9.4103
  69   2.0000      -0.343746        -9.3538
  70   2.0000      -0.326575        -8.8866
  71   2.0000      -0.315936        -8.5970
  72   2.0000      -0.314152        -8.5485
  73   2.0000      -0.304938        -8.2978
  74   2.0000      -0.297715        -8.1012
  75   2.0000      -0.285961        -7.7814
  76   2.0000      -0.275494        -7.4966
  77   0.0000      -0.077525        -2.1096
  78   0.0000      -0.002570        -0.0699
  79   0.0000       0.006852         0.1865
  80   0.0000       0.057057         1.5526
  81   0.0000       0.065742         1.7889

MULLIKEN ATOMIC CHARGES
-----------------------
   0 Pd:    0.586726
   1 O :   -0.498648
   2 C :    0.613977
   3 O :   -0.485968
   4 C :   -0.764676
   5 H :    0.247726
   6 H :    0.257705
   7 H :    0.252106
   8 N :   -0.484205
   9 C :   -0.541578
  10 H :    0.312993
  11 H :    0.212864
  12 H :    0.260445
  13 C :   -0.544607
  14 H :    0.268091
  15 H :    0.229344
  16 H :    0.302957
  17 C :    0.229415
  18 C :   -0.317306
  19 C :   -0.172184
  20 C :   -0.269065
  21 C :   -0.154809
  22 C :   -0.365385
  23 H :    0.229151
  24 H :    0.237601
  25 H :    0.217065
  26 H :    0.227518
  27 H :    0.223045
  28 C :   -0.354344
  29 H :    0.253373
  30 H :    0.260565
  31 O :   -0.520312
  32 C :    0.566545
  33 O :   -0.499175
  34 C :   -0.744781
  35 H :    0.236430
  36 H :    0.245641
  37 H :    0.245758
Sum of atomic charges:    0.0000000

LOEWDIN ATOMIC CHARGES
----------------------
   0 Pd:   -0.192564
   1 O :   -0.139807
   2 C :    0.157801
   3 O :   -0.240715
   4 C :   -0.379153
   5 H :    0.149537
   6 H :    0.162117
   7 H :    0.151349
   8 N :   -0.061304
   9 C :   -0.239200
  10 H :    0.171856
  11 H :    0.117426
  12 H :    0.148584
  13 C :   -0.229757
  14 H :    0.152156
  15 H :    0.124958
  16 H :    0.167672
  17 C :   -0.068507
  18 C :   -0.106193
  19 C :   -0.128786
  20 C :   -0.113486
  21 C :   -0.129467
  22 C :   -0.098662
  23 H :    0.136305
  24 H :    0.147619
  25 H :    0.134858
  26 H :    0.143373
  27 H :    0.150142
  28 C :   -0.100451
  29 H :    0.145765
  30 H :    0.148947
  31 O :   -0.166385
  32 C :    0.131788
  33 O :   -0.307846
  34 C :   -0.380626
  35 H :    0.147994
  36 H :    0.146637
  37 H :    0.146025

  Mayer bond orders larger than 0.100000
B(  0-Pd,  1-O ) :   0.6529 B(  0-Pd,  3-O ) :   0.2699 B(  0-Pd,  8-N ) :   0.4187
B(  0-Pd, 31-O ) :   0.6429 B(  1-O ,  2-C ) :   1.3056 B(  2-C ,  3-O ) :   1.7158
B(  2-C ,  4-C ) :   0.9493 B(  4-C ,  5-H ) :   0.9127 B(  4-C ,  6-H ) :   0.9050
B(  4-C ,  7-H ) :   0.9093 B(  8-N ,  9-C ) :   0.9058 B(  8-N , 13-C ) :   0.9110
B(  8-N , 28-C ) :   0.8846 B(  9-C , 10-H ) :   0.8583 B(  9-C , 11-H ) :   0.9039
B(  9-C , 12-H ) :   0.9071 B( 13-C , 14-H ) :   0.8959 B( 13-C , 15-H ) :   0.9018
B( 13-C , 16-H ) :   0.8858 B( 17-C , 18-C ) :   1.3650 B( 17-C , 22-C ) :   1.3404
B( 17-C , 28-C ) :   0.9097 B( 18-C , 19-C ) :   1.4504 B( 18-C , 25-H ) :   0.9154
B( 19-C , 20-C ) :   1.4180 B( 19-C , 26-H ) :   0.9177 B( 20-C , 21-C ) :   1.4275
B( 20-C , 23-H ) :   0.9127 B( 21-C , 22-C ) :   1.4235 B( 21-C , 24-H ) :   0.9130
B( 22-C , 27-H ) :   0.9146 B( 28-C , 29-H ) :   0.8986 B( 28-C , 30-H ) :   0.9145
B( 31-O , 32-C ) :   1.3034 B( 32-C , 33-O ) :   1.8208 B( 32-C , 34-C ) :   0.9321
B( 34-C , 35-H ) :   0.9142 B( 34-C , 36-H ) :   0.9117 B( 34-C , 37-H ) :   0.9167

Dispersion correction           -0.026217339
FINAL SINGLE POINT ENERGY      -988.502319893327
Dispersion correction            ... done

DIPOLE MOMENT
-------------
                                X             Y             Z
Electronic contribution:     20.37750      14.35499     -17.08580
Nuclear contribution   :    -22.01972     -15.16062      18.25946
                        -----------------------------------------
Total Dipole Moment    :     -1.64222      -0.80563       1.17367
                        -----------------------------------------
Magnitude (a.u.)       :      2.17334
Magnitude (Debye)      :      5.52419

Rotational constants in cm-1:     0.014081     0.008590     0.006816
Rotational constants in MHz :   422.152677   257.533370   204.325534

                             ****ORCA TERMINATED NORMALLY****
TOTAL RUN TIME: 0 days 0 hours 8 minutes 49 seconds 638 msec
