                         Program Version 5.0.3 -  RELEASE  -
|  1> ! EnGrad PBEh-3c
|  2> %output
|  3> xyzfile=True
|  4> end
|  5> %scf
|  6> maxiter 250
|  7> end
|  8> %output
|  9> Print[P_Hirshfeld] = 1
| 10> end
| 11> % maxcore
| 12> 4000
| 13> *xyz 0 1
| 14> Pd   0.47759704   0.32193885  -0.36695293
| 15> O    1.96512852   1.34883822   0.41860441
| 16> C    1.59049430   2.56926970   0.28982268
| 17> O    0.44850067   2.82535082  -0.08714786
| 18> C    2.63262023   3.60739792   0.59212637
| 19> H    2.18508503   4.48847977   1.02480702
| 20> H    3.10800809   3.91324612  -0.33401173
| 21> H    3.40364706   3.23301850   1.25610815
| 22> N   -1.28394809  -0.62161775  -1.07817535
| 23> C   -1.12675172  -1.74309676  -2.05006327
| 24> H   -0.60422244  -1.37867026  -2.93863092
| 25> H   -2.12948522  -2.11498231  -2.34984496
| 26> H   -0.54629679  -2.55848625  -1.59174996
| 27> C   -2.07121947   0.45047994  -1.73199473
| 28> H   -2.22741973   1.26217662  -1.01468857
| 29> H   -3.05546380   0.04673682  -2.02997983
| 30> H   -1.53782251   0.82148014  -2.60707747
| 31> C   -1.64657241  -0.83059333   1.42540499
| 32> C   -1.30608718  -1.88090028   2.20823062
| 33> C   -0.99258672  -1.81718881   3.53722480
| 34> C   -1.14749432  -0.60593426   4.17485758
| 35> C   -1.45584873   0.50385033   3.47481894
| 36> C   -1.64871732   0.39796451   2.10663892
| 37> H   -1.01069121  -0.54720152   5.22127428
| 38> H   -1.52547041   1.44205348   3.99139334
| 39> H   -1.25401610  -2.82228658   1.74451774
| 40> H   -0.71890192  -2.70324186   4.09480967
| 41> H   -1.87630205   1.27069045   1.59280541
| 42> C   -2.11785964  -1.12093930   0.05765397
| 43> H   -3.15561299  -0.79122299  -0.05683995
| 44> H   -2.17091582  -2.21550627   0.01752356
| 45> O    1.92190498  -0.77804529  -1.22974080
| 46> C    2.15689697  -0.55882894  -2.48201631
| 47> O    1.31164275  -0.17877529  -3.28213153
| 48> C    3.60196599  -0.77225898  -2.90199925
| 49> H    3.78911623  -1.81394184  -3.14500255
| 50> H    4.31268407  -0.46661686  -2.13794836
| 51> H    3.80191437  -0.20789375  -3.80452315
| 52> *
| 53>
| 54>                          ****END OF INPUT****

CARTESIAN COORDINATES (ANGSTROEM)
---------------------------------
  Pd     0.477597    0.321939   -0.366953
  O      1.965129    1.348838    0.418604
  C      1.590494    2.569270    0.289823
  O      0.448501    2.825351   -0.087148
  C      2.632620    3.607398    0.592126
  H      2.185085    4.488480    1.024807
  H      3.108008    3.913246   -0.334012
  H      3.403647    3.233019    1.256108
  N     -1.283948   -0.621618   -1.078175
  C     -1.126752   -1.743097   -2.050063
  H     -0.604222   -1.378670   -2.938631
  H     -2.129485   -2.114982   -2.349845
  H     -0.546297   -2.558486   -1.591750
  C     -2.071219    0.450480   -1.731995
  H     -2.227420    1.262177   -1.014689
  H     -3.055464    0.046737   -2.029980
  H     -1.537823    0.821480   -2.607077
  C     -1.646572   -0.830593    1.425405
  C     -1.306087   -1.880900    2.208231
  C     -0.992587   -1.817189    3.537225
  C     -1.147494   -0.605934    4.174858
  C     -1.455849    0.503850    3.474819
  C     -1.648717    0.397965    2.106639
  H     -1.010691   -0.547202    5.221274
  H     -1.525470    1.442053    3.991393
  H     -1.254016   -2.822287    1.744518
  H     -0.718902   -2.703242    4.094810
  H     -1.876302    1.270690    1.592805
  C     -2.117860   -1.120939    0.057654
  H     -3.155613   -0.791223   -0.056840
  H     -2.170916   -2.215506    0.017524
  O      1.921905   -0.778045   -1.229741
  C      2.156897   -0.558829   -2.482016
  O      1.311643   -0.178775   -3.282132
  C      3.601966   -0.772259   -2.901999
  H      3.789116   -1.813942   -3.145003
  H      4.312684   -0.466617   -2.137948
  H      3.801914   -0.207894   -3.804523

 Total Charge           Charge          ....    0
 Multiplicity           Mult            ....    1
 Number of Electrons    NEL             ....  154
 Basis Dimension        Dim             ....  339

ORBITAL ENERGIES
----------------

  NO   OCC          E(Eh)            E(eV)
   0   2.0000     -19.490393      -530.3605
   1   2.0000     -19.473903      -529.9119
   2   2.0000     -19.464886      -529.6665
   3   2.0000     -19.430709      -528.7365
   4   2.0000     -14.725305      -400.6959
   5   2.0000     -10.552485      -287.1477
   6   2.0000     -10.532394      -286.6010
   7   2.0000     -10.505486      -285.8688
   8   2.0000     -10.489247      -285.4269
   9   2.0000     -10.479706      -285.1673
  10   2.0000     -10.475058      -285.0408
  11   2.0000     -10.463619      -284.7295
  12   2.0000     -10.458500      -284.5902
  13   2.0000     -10.457769      -284.5704
  14   2.0000     -10.454233      -284.4741
  15   2.0000     -10.454044      -284.4690
  16   2.0000     -10.427480      -283.7462
  17   2.0000     -10.412865      -283.3485
  18   2.0000      -3.663989       -99.7022
  19   2.0000      -2.316627       -63.0386
  20   2.0000      -2.303447       -62.6800
  21   2.0000      -2.274910       -61.9034
  22   2.0000      -1.182321       -32.1726
  23   2.0000      -1.147244       -31.2181
  24   2.0000      -1.077621       -29.3236
  25   2.0000      -1.070988       -29.1431
  26   2.0000      -1.048795       -28.5392
  27   2.0000      -0.989479       -26.9251
  28   2.0000      -0.898254       -24.4427
  29   2.0000      -0.858419       -23.3588
  30   2.0000      -0.819659       -22.3041
  31   2.0000      -0.819175       -22.2909
  32   2.0000      -0.807209       -21.9653
  33   2.0000      -0.795202       -21.6386
  34   2.0000      -0.726662       -19.7735
  35   2.0000      -0.706000       -19.2112
  36   2.0000      -0.684230       -18.6188
  37   2.0000      -0.618674       -16.8350
  38   2.0000      -0.604947       -16.4614
  39   2.0000      -0.586525       -15.9601
  40   2.0000      -0.574616       -15.6361
  41   2.0000      -0.572046       -15.5662
  42   2.0000      -0.567588       -15.4448
  43   2.0000      -0.535799       -14.5798
  44   2.0000      -0.533246       -14.5104
  45   2.0000      -0.530030       -14.4228
  46   2.0000      -0.522404       -14.2153
  47   2.0000      -0.514661       -14.0046
  48   2.0000      -0.507410       -13.8073
  49   2.0000      -0.502536       -13.6747
  50   2.0000      -0.497461       -13.5366
  51   2.0000      -0.492810       -13.4101
  52   2.0000      -0.490113       -13.3367
  53   2.0000      -0.483251       -13.1499
  54   2.0000      -0.460755       -12.5378
  55   2.0000      -0.450773       -12.2662
  56   2.0000      -0.448083       -12.1930
  57   2.0000      -0.444719       -12.1014
  58   2.0000      -0.437360       -11.9012
  59   2.0000      -0.434250       -11.8165
  60   2.0000      -0.428734       -11.6664
  61   2.0000      -0.418566       -11.3898
  62   2.0000      -0.416955       -11.3459
  63   2.0000      -0.409836       -11.1522
  64   2.0000      -0.408634       -11.1195
  65   2.0000      -0.379719       -10.3327
  66   2.0000      -0.365889        -9.9564
  67   2.0000      -0.355043        -9.6612
  68   2.0000      -0.346287        -9.4230
  69   2.0000      -0.344081        -9.3629
  70   2.0000      -0.325285        -8.8515
  71   2.0000      -0.316255        -8.6057
  72   2.0000      -0.314005        -8.5445
  73   2.0000      -0.303815        -8.2672
  74   2.0000      -0.296155        -8.0588
  75   2.0000      -0.288219        -7.8428
  76   2.0000      -0.279110        -7.5950
  77   0.0000      -0.075417        -2.0522
  78   0.0000      -0.009693        -0.2638
  79   0.0000       0.009231         0.2512
  80   0.0000       0.059754         1.6260
  81   0.0000       0.067164         1.8276

MULLIKEN ATOMIC CHARGES
-----------------------
   0 Pd:    0.578060
   1 O :   -0.501602
   2 C :    0.608601
   3 O :   -0.475823
   4 C :   -0.762820
   5 H :    0.245031
   6 H :    0.255744
   7 H :    0.252535
   8 N :   -0.487245
   9 C :   -0.539863
  10 H :    0.310723
  11 H :    0.213996
  12 H :    0.262164
  13 C :   -0.544333
  14 H :    0.267723
  15 H :    0.229590
  16 H :    0.302779
  17 C :    0.163388
  18 C :   -0.295838
  19 C :   -0.181539
  20 C :   -0.246192
  21 C :   -0.172144
  22 C :   -0.323294
  23 H :    0.229539
  24 H :    0.232161
  25 H :    0.213776
  26 H :    0.226245
  27 H :    0.241746
  28 C :   -0.354844
  29 H :    0.254695
  30 H :    0.256549
  31 O :   -0.526981
  32 C :    0.562816
  33 O :   -0.476939
  34 C :   -0.744532
  35 H :    0.235933
  36 H :    0.247338
  37 H :    0.242856
Sum of atomic charges:    0.0000000

LOEWDIN ATOMIC CHARGES
----------------------
   0 Pd:   -0.199963
   1 O :   -0.147641
   2 C :    0.154671
   3 O :   -0.228054
   4 C :   -0.380952
   5 H :    0.147515
   6 H :    0.160043
   7 H :    0.151233
   8 N :   -0.060627
   9 C :   -0.238501
  10 H :    0.170321
  11 H :    0.117742
  12 H :    0.149255
  13 C :   -0.229319
  14 H :    0.151826
  15 H :    0.125134
  16 H :    0.167271
  17 C :   -0.063293
  18 C :   -0.112483
  19 C :   -0.122646
  20 C :   -0.118049
  21 C :   -0.123317
  22 C :   -0.102304
  23 H :    0.137643
  24 H :    0.145056
  25 H :    0.134616
  26 H :    0.143028
  27 H :    0.149648
  28 C :   -0.104222
  29 H :    0.146721
  30 H :    0.148906
  31 O :   -0.173785
  32 C :    0.130992
  33 O :   -0.282020
  34 C :   -0.382899
  35 H :    0.147072
  36 H :    0.146976
  37 H :    0.144407

  Mayer bond orders larger than 0.100000
B(  0-Pd,  1-O ) :   0.6549 B(  0-Pd,  3-O ) :   0.2637 B(  0-Pd,  8-N ) :   0.4176
B(  0-Pd, 31-O ) :   0.6582 B(  1-O ,  2-C ) :   1.2970 B(  2-C ,  3-O ) :   1.7326
B(  2-C ,  4-C ) :   0.9464 B(  4-C ,  5-H ) :   0.9136 B(  4-C ,  6-H ) :   0.9064
B(  4-C ,  7-H ) :   0.9102 B(  8-N ,  9-C ) :   0.9066 B(  8-N , 13-C ) :   0.9108
B(  8-N , 28-C ) :   0.8827 B(  9-C , 10-H ) :   0.8606 B(  9-C , 11-H ) :   0.9043
B(  9-C , 12-H ) :   0.9065 B( 13-C , 14-H ) :   0.8963 B( 13-C , 15-H ) :   0.9017
B( 13-C , 16-H ) :   0.8860 B( 17-C , 18-C ) :   1.4061 B( 17-C , 22-C ) :   1.3635
B( 17-C , 28-C ) :   0.9185 B( 18-C , 19-C ) :   1.4378 B( 18-C , 25-H ) :   0.9159
B( 19-C , 20-C ) :   1.4220 B( 19-C , 26-H ) :   0.9181 B( 20-C , 21-C ) :   1.4285
B( 20-C , 23-H ) :   0.9133 B( 21-C , 22-C ) :   1.4406 B( 21-C , 24-H ) :   0.9160
B( 22-C , 27-H ) :   0.9086 B( 28-C , 29-H ) :   0.8972 B( 28-C , 30-H ) :   0.9159
B( 31-O , 32-C ) :   1.2779 B( 32-C , 33-O ) :   1.8503 B( 32-C , 34-C ) :   0.9276
B( 34-C , 35-H ) :   0.9151 B( 34-C , 36-H ) :   0.9118 B( 34-C , 37-H ) :   0.9173

Dispersion correction           -0.026284352
FINAL SINGLE POINT ENERGY      -988.514350818258
Dispersion correction            ... done

DIPOLE MOMENT
-------------
                                X             Y             Z
Electronic contribution:     20.33616      14.30936     -17.72520
Nuclear contribution   :    -22.05206     -15.09346      18.78325
                        -----------------------------------------
Total Dipole Moment    :     -1.71590      -0.78409       1.05805
                        -----------------------------------------
Magnitude (a.u.)       :      2.16301
Magnitude (Debye)      :      5.49792

Rotational constants in cm-1:     0.014085     0.008595     0.006817
Rotational constants in MHz :   422.264245   257.665923   204.367381

                             ****ORCA TERMINATED NORMALLY****
TOTAL RUN TIME: 0 days 0 hours 8 minutes 38 seconds 462 msec
