                         Program Version 5.0.3 -  RELEASE  -
|  1> ! EnGrad PBEh-3c
|  2> %output
|  3> xyzfile=True
|  4> end
|  5> %scf
|  6> maxiter 250
|  7> end
|  8> %output
|  9> Print[P_Hirshfeld] = 1
| 10> end
| 11> % maxcore
| 12> 4000
| 13> *xyz 0 1
| 14> Pd   0.48241891   0.31821528  -0.37407741
| 15> O    1.97595290   1.34229411   0.41818488
| 16> C    1.58523918   2.56302880   0.28588808
| 17> O    0.44366850   2.82618860  -0.08430367
| 18> C    2.63307483   3.61308886   0.59255356
| 19> H    2.18026786   4.49521078   1.02654274
| 20> H    3.10662185   3.91383333  -0.33616291
| 21> H    3.40579808   3.23471318   1.25580281
| 22> N   -1.29014403  -0.62644992  -1.08747653
| 23> C   -1.13128393  -1.73435284  -2.05541169
| 24> H   -0.61066113  -1.37482041  -2.93481222
| 25> H   -2.12013260  -2.11096793  -2.34980448
| 26> H   -0.55590628  -2.54453332  -1.60990338
| 27> C   -2.07187732   0.44999389  -1.72749729
| 28> H   -2.23142814   1.25996365  -1.01510242
| 29> H   -3.05350008   0.05730354  -2.02650160
| 30> H   -1.54609668   0.82548418  -2.59820016
| 31> C   -1.64033275  -0.85412887   1.43106955
| 32> C   -1.27553435  -1.92041105   2.20992817
| 33> C   -0.99666359  -1.82336605   3.54771250
| 34> C   -1.13611833  -0.62465616   4.19682853
| 35> C   -1.45760343   0.50043650   3.48790196
| 36> C   -1.67480861   0.44984495   2.08251979
| 37> H   -1.00875828  -0.54856990   5.24409317
| 38> H   -1.54710057   1.45104611   3.98491763
| 39> H   -1.23680535  -2.85550727   1.72804318
| 40> H   -0.70232443  -2.70253494   4.09016315
| 41> H   -1.89401016   1.33670646   1.57628874
| 42> C   -2.11774928  -1.13043406   0.05786490
| 43> H   -3.15390988  -0.79570041  -0.05939617
| 44> H   -2.16028874  -2.21393895   0.00700569
| 45> O    1.92022569  -0.78085954  -1.21711988
| 46> C    2.14416504  -0.54366458  -2.48284880
| 47> O    1.32619964  -0.17607331  -3.28307731
| 48> C    3.60667928  -0.78018124  -2.90139664
| 49> H    3.78291998  -1.82877012  -3.13321126
| 50> H    4.31142267  -0.47746346  -2.13246360
| 51> H    3.80601817  -0.21522384  -3.80862563
| 52> *
| 53>
| 54>                          ****END OF INPUT****

CARTESIAN COORDINATES (ANGSTROEM)
---------------------------------
  Pd     0.482419    0.318215   -0.374077
  O      1.975953    1.342294    0.418185
  C      1.585239    2.563029    0.285888
  O      0.443669    2.826189   -0.084304
  C      2.633075    3.613089    0.592554
  H      2.180268    4.495211    1.026543
  H      3.106622    3.913833   -0.336163
  H      3.405798    3.234713    1.255803
  N     -1.290144   -0.626450   -1.087477
  C     -1.131284   -1.734353   -2.055412
  H     -0.610661   -1.374820   -2.934812
  H     -2.120133   -2.110968   -2.349804
  H     -0.555906   -2.544533   -1.609903
  C     -2.071877    0.449994   -1.727497
  H     -2.231428    1.259964   -1.015102
  H     -3.053500    0.057304   -2.026502
  H     -1.546097    0.825484   -2.598200
  C     -1.640333   -0.854129    1.431070
  C     -1.275534   -1.920411    2.209928
  C     -0.996664   -1.823366    3.547712
  C     -1.136118   -0.624656    4.196829
  C     -1.457603    0.500436    3.487902
  C     -1.674809    0.449845    2.082520
  H     -1.008758   -0.548570    5.244093
  H     -1.547101    1.451046    3.984918
  H     -1.236805   -2.855507    1.728043
  H     -0.702324   -2.702535    4.090163
  H     -1.894010    1.336706    1.576289
  C     -2.117749   -1.130434    0.057865
  H     -3.153910   -0.795700   -0.059396
  H     -2.160289   -2.213939    0.007006
  O      1.920226   -0.780860   -1.217120
  C      2.144165   -0.543665   -2.482849
  O      1.326200   -0.176073   -3.283077
  C      3.606679   -0.780181   -2.901397
  H      3.782920   -1.828770   -3.133211
  H      4.311423   -0.477463   -2.132464
  H      3.806018   -0.215224   -3.808626

 Total Charge           Charge          ....    0
 Multiplicity           Mult            ....    1
 Number of Electrons    NEL             ....  154
 Basis Dimension        Dim             ....  339

ORBITAL ENERGIES
----------------

  NO   OCC          E(Eh)            E(eV)
   0   2.0000     -19.489865      -530.3462
   1   2.0000     -19.475328      -529.9506
   2   2.0000     -19.465600      -529.6859
   3   2.0000     -19.437708      -528.9269
   4   2.0000     -14.723943      -400.6589
   5   2.0000     -10.552954      -287.1605
   6   2.0000     -10.534576      -286.6604
   7   2.0000     -10.503845      -285.8241
   8   2.0000     -10.487450      -285.3780
   9   2.0000     -10.483164      -285.2614
  10   2.0000     -10.476060      -285.0681
  11   2.0000     -10.474226      -285.0182
  12   2.0000     -10.465028      -284.7679
  13   2.0000     -10.460215      -284.6369
  14   2.0000     -10.458741      -284.5968
  15   2.0000     -10.457972      -284.5759
  16   2.0000     -10.427179      -283.7380
  17   2.0000     -10.413232      -283.3585
  18   2.0000      -3.662476       -99.6610
  19   2.0000      -2.314478       -62.9802
  20   2.0000      -2.302801       -62.6624
  21   2.0000      -2.273245       -61.8581
  22   2.0000      -1.179307       -32.0906
  23   2.0000      -1.153357       -31.3844
  24   2.0000      -1.078706       -29.3531
  25   2.0000      -1.071125       -29.1468
  26   2.0000      -1.056630       -28.7524
  27   2.0000      -0.979438       -26.6519
  28   2.0000      -0.894625       -24.3440
  29   2.0000      -0.854803       -23.2604
  30   2.0000      -0.822833       -22.3904
  31   2.0000      -0.814654       -22.1679
  32   2.0000      -0.804980       -21.9046
  33   2.0000      -0.790873       -21.5207
  34   2.0000      -0.726591       -19.7715
  35   2.0000      -0.704800       -19.1786
  36   2.0000      -0.681026       -18.5317
  37   2.0000      -0.615408       -16.7461
  38   2.0000      -0.602655       -16.3991
  39   2.0000      -0.585352       -15.9282
  40   2.0000      -0.575562       -15.6618
  41   2.0000      -0.571984       -15.5645
  42   2.0000      -0.569786       -15.5047
  43   2.0000      -0.536836       -14.6080
  44   2.0000      -0.532155       -14.4807
  45   2.0000      -0.528255       -14.3745
  46   2.0000      -0.521062       -14.1788
  47   2.0000      -0.512703       -13.9514
  48   2.0000      -0.508721       -13.8430
  49   2.0000      -0.501274       -13.6404
  50   2.0000      -0.498585       -13.5672
  51   2.0000      -0.494811       -13.4645
  52   2.0000      -0.491426       -13.3724
  53   2.0000      -0.484328       -13.1792
  54   2.0000      -0.461504       -12.5582
  55   2.0000      -0.450592       -12.2612
  56   2.0000      -0.447006       -12.1637
  57   2.0000      -0.444304       -12.0901
  58   2.0000      -0.436894       -11.8885
  59   2.0000      -0.434579       -11.8255
  60   2.0000      -0.430505       -11.7146
  61   2.0000      -0.417908       -11.3719
  62   2.0000      -0.417163       -11.3516
  63   2.0000      -0.412451       -11.2234
  64   2.0000      -0.406556       -11.0629
  65   2.0000      -0.379765       -10.3339
  66   2.0000      -0.368955       -10.0398
  67   2.0000      -0.353074        -9.6076
  68   2.0000      -0.346188        -9.4203
  69   2.0000      -0.344419        -9.3721
  70   2.0000      -0.324102        -8.8193
  71   2.0000      -0.314988        -8.5712
  72   2.0000      -0.312948        -8.5158
  73   2.0000      -0.304562        -8.2876
  74   2.0000      -0.293865        -7.9965
  75   2.0000      -0.290392        -7.9020
  76   2.0000      -0.282028        -7.6744
  77   0.0000      -0.073347        -1.9959
  78   0.0000      -0.015405        -0.4192
  79   0.0000       0.005030         0.1369
  80   0.0000       0.061429         1.6716
  81   0.0000       0.067446         1.8353

MULLIKEN ATOMIC CHARGES
-----------------------
   0 Pd:    0.567448
   1 O :   -0.502218
   2 C :    0.607120
   3 O :   -0.474271
   4 C :   -0.759422
   5 H :    0.242759
   6 H :    0.253733
   7 H :    0.251257
   8 N :   -0.485477
   9 C :   -0.544103
  10 H :    0.308996
  11 H :    0.216586
  12 H :    0.264420
  13 C :   -0.548072
  14 H :    0.267951
  15 H :    0.230385
  16 H :    0.302125
  17 C :    0.086747
  18 C :   -0.249329
  19 C :   -0.204431
  20 C :   -0.213275
  21 C :   -0.207564
  22 C :   -0.285484
  23 H :    0.230855
  24 H :    0.231606
  25 H :    0.216851
  26 H :    0.227025
  27 H :    0.250913
  28 C :   -0.343773
  29 H :    0.254317
  30 H :    0.253716
  31 O :   -0.533599
  32 C :    0.558898
  33 O :   -0.449760
  34 C :   -0.743102
  35 H :    0.234496
  36 H :    0.247130
  37 H :    0.238547
Sum of atomic charges:    0.0000000

LOEWDIN ATOMIC CHARGES
----------------------
   0 Pd:   -0.209106
   1 O :   -0.152121
   2 C :    0.158487
   3 O :   -0.227960
   4 C :   -0.382115
   5 H :    0.146356
   6 H :    0.158482
   7 H :    0.150403
   8 N :   -0.061423
   9 C :   -0.240349
  10 H :    0.168204
  11 H :    0.117937
  12 H :    0.148746
  13 C :   -0.231021
  14 H :    0.151208
  15 H :    0.124646
  16 H :    0.165998
  17 C :   -0.052100
  18 C :   -0.117308
  19 C :   -0.118266
  20 C :   -0.124204
  21 C :   -0.116799
  22 C :   -0.109030
  23 H :    0.140934
  24 H :    0.142408
  25 H :    0.138100
  26 H :    0.142081
  27 H :    0.154166
  28 C :   -0.106744
  29 H :    0.146597
  30 H :    0.147128
  31 O :   -0.180353
  32 C :    0.129729
  33 O :   -0.251906
  34 C :   -0.385454
  35 H :    0.145931
  36 H :    0.146177
  37 H :    0.142543

  Mayer bond orders larger than 0.100000
B(  0-Pd,  1-O ) :   0.6545 B(  0-Pd,  3-O ) :   0.2577 B(  0-Pd,  8-N ) :   0.4135
B(  0-Pd, 31-O ) :   0.6772 B(  1-O ,  2-C ) :   1.2935 B(  2-C ,  3-O ) :   1.7369
B(  2-C ,  4-C ) :   0.9427 B(  4-C ,  5-H ) :   0.9147 B(  4-C ,  6-H ) :   0.9074
B(  4-C ,  7-H ) :   0.9108 B(  8-N ,  9-C ) :   0.9128 B(  8-N , 13-C ) :   0.9144
B(  8-N , 28-C ) :   0.8800 B(  9-C , 10-H ) :   0.8642 B(  9-C , 11-H ) :   0.9046
B(  9-C , 12-H ) :   0.9059 B( 13-C , 14-H ) :   0.8966 B( 13-C , 15-H ) :   0.9015
B( 13-C , 16-H ) :   0.8868 B( 17-C , 18-C ) :   1.4332 B( 17-C , 22-C ) :   1.3545
B( 17-C , 28-C ) :   0.9365 B( 18-C , 19-C ) :   1.4248 B( 18-C , 25-H ) :   0.9159
B( 19-C , 20-C ) :   1.4312 B( 19-C , 22-C ) :   0.1022 B( 19-C , 26-H ) :   0.9171
B( 20-C , 21-C ) :   1.4181 B( 20-C , 23-H ) :   0.9149 B( 21-C , 22-C ) :   1.4535
B( 21-C , 24-H ) :   0.9152 B( 22-C , 27-H ) :   0.9050 B( 28-C , 29-H ) :   0.8963
B( 28-C , 30-H ) :   0.9154 B( 31-O , 32-C ) :   1.2489 B( 32-C , 33-O ) :   1.8859
B( 32-C , 34-C ) :   0.9215 B( 34-C , 35-H ) :   0.9164 B( 34-C , 36-H ) :   0.9119
B( 34-C , 37-H ) :   0.9188

Dispersion correction           -0.026257951
FINAL SINGLE POINT ENERGY      -988.517946952755
Dispersion correction            ... done

DIPOLE MOMENT
-------------
                                X             Y             Z
Electronic contribution:     20.51548      14.12048     -18.18369
Nuclear contribution   :    -22.29341     -14.92453      19.18072
                        -----------------------------------------
Total Dipole Moment    :     -1.77793      -0.80405       0.99703
                        -----------------------------------------
Magnitude (a.u.)       :      2.19126
Magnitude (Debye)      :      5.56973

Rotational constants in cm-1:     0.014024     0.008563     0.006806
Rotational constants in MHz :   420.432650   256.724044   204.029678

                             ****ORCA TERMINATED NORMALLY****
TOTAL RUN TIME: 0 days 0 hours 8 minutes 39 seconds 396 msec
