                         Program Version 5.0.3 -  RELEASE  -
|  1> ! EnGrad PBEh-3c
|  2> %output
|  3> xyzfile=True
|  4> end
|  5> %scf
|  6> maxiter 250
|  7> end
|  8> %output
|  9> Print[P_Hirshfeld] = 1
| 10> end
| 11> % maxcore
| 12> 4000
| 13> *xyz 0 1
| 14> Pd   0.48863408   0.32212469  -0.37607101
| 15> O    1.98027959   1.33911953   0.41172941
| 16> C    1.58678769   2.55734351   0.28899950
| 17> O    0.43366904   2.82164324  -0.07786674
| 18> C    2.62883613   3.61118484   0.59142047
| 19> H    2.17524601   4.49599786   1.02625912
| 20> H    3.10672320   3.91573345  -0.33848294
| 21> H    3.40549072   3.23429260   1.25612439
| 22> N   -1.29555396  -0.62554092  -1.09205768
| 23> C   -1.13132533  -1.72851393  -2.05867329
| 24> H   -0.60950418  -1.37052246  -2.93505101
| 25> H   -2.11689364  -2.10482776  -2.34688703
| 26> H   -0.55592726  -2.53512327  -1.61294713
| 27> C   -2.07054181   0.45412217  -1.72820695
| 28> H   -2.23004287   1.26562396  -1.01707631
| 29> H   -3.04917165   0.06197700  -2.02846699
| 30> H   -1.54372728   0.83053047  -2.59762723
| 31> C   -1.63619166  -0.83592371   1.44300972
| 32> C   -1.26345369  -1.93095126   2.20969491
| 33> C   -0.99258566  -1.81992544   3.55075545
| 34> C   -1.12820486  -0.62900506   4.20274525
| 35> C   -1.45955074   0.50689466   3.47494056
| 36> C   -1.67423860   0.42812453   2.09039926
| 37> H   -1.00543569  -0.53715171   5.25584599
| 38> H   -1.55500007   1.45708343   3.98668637
| 39> H   -1.22706793  -2.86919055   1.71782032
| 40> H   -0.70792712  -2.69831159   4.08598513
| 41> H   -1.90486329   1.32203614   1.57090357
| 42> C   -2.11803171  -1.13457958   0.05247971
| 43> H   -3.15503894  -0.79726673  -0.06193024
| 44> H   -2.15615654  -2.21279252   0.00774803
| 45> O    1.91596193  -0.78930855  -1.21779976
| 46> C    2.14151726  -0.54168934  -2.47943146
| 47> O    1.32507365  -0.16659937  -3.28624185
| 48> C    3.60311376  -0.78426049  -2.89845953
| 49> H    3.78036402  -1.83647972  -3.12874478
| 50> H    4.31212867  -0.48180740  -2.12868559
| 51> H    3.80517094  -0.22121631  -3.80803400
| 52> *
| 53>
| 54>                          ****END OF INPUT****

CARTESIAN COORDINATES (ANGSTROEM)
---------------------------------
  Pd     0.488634    0.322125   -0.376071
  O      1.980280    1.339120    0.411729
  C      1.586788    2.557344    0.289000
  O      0.433669    2.821643   -0.077867
  C      2.628836    3.611185    0.591420
  H      2.175246    4.495998    1.026259
  H      3.106723    3.915733   -0.338483
  H      3.405491    3.234293    1.256124
  N     -1.295554   -0.625541   -1.092058
  C     -1.131325   -1.728514   -2.058673
  H     -0.609504   -1.370522   -2.935051
  H     -2.116894   -2.104828   -2.346887
  H     -0.555927   -2.535123   -1.612947
  C     -2.070542    0.454122   -1.728207
  H     -2.230043    1.265624   -1.017076
  H     -3.049172    0.061977   -2.028467
  H     -1.543727    0.830530   -2.597627
  C     -1.636192   -0.835924    1.443010
  C     -1.263454   -1.930951    2.209695
  C     -0.992586   -1.819925    3.550755
  C     -1.128205   -0.629005    4.202745
  C     -1.459551    0.506895    3.474941
  C     -1.674239    0.428125    2.090399
  H     -1.005436   -0.537152    5.255846
  H     -1.555000    1.457083    3.986686
  H     -1.227068   -2.869191    1.717820
  H     -0.707927   -2.698312    4.085985
  H     -1.904863    1.322036    1.570904
  C     -2.118032   -1.134580    0.052480
  H     -3.155039   -0.797267   -0.061930
  H     -2.156157   -2.212793    0.007748
  O      1.915962   -0.789309   -1.217800
  C      2.141517   -0.541689   -2.479431
  O      1.325074   -0.166599   -3.286242
  C      3.603114   -0.784260   -2.898460
  H      3.780364   -1.836480   -3.128745
  H      4.312129   -0.481807   -2.128686
  H      3.805171   -0.221216   -3.808034

 Total Charge           Charge          ....    0
 Multiplicity           Mult            ....    1
 Number of Electrons    NEL             ....  154
 Basis Dimension        Dim             ....  339

ORBITAL ENERGIES
----------------

  NO   OCC          E(Eh)            E(eV)
   0   2.0000     -19.493150      -530.4356
   1   2.0000     -19.476752      -529.9894
   2   2.0000     -19.466822      -529.7191
   3   2.0000     -19.437850      -528.9308
   4   2.0000     -14.722709      -400.6253
   5   2.0000     -10.555493      -287.2296
   6   2.0000     -10.535629      -286.6890
   7   2.0000     -10.504422      -285.8398
   8   2.0000     -10.486374      -285.3487
   9   2.0000     -10.482108      -285.2327
  10   2.0000     -10.474434      -285.0239
  11   2.0000     -10.470169      -284.9078
  12   2.0000     -10.465496      -284.7806
  13   2.0000     -10.461075      -284.6603
  14   2.0000     -10.459856      -284.6272
  15   2.0000     -10.458399      -284.5875
  16   2.0000     -10.429523      -283.8018
  17   2.0000     -10.414162      -283.3838
  18   2.0000      -3.663116       -99.6785
  19   2.0000      -2.315130       -62.9979
  20   2.0000      -2.303551       -62.6828
  21   2.0000      -2.273789       -61.8730
  22   2.0000      -1.179202       -32.0877
  23   2.0000      -1.152040       -31.3486
  24   2.0000      -1.078858       -29.3572
  25   2.0000      -1.071251       -29.1502
  26   2.0000      -1.056940       -28.7608
  27   2.0000      -0.979618       -26.6568
  28   2.0000      -0.890616       -24.2349
  29   2.0000      -0.856416       -23.3043
  30   2.0000      -0.823350       -22.4045
  31   2.0000      -0.815774       -22.1983
  32   2.0000      -0.804779       -21.8991
  33   2.0000      -0.790281       -21.5046
  34   2.0000      -0.724470       -19.7138
  35   2.0000      -0.703688       -19.1483
  36   2.0000      -0.681572       -18.5465
  37   2.0000      -0.614482       -16.7209
  38   2.0000      -0.604299       -16.4438
  39   2.0000      -0.586314       -15.9544
  40   2.0000      -0.574758       -15.6400
  41   2.0000      -0.572579       -15.5807
  42   2.0000      -0.567750       -15.4493
  43   2.0000      -0.536164       -14.5898
  44   2.0000      -0.532136       -14.4801
  45   2.0000      -0.528030       -14.3684
  46   2.0000      -0.522303       -14.2126
  47   2.0000      -0.513075       -13.9615
  48   2.0000      -0.508647       -13.8410
  49   2.0000      -0.499771       -13.5995
  50   2.0000      -0.497948       -13.5499
  51   2.0000      -0.494837       -13.4652
  52   2.0000      -0.491451       -13.3731
  53   2.0000      -0.484326       -13.1792
  54   2.0000      -0.461220       -12.5504
  55   2.0000      -0.450486       -12.2583
  56   2.0000      -0.447236       -12.1699
  57   2.0000      -0.444549       -12.0968
  58   2.0000      -0.437616       -11.9081
  59   2.0000      -0.435146       -11.8409
  60   2.0000      -0.430138       -11.7046
  61   2.0000      -0.418659       -11.3923
  62   2.0000      -0.417820       -11.3695
  63   2.0000      -0.410156       -11.1609
  64   2.0000      -0.405587       -11.0366
  65   2.0000      -0.379775       -10.3342
  66   2.0000      -0.369346       -10.0504
  67   2.0000      -0.353101        -9.6084
  68   2.0000      -0.347177        -9.4472
  69   2.0000      -0.345301        -9.3961
  70   2.0000      -0.324812        -8.8386
  71   2.0000      -0.315437        -8.5835
  72   2.0000      -0.311320        -8.4715
  73   2.0000      -0.306059        -8.3283
  74   2.0000      -0.294995        -8.0272
  75   2.0000      -0.291051        -7.9199
  76   2.0000      -0.282513        -7.6876
  77   0.0000      -0.073282        -1.9941
  78   0.0000      -0.009841        -0.2678
  79   0.0000       0.002166         0.0589
  80   0.0000       0.059871         1.6292
  81   0.0000       0.066494         1.8094

MULLIKEN ATOMIC CHARGES
-----------------------
   0 Pd:    0.568425
   1 O :   -0.499874
   2 C :    0.612396
   3 O :   -0.481203
   4 C :   -0.759667
   5 H :    0.243780
   6 H :    0.254323
   7 H :    0.250961
   8 N :   -0.482343
   9 C :   -0.545331
  10 H :    0.309147
  11 H :    0.216864
  12 H :    0.264399
  13 C :   -0.548643
  14 H :    0.268206
  15 H :    0.229887
  16 H :    0.301980
  17 C :    0.088356
  18 C :   -0.249497
  19 C :   -0.204813
  20 C :   -0.215925
  21 C :   -0.211596
  22 C :   -0.283362
  23 H :    0.230713
  24 H :    0.232565
  25 H :    0.218923
  26 H :    0.225614
  27 H :    0.247903
  28 C :   -0.340313
  29 H :    0.252407
  30 H :    0.255016
  31 O :   -0.532756
  32 C :    0.561535
  33 O :   -0.454341
  34 C :   -0.742370
  35 H :    0.234124
  36 H :    0.245864
  37 H :    0.238646
Sum of atomic charges:   -0.0000000

LOEWDIN ATOMIC CHARGES
----------------------
   0 Pd:   -0.207809
   1 O :   -0.147192
   2 C :    0.164185
   3 O :   -0.235241
   4 C :   -0.381326
   5 H :    0.147073
   6 H :    0.159149
   7 H :    0.150724
   8 N :   -0.062777
   9 C :   -0.240979
  10 H :    0.168124
  11 H :    0.117771
  12 H :    0.148484
  13 C :   -0.231806
  14 H :    0.151368
  15 H :    0.124204
  16 H :    0.165983
  17 C :   -0.051418
  18 C :   -0.115811
  19 C :   -0.121104
  20 C :   -0.123386
  21 C :   -0.115910
  22 C :   -0.112479
  23 H :    0.141173
  24 H :    0.142804
  25 H :    0.138595
  26 H :    0.141037
  27 H :    0.154653
  28 C :   -0.105667
  29 H :    0.145524
  30 H :    0.146629
  31 O :   -0.179007
  32 C :    0.132650
  33 O :   -0.257302
  34 C :   -0.385217
  35 H :    0.145931
  36 H :    0.145872
  37 H :    0.142497

  Mayer bond orders larger than 0.100000
B(  0-Pd,  1-O ) :   0.6515 B(  0-Pd,  3-O ) :   0.2658 B(  0-Pd,  8-N ) :   0.4123
B(  0-Pd, 31-O ) :   0.6743 B(  1-O ,  2-C ) :   1.2999 B(  1-O ,  3-O ) :   0.1003
B(  2-C ,  3-O ) :   1.7215 B(  2-C ,  4-C ) :   0.9430 B(  4-C ,  5-H ) :   0.9142
B(  4-C ,  6-H ) :   0.9068 B(  4-C ,  7-H ) :   0.9104 B(  8-N ,  9-C ) :   0.9143
B(  8-N , 13-C ) :   0.9157 B(  8-N , 28-C ) :   0.8817 B(  9-C , 10-H ) :   0.8642
B(  9-C , 11-H ) :   0.9046 B(  9-C , 12-H ) :   0.9060 B( 13-C , 14-H ) :   0.8967
B( 13-C , 15-H ) :   0.9017 B( 13-C , 16-H ) :   0.8868 B( 17-C , 18-C ) :   1.4210
B( 17-C , 22-C ) :   1.3643 B( 17-C , 28-C ) :   0.9368 B( 18-C , 19-C ) :   1.4300
B( 18-C , 25-H ) :   0.9154 B( 19-C , 20-C ) :   1.4336 B( 19-C , 26-H ) :   0.9176
B( 20-C , 21-C ) :   1.4129 B( 20-C , 23-H ) :   0.9153 B( 21-C , 22-C ) :   1.4513
B( 21-C , 24-H ) :   0.9147 B( 22-C , 27-H ) :   0.9075 B( 28-C , 29-H ) :   0.8974
B( 28-C , 30-H ) :   0.9142 B( 31-O , 32-C ) :   1.2521 B( 32-C , 33-O ) :   1.8789
B( 32-C , 34-C ) :   0.9211 B( 34-C , 35-H ) :   0.9164 B( 34-C , 36-H ) :   0.9121
B( 34-C , 37-H ) :   0.9187

Dispersion correction           -0.026251881
FINAL SINGLE POINT ENERGY      -988.524107845066
Dispersion correction            ... done

DIPOLE MOMENT
-------------
                                X             Y             Z
Electronic contribution:     20.89205      14.36776     -18.27390
Nuclear contribution   :    -22.62467     -15.14771      19.28542
                        -----------------------------------------
Total Dipole Moment    :     -1.73261      -0.77995       1.01152
                        -----------------------------------------
Magnitude (a.u.)       :      2.15254
Magnitude (Debye)      :      5.47132

Rotational constants in cm-1:     0.014028     0.008562     0.006812
Rotational constants in MHz :   420.550617   256.682106   204.216774

                             ****ORCA TERMINATED NORMALLY****
TOTAL RUN TIME: 0 days 0 hours 11 minutes 21 seconds 2 msec
