                         Program Version 5.0.3 -  RELEASE  -
|  1> ! EnGrad PBEh-3c
|  2> %output
|  3> xyzfile=True
|  4> end
|  5> %scf
|  6> maxiter 250
|  7> end
|  8> %output
|  9> Print[P_Hirshfeld] = 1
| 10> end
| 11> % maxcore
| 12> 4000
| 13> *xyz 0 1
| 14> Pd   0.50323041   0.32563324  -0.38450192
| 15> O    1.99386774   1.33529838   0.39689754
| 16> C    1.58259379   2.54889141   0.29293672
| 17> O    0.41972757   2.80142745  -0.05536146
| 18> C    2.61843558   3.60742472   0.58944584
| 19> H    2.16221012   4.49652732   1.02387103
| 20> H    3.10446403   3.92051691  -0.34143509
| 21> H    3.40495259   3.23698877   1.25527470
| 22> N   -1.30506554  -0.62001236  -1.09833464
| 23> C   -1.13386537  -1.70859258  -2.06761400
| 24> H   -0.60564804  -1.35468753  -2.93836087
| 25> H   -2.11423444  -2.09157657  -2.34193117
| 26> H   -0.55709773  -2.50869884  -1.62439888
| 27> C   -2.06844714   0.46574871  -1.72867371
| 28> H   -2.22640313   1.28082631  -1.02230376
| 29> H   -3.04224869   0.07658394  -2.03578202
| 30> H   -1.53716968   0.84328331  -2.59497300
| 31> C   -1.62079158  -0.82151008   1.46810481
| 32> C   -1.22928821  -1.94664802   2.19998212
| 33> C   -0.97731065  -1.82418506   3.55442353
| 34> C   -1.11198685  -0.61433233   4.21073937
| 35> C   -1.46322857   0.50821021   3.45962182
| 36> C   -1.67437121   0.36629227   2.11225552
| 37> H   -0.99338969  -0.50675775   5.29055808
| 38> H   -1.58607296   1.47020542   3.98529504
| 39> H   -1.19252803  -2.91508327   1.68923874
| 40> H   -0.71861444  -2.69542499   4.08237424
| 41> H   -1.94502149   1.32800021   1.55226616
| 42> C   -2.11524333  -1.13607934   0.04777644
| 43> H   -3.15806162  -0.80331789  -0.06746049
| 44> H   -2.14435053  -2.21780317   0.00493480
| 45> O    1.90109402  -0.80908961  -1.22530976
| 46> C    2.14254998  -0.53922626  -2.47156703
| 47> O    1.32427919  -0.13753567  -3.29135242
| 48> C    3.59368011  -0.79695251  -2.88865675
| 49> H    3.76941045  -1.85718681  -3.11267445
| 50> H    4.31392805  -0.49829945  -2.11869954
| 51> H    3.80174891  -0.24168251  -3.80516666
| 52> *
| 53>
| 54>                          ****END OF INPUT****

CARTESIAN COORDINATES (ANGSTROEM)
---------------------------------
  Pd     0.503230    0.325633   -0.384502
  O      1.993868    1.335298    0.396898
  C      1.582594    2.548891    0.292937
  O      0.419728    2.801427   -0.055361
  C      2.618436    3.607425    0.589446
  H      2.162210    4.496527    1.023871
  H      3.104464    3.920517   -0.341435
  H      3.404953    3.236989    1.255275
  N     -1.305066   -0.620012   -1.098335
  C     -1.133865   -1.708593   -2.067614
  H     -0.605648   -1.354688   -2.938361
  H     -2.114234   -2.091577   -2.341931
  H     -0.557098   -2.508699   -1.624399
  C     -2.068447    0.465749   -1.728674
  H     -2.226403    1.280826   -1.022304
  H     -3.042249    0.076584   -2.035782
  H     -1.537170    0.843283   -2.594973
  C     -1.620792   -0.821510    1.468105
  C     -1.229288   -1.946648    2.199982
  C     -0.977311   -1.824185    3.554424
  C     -1.111987   -0.614332    4.210739
  C     -1.463229    0.508210    3.459622
  C     -1.674371    0.366292    2.112256
  H     -0.993390   -0.506758    5.290558
  H     -1.586073    1.470205    3.985295
  H     -1.192528   -2.915083    1.689239
  H     -0.718614   -2.695425    4.082374
  H     -1.945021    1.328000    1.552266
  C     -2.115243   -1.136079    0.047776
  H     -3.158062   -0.803318   -0.067460
  H     -2.144351   -2.217803    0.004935
  O      1.901094   -0.809090   -1.225310
  C      2.142550   -0.539226   -2.471567
  O      1.324279   -0.137536   -3.291352
  C      3.593680   -0.796953   -2.888657
  H      3.769410   -1.857187   -3.112674
  H      4.313928   -0.498299   -2.118700
  H      3.801749   -0.241683   -3.805167

 Total Charge           Charge          ....    0
 Multiplicity           Mult            ....    1
 Number of Electrons    NEL             ....  154
 Basis Dimension        Dim             ....  339

ORBITAL ENERGIES
----------------

  NO   OCC          E(Eh)            E(eV)
   0   2.0000     -19.495939      -530.5115
   1   2.0000     -19.479525      -530.0648
   2   2.0000     -19.470448      -529.8178
   3   2.0000     -19.436185      -528.8855
   4   2.0000     -14.720533      -400.5661
   5   2.0000     -10.558344      -287.3071
   6   2.0000     -10.537181      -286.7313
   7   2.0000     -10.506516      -285.8968
   8   2.0000     -10.484173      -285.2888
   9   2.0000     -10.478533      -285.1354
  10   2.0000     -10.471326      -284.9393
  11   2.0000     -10.468164      -284.8532
  12   2.0000     -10.466601      -284.8107
  13   2.0000     -10.465163      -284.7715
  14   2.0000     -10.464600      -284.7562
  15   2.0000     -10.459268      -284.6111
  16   2.0000     -10.432672      -283.8874
  17   2.0000     -10.416215      -283.4396
  18   2.0000      -3.664015       -99.7029
  19   2.0000      -2.315812       -63.0165
  20   2.0000      -2.304942       -62.7207
  21   2.0000      -2.274477       -61.8917
  22   2.0000      -1.182418       -32.1752
  23   2.0000      -1.148963       -31.2649
  24   2.0000      -1.079173       -29.3658
  25   2.0000      -1.074153       -29.2292
  26   2.0000      -1.054700       -28.6999
  27   2.0000      -0.983412       -26.7600
  28   2.0000      -0.885744       -24.1023
  29   2.0000      -0.856897       -23.3174
  30   2.0000      -0.823620       -22.4119
  31   2.0000      -0.816745       -22.2248
  32   2.0000      -0.804387       -21.8885
  33   2.0000      -0.791222       -21.5303
  34   2.0000      -0.720805       -19.6141
  35   2.0000      -0.701793       -19.0967
  36   2.0000      -0.680552       -18.5188
  37   2.0000      -0.612671       -16.6716
  38   2.0000      -0.603989       -16.4354
  39   2.0000      -0.589052       -16.0289
  40   2.0000      -0.573284       -15.5999
  41   2.0000      -0.572486       -15.5781
  42   2.0000      -0.562264       -15.3000
  43   2.0000      -0.536083       -14.5876
  44   2.0000      -0.533505       -14.5174
  45   2.0000      -0.525713       -14.3054
  46   2.0000      -0.523900       -14.2561
  47   2.0000      -0.514453       -13.9990
  48   2.0000      -0.508770       -13.8443
  49   2.0000      -0.496486       -13.5101
  50   2.0000      -0.494928       -13.4677
  51   2.0000      -0.493625       -13.4322
  52   2.0000      -0.490008       -13.3338
  53   2.0000      -0.483298       -13.1512
  54   2.0000      -0.461287       -12.5523
  55   2.0000      -0.449433       -12.2297
  56   2.0000      -0.447632       -12.1807
  57   2.0000      -0.444528       -12.0962
  58   2.0000      -0.437682       -11.9099
  59   2.0000      -0.435634       -11.8542
  60   2.0000      -0.429343       -11.6830
  61   2.0000      -0.422007       -11.4834
  62   2.0000      -0.418134       -11.3780
  63   2.0000      -0.408388       -11.1128
  64   2.0000      -0.396800       -10.7975
  65   2.0000      -0.380031       -10.3412
  66   2.0000      -0.369284       -10.0487
  67   2.0000      -0.353786        -9.6270
  68   2.0000      -0.348615        -9.4863
  69   2.0000      -0.345519        -9.4020
  70   2.0000      -0.326072        -8.8729
  71   2.0000      -0.317162        -8.6304
  72   2.0000      -0.311118        -8.4660
  73   2.0000      -0.306881        -8.3506
  74   2.0000      -0.296807        -8.0765
  75   2.0000      -0.291659        -7.9364
  76   2.0000      -0.282196        -7.6789
  77   0.0000      -0.072671        -1.9775
  78   0.0000      -0.005389        -0.1467
  79   0.0000       0.003023         0.0823
  80   0.0000       0.057840         1.5739
  81   0.0000       0.065105         1.7716

MULLIKEN ATOMIC CHARGES
-----------------------
   0 Pd:    0.570463
   1 O :   -0.500342
   2 C :    0.619107
   3 O :   -0.480433
   4 C :   -0.761827
   5 H :    0.243841
   6 H :    0.254656
   7 H :    0.251296
   8 N :   -0.476967
   9 C :   -0.547745
  10 H :    0.309890
  11 H :    0.216773
  12 H :    0.264313
  13 C :   -0.549724
  14 H :    0.268516
  15 H :    0.228814
  16 H :    0.301960
  17 C :    0.129082
  18 C :   -0.260609
  19 C :   -0.209948
  20 C :   -0.228805
  21 C :   -0.202988
  22 C :   -0.296095
  23 H :    0.229260
  24 H :    0.234499
  25 H :    0.220012
  26 H :    0.226931
  27 H :    0.234456
  28 C :   -0.336933
  29 H :    0.249711
  30 H :    0.253765
  31 O :   -0.529761
  32 C :    0.568690
  33 O :   -0.471013
  34 C :   -0.741377
  35 H :    0.234100
  36 H :    0.244347
  37 H :    0.240088
Sum of atomic charges:   -0.0000000

LOEWDIN ATOMIC CHARGES
----------------------
   0 Pd:   -0.206925
   1 O :   -0.144998
   2 C :    0.166622
   3 O :   -0.231287
   4 C :   -0.380975
   5 H :    0.147235
   6 H :    0.159726
   7 H :    0.151551
   8 N :   -0.064796
   9 C :   -0.242750
  10 H :    0.168621
  11 H :    0.117288
  12 H :    0.147627
  13 C :   -0.233497
  14 H :    0.151382
  15 H :    0.123544
  16 H :    0.166108
  17 C :   -0.055909
  18 C :   -0.112327
  19 C :   -0.124720
  20 C :   -0.121253
  21 C :   -0.119464
  22 C :   -0.112590
  23 H :    0.141727
  24 H :    0.144595
  25 H :    0.140202
  26 H :    0.139879
  27 H :    0.154716
  28 C :   -0.101780
  29 H :    0.143921
  30 H :    0.145485
  31 O :   -0.172423
  32 C :    0.139205
  33 O :   -0.276381
  34 C :   -0.383335
  35 H :    0.146574
  36 H :    0.146042
  37 H :    0.143362

  Mayer bond orders larger than 0.100000
B(  0-Pd,  1-O ) :   0.6527 B(  0-Pd,  3-O ) :   0.2755 B(  0-Pd,  8-N ) :   0.4092
B(  0-Pd, 31-O ) :   0.6668 B(  1-O ,  2-C ) :   1.2993 B(  1-O ,  3-O ) :   0.1004
B(  2-C ,  3-O ) :   1.7150 B(  2-C ,  4-C ) :   0.9423 B(  4-C ,  5-H ) :   0.9138
B(  4-C ,  6-H ) :   0.9062 B(  4-C ,  7-H ) :   0.9100 B(  8-N ,  9-C ) :   0.9169
B(  8-N , 13-C ) :   0.9179 B(  8-N , 28-C ) :   0.8845 B(  9-C , 10-H ) :   0.8635
B(  9-C , 11-H ) :   0.9050 B(  9-C , 12-H ) :   0.9059 B( 13-C , 14-H ) :   0.8969
B( 13-C , 15-H ) :   0.9022 B( 13-C , 16-H ) :   0.8865 B( 17-C , 18-C ) :   1.3843
B( 17-C , 22-C ) :   1.3753 B( 17-C , 28-C ) :   0.9328 B( 18-C , 19-C ) :   1.4517
B( 18-C , 25-H ) :   0.9155 B( 19-C , 20-C ) :   1.4185 B( 19-C , 26-H ) :   0.9174
B( 20-C , 21-C ) :   1.4232 B( 20-C , 23-H ) :   0.9162 B( 21-C , 22-C ) :   1.4264
B( 21-C , 24-H ) :   0.9134 B( 22-C , 27-H ) :   0.9134 B( 28-C , 29-H ) :   0.8987
B( 28-C , 30-H ) :   0.9135 B( 31-O , 32-C ) :   1.2635 B( 32-C , 33-O ) :   1.8550
B( 32-C , 34-C ) :   0.9234 B( 34-C , 35-H ) :   0.9157 B( 34-C , 36-H ) :   0.9119
B( 34-C , 37-H ) :   0.9183

Dispersion correction           -0.026223700
FINAL SINGLE POINT ENERGY      -988.520763137587
Dispersion correction            ... done

DIPOLE MOMENT
-------------
                                X             Y             Z
Electronic contribution:     21.71807      14.63906     -18.68879
Nuclear contribution   :    -23.38070     -15.37586      19.74063
                        -----------------------------------------
Total Dipole Moment    :     -1.66263      -0.73680       1.05184
                        -----------------------------------------
Magnitude (a.u.)       :      2.10085
Magnitude (Debye)      :      5.33993

Rotational constants in cm-1:     0.014050     0.008562     0.006828
Rotational constants in MHz :   421.207327   256.671811   204.705358

                             ****ORCA TERMINATED NORMALLY****
TOTAL RUN TIME: 0 days 0 hours 10 minutes 57 seconds 249 msec
