                         Program Version 5.0.3 -  RELEASE  -
|  1> ! EnGrad PBEh-3c
|  2> %output
|  3> xyzfile=True
|  4> end
|  5> %scf
|  6> maxiter 250
|  7> end
|  8> %output
|  9> Print[P_Hirshfeld] = 1
| 10> end
| 11> % maxcore
| 12> 4000
| 13> *xyz 0 1
| 14> Pd   0.50569876   0.32996157  -0.38693638
| 15> O    1.99796741   1.33170125   0.38315527
| 16> C    1.58238264   2.54365790   0.29720174
| 17> O    0.41572264   2.78993760  -0.04350459
| 18> C    2.61295089   3.60798250   0.58853767
| 19> H    2.15595098   4.49769831   1.02369614
| 20> H    3.10239984   3.92045907  -0.34337046
| 21> H    3.40064953   3.23693012   1.25298001
| 22> N   -1.30792215  -0.61554410  -1.09511568
| 23> C   -1.13427041  -1.69985877  -2.06951910
| 24> H   -0.60450056  -1.34741447  -2.94248372
| 25> H   -2.11260940  -2.08788019  -2.34308696
| 26> H   -0.55576231  -2.50019123  -1.62917493
| 27> C   -2.06647814   0.47022483  -1.72840736
| 28> H   -2.22632401   1.28590385  -1.02417950
| 29> H   -3.04008047   0.08601895  -2.03894551
| 30> H   -1.53563650   0.85088911  -2.59458182
| 31> C   -1.61572759  -0.83177331   1.46355445
| 32> C   -1.21769431  -1.95140258   2.19637001
| 33> C   -0.97464569  -1.82426269   3.55425754
| 34> C   -1.11026936  -0.60370658   4.21339718
| 35> C   -1.46056302   0.51420123   3.46344575
| 36> C   -1.68965821   0.39425669   2.10983779
| 37> H   -0.98816396  -0.50230287   5.30438148
| 38> H   -1.59532640   1.47013164   3.97675581
| 39> H   -1.17712004  -2.93367686   1.68232198
| 40> H   -0.71207345  -2.70869318   4.09101466
| 41> H   -1.95627931   1.30900492   1.54945687
| 42> C   -2.11000142  -1.13181705   0.05662454
| 43> H   -3.15437442  -0.80604244  -0.07026277
| 44> H   -2.13717612  -2.22160654  -0.00262574
| 45> O    1.89505317  -0.81938022  -1.22809043
| 46> C    2.14270259  -0.53858733  -2.47205970
| 47> O    1.32936538  -0.12655099  -3.28794218
| 48> C    3.58929639  -0.80217947  -2.88603573
| 49> H    3.76298893  -1.86521502  -3.10260122
| 50> H    4.30955900  -0.50634332  -2.11522707
| 51> H    3.80225241  -0.25005107  -3.80366115
| 52> *
| 53>
| 54>                          ****END OF INPUT****

CARTESIAN COORDINATES (ANGSTROEM)
---------------------------------
  Pd     0.505699    0.329962   -0.386936
  O      1.997967    1.331701    0.383155
  C      1.582383    2.543658    0.297202
  O      0.415723    2.789938   -0.043505
  C      2.612951    3.607982    0.588538
  H      2.155951    4.497698    1.023696
  H      3.102400    3.920459   -0.343370
  H      3.400650    3.236930    1.252980
  N     -1.307922   -0.615544   -1.095116
  C     -1.134270   -1.699859   -2.069519
  H     -0.604501   -1.347414   -2.942484
  H     -2.112609   -2.087880   -2.343087
  H     -0.555762   -2.500191   -1.629175
  C     -2.066478    0.470225   -1.728407
  H     -2.226324    1.285904   -1.024180
  H     -3.040080    0.086019   -2.038946
  H     -1.535637    0.850889   -2.594582
  C     -1.615728   -0.831773    1.463554
  C     -1.217694   -1.951403    2.196370
  C     -0.974646   -1.824263    3.554258
  C     -1.110269   -0.603707    4.213397
  C     -1.460563    0.514201    3.463446
  C     -1.689658    0.394257    2.109838
  H     -0.988164   -0.502303    5.304381
  H     -1.595326    1.470132    3.976756
  H     -1.177120   -2.933677    1.682322
  H     -0.712073   -2.708693    4.091015
  H     -1.956279    1.309005    1.549457
  C     -2.110001   -1.131817    0.056625
  H     -3.154374   -0.806042   -0.070263
  H     -2.137176   -2.221607   -0.002626
  O      1.895053   -0.819380   -1.228090
  C      2.142703   -0.538587   -2.472060
  O      1.329365   -0.126551   -3.287942
  C      3.589296   -0.802179   -2.886036
  H      3.762989   -1.865215   -3.102601
  H      4.309559   -0.506343   -2.115227
  H      3.802252   -0.250051   -3.803661

 Total Charge           Charge          ....    0
 Multiplicity           Mult            ....    1
 Number of Electrons    NEL             ....  154
 Basis Dimension        Dim             ....  339

ORBITAL ENERGIES
----------------

  NO   OCC          E(Eh)            E(eV)
   0   2.0000     -19.496688      -530.5319
   1   2.0000     -19.478027      -530.0241
   2   2.0000     -19.471517      -529.8469
   3   2.0000     -19.435874      -528.8770
   4   2.0000     -14.719475      -400.5373
   5   2.0000     -10.559133      -287.3286
   6   2.0000     -10.536188      -286.7043
   7   2.0000     -10.505696      -285.8745
   8   2.0000     -10.483520      -285.2711
   9   2.0000     -10.480807      -285.1973
  10   2.0000     -10.470878      -284.9271
  11   2.0000     -10.468737      -284.8688
  12   2.0000     -10.468666      -284.8669
  13   2.0000     -10.467361      -284.8314
  14   2.0000     -10.464691      -284.7587
  15   2.0000     -10.462829      -284.7081
  16   2.0000     -10.433873      -283.9201
  17   2.0000     -10.415727      -283.4263
  18   2.0000      -3.663399       -99.6861
  19   2.0000      -2.315346       -63.0038
  20   2.0000      -2.304208       -62.7007
  21   2.0000      -2.273851       -61.8746
  22   2.0000      -1.184400       -32.2292
  23   2.0000      -1.148754       -31.2592
  24   2.0000      -1.078480       -29.3469
  25   2.0000      -1.074987       -29.2519
  26   2.0000      -1.054307       -28.6892
  27   2.0000      -0.979049       -26.6413
  28   2.0000      -0.885272       -24.0895
  29   2.0000      -0.855713       -23.2851
  30   2.0000      -0.822754       -22.3883
  31   2.0000      -0.817570       -22.2472
  32   2.0000      -0.802485       -21.8367
  33   2.0000      -0.791505       -21.5380
  34   2.0000      -0.720752       -19.6127
  35   2.0000      -0.699348       -19.0302
  36   2.0000      -0.679592       -18.4926
  37   2.0000      -0.612799       -16.6751
  38   2.0000      -0.603790       -16.4300
  39   2.0000      -0.588091       -16.0028
  40   2.0000      -0.572781       -15.5862
  41   2.0000      -0.570777       -15.5316
  42   2.0000      -0.562057       -15.2944
  43   2.0000      -0.536169       -14.5899
  44   2.0000      -0.533259       -14.5107
  45   2.0000      -0.527047       -14.3417
  46   2.0000      -0.524796       -14.2804
  47   2.0000      -0.515353       -14.0235
  48   2.0000      -0.508852       -13.8466
  49   2.0000      -0.497531       -13.5385
  50   2.0000      -0.494698       -13.4614
  51   2.0000      -0.493658       -13.4331
  52   2.0000      -0.489359       -13.3161
  53   2.0000      -0.482425       -13.1274
  54   2.0000      -0.461121       -12.5477
  55   2.0000      -0.449020       -12.2184
  56   2.0000      -0.446779       -12.1575
  57   2.0000      -0.442907       -12.0521
  58   2.0000      -0.437637       -11.9087
  59   2.0000      -0.434167       -11.8143
  60   2.0000      -0.429064       -11.6754
  61   2.0000      -0.419129       -11.4051
  62   2.0000      -0.417466       -11.3598
  63   2.0000      -0.408392       -11.1129
  64   2.0000      -0.402172       -10.9437
  65   2.0000      -0.379747       -10.3334
  66   2.0000      -0.369034       -10.0419
  67   2.0000      -0.353944        -9.6313
  68   2.0000      -0.349073        -9.4988
  69   2.0000      -0.345347        -9.3974
  70   2.0000      -0.324670        -8.8347
  71   2.0000      -0.316577        -8.6145
  72   2.0000      -0.312376        -8.5002
  73   2.0000      -0.305512        -8.3134
  74   2.0000      -0.295491        -8.0407
  75   2.0000      -0.291605        -7.9350
  76   2.0000      -0.281655        -7.6642
  77   0.0000      -0.071285        -1.9398
  78   0.0000      -0.008376        -0.2279
  79   0.0000       0.002300         0.0626
  80   0.0000       0.057444         1.5631
  81   0.0000       0.065580         1.7845

MULLIKEN ATOMIC CHARGES
-----------------------
   0 Pd:    0.570097
   1 O :   -0.500223
   2 C :    0.621120
   3 O :   -0.480929
   4 C :   -0.762373
   5 H :    0.244154
   6 H :    0.255092
   7 H :    0.251407
   8 N :   -0.476366
   9 C :   -0.548430
  10 H :    0.309359
  11 H :    0.216717
  12 H :    0.264572
  13 C :   -0.550668
  14 H :    0.267615
  15 H :    0.228749
  16 H :    0.302148
  17 C :    0.103039
  18 C :   -0.251580
  19 C :   -0.218300
  20 C :   -0.222653
  21 C :   -0.204994
  22 C :   -0.276408
  23 H :    0.229049
  24 H :    0.232973
  25 H :    0.219904
  26 H :    0.227071
  27 H :    0.242084
  28 C :   -0.337336
  29 H :    0.249356
  30 H :    0.251428
  31 O :   -0.532038
  32 C :    0.569039
  33 O :   -0.468966
  34 C :   -0.741762
  35 H :    0.233950
  36 H :    0.244486
  37 H :    0.239616
Sum of atomic charges:    0.0000000

LOEWDIN ATOMIC CHARGES
----------------------
   0 Pd:   -0.209799
   1 O :   -0.142408
   2 C :    0.167076
   3 O :   -0.229551
   4 C :   -0.380653
   5 H :    0.147486
   6 H :    0.160177
   7 H :    0.151842
   8 N :   -0.065584
   9 C :   -0.243161
  10 H :    0.168749
  11 H :    0.117006
  12 H :    0.147472
  13 C :   -0.234344
  14 H :    0.150563
  15 H :    0.123202
  16 H :    0.166270
  17 C :   -0.053311
  18 C :   -0.114177
  19 C :   -0.122958
  20 C :   -0.122392
  21 C :   -0.119299
  22 C :   -0.113351
  23 H :    0.142744
  24 H :    0.143589
  25 H :    0.141315
  26 H :    0.140300
  27 H :    0.155601
  28 C :   -0.102986
  29 H :    0.143543
  30 H :    0.145376
  31 O :   -0.175369
  32 C :    0.137386
  33 O :   -0.273450
  34 C :   -0.383015
  35 H :    0.146716
  36 H :    0.146215
  37 H :    0.143178

  Mayer bond orders larger than 0.100000
B(  0-Pd,  1-O ) :   0.6514 B(  0-Pd,  3-O ) :   0.2820 B(  0-Pd,  8-N ) :   0.4089
B(  0-Pd, 31-O ) :   0.6657 B(  1-O ,  2-C ) :   1.3013 B(  1-O ,  3-O ) :   0.1003
B(  2-C ,  3-O ) :   1.7089 B(  2-C ,  4-C ) :   0.9428 B(  4-C ,  5-H ) :   0.9138
B(  4-C ,  6-H ) :   0.9060 B(  4-C ,  7-H ) :   0.9097 B(  8-N ,  9-C ) :   0.9174
B(  8-N , 13-C ) :   0.9193 B(  8-N , 28-C ) :   0.8811 B(  9-C , 10-H ) :   0.8641
B(  9-C , 11-H ) :   0.9050 B(  9-C , 12-H ) :   0.9057 B( 13-C , 14-H ) :   0.8975
B( 13-C , 15-H ) :   0.9021 B( 13-C , 16-H ) :   0.8865 B( 17-C , 18-C ) :   1.3934
B( 17-C , 22-C ) :   1.3739 B( 17-C , 28-C ) :   0.9360 B( 18-C , 19-C ) :   1.4410
B( 18-C , 25-H ) :   0.9161 B( 19-C , 20-C ) :   1.4183 B( 19-C , 26-H ) :   0.9171
B( 20-C , 21-C ) :   1.4170 B( 20-C , 23-H ) :   0.9167 B( 21-C , 22-C ) :   1.4357
B( 21-C , 24-H ) :   0.9141 B( 22-C , 27-H ) :   0.9103 B( 28-C , 29-H ) :   0.8980
B( 28-C , 30-H ) :   0.9150 B( 31-O , 32-C ) :   1.2615 B( 32-C , 33-O ) :   1.8579
B( 32-C , 34-C ) :   0.9243 B( 34-C , 35-H ) :   0.9156 B( 34-C , 36-H ) :   0.9118
B( 34-C , 37-H ) :   0.9185

Dispersion correction           -0.026225366
FINAL SINGLE POINT ENERGY      -988.526750229338
Dispersion correction            ... done

DIPOLE MOMENT
-------------
                                X             Y             Z
Electronic contribution:     21.85865      14.90189     -18.81890
Nuclear contribution   :    -23.50524     -15.60033      19.87344
                        -----------------------------------------
Total Dipole Moment    :     -1.64659      -0.69845       1.05455
                        -----------------------------------------
Magnitude (a.u.)       :      2.07633
Magnitude (Debye)      :      5.27762

Rotational constants in cm-1:     0.014063     0.008563     0.006836
Rotational constants in MHz :   421.583229   256.699086   204.951951

                             ****ORCA TERMINATED NORMALLY****
TOTAL RUN TIME: 0 days 0 hours 11 minutes 14 seconds 672 msec
