                         Program Version 5.0.3 -  RELEASE  -
|  1> ! EnGrad PBEh-3c
|  2> %output
|  3> xyzfile=True
|  4> end
|  5> %scf
|  6> maxiter 250
|  7> end
|  8> %output
|  9> Print[P_Hirshfeld] = 1
| 10> end
| 11> % maxcore
| 12> 4000
| 13> *xyz 0 1
| 14> Pd   0.50377471   0.33539299  -0.39154292
| 15> O    2.00448947   1.32817423   0.35949115
| 16> C    1.58538425   2.53700680   0.30373785
| 17> O    0.40898764   2.76901444  -0.02266213
| 18> C    2.60503795   3.60842942   0.58711288
| 19> H    2.14747962   4.49619104   1.02270506
| 20> H    3.09731433   3.91746629  -0.34391183
| 21> H    3.39046290   3.23548705   1.24844512
| 22> N   -1.30458590  -0.60318633  -1.08457516
| 23> C   -1.13181000  -1.68946087  -2.06783570
| 24> H   -0.60039430  -1.33803816  -2.94884189
| 25> H   -2.11243188  -2.08534023  -2.34580787
| 26> H   -0.54962548  -2.49176481  -1.62888916
| 27> C   -2.06184680   0.47802448  -1.73015095
| 28> H   -2.22472145   1.29461080  -1.02906208
| 29> H   -3.03758335   0.09910122  -2.04712853
| 30> H   -1.52943505   0.86102733  -2.59709064
| 31> C   -1.61153696  -0.83292508   1.45673121
| 32> C   -1.20983276  -1.95559480   2.19020183
| 33> C   -0.97177933  -1.82002799   3.55727917
| 34> C   -1.10782545  -0.59274553   4.21717837
| 35> C   -1.45465933   0.53133175   3.46749192
| 36> C   -1.70513699   0.41428758   2.10451246
| 37> H   -0.98049971  -0.49667719   5.31025929
| 38> H   -1.59774767   1.47032588   3.96345909
| 39> H   -1.16105459  -2.94280158   1.68353248
| 40> H   -0.70797963  -2.72843937   4.10704854
| 41> H   -1.96900369   1.25552934   1.54607980
| 42> C   -2.10337351  -1.12655730   0.06886251
| 43> H   -3.14689961  -0.80676941  -0.07281327
| 44> H   -2.12944259  -2.22158050  -0.01245461
| 45> O    1.88404013  -0.83571557  -1.23601756
| 46> C    2.14279165  -0.54198634  -2.47505952
| 47> O    1.33619274  -0.11118801  -3.27835684
| 48> C    3.58329035  -0.80765732  -2.88405512
| 49> H    3.75375680  -1.87004860  -3.08992388
| 50> H    4.29920402  -0.51466826  -2.11239545
| 51> H    3.80127292  -0.25897410  -3.79970700
| 52> *
| 53>
| 54>                          ****END OF INPUT****

CARTESIAN COORDINATES (ANGSTROEM)
---------------------------------
  Pd     0.503775    0.335393   -0.391543
  O      2.004489    1.328174    0.359491
  C      1.585384    2.537007    0.303738
  O      0.408988    2.769014   -0.022662
  C      2.605038    3.608429    0.587113
  H      2.147480    4.496191    1.022705
  H      3.097314    3.917466   -0.343912
  H      3.390463    3.235487    1.248445
  N     -1.304586   -0.603186   -1.084575
  C     -1.131810   -1.689461   -2.067836
  H     -0.600394   -1.338038   -2.948842
  H     -2.112432   -2.085340   -2.345808
  H     -0.549625   -2.491765   -1.628889
  C     -2.061847    0.478024   -1.730151
  H     -2.224721    1.294611   -1.029062
  H     -3.037583    0.099101   -2.047129
  H     -1.529435    0.861027   -2.597091
  C     -1.611537   -0.832925    1.456731
  C     -1.209833   -1.955595    2.190202
  C     -0.971779   -1.820028    3.557279
  C     -1.107825   -0.592746    4.217178
  C     -1.454659    0.531332    3.467492
  C     -1.705137    0.414288    2.104512
  H     -0.980500   -0.496677    5.310259
  H     -1.597748    1.470326    3.963459
  H     -1.161055   -2.942802    1.683532
  H     -0.707980   -2.728439    4.107049
  H     -1.969004    1.255529    1.546080
  C     -2.103374   -1.126557    0.068863
  H     -3.146900   -0.806769   -0.072813
  H     -2.129443   -2.221580   -0.012455
  O      1.884040   -0.835716   -1.236018
  C      2.142792   -0.541986   -2.475060
  O      1.336193   -0.111188   -3.278357
  C      3.583290   -0.807657   -2.884055
  H      3.753757   -1.870049   -3.089924
  H      4.299204   -0.514668   -2.112395
  H      3.801273   -0.258974   -3.799707

 Total Charge           Charge          ....    0
 Multiplicity           Mult            ....    1
 Number of Electrons    NEL             ....  154
 Basis Dimension        Dim             ....  339

ORBITAL ENERGIES
----------------

  NO   OCC          E(Eh)            E(eV)
   0   2.0000     -19.496671      -530.5314
   1   2.0000     -19.474512      -529.9284
   2   2.0000     -19.472015      -529.8605
   3   2.0000     -19.434467      -528.8387
   4   2.0000     -14.719461      -400.5369
   5   2.0000     -10.559465      -287.3377
   6   2.0000     -10.533505      -286.6312
   7   2.0000     -10.504607      -285.8449
   8   2.0000     -10.483461      -285.2695
   9   2.0000     -10.481232      -285.2088
  10   2.0000     -10.472274      -284.9651
  11   2.0000     -10.470229      -284.9094
  12   2.0000     -10.469120      -284.8792
  13   2.0000     -10.467086      -284.8239
  14   2.0000     -10.465882      -284.7911
  15   2.0000     -10.464808      -284.7619
  16   2.0000     -10.434601      -283.9399
  17   2.0000     -10.413837      -283.3749
  18   2.0000      -3.662336       -99.6572
  19   2.0000      -2.314576       -62.9828
  20   2.0000      -2.302773       -62.6616
  21   2.0000      -2.272800       -61.8460
  22   2.0000      -1.186386       -32.2832
  23   2.0000      -1.149226       -31.2720
  24   2.0000      -1.076839       -29.3023
  25   2.0000      -1.074192       -29.2302
  26   2.0000      -1.053227       -28.6598
  27   2.0000      -0.974556       -26.5190
  28   2.0000      -0.885444       -24.0942
  29   2.0000      -0.854164       -23.2430
  30   2.0000      -0.820597       -22.3296
  31   2.0000      -0.820029       -22.3141
  32   2.0000      -0.800688       -21.7878
  33   2.0000      -0.792662       -21.5694
  34   2.0000      -0.720887       -19.6163
  35   2.0000      -0.700398       -19.0588
  36   2.0000      -0.677990       -18.4490
  37   2.0000      -0.613367       -16.6906
  38   2.0000      -0.604198       -16.4411
  39   2.0000      -0.585986       -15.9455
  40   2.0000      -0.571905       -15.5623
  41   2.0000      -0.569267       -15.4906
  42   2.0000      -0.563149       -15.3241
  43   2.0000      -0.537239       -14.6190
  44   2.0000      -0.533388       -14.5142
  45   2.0000      -0.528583       -14.3835
  46   2.0000      -0.525049       -14.2873
  47   2.0000      -0.516569       -14.0566
  48   2.0000      -0.508849       -13.8465
  49   2.0000      -0.498783       -13.5726
  50   2.0000      -0.494479       -13.4555
  51   2.0000      -0.493637       -13.4326
  52   2.0000      -0.489184       -13.3114
  53   2.0000      -0.481170       -13.0933
  54   2.0000      -0.460857       -12.5405
  55   2.0000      -0.450335       -12.2542
  56   2.0000      -0.444785       -12.1032
  57   2.0000      -0.440948       -11.9988
  58   2.0000      -0.438309       -11.9270
  59   2.0000      -0.432171       -11.7600
  60   2.0000      -0.429114       -11.6768
  61   2.0000      -0.418144       -11.3783
  62   2.0000      -0.416788       -11.3414
  63   2.0000      -0.409386       -11.1400
  64   2.0000      -0.404455       -11.0058
  65   2.0000      -0.379071       -10.3151
  66   2.0000      -0.368037       -10.0148
  67   2.0000      -0.353943        -9.6313
  68   2.0000      -0.349594        -9.5129
  69   2.0000      -0.345067        -9.3898
  70   2.0000      -0.323299        -8.7974
  71   2.0000      -0.315696        -8.5905
  72   2.0000      -0.311398        -8.4736
  73   2.0000      -0.303890        -8.2693
  74   2.0000      -0.294254        -8.0071
  75   2.0000      -0.290892        -7.9156
  76   2.0000      -0.280233        -7.6255
  77   0.0000      -0.069074        -1.8796
  78   0.0000      -0.010520        -0.2863
  79   0.0000       0.000562         0.0153
  80   0.0000       0.056650         1.5415
  81   0.0000       0.066973         1.8224

MULLIKEN ATOMIC CHARGES
-----------------------
   0 Pd:    0.570222
   1 O :   -0.499297
   2 C :    0.623579
   3 O :   -0.484262
   4 C :   -0.763526
   5 H :    0.245323
   6 H :    0.256573
   7 H :    0.252276
   8 N :   -0.479480
   9 C :   -0.548828
  10 H :    0.308511
  11 H :    0.216168
  12 H :    0.265234
  13 C :   -0.551033
  14 H :    0.267323
  15 H :    0.228717
  16 H :    0.302667
  17 C :    0.087115
  18 C :   -0.249653
  19 C :   -0.221904
  20 C :   -0.220000
  21 C :   -0.208637
  22 C :   -0.255777
  23 H :    0.229402
  24 H :    0.232665
  25 H :    0.221956
  26 H :    0.224965
  27 H :    0.245702
  28 C :   -0.339331
  29 H :    0.249531
  30 H :    0.250961
  31 O :   -0.535222
  32 C :    0.567070
  33 O :   -0.465036
  34 C :   -0.743065
  35 H :    0.234260
  36 H :    0.245479
  37 H :    0.239352
Sum of atomic charges:   -0.0000000

LOEWDIN ATOMIC CHARGES
----------------------
   0 Pd:   -0.215410
   1 O :   -0.139263
   2 C :    0.167789
   3 O :   -0.229340
   4 C :   -0.379984
   5 H :    0.148121
   6 H :    0.161117
   7 H :    0.152627
   8 N :   -0.064888
   9 C :   -0.242780
  10 H :    0.169223
  11 H :    0.116822
  12 H :    0.147614
  13 C :   -0.234896
  14 H :    0.149855
  15 H :    0.123143
  16 H :    0.166861
  17 C :   -0.052002
  18 C :   -0.115178
  19 C :   -0.121456
  20 C :   -0.123508
  21 C :   -0.117343
  22 C :   -0.112752
  23 H :    0.143179
  24 H :    0.143035
  25 H :    0.142327
  26 H :    0.140453
  27 H :    0.152846
  28 C :   -0.103194
  29 H :    0.143358
  30 H :    0.145787
  31 O :   -0.180211
  32 C :    0.131643
  33 O :   -0.267519
  34 C :   -0.382710
  35 H :    0.146883
  36 H :    0.146767
  37 H :    0.142984

  Mayer bond orders larger than 0.100000
B(  0-Pd,  1-O ) :   0.6460 B(  0-Pd,  3-O ) :   0.2950 B(  0-Pd,  8-N ) :   0.4120
B(  0-Pd, 31-O ) :   0.6624 B(  1-O ,  2-C ) :   1.3087 B(  2-C ,  3-O ) :   1.6946
B(  2-C ,  4-C ) :   0.9455 B(  4-C ,  5-H ) :   0.9136 B(  4-C ,  6-H ) :   0.9053
B(  4-C ,  7-H ) :   0.9089 B(  8-N ,  9-C ) :   0.9155 B(  8-N , 13-C ) :   0.9193
B(  8-N , 28-C ) :   0.8760 B(  9-C , 10-H ) :   0.8647 B(  9-C , 11-H ) :   0.9047
B(  9-C , 12-H ) :   0.9051 B( 13-C , 14-H ) :   0.8977 B( 13-C , 15-H ) :   0.9019
B( 13-C , 16-H ) :   0.8861 B( 17-C , 18-C ) :   1.3962 B( 17-C , 22-C ) :   1.3799
B( 17-C , 28-C ) :   0.9378 B( 18-C , 19-C ) :   1.4325 B( 18-C , 25-H ) :   0.9158
B( 19-C , 20-C ) :   1.4183 B( 19-C , 26-H ) :   0.9177 B( 20-C , 21-C ) :   1.4126
B( 20-C , 23-H ) :   0.9169 B( 21-C , 22-C ) :   1.4415 B( 21-C , 24-H ) :   0.9150
B( 22-C , 27-H ) :   0.9083 B( 28-C , 29-H ) :   0.8976 B( 28-C , 30-H ) :   0.9162
B( 31-O , 32-C ) :   1.2607 B( 32-C , 33-O ) :   1.8635 B( 32-C , 34-C ) :   0.9265
B( 34-C , 35-H ) :   0.9154 B( 34-C , 36-H ) :   0.9116 B( 34-C , 37-H ) :   0.9189

Dispersion correction           -0.026256722
FINAL SINGLE POINT ENERGY      -988.527386853356
Dispersion correction            ... done

DIPOLE MOMENT
-------------
                                X             Y             Z
Electronic contribution:     21.75411      15.23112     -19.08091
Nuclear contribution   :    -23.38637     -15.88212      20.12686
                        -----------------------------------------
Total Dipole Moment    :     -1.63226      -0.65100       1.04595
                        -----------------------------------------
Magnitude (a.u.)       :      2.04502
Magnitude (Debye)      :      5.19802

Rotational constants in cm-1:     0.014105     0.008569     0.006851
Rotational constants in MHz :   422.848137   256.905595   205.401888

                             ****ORCA TERMINATED NORMALLY****
TOTAL RUN TIME: 0 days 0 hours 12 minutes 25 seconds 411 msec
