                         Program Version 5.0.3 -  RELEASE  -
|  1> ! EnGrad PBEh-3c
|  2> %output
|  3> xyzfile=True
|  4> end
|  5> %scf
|  6> maxiter 250
|  7> end
|  8> %output
|  9> Print[P_Hirshfeld] = 1
| 10> end
| 11> % maxcore
| 12> 4000
| 13> *xyz 0 1
| 14> Pd   0.49502354   0.33939343  -0.39740838
| 15> O    2.01635823   1.32423850   0.33277013
| 16> C    1.58120651   2.53246762   0.30554513
| 17> O    0.41102129   2.74305267   0.00424564
| 18> C    2.59767351   3.61012644   0.58644875
| 19> H    2.13904560   4.49462204   1.02229620
| 20> H    3.08865975   3.91085888  -0.34318082
| 21> H    3.37696675   3.23415010   1.24295722
| 22> N   -1.29369559  -0.58880961  -1.07207329
| 23> C   -1.12646117  -1.68091704  -2.06264772
| 24> H   -0.59919834  -1.32863507  -2.95228106
| 25> H   -2.11153670  -2.08509236  -2.35141973
| 26> H   -0.54140819  -2.48747611  -1.62583439
| 27> C   -2.05725499   0.48688314  -1.73107990
| 28> H   -2.22412793   1.30292215  -1.03459282
| 29> H   -3.03653359   0.11411806  -2.05684249
| 30> H   -1.52220725   0.86919499  -2.59971141
| 31> C   -1.60814241  -0.83848903   1.45938527
| 32> C   -1.20954221  -1.94777210   2.19177369
| 33> C   -0.96771130  -1.83380197   3.56744113
| 34> C   -1.10990479  -0.58095354   4.21506030
| 35> C   -1.44715766   0.52793037   3.46291080
| 36> C   -1.71221378   0.41973701   2.10486879
| 37> H   -0.97210369  -0.50209412   5.30179539
| 38> H   -1.59497133   1.48139399   3.95087655
| 39> H   -1.14658254  -2.93934050   1.69933613
| 40> H   -0.70114881  -2.74151751   4.12562138
| 41> H   -1.99041669   1.23147970   1.52737356
| 42> C   -2.09730712  -1.12461962   0.07425386
| 43> H   -3.13312284  -0.80515850  -0.07077014
| 44> H   -2.12236095  -2.21588965  -0.02844719
| 45> O    1.87181907  -0.85384943  -1.24463159
| 46> C    2.14700432  -0.55110660  -2.47279269
| 47> O    1.34207971  -0.09272186  -3.27113045
| 48> C    3.57890074  -0.81270358  -2.88478090
| 49> H    3.74273418  -1.87117885  -3.07657246
| 50> H    4.28300869  -0.52191232  -2.11073978
| 51> H    3.80103988  -0.26561639  -3.79626318
| 52> *
| 53>
| 54>                          ****END OF INPUT****

CARTESIAN COORDINATES (ANGSTROEM)
---------------------------------
  Pd     0.495024    0.339393   -0.397408
  O      2.016358    1.324239    0.332770
  C      1.581207    2.532468    0.305545
  O      0.411021    2.743053    0.004246
  C      2.597674    3.610126    0.586449
  H      2.139046    4.494622    1.022296
  H      3.088660    3.910859   -0.343181
  H      3.376967    3.234150    1.242957
  N     -1.293696   -0.588810   -1.072073
  C     -1.126461   -1.680917   -2.062648
  H     -0.599198   -1.328635   -2.952281
  H     -2.111537   -2.085092   -2.351420
  H     -0.541408   -2.487476   -1.625834
  C     -2.057255    0.486883   -1.731080
  H     -2.224128    1.302922   -1.034593
  H     -3.036534    0.114118   -2.056842
  H     -1.522207    0.869195   -2.599711
  C     -1.608142   -0.838489    1.459385
  C     -1.209542   -1.947772    2.191774
  C     -0.967711   -1.833802    3.567441
  C     -1.109905   -0.580954    4.215060
  C     -1.447158    0.527930    3.462911
  C     -1.712214    0.419737    2.104869
  H     -0.972104   -0.502094    5.301795
  H     -1.594971    1.481394    3.950877
  H     -1.146583   -2.939341    1.699336
  H     -0.701149   -2.741518    4.125621
  H     -1.990417    1.231480    1.527374
  C     -2.097307   -1.124620    0.074254
  H     -3.133123   -0.805158   -0.070770
  H     -2.122361   -2.215890   -0.028447
  O      1.871819   -0.853849   -1.244632
  C      2.147004   -0.551107   -2.472793
  O      1.342080   -0.092722   -3.271130
  C      3.578901   -0.812704   -2.884781
  H      3.742734   -1.871179   -3.076572
  H      4.283009   -0.521912   -2.110740
  H      3.801040   -0.265616   -3.796263

 Total Charge           Charge          ....    0
 Multiplicity           Mult            ....    1
 Number of Electrons    NEL             ....  154
 Basis Dimension        Dim             ....  339

ORBITAL ENERGIES
----------------

  NO   OCC          E(Eh)            E(eV)
   0   2.0000     -19.493475      -530.4444
   1   2.0000     -19.474494      -529.9279
   2   2.0000     -19.471951      -529.8587
   3   2.0000     -19.430363      -528.7271
   4   2.0000     -14.721277      -400.5863
   5   2.0000     -10.558227      -287.3040
   6   2.0000     -10.530635      -286.5531
   7   2.0000     -10.503559      -285.8164
   8   2.0000     -10.484559      -285.2993
   9   2.0000     -10.480161      -285.1797
  10   2.0000     -10.474486      -285.0253
  11   2.0000     -10.470049      -284.9045
  12   2.0000     -10.469098      -284.8786
  13   2.0000     -10.468915      -284.8737
  14   2.0000     -10.465806      -284.7891
  15   2.0000     -10.464603      -284.7563
  16   2.0000     -10.433427      -283.9080
  17   2.0000     -10.411064      -283.2995
  18   2.0000      -3.661728       -99.6407
  19   2.0000      -2.314253       -62.9740
  20   2.0000      -2.301701       -62.6325
  21   2.0000      -2.272305       -61.8326
  22   2.0000      -1.190841       -32.4044
  23   2.0000      -1.146498       -31.1978
  24   2.0000      -1.078278       -29.3414
  25   2.0000      -1.074294       -29.2330
  26   2.0000      -1.048788       -28.5390
  27   2.0000      -0.974268       -26.5112
  28   2.0000      -0.886100       -24.1120
  29   2.0000      -0.853327       -23.2202
  30   2.0000      -0.820998       -22.3405
  31   2.0000      -0.818976       -22.2855
  32   2.0000      -0.800342       -21.7784
  33   2.0000      -0.794510       -21.6197
  34   2.0000      -0.722069       -19.6485
  35   2.0000      -0.700268       -19.0553
  36   2.0000      -0.678321       -18.4581
  37   2.0000      -0.612466       -16.6661
  38   2.0000      -0.603742       -16.4287
  39   2.0000      -0.583942       -15.8899
  40   2.0000      -0.571571       -15.5532
  41   2.0000      -0.568690       -15.4748
  42   2.0000      -0.563405       -15.3310
  43   2.0000      -0.538902       -14.6643
  44   2.0000      -0.532009       -14.4767
  45   2.0000      -0.530049       -14.4234
  46   2.0000      -0.526262       -14.3203
  47   2.0000      -0.518166       -14.1000
  48   2.0000      -0.507473       -13.8091
  49   2.0000      -0.498960       -13.5774
  50   2.0000      -0.494787       -13.4638
  51   2.0000      -0.492354       -13.3976
  52   2.0000      -0.488014       -13.2795
  53   2.0000      -0.480038       -13.0625
  54   2.0000      -0.461734       -12.5644
  55   2.0000      -0.452187       -12.3046
  56   2.0000      -0.444442       -12.0939
  57   2.0000      -0.440403       -11.9840
  58   2.0000      -0.438491       -11.9319
  59   2.0000      -0.431131       -11.7317
  60   2.0000      -0.428905       -11.6711
  61   2.0000      -0.417083       -11.3494
  62   2.0000      -0.415175       -11.2975
  63   2.0000      -0.410473       -11.1695
  64   2.0000      -0.407982       -11.1017
  65   2.0000      -0.378319       -10.2946
  66   2.0000      -0.365994        -9.9592
  67   2.0000      -0.355122        -9.6634
  68   2.0000      -0.350121        -9.5273
  69   2.0000      -0.344892        -9.3850
  70   2.0000      -0.322217        -8.7680
  71   2.0000      -0.315252        -8.5785
  72   2.0000      -0.312709        -8.5092
  73   2.0000      -0.302362        -8.2277
  74   2.0000      -0.293568        -7.9884
  75   2.0000      -0.289704        -7.8832
  76   2.0000      -0.277609        -7.5541
  77   0.0000      -0.067838        -1.8460
  78   0.0000      -0.012469        -0.3393
  79   0.0000       0.002537         0.0690
  80   0.0000       0.058161         1.5826
  81   0.0000       0.068042         1.8515

MULLIKEN ATOMIC CHARGES
-----------------------
   0 Pd:    0.570233
   1 O :   -0.503408
   2 C :    0.621531
   3 O :   -0.472493
   4 C :   -0.764592
   5 H :    0.244266
   6 H :    0.257307
   7 H :    0.254021
   8 N :   -0.486213
   9 C :   -0.549970
  10 H :    0.308857
  11 H :    0.215463
  12 H :    0.266423
  13 C :   -0.552240
  14 H :    0.267254
  15 H :    0.229923
  16 H :    0.304156
  17 C :    0.089681
  18 C :   -0.259412
  19 C :   -0.221253
  20 C :   -0.223354
  21 C :   -0.206614
  22 C :   -0.246365
  23 H :    0.229854
  24 H :    0.229017
  25 H :    0.220447
  26 H :    0.227744
  27 H :    0.245807
  28 C :   -0.338628
  29 H :    0.251505
  30 H :    0.252985
  31 O :   -0.533595
  32 C :    0.566068
  33 O :   -0.473862
  34 C :   -0.742996
  35 H :    0.234910
  36 H :    0.246867
  37 H :    0.240675
Sum of atomic charges:   -0.0000000

LOEWDIN ATOMIC CHARGES
----------------------
   0 Pd:   -0.221515
   1 O :   -0.145478
   2 C :    0.161662
   3 O :   -0.210485
   4 C :   -0.380582
   5 H :    0.147449
   6 H :    0.161164
   7 H :    0.153285
   8 N :   -0.061626
   9 C :   -0.241950
  10 H :    0.169815
  11 H :    0.116897
  12 H :    0.148208
  13 C :   -0.234749
  14 H :    0.149161
  15 H :    0.123958
  16 H :    0.167972
  17 C :   -0.053344
  18 C :   -0.115634
  19 C :   -0.120397
  20 C :   -0.123227
  21 C :   -0.118528
  22 C :   -0.110119
  23 H :    0.142668
  24 H :    0.143242
  25 H :    0.141410
  26 H :    0.141533
  27 H :    0.151909
  28 C :   -0.102721
  29 H :    0.143840
  30 H :    0.146736
  31 O :   -0.180679
  32 C :    0.130031
  33 O :   -0.276456
  34 C :   -0.381695
  35 H :    0.147076
  36 H :    0.147467
  37 H :    0.143703

  Mayer bond orders larger than 0.100000
B(  0-Pd,  1-O ) :   0.6494 B(  0-Pd,  3-O ) :   0.3004 B(  0-Pd,  8-N ) :   0.4164
B(  0-Pd, 31-O ) :   0.6524 B(  1-O ,  2-C ) :   1.2997 B(  2-C ,  3-O ) :   1.7052
B(  2-C ,  4-C ) :   0.9467 B(  4-C ,  5-H ) :   0.9141 B(  4-C ,  6-H ) :   0.9053
B(  4-C ,  7-H ) :   0.9083 B(  8-N ,  9-C ) :   0.9124 B(  8-N , 13-C ) :   0.9174
B(  8-N , 28-C ) :   0.8728 B(  9-C , 10-H ) :   0.8640 B(  9-C , 11-H ) :   0.9042
B(  9-C , 12-H ) :   0.9041 B( 13-C , 14-H ) :   0.8975 B( 13-C , 15-H ) :   0.9018
B( 13-C , 16-H ) :   0.8851 B( 17-C , 18-C ) :   1.4003 B( 17-C , 22-C ) :   1.3786
B( 17-C , 28-C ) :   0.9396 B( 18-C , 19-C ) :   1.4308 B( 18-C , 25-H ) :   0.9175
B( 19-C , 20-C ) :   1.4158 B( 19-C , 22-C ) :   0.1001 B( 19-C , 26-H ) :   0.9165
B( 20-C , 21-C ) :   1.4141 B( 20-C , 23-H ) :   0.9168 B( 21-C , 22-C ) :   1.4388
B( 21-C , 24-H ) :   0.9172 B( 22-C , 27-H ) :   0.9072 B( 28-C , 29-H ) :   0.8976
B( 28-C , 30-H ) :   0.9160 B( 31-O , 32-C ) :   1.2725 B( 32-C , 33-O ) :   1.8503
B( 32-C , 34-C ) :   0.9308 B( 34-C , 35-H ) :   0.9149 B( 34-C , 36-H ) :   0.9109
B( 34-C , 37-H ) :   0.9193

Dispersion correction           -0.026287961
FINAL SINGLE POINT ENERGY      -988.527778504592
Dispersion correction            ... done

DIPOLE MOMENT
-------------
                                X             Y             Z
Electronic contribution:     21.21135      15.49764     -19.39921
Nuclear contribution   :    -22.88423     -16.11968      20.45427
                        -----------------------------------------
Total Dipole Moment    :     -1.67288      -0.62204       1.05505
                        -----------------------------------------
Magnitude (a.u.)       :      2.07331
Magnitude (Debye)      :      5.26992

Rotational constants in cm-1:     0.014164     0.008573     0.006866
Rotational constants in MHz :   424.634394   257.009039   205.849081

                             ****ORCA TERMINATED NORMALLY****
TOTAL RUN TIME: 0 days 0 hours 11 minutes 23 seconds 214 msec
