                         Program Version 5.0.3 -  RELEASE  -
|  1> ! EnGrad PBEh-3c
|  2> %output
|  3> xyzfile=True
|  4> end
|  5> %scf
|  6> maxiter 250
|  7> end
|  8> %output
|  9> Print[P_Hirshfeld] = 1
| 10> end
| 11> % maxcore
| 12> 4000
| 13> *xyz 0 1
| 14> Pd   0.43373568   0.35257465  -0.36144658
| 15> O    2.01551201   1.38091471   0.59794409
| 16> C    1.65937046   2.61253992   0.30762517
| 17> O    0.56608105   2.83124586  -0.13277973
| 18> C    2.65340036   3.71454357   0.58608291
| 19> H    2.13711771   4.56987594   1.02588144
| 20> H    3.07522062   4.03881905  -0.36253457
| 21> H    3.46363135   3.41309289   1.23861270
| 22> N   -1.34183596  -0.63215055  -1.08844065
| 23> C   -1.25434484  -1.56681326  -2.21882441
| 24> H   -0.85321067  -1.09946704  -3.10487071
| 25> H   -2.24939748  -1.90651336  -2.53934286
| 26> H   -0.64512845  -2.42033714  -1.96580935
| 27> C   -2.16894615   0.48122725  -1.58586780
| 28> H   -2.29672400   1.24934823  -0.84707081
| 29> H   -3.16942110   0.14945813  -1.88804277
| 30> H   -1.70362938   0.93897713  -2.45272559
| 31> C   -1.50887698  -1.02498951   1.37254435
| 32> C   -0.84352640  -2.01006385   2.15292245
| 33> C   -0.72318198  -1.88846520   3.52275436
| 34> C   -1.11399886  -0.72843776   4.14247451
| 35> C   -1.78375961   0.25702936   3.39738304
| 36> C   -1.87482930   0.13089209   2.04286793
| 37> H   -0.98971307  -0.60651397   5.21589675
| 38> H   -2.31493223   0.99142516   3.97006041
| 39> H   -0.58580665  -2.96351448   1.72190001
| 40> H   -0.34369831  -2.71495808   4.11523736
| 41> H   -2.36935213   3.14584678   1.67975813
| 42> C   -2.04980448  -1.34682535   0.02540309
| 43> H   -3.12346027  -1.11039619   0.05861732
| 44> H   -2.04783595  -2.42984412  -0.10412260
| 45> O    1.89582146  -0.68661976  -1.17663727
| 46> C    2.25956323  -0.51128799  -2.42032161
| 47> O    1.55537356  -0.03459696  -3.26035366
| 48> C    3.64090731  -1.03547155  -2.83315321
| 49> H    3.62455562  -2.12180636  -2.90934569
| 50> H    4.40303893  -0.77898445  -2.11975920
| 51> H    3.97295025  -0.63890243  -3.80234664
| 52> *
| 53>
| 54>                          ****END OF INPUT****

CARTESIAN COORDINATES (ANGSTROEM)
---------------------------------
  Pd     0.433736    0.352575   -0.361447
  O      2.015512    1.380915    0.597944
  C      1.659370    2.612540    0.307625
  O      0.566081    2.831246   -0.132780
  C      2.653400    3.714544    0.586083
  H      2.137118    4.569876    1.025881
  H      3.075221    4.038819   -0.362535
  H      3.463631    3.413093    1.238613
  N     -1.341836   -0.632151   -1.088441
  C     -1.254345   -1.566813   -2.218824
  H     -0.853211   -1.099467   -3.104871
  H     -2.249397   -1.906513   -2.539343
  H     -0.645128   -2.420337   -1.965809
  C     -2.168946    0.481227   -1.585868
  H     -2.296724    1.249348   -0.847071
  H     -3.169421    0.149458   -1.888043
  H     -1.703629    0.938977   -2.452726
  C     -1.508877   -1.024990    1.372544
  C     -0.843526   -2.010064    2.152922
  C     -0.723182   -1.888465    3.522754
  C     -1.113999   -0.728438    4.142475
  C     -1.783760    0.257029    3.397383
  C     -1.874829    0.130892    2.042868
  H     -0.989713   -0.606514    5.215897
  H     -2.314932    0.991425    3.970060
  H     -0.585807   -2.963514    1.721900
  H     -0.343698   -2.714958    4.115237
  H     -2.369352    3.145847    1.679758
  C     -2.049804   -1.346825    0.025403
  H     -3.123460   -1.110396    0.058617
  H     -2.047836   -2.429844   -0.104123
  O      1.895821   -0.686620   -1.176637
  C      2.259563   -0.511288   -2.420322
  O      1.555374   -0.034597   -3.260354
  C      3.640907   -1.035472   -2.833153
  H      3.624556   -2.121806   -2.909346
  H      4.403039   -0.778984   -2.119759
  H      3.972950   -0.638902   -3.802347

 Total Charge           Charge          ....    0
 Multiplicity           Mult            ....    1
 Number of Electrons    NEL             ....  154
 Basis Dimension        Dim             ....  339

ORBITAL ENERGIES
----------------

  NO   OCC          E(Eh)            E(eV)
   0   2.0000     -19.474294      -529.9225
   1   2.0000     -19.471736      -529.8529
   2   2.0000     -19.453040      -529.3441
   3   2.0000     -19.428118      -528.6660
   4   2.0000     -14.730895      -400.8480
   5   2.0000     -10.537915      -286.7512
   6   2.0000     -10.529333      -286.5177
   7   2.0000     -10.525410      -286.4110
   8   2.0000     -10.516521      -286.1691
   9   2.0000     -10.505429      -285.8673
  10   2.0000     -10.486304      -285.3468
  11   2.0000     -10.483999      -285.2841
  12   2.0000     -10.481527      -285.2168
  13   2.0000     -10.480627      -285.1924
  14   2.0000     -10.479924      -285.1732
  15   2.0000     -10.474212      -285.0178
  16   2.0000     -10.419701      -283.5345
  17   2.0000     -10.413575      -283.3678
  18   2.0000      -3.660775       -99.6147
  19   2.0000      -2.310234       -62.8647
  20   2.0000      -2.303275       -62.6753
  21   2.0000      -2.270836       -61.7926
  22   2.0000      -1.168951       -31.8088
  23   2.0000      -1.151208       -31.3260
  24   2.0000      -1.085072       -29.5263
  25   2.0000      -1.052702       -28.6455
  26   2.0000      -1.049390       -28.5554
  27   2.0000      -0.996196       -27.1079
  28   2.0000      -0.903697       -24.5909
  29   2.0000      -0.866809       -23.5871
  30   2.0000      -0.823915       -22.4199
  31   2.0000      -0.814427       -22.1617
  32   2.0000      -0.805398       -21.9160
  33   2.0000      -0.790926       -21.5222
  34   2.0000      -0.732206       -19.9243
  35   2.0000      -0.711521       -19.3615
  36   2.0000      -0.683959       -18.6115
  37   2.0000      -0.609947       -16.5975
  38   2.0000      -0.591865       -16.1055
  39   2.0000      -0.583767       -15.8851
  40   2.0000      -0.582746       -15.8573
  41   2.0000      -0.578170       -15.7328
  42   2.0000      -0.566814       -15.4238
  43   2.0000      -0.544489       -14.8163
  44   2.0000      -0.533664       -14.5217
  45   2.0000      -0.517822       -14.0907
  46   2.0000      -0.509570       -13.8661
  47   2.0000      -0.508119       -13.8266
  48   2.0000      -0.504074       -13.7165
  49   2.0000      -0.499952       -13.6044
  50   2.0000      -0.491749       -13.3812
  51   2.0000      -0.488180       -13.2841
  52   2.0000      -0.483234       -13.1495
  53   2.0000      -0.476972       -12.9791
  54   2.0000      -0.463231       -12.6052
  55   2.0000      -0.447976       -12.1900
  56   2.0000      -0.447420       -12.1749
  57   2.0000      -0.441717       -12.0197
  58   2.0000      -0.436814       -11.8863
  59   2.0000      -0.433853       -11.8057
  60   2.0000      -0.427809       -11.6413
  61   2.0000      -0.425024       -11.5655
  62   2.0000      -0.414212       -11.2713
  63   2.0000      -0.405095       -11.0232
  64   2.0000      -0.375717       -10.2238
  65   2.0000      -0.371409       -10.1066
  66   2.0000      -0.344781        -9.3820
  67   2.0000      -0.341764        -9.2999
  68   2.0000      -0.338221        -9.2035
  69   2.0000      -0.328861        -8.9488
  70   2.0000      -0.323111        -8.7923
  71   2.0000      -0.309851        -8.4315
  72   2.0000      -0.302071        -8.2198
  73   2.0000      -0.294399        -8.0110
  74   2.0000      -0.281378        -7.6567
  75   2.0000      -0.273905        -7.4533
  76   2.0000      -0.265020        -7.2116
  77   0.0000      -0.158235        -4.3058
  78   0.0000      -0.079954        -2.1757
  79   0.0000      -0.025550        -0.6952
  80   0.0000      -0.007516        -0.2045
  81   0.0000       0.066813         1.8181

MULLIKEN ATOMIC CHARGES
-----------------------
   0 Pd:    0.496638
   1 O :   -0.505996
   2 C :    0.604483
   3 O :   -0.446717
   4 C :   -0.757992
   5 H :    0.240445
   6 H :    0.249529
   7 H :    0.247270
   8 N :   -0.480037
   9 C :   -0.541219
  10 H :    0.303626
  11 H :    0.219312
  12 H :    0.264306
  13 C :   -0.568662
  14 H :    0.293994
  15 H :    0.232732
  16 H :    0.298096
  17 C :   -0.057478
  18 C :   -0.204621
  19 C :   -0.216611
  20 C :   -0.208269
  21 C :   -0.265216
  22 C :    0.044846
  23 H :    0.244736
  24 H :    0.261189
  25 H :    0.231841
  26 H :    0.242549
  27 H :    0.014767
  28 C :   -0.311085
  29 H :    0.261743
  30 H :    0.262836
  31 O :   -0.538802
  32 C :    0.554656
  33 O :   -0.440385
  34 C :   -0.742963
  35 H :    0.230762
  36 H :    0.245161
  37 H :    0.240535
Sum of atomic charges:   -0.0000000

LOEWDIN ATOMIC CHARGES
----------------------
   0 Pd:   -0.240322
   1 O :   -0.196842
   2 C :    0.143743
   3 O :   -0.193363
   4 C :   -0.382847
   5 H :    0.148075
   6 H :    0.156659
   7 H :    0.145864
   8 N :   -0.054913
   9 C :   -0.240405
  10 H :    0.163496
  11 H :    0.119300
  12 H :    0.146041
  13 C :   -0.241149
  14 H :    0.159253
  15 H :    0.125055
  16 H :    0.164536
  17 C :   -0.064526
  18 C :   -0.093454
  19 C :   -0.125541
  20 C :   -0.111786
  21 C :   -0.133544
  22 C :    0.030449
  23 H :    0.147942
  24 H :    0.158153
  25 H :    0.150988
  26 H :    0.147953
  27 H :    0.014483
  28 C :   -0.099204
  29 H :    0.152296
  30 H :    0.150648
  31 O :   -0.172669
  32 C :    0.123452
  33 O :   -0.245012
  34 C :   -0.384231
  35 H :    0.144614
  36 H :    0.143375
  37 H :    0.143431

  Mayer bond orders larger than 0.100000
B(  0-Pd,  1-O ) :   0.6632 B(  0-Pd,  3-O ) :   0.2475 B(  0-Pd,  8-N ) :   0.4024
B(  0-Pd, 31-O ) :   0.6893 B(  1-O ,  2-C ) :   1.2788 B(  2-C ,  3-O ) :   1.7676
B(  2-C ,  4-C ) :   0.9383 B(  4-C ,  5-H ) :   0.9158 B(  4-C ,  6-H ) :   0.9103
B(  4-C ,  7-H ) :   0.9123 B(  8-N ,  9-C ) :   0.9213 B(  8-N , 13-C ) :   0.9142
B(  8-N , 28-C ) :   0.8884 B(  9-C , 10-H ) :   0.8802 B(  9-C , 11-H ) :   0.9022
B(  9-C , 12-H ) :   0.9091 B( 13-C , 14-H ) :   0.8806 B( 13-C , 15-H ) :   0.9018
B( 13-C , 16-H ) :   0.8880 B( 17-C , 18-C ) :   1.3792 B( 17-C , 22-C ) :   1.4156
B( 17-C , 28-C ) :   0.9459 B( 18-C , 19-C ) :   1.4458 B( 18-C , 25-H ) :   0.9073
B( 19-C , 20-C ) :   1.4318 B( 19-C , 26-H ) :   0.9077 B( 20-C , 21-C ) :   1.3823
B( 20-C , 23-H ) :   0.9052 B( 21-C , 22-C ) :   1.4754 B( 21-C , 24-H ) :   0.9012
B( 22-C , 27-H ) :   0.7387 B( 28-C , 29-H ) :   0.8955 B( 28-C , 30-H ) :   0.9120
B( 31-O , 32-C ) :   1.2356 B( 32-C , 33-O ) :   1.9049 B( 32-C , 34-C ) :   0.9281
B( 34-C , 35-H ) :   0.9168 B( 34-C , 36-H ) :   0.9098 B( 34-C , 37-H ) :   0.9206

Dispersion correction           -0.025632904
FINAL SINGLE POINT ENERGY      -988.237511727985
Dispersion correction            ... done

DIPOLE MOMENT
-------------
                                X             Y             Z
Electronic contribution:     17.09988      15.40033     -17.33579
Nuclear contribution   :    -19.21726     -17.01093      18.58888
                        -----------------------------------------
Total Dipole Moment    :     -2.11738      -1.61060       1.25309
                        -----------------------------------------
Magnitude (a.u.)       :      2.94068
Magnitude (Debye)      :      7.47461

Rotational constants in cm-1:     0.013388     0.008413     0.006815
Rotational constants in MHz :   401.354753   252.220386   204.301878

                             ****ORCA TERMINATED NORMALLY****
TOTAL RUN TIME: 0 days 0 hours 19 minutes 50 seconds 785 msec
