                         Program Version 5.0.3 -  RELEASE  -
|  1> ! EnGrad PBEh-3c
|  2> %output
|  3> xyzfile=True
|  4> end
|  5> %scf
|  6> maxiter 250
|  7> end
|  8> %output
|  9> Print[P_Hirshfeld] = 1
| 10> end
| 11> % maxcore
| 12> 4000
| 13> *xyz 0 1
| 14> Pd   0.48674927   0.34060013  -0.40112650
| 15> O    2.02635221   1.32365203   0.31355811
| 16> C    1.59564500   2.52421081   0.30659408
| 17> O    0.39862455   2.73039221   0.02014701
| 18> C    2.59058232   3.61214125   0.58613055
| 19> H    2.13476892   4.49485118   1.02318722
| 20> H    3.07993828   3.90343498  -0.34307862
| 21> H    3.36720148   3.23262737   1.24079491
| 22> N   -1.28409150  -0.58186614  -1.06865370
| 23> C   -1.12094306  -1.68047749  -2.05799651
| 24> H   -0.60329917  -1.32347779  -2.94967105
| 25> H   -2.10645409  -2.08500983  -2.35669775
| 26> H   -0.53463953  -2.49039717  -1.62205604
| 27> C   -2.05489240   0.49130660  -1.73160810
| 28> H   -2.22625124   1.30777908  -1.03537287
| 29> H   -3.03639629   0.12398117  -2.06134918
| 30> H   -1.51867356   0.87150695  -2.59961316
| 31> C   -1.61254274  -0.85411345   1.45781018
| 32> C   -1.21470516  -1.94216378   2.21304840
| 33> C   -0.97032956  -1.83949812   3.57418289
| 34> C   -1.11293574  -0.59705814   4.20576676
| 35> C   -1.44533495   0.52653153   3.47025362
| 36> C   -1.71241558   0.42798080   2.09219283
| 37> H   -0.96880593  -0.51903353   5.27860985
| 38> H   -1.58364825   1.48399595   3.93712724
| 39> H   -1.14183334  -2.91561052   1.72694379
| 40> H   -0.68838218  -2.74660597   4.14186612
| 41> H   -2.00729229   1.24438666   1.50643520
| 42> C   -2.08809255  -1.12182245   0.07578353
| 43> H   -3.12076897  -0.80113611  -0.06420045
| 44> H   -2.11808069  -2.20982352  -0.04428128
| 45> O    1.86456292  -0.86718513  -1.24389245
| 46> C    2.13932049  -0.55326414  -2.47913154
| 47> O    1.35520162  -0.08617767  -3.26043192
| 48> C    3.57804990  -0.81503041  -2.88789547
| 49> H    3.73616476  -1.87133167  -3.06952144
| 50> H    4.26946292  -0.52333823  -2.10909164
| 51> H    3.80307317  -0.26639534  -3.79633045
| 52> *
| 53>
| 54>                          ****END OF INPUT****

CARTESIAN COORDINATES (ANGSTROEM)
---------------------------------
  Pd     0.486749    0.340600   -0.401126
  O      2.026352    1.323652    0.313558
  C      1.595645    2.524211    0.306594
  O      0.398625    2.730392    0.020147
  C      2.590582    3.612141    0.586131
  H      2.134769    4.494851    1.023187
  H      3.079938    3.903435   -0.343079
  H      3.367201    3.232627    1.240795
  N     -1.284091   -0.581866   -1.068654
  C     -1.120943   -1.680477   -2.057997
  H     -0.603299   -1.323478   -2.949671
  H     -2.106454   -2.085010   -2.356698
  H     -0.534640   -2.490397   -1.622056
  C     -2.054892    0.491307   -1.731608
  H     -2.226251    1.307779   -1.035373
  H     -3.036396    0.123981   -2.061349
  H     -1.518674    0.871507   -2.599613
  C     -1.612543   -0.854113    1.457810
  C     -1.214705   -1.942164    2.213048
  C     -0.970330   -1.839498    3.574183
  C     -1.112936   -0.597058    4.205767
  C     -1.445335    0.526532    3.470254
  C     -1.712416    0.427981    2.092193
  H     -0.968806   -0.519034    5.278610
  H     -1.583648    1.483996    3.937127
  H     -1.141833   -2.915611    1.726944
  H     -0.688382   -2.746606    4.141866
  H     -2.007292    1.244387    1.506435
  C     -2.088093   -1.121822    0.075784
  H     -3.120769   -0.801136   -0.064200
  H     -2.118081   -2.209824   -0.044281
  O      1.864563   -0.867185   -1.243892
  C      2.139320   -0.553264   -2.479132
  O      1.355202   -0.086178   -3.260432
  C      3.578050   -0.815030   -2.887895
  H      3.736165   -1.871332   -3.069521
  H      4.269463   -0.523338   -2.109092
  H      3.803073   -0.266395   -3.796330

 Total Charge           Charge          ....    0
 Multiplicity           Mult            ....    1
 Number of Electrons    NEL             ....  154
 Basis Dimension        Dim             ....  339

ORBITAL ENERGIES
----------------

  NO   OCC          E(Eh)            E(eV)
   0   2.0000     -19.494568      -530.4742
   1   2.0000     -19.471393      -529.8435
   2   2.0000     -19.469100      -529.7812
   3   2.0000     -19.432948      -528.7974
   4   2.0000     -14.723303      -400.6414
   5   2.0000     -10.558436      -287.3096
   6   2.0000     -10.529059      -286.5103
   7   2.0000     -10.502419      -285.7854
   8   2.0000     -10.485560      -285.3266
   9   2.0000     -10.479545      -285.1629
  10   2.0000     -10.476320      -285.0752
  11   2.0000     -10.469389      -284.8866
  12   2.0000     -10.467288      -284.8294
  13   2.0000     -10.465695      -284.7860
  14   2.0000     -10.465087      -284.7695
  15   2.0000     -10.464613      -284.7566
  16   2.0000     -10.433302      -283.9046
  17   2.0000     -10.409185      -283.2483
  18   2.0000      -3.660769       -99.6146
  19   2.0000      -2.313348       -62.9494
  20   2.0000      -2.300533       -62.6007
  21   2.0000      -2.271285       -61.8048
  22   2.0000      -1.186604       -32.2891
  23   2.0000      -1.151149       -31.3244
  24   2.0000      -1.075611       -29.2689
  25   2.0000      -1.071501       -29.1570
  26   2.0000      -1.051903       -28.6237
  27   2.0000      -0.973551       -26.4917
  28   2.0000      -0.886999       -24.1365
  29   2.0000      -0.852832       -23.2067
  30   2.0000      -0.823751       -22.4154
  31   2.0000      -0.819159       -22.2905
  32   2.0000      -0.800237       -21.7756
  33   2.0000      -0.793567       -21.5941
  34   2.0000      -0.723230       -19.6801
  35   2.0000      -0.700946       -19.0737
  36   2.0000      -0.678143       -18.4532
  37   2.0000      -0.612691       -16.6722
  38   2.0000      -0.603895       -16.4328
  39   2.0000      -0.581006       -15.8100
  40   2.0000      -0.571841       -15.5606
  41   2.0000      -0.569113       -15.4864
  42   2.0000      -0.564444       -15.3593
  43   2.0000      -0.536700       -14.6043
  44   2.0000      -0.532000       -14.4765
  45   2.0000      -0.529045       -14.3961
  46   2.0000      -0.526408       -14.3243
  47   2.0000      -0.517370       -14.0784
  48   2.0000      -0.508152       -13.8275
  49   2.0000      -0.499100       -13.5812
  50   2.0000      -0.495296       -13.4777
  51   2.0000      -0.493218       -13.4211
  52   2.0000      -0.488547       -13.2940
  53   2.0000      -0.480479       -13.0745
  54   2.0000      -0.461463       -12.5571
  55   2.0000      -0.452245       -12.3062
  56   2.0000      -0.445135       -12.1127
  57   2.0000      -0.440662       -11.9910
  58   2.0000      -0.438294       -11.9266
  59   2.0000      -0.431456       -11.7405
  60   2.0000      -0.429736       -11.6937
  61   2.0000      -0.417149       -11.3512
  62   2.0000      -0.415468       -11.3055
  63   2.0000      -0.411525       -11.1982
  64   2.0000      -0.406496       -11.0613
  65   2.0000      -0.377451       -10.2710
  66   2.0000      -0.366622        -9.9763
  67   2.0000      -0.353729        -9.6255
  68   2.0000      -0.350408        -9.5351
  69   2.0000      -0.344367        -9.3707
  70   2.0000      -0.321088        -8.7372
  71   2.0000      -0.314541        -8.5591
  72   2.0000      -0.311582        -8.4786
  73   2.0000      -0.302429        -8.2295
  74   2.0000      -0.292844        -7.9687
  75   2.0000      -0.289604        -7.8805
  76   2.0000      -0.278456        -7.5772
  77   0.0000      -0.066071        -1.7979
  78   0.0000      -0.012356        -0.3362
  79   0.0000       0.003522         0.0958
  80   0.0000       0.056730         1.5437
  81   0.0000       0.069164         1.8821

MULLIKEN ATOMIC CHARGES
-----------------------
   0 Pd:    0.565744
   1 O :   -0.495420
   2 C :    0.626361
   3 O :   -0.491945
   4 C :   -0.764155
   5 H :    0.247355
   6 H :    0.258549
   7 H :    0.253742
   8 N :   -0.490541
   9 C :   -0.550181
  10 H :    0.307007
  11 H :    0.216722
  12 H :    0.268539
  13 C :   -0.552911
  14 H :    0.268932
  15 H :    0.231100
  16 H :    0.303861
  17 C :    0.093025
  18 C :   -0.259525
  19 C :   -0.210438
  20 C :   -0.225473
  21 C :   -0.206811
  22 C :   -0.256901
  23 H :    0.228747
  24 H :    0.230084
  25 H :    0.218456
  26 H :    0.227620
  27 H :    0.247158
  28 C :   -0.338603
  29 H :    0.253104
  30 H :    0.253277
  31 O :   -0.540658
  32 C :    0.559355
  33 O :   -0.452659
  34 C :   -0.743319
  35 H :    0.234502
  36 H :    0.247815
  37 H :    0.238484
Sum of atomic charges:   -0.0000000

LOEWDIN ATOMIC CHARGES
----------------------
   0 Pd:   -0.230431
   1 O :   -0.138676
   2 C :    0.168818
   3 O :   -0.231224
   4 C :   -0.379337
   5 H :    0.148895
   6 H :    0.162050
   7 H :    0.153841
   8 N :   -0.057913
   9 C :   -0.240509
  10 H :    0.168396
  11 H :    0.117585
  12 H :    0.149612
  13 C :   -0.234076
  14 H :    0.150108
  15 H :    0.124497
  16 H :    0.167853
  17 C :   -0.055195
  18 C :   -0.115349
  19 C :   -0.121789
  20 C :   -0.122979
  21 C :   -0.119228
  22 C :   -0.105677
  23 H :    0.141318
  24 H :    0.143427
  25 H :    0.139862
  26 H :    0.142765
  27 H :    0.152621
  28 C :   -0.103581
  29 H :    0.144850
  30 H :    0.147106
  31 O :   -0.191338
  32 C :    0.121993
  33 O :   -0.251653
  34 C :   -0.383152
  35 H :    0.146381
  36 H :    0.147587
  37 H :    0.142539

  Mayer bond orders larger than 0.100000
B(  0-Pd,  1-O ) :   0.6323 B(  0-Pd,  3-O ) :   0.3178 B(  0-Pd,  8-N ) :   0.4223
B(  0-Pd, 31-O ) :   0.6589 B(  1-O ,  2-C ) :   1.3259 B(  2-C ,  3-O ) :   1.6665
B(  2-C ,  4-C ) :   0.9506 B(  4-C ,  5-H ) :   0.9137 B(  4-C ,  6-H ) :   0.9043
B(  4-C ,  7-H ) :   0.9078 B(  8-N ,  9-C ) :   0.9110 B(  8-N , 13-C ) :   0.9157
B(  8-N , 28-C ) :   0.8709 B(  9-C , 10-H ) :   0.8663 B(  9-C , 11-H ) :   0.9036
B(  9-C , 12-H ) :   0.9031 B( 13-C , 14-H ) :   0.8968 B( 13-C , 15-H ) :   0.9012
B( 13-C , 16-H ) :   0.8852 B( 17-C , 18-C ) :   1.4106 B( 17-C , 22-C ) :   1.3707
B( 17-C , 28-C ) :   0.9430 B( 18-C , 19-C ) :   1.4271 B( 18-C , 25-H ) :   0.9179
B( 19-C , 20-C ) :   1.4188 B( 19-C , 22-C ) :   0.1013 B( 19-C , 26-H ) :   0.9166
B( 20-C , 21-C ) :   1.4144 B( 20-C , 23-H ) :   0.9171 B( 21-C , 22-C ) :   1.4402
B( 21-C , 24-H ) :   0.9172 B( 22-C , 27-H ) :   0.9068 B( 28-C , 29-H ) :   0.8971
B( 28-C , 30-H ) :   0.9161 B( 31-O , 32-C ) :   1.2558 B( 32-C , 33-O ) :   1.8786
B( 32-C , 34-C ) :   0.9293 B( 34-C , 35-H ) :   0.9155 B( 34-C , 36-H ) :   0.9111
B( 34-C , 37-H ) :   0.9203

Dispersion correction           -0.026313579
FINAL SINGLE POINT ENERGY      -988.529300451408
Dispersion correction            ... done

DIPOLE MOMENT
-------------
                                X             Y             Z
Electronic contribution:     20.75492      15.60403     -19.67886
Nuclear contribution   :    -22.42353     -16.22013      20.66481
                        -----------------------------------------
Total Dipole Moment    :     -1.66861      -0.61610       0.98595
                        -----------------------------------------
Magnitude (a.u.)       :      2.03370
Magnitude (Debye)      :      5.16925

Rotational constants in cm-1:     0.014202     0.008568     0.006873
Rotational constants in MHz :   425.763862   256.854417   206.052789

                             ****ORCA TERMINATED NORMALLY****
TOTAL RUN TIME: 0 days 0 hours 13 minutes 53 seconds 694 msec
