                         Program Version 5.0.3 -  RELEASE  -
|  1> ! EnGrad PBEh-3c
|  2> %output
|  3> xyzfile=True
|  4> end
|  5> %scf
|  6> maxiter 250
|  7> end
|  8> %output
|  9> Print[P_Hirshfeld] = 1
| 10> end
| 11> % maxcore
| 12> 4000
| 13> *xyz 0 1
| 14> Pd   0.47107124   0.38008462  -0.32684900
| 15> O    2.00092273   1.33819519   0.57289734
| 16> C    1.62271871   2.62322286   0.32223696
| 17> O    0.56085850   2.83645217  -0.14439695
| 18> C    2.66155702   3.71231143   0.58436389
| 19> H    2.14049098   4.56587110   1.02360048
| 20> H    3.08164551   4.03729735  -0.36205538
| 21> H    3.46839057   3.40648636   1.24111636
| 22> N   -1.37041704  -0.64897517  -1.12602297
| 23> C   -1.24340444  -1.59370961  -2.22986301
| 24> H   -0.83139618  -1.10682517  -3.08981586
| 25> H   -2.24776040  -1.92095370  -2.51346814
| 26> H   -0.64236567  -2.43123006  -1.94592788
| 27> C   -2.17675022   0.49698122  -1.59128674
| 28> H   -2.29598263   1.25490876  -0.84529011
| 29> H   -3.16188902   0.13270728  -1.89337481
| 30> H   -1.69025435   0.92314710  -2.46262242
| 31> C   -1.51996747  -0.99711824   1.37716692
| 32> C   -0.88678128  -2.02841668   2.16557598
| 33> C   -0.70999804  -1.88291019   3.52095207
| 34> C   -1.13139196  -0.73561945   4.13793454
| 35> C   -1.77432252   0.27780056   3.40343646
| 36> C   -1.84872602   0.12235268   2.08251572
| 37> H   -0.99153596  -0.60360315   5.21470546
| 38> H   -2.27191035   1.02475877   3.95872017
| 39> H   -0.61813332  -2.97254304   1.71645394
| 40> H   -0.36391518  -2.71892099   4.11658931
| 41> H   -2.34865448   3.11442735   1.66251579
| 42> C   -2.05230726  -1.34562147   0.05063964
| 43> H   -3.11848304  -1.08563087   0.04792247
| 44> H   -2.05157878  -2.42080948  -0.11266776
| 45> O    1.92989847  -0.71002627  -1.17248162
| 46> C    2.23743619  -0.50727118  -2.43749637
| 47> O    1.52852471  -0.02938399  -3.29066290
| 48> C    3.65575475  -1.02199379  -2.81753041
| 49> H    3.63064351  -2.10553519  -2.92198359
| 50> H    4.40873546  -0.76452614  -2.11475103
| 51> H    3.95218330  -0.61290200  -3.80035076
| 52> *
| 53>
| 54>                          ****END OF INPUT****

CARTESIAN COORDINATES (ANGSTROEM)
---------------------------------
  Pd     0.471071    0.380085   -0.326849
  O      2.000923    1.338195    0.572897
  C      1.622719    2.623223    0.322237
  O      0.560859    2.836452   -0.144397
  C      2.661557    3.712311    0.584364
  H      2.140491    4.565871    1.023600
  H      3.081646    4.037297   -0.362055
  H      3.468391    3.406486    1.241116
  N     -1.370417   -0.648975   -1.126023
  C     -1.243404   -1.593710   -2.229863
  H     -0.831396   -1.106825   -3.089816
  H     -2.247760   -1.920954   -2.513468
  H     -0.642366   -2.431230   -1.945928
  C     -2.176750    0.496981   -1.591287
  H     -2.295983    1.254909   -0.845290
  H     -3.161889    0.132707   -1.893375
  H     -1.690254    0.923147   -2.462622
  C     -1.519967   -0.997118    1.377167
  C     -0.886781   -2.028417    2.165576
  C     -0.709998   -1.882910    3.520952
  C     -1.131392   -0.735619    4.137935
  C     -1.774323    0.277801    3.403436
  C     -1.848726    0.122353    2.082516
  H     -0.991536   -0.603603    5.214705
  H     -2.271910    1.024759    3.958720
  H     -0.618133   -2.972543    1.716454
  H     -0.363915   -2.718921    4.116589
  H     -2.348654    3.114427    1.662516
  C     -2.052307   -1.345621    0.050640
  H     -3.118483   -1.085631    0.047922
  H     -2.051579   -2.420809   -0.112668
  O      1.929898   -0.710026   -1.172482
  C      2.237436   -0.507271   -2.437496
  O      1.528525   -0.029384   -3.290663
  C      3.655755   -1.021994   -2.817530
  H      3.630644   -2.105535   -2.921984
  H      4.408735   -0.764526   -2.114751
  H      3.952183   -0.612902   -3.800351

 Total Charge           Charge          ....    0
 Multiplicity           Mult            ....    1
 Number of Electrons    NEL             ....  154
 Basis Dimension        Dim             ....  339

ORBITAL ENERGIES
----------------

  NO   OCC          E(Eh)            E(eV)
   0   2.0000     -19.481867      -530.1285
   1   2.0000     -19.472886      -529.8842
   2   2.0000     -19.472445      -529.8722
   3   2.0000     -19.432556      -528.7867
   4   2.0000     -14.717880      -400.4939
   5   2.0000     -10.552236      -287.1409
   6   2.0000     -10.531972      -286.5895
   7   2.0000     -10.525639      -286.4172
   8   2.0000     -10.514450      -286.1127
   9   2.0000     -10.507095      -285.9126
  10   2.0000     -10.491001      -285.4747
  11   2.0000     -10.484522      -285.2983
  12   2.0000     -10.480703      -285.1944
  13   2.0000     -10.479545      -285.1629
  14   2.0000     -10.475144      -285.0431
  15   2.0000     -10.473288      -284.9926
  16   2.0000     -10.428950      -283.7862
  17   2.0000     -10.410267      -283.2778
  18   2.0000      -3.656997       -99.5119
  19   2.0000      -2.307648       -62.7943
  20   2.0000      -2.297833       -62.5272
  21   2.0000      -2.268154       -61.7196
  22   2.0000      -1.186336       -32.2818
  23   2.0000      -1.140842       -31.0439
  24   2.0000      -1.071762       -29.1641
  25   2.0000      -1.054215       -28.6867
  26   2.0000      -1.048098       -28.5202
  27   2.0000      -1.003143       -27.2969
  28   2.0000      -0.906233       -24.6599
  29   2.0000      -0.874864       -23.8063
  30   2.0000      -0.821666       -22.3587
  31   2.0000      -0.813726       -22.1426
  32   2.0000      -0.811113       -22.0715
  33   2.0000      -0.784267       -21.3410
  34   2.0000      -0.726572       -19.7710
  35   2.0000      -0.715711       -19.4755
  36   2.0000      -0.683132       -18.5890
  37   2.0000      -0.612735       -16.6734
  38   2.0000      -0.593958       -16.1624
  39   2.0000      -0.581304       -15.8181
  40   2.0000      -0.580510       -15.7965
  41   2.0000      -0.576466       -15.6864
  42   2.0000      -0.564689       -15.3660
  43   2.0000      -0.543490       -14.7891
  44   2.0000      -0.536095       -14.5879
  45   2.0000      -0.529423       -14.4063
  46   2.0000      -0.514254       -13.9936
  47   2.0000      -0.508497       -13.8369
  48   2.0000      -0.507560       -13.8114
  49   2.0000      -0.502133       -13.6637
  50   2.0000      -0.490422       -13.3451
  51   2.0000      -0.485652       -13.2153
  52   2.0000      -0.480638       -13.0788
  53   2.0000      -0.478301       -13.0152
  54   2.0000      -0.466584       -12.6964
  55   2.0000      -0.452668       -12.3177
  56   2.0000      -0.450315       -12.2537
  57   2.0000      -0.445808       -12.1311
  58   2.0000      -0.442544       -12.0422
  59   2.0000      -0.439335       -11.9549
  60   2.0000      -0.432782       -11.7766
  61   2.0000      -0.424737       -11.5577
  62   2.0000      -0.413560       -11.2535
  63   2.0000      -0.397908       -10.8276
  64   2.0000      -0.375969       -10.2306
  65   2.0000      -0.365347        -9.9416
  66   2.0000      -0.345021        -9.3885
  67   2.0000      -0.344107        -9.3636
  68   2.0000      -0.340920        -9.2769
  69   2.0000      -0.334821        -9.1110
  70   2.0000      -0.326256        -8.8779
  71   2.0000      -0.310655        -8.4534
  72   2.0000      -0.306365        -8.3366
  73   2.0000      -0.292931        -7.9710
  74   2.0000      -0.283886        -7.7249
  75   2.0000      -0.277015        -7.5380
  76   2.0000      -0.259928        -7.0730
  77   0.0000      -0.150516        -4.0958
  78   0.0000      -0.075198        -2.0462
  79   0.0000      -0.030405        -0.8274
  80   0.0000      -0.005684        -0.1547
  81   0.0000       0.065099         1.7714

MULLIKEN ATOMIC CHARGES
-----------------------
   0 Pd:    0.476034
   1 O :   -0.526294
   2 C :    0.604985
   3 O :   -0.407503
   4 C :   -0.756025
   5 H :    0.240540
   6 H :    0.256664
   7 H :    0.251529
   8 N :   -0.467516
   9 C :   -0.530352
  10 H :    0.300157
  11 H :    0.210099
  12 H :    0.261793
  13 C :   -0.556132
  14 H :    0.290305
  15 H :    0.224257
  16 H :    0.290730
  17 C :   -0.026643
  18 C :   -0.235712
  19 C :   -0.189724
  20 C :   -0.235164
  21 C :   -0.249411
  22 C :    0.052527
  23 H :    0.245808
  24 H :    0.268642
  25 H :    0.241518
  26 H :    0.240940
  27 H :   -0.017065
  28 C :   -0.321014
  29 H :    0.256128
  30 H :    0.262226
  31 O :   -0.535306
  32 C :    0.555369
  33 O :   -0.447472
  34 C :   -0.738567
  35 H :    0.228829
  36 H :    0.248879
  37 H :    0.231939
Sum of atomic charges:    0.0000000

LOEWDIN ATOMIC CHARGES
----------------------
   0 Pd:   -0.252981
   1 O :   -0.202583
   2 C :    0.168956
   3 O :   -0.151371
   4 C :   -0.382799
   5 H :    0.148836
   6 H :    0.159241
   7 H :    0.148410
   8 N :   -0.077990
   9 C :   -0.240608
  10 H :    0.162755
  11 H :    0.114860
  12 H :    0.145266
  13 C :   -0.240602
  14 H :    0.158737
  15 H :    0.120565
  16 H :    0.162231
  17 C :   -0.064603
  18 C :   -0.085720
  19 C :   -0.129735
  20 C :   -0.105380
  21 C :   -0.135492
  22 C :    0.046645
  23 H :    0.148196
  24 H :    0.162011
  25 H :    0.152375
  26 H :    0.149797
  27 H :   -0.018419
  28 C :   -0.096654
  29 H :    0.149575
  30 H :    0.149925
  31 O :   -0.185777
  32 C :    0.139194
  33 O :   -0.255403
  34 C :   -0.387596
  35 H :    0.143361
  36 H :    0.142979
  37 H :    0.139798

  Mayer bond orders larger than 0.100000
B(  0-Pd,  1-O ) :   0.7239 B(  0-Pd,  3-O ) :   0.2328 B(  0-Pd,  8-N ) :   0.3776
B(  0-Pd, 31-O ) :   0.6777 B(  1-O ,  2-C ) :   1.1899 B(  2-C ,  3-O ) :   1.8212
B(  2-C ,  4-C ) :   0.9393 B(  4-C ,  5-H ) :   0.9139 B(  4-C ,  6-H ) :   0.9074
B(  4-C ,  7-H ) :   0.9106 B(  8-N ,  9-C ) :   0.9285 B(  8-N , 13-C ) :   0.9193
B(  8-N , 28-C ) :   0.8876 B(  9-C , 10-H ) :   0.8807 B(  9-C , 11-H ) :   0.9058
B(  9-C , 12-H ) :   0.9099 B( 13-C , 14-H ) :   0.8823 B( 13-C , 15-H ) :   0.9049
B( 13-C , 16-H ) :   0.8915 B( 17-C , 18-C ) :   1.3639 B( 17-C , 22-C ) :   1.4268
B( 17-C , 28-C ) :   0.9425 B( 18-C , 19-C ) :   1.4537 B( 18-C , 21-C ) :   0.1017
B( 18-C , 25-H ) :   0.9028 B( 19-C , 20-C ) :   1.4265 B( 19-C , 26-H ) :   0.9094
B( 20-C , 21-C ) :   1.3771 B( 20-C , 23-H ) :   0.9038 B( 21-C , 22-C ) :   1.4854
B( 21-C , 24-H ) :   0.8976 B( 22-C , 27-H ) :   0.7202 B( 28-C , 29-H ) :   0.8972
B( 28-C , 30-H ) :   0.9132 B( 31-O , 32-C ) :   1.2448 B( 31-O , 33-O ) :   0.1016
B( 32-C , 33-O ) :   1.8983 B( 32-C , 34-C ) :   0.9202 B( 34-C , 35-H ) :   0.9183
B( 34-C , 36-H ) :   0.9093 B( 34-C , 37-H ) :   0.9229

Dispersion correction           -0.025571777
FINAL SINGLE POINT ENERGY      -988.240462180705
Dispersion correction            ... done

DIPOLE MOMENT
-------------
                                X             Y             Z
Electronic contribution:     19.31430      17.08917     -15.20578
Nuclear contribution   :    -21.26830     -18.52647      16.69256
                        -----------------------------------------
Total Dipole Moment    :     -1.95400      -1.43730       1.48679
                        -----------------------------------------
Magnitude (a.u.)       :      2.84508
Magnitude (Debye)      :      7.23162

Rotational constants in cm-1:     0.013352     0.008384     0.006795
Rotational constants in MHz :   400.270296   251.347474   203.694464

                             ****ORCA TERMINATED NORMALLY****
TOTAL RUN TIME: 0 days 0 hours 15 minutes 17 seconds 647 msec
