                         Program Version 5.0.3 -  RELEASE  -
|  1> ! EnGrad PBEh-3c
|  2> %output
|  3> xyzfile=True
|  4> end
|  5> %scf
|  6> maxiter 250
|  7> end
|  8> %output
|  9> Print[P_Hirshfeld] = 1
| 10> end
| 11> % maxcore
| 12> 4000
| 13> *xyz 0 1
| 14> Pd   0.53890051   0.41465399  -0.27245331
| 15> O    1.96536304   1.27706047   0.52920238
| 16> C    1.58298252   2.63269556   0.34471516
| 17> O    0.53584726   2.84936221  -0.16922024
| 18> C    2.66703209   3.69771562   0.59017485
| 19> H    2.15140846   4.55823921   1.01929960
| 20> H    3.09551158   4.03064930  -0.36320826
| 21> H    3.47749783   3.39109394   1.24580761
| 22> N   -1.40787895  -0.66839831  -1.15679172
| 23> C   -1.23740852  -1.64013606  -2.23830267
| 24> H   -0.78000432  -1.12835503  -3.06490243
| 25> H   -2.24493960  -1.96227793  -2.46639847
| 26> H   -0.63053517  -2.46478232  -1.89723758
| 27> C   -2.18520199   0.50285010  -1.61421813
| 28> H   -2.29316471   1.26780577  -0.84266699
| 29> H   -3.15200481   0.10242175  -1.90966751
| 30> H   -1.66267904   0.89006791  -2.48572332
| 31> C   -1.52862077  -0.97621683   1.39920458
| 32> C   -0.97762648  -2.05422926   2.18025527
| 33> C   -0.70226525  -1.87775100   3.51880549
| 34> C   -1.15901072  -0.74183122   4.14567834
| 35> C   -1.73655844   0.30640719   3.44526104
| 36> C   -1.80349132   0.12861011   2.12500148
| 37> H   -0.99615451  -0.59946585   5.20737583
| 38> H   -2.17839216   1.11334497   3.94331783
| 39> H   -0.70048686  -2.99150937   1.70723712
| 40> H   -0.40941764  -2.72906011   4.12262691
| 41> H   -2.29852568   3.04212585   1.62239245
| 42> C   -2.06560118  -1.32694060   0.06147231
| 43> H   -3.11130409  -1.03092463   0.02994655
| 44> H   -2.06364119  -2.40194920  -0.12276539
| 45> O    1.98683626  -0.73890882  -1.18205243
| 46> C    2.19196589  -0.49524916  -2.48424383
| 47> O    1.49361658  -0.04750095  -3.31506696
| 48> C    3.66078403  -0.98328459  -2.81445097
| 49> H    3.64791658  -2.06492603  -2.95166888
| 50> H    4.42856108  -0.72400913  -2.09546759
| 51> H    3.90859764  -0.55298018  -3.79096506
| 52> *
| 53>
| 54>                          ****END OF INPUT****

CARTESIAN COORDINATES (ANGSTROEM)
---------------------------------
  Pd     0.538901    0.414654   -0.272453
  O      1.965363    1.277060    0.529202
  C      1.582983    2.632696    0.344715
  O      0.535847    2.849362   -0.169220
  C      2.667032    3.697716    0.590175
  H      2.151408    4.558239    1.019300
  H      3.095512    4.030649   -0.363208
  H      3.477498    3.391094    1.245808
  N     -1.407879   -0.668398   -1.156792
  C     -1.237409   -1.640136   -2.238303
  H     -0.780004   -1.128355   -3.064902
  H     -2.244940   -1.962278   -2.466398
  H     -0.630535   -2.464782   -1.897238
  C     -2.185202    0.502850   -1.614218
  H     -2.293165    1.267806   -0.842667
  H     -3.152005    0.102422   -1.909668
  H     -1.662679    0.890068   -2.485723
  C     -1.528621   -0.976217    1.399205
  C     -0.977626   -2.054229    2.180255
  C     -0.702265   -1.877751    3.518805
  C     -1.159011   -0.741831    4.145678
  C     -1.736558    0.306407    3.445261
  C     -1.803491    0.128610    2.125001
  H     -0.996155   -0.599466    5.207376
  H     -2.178392    1.113345    3.943318
  H     -0.700487   -2.991509    1.707237
  H     -0.409418   -2.729060    4.122627
  H     -2.298526    3.042126    1.622392
  C     -2.065601   -1.326941    0.061472
  H     -3.111304   -1.030925    0.029947
  H     -2.063641   -2.401949   -0.122765
  O      1.986836   -0.738909   -1.182052
  C      2.191966   -0.495249   -2.484244
  O      1.493617   -0.047501   -3.315067
  C      3.660784   -0.983285   -2.814451
  H      3.647917   -2.064926   -2.951669
  H      4.428561   -0.724009   -2.095468
  H      3.908598   -0.552980   -3.790965

 Total Charge           Charge          ....    0
 Multiplicity           Mult            ....    1
 Number of Electrons    NEL             ....  154
 Basis Dimension        Dim             ....  339

ORBITAL ENERGIES
----------------

  NO   OCC          E(Eh)            E(eV)
   0   2.0000     -19.501155      -530.6534
   1   2.0000     -19.499206      -530.6004
   2   2.0000     -19.466242      -529.7034
   3   2.0000     -19.445903      -529.1499
   4   2.0000     -14.701197      -400.0399
   5   2.0000     -10.577349      -287.8243
   6   2.0000     -10.533181      -286.6224
   7   2.0000     -10.508871      -285.9609
   8   2.0000     -10.502231      -285.7802
   9   2.0000     -10.494675      -285.5746
  10   2.0000     -10.489885      -285.4443
  11   2.0000     -10.486534      -285.3531
  12   2.0000     -10.482434      -285.2415
  13   2.0000     -10.480852      -285.1985
  14   2.0000     -10.475697      -285.0582
  15   2.0000     -10.470838      -284.9260
  16   2.0000     -10.446767      -284.2710
  17   2.0000     -10.406494      -283.1751
  18   2.0000      -3.655942       -99.4832
  19   2.0000      -2.311407       -62.8966
  20   2.0000      -2.293059       -62.3973
  21   2.0000      -2.268782       -61.7367
  22   2.0000      -1.201006       -32.6810
  23   2.0000      -1.153863       -31.3982
  24   2.0000      -1.066259       -29.0144
  25   2.0000      -1.058176       -28.7944
  26   2.0000      -1.049223       -28.5508
  27   2.0000      -1.003239       -27.2995
  28   2.0000      -0.903617       -24.5887
  29   2.0000      -0.873051       -23.7569
  30   2.0000      -0.824387       -22.4327
  31   2.0000      -0.817988       -22.2586
  32   2.0000      -0.810163       -22.0457
  33   2.0000      -0.773917       -21.0594
  34   2.0000      -0.721584       -19.6353
  35   2.0000      -0.710336       -19.3292
  36   2.0000      -0.678631       -18.4665
  37   2.0000      -0.615826       -16.7575
  38   2.0000      -0.611660       -16.6441
  39   2.0000      -0.577670       -15.7192
  40   2.0000      -0.572914       -15.5898
  41   2.0000      -0.566852       -15.4248
  42   2.0000      -0.560293       -15.2463
  43   2.0000      -0.550576       -14.9819
  44   2.0000      -0.539514       -14.6809
  45   2.0000      -0.533712       -14.5230
  46   2.0000      -0.530111       -14.4251
  47   2.0000      -0.519865       -14.1462
  48   2.0000      -0.505512       -13.7557
  49   2.0000      -0.500825       -13.6281
  50   2.0000      -0.489269       -13.3137
  51   2.0000      -0.487549       -13.2669
  52   2.0000      -0.479946       -13.0600
  53   2.0000      -0.477953       -13.0058
  54   2.0000      -0.467639       -12.7251
  55   2.0000      -0.460603       -12.5336
  56   2.0000      -0.453173       -12.3315
  57   2.0000      -0.449068       -12.2198
  58   2.0000      -0.446460       -12.1488
  59   2.0000      -0.442000       -12.0274
  60   2.0000      -0.434452       -11.8221
  61   2.0000      -0.424773       -11.5587
  62   2.0000      -0.416399       -11.3308
  63   2.0000      -0.409562       -11.1447
  64   2.0000      -0.392305       -10.6752
  65   2.0000      -0.363131        -9.8813
  66   2.0000      -0.355621        -9.6769
  67   2.0000      -0.345861        -9.4114
  68   2.0000      -0.337346        -9.1796
  69   2.0000      -0.329869        -8.9762
  70   2.0000      -0.327583        -8.9140
  71   2.0000      -0.312054        -8.4914
  72   2.0000      -0.305542        -8.3142
  73   2.0000      -0.295220        -8.0333
  74   2.0000      -0.286840        -7.8053
  75   2.0000      -0.278366        -7.5747
  76   2.0000      -0.209580        -5.7030
  77   0.0000      -0.172376        -4.6906
  78   0.0000      -0.066214        -1.8018
  79   0.0000      -0.027266        -0.7419
  80   0.0000      -0.005457        -0.1485
  81   0.0000       0.040292         1.0964

MULLIKEN ATOMIC CHARGES
-----------------------
   0 Pd:    0.548804
   1 O :   -0.553516
   2 C :    0.604976
   3 O :   -0.384867
   4 C :   -0.753223
   5 H :    0.248550
   6 H :    0.265306
   7 H :    0.259000
   8 N :   -0.459862
   9 C :   -0.519144
  10 H :    0.291216
  11 H :    0.206264
  12 H :    0.256981
  13 C :   -0.539396
  14 H :    0.274221
  15 H :    0.218697
  16 H :    0.283067
  17 C :    0.030852
  18 C :   -0.258236
  19 C :   -0.180696
  20 C :   -0.232472
  21 C :   -0.259702
  22 C :    0.060217
  23 H :    0.242877
  24 H :    0.260210
  25 H :    0.245393
  26 H :    0.234452
  27 H :   -0.114148
  28 C :   -0.326188
  29 H :    0.246326
  30 H :    0.255839
  31 O :   -0.542210
  32 C :    0.544909
  33 O :   -0.407177
  34 C :   -0.739551
  35 H :    0.226881
  36 H :    0.243783
  37 H :    0.221566
Sum of atomic charges:   -0.0000000

LOEWDIN ATOMIC CHARGES
----------------------
   0 Pd:   -0.207466
   1 O :   -0.189365
   2 C :    0.214728
   3 O :   -0.128881
   4 C :   -0.379102
   5 H :    0.153236
   6 H :    0.165017
   7 H :    0.152988
   8 N :   -0.115096
   9 C :   -0.239669
  10 H :    0.161626
  11 H :    0.113015
  12 H :    0.144985
  13 C :   -0.237104
  14 H :    0.155877
  15 H :    0.117404
  16 H :    0.159818
  17 C :   -0.067608
  18 C :   -0.085800
  19 C :   -0.130633
  20 C :   -0.096456
  21 C :   -0.138335
  22 C :    0.071241
  23 H :    0.146424
  24 H :    0.159860
  25 H :    0.150206
  26 H :    0.151489
  27 H :   -0.115880
  28 C :   -0.100204
  29 H :    0.142766
  30 H :    0.146711
  31 O :   -0.217111
  32 C :    0.132464
  33 O :   -0.211545
  34 C :   -0.395945
  35 H :    0.141165
  36 H :    0.142611
  37 H :    0.132566

  Mayer bond orders larger than 0.100000
B(  0-Pd,  1-O ) :   0.7782 B(  0-Pd,  3-O ) :   0.2293 B(  0-Pd,  8-N ) :   0.3282
B(  0-Pd, 31-O ) :   0.6746 B(  1-O ,  2-C ) :   1.1032 B(  2-C ,  3-O ) :   1.8425
B(  2-C ,  4-C ) :   0.9436 B(  4-C ,  5-H ) :   0.9077 B(  4-C ,  6-H ) :   0.9024
B(  4-C ,  7-H ) :   0.9062 B(  8-N ,  9-C ) :   0.9298 B(  8-N , 13-C ) :   0.9292
B(  8-N , 28-C ) :   0.8921 B(  9-C , 10-H ) :   0.8838 B(  9-C , 11-H ) :   0.9084
B(  9-C , 12-H ) :   0.9116 B( 13-C , 14-H ) :   0.8931 B( 13-C , 15-H ) :   0.9056
B( 13-C , 16-H ) :   0.8955 B( 17-C , 18-C ) :   1.3267 B( 17-C , 22-C ) :   1.3964
B( 17-C , 28-C ) :   0.9280 B( 18-C , 19-C ) :   1.4589 B( 18-C , 25-H ) :   0.8985
B( 19-C , 20-C ) :   1.4098 B( 19-C , 26-H ) :   0.9113 B( 20-C , 21-C ) :   1.3995
B( 20-C , 23-H ) :   0.9011 B( 21-C , 22-C ) :   1.4493 B( 21-C , 24-H ) :   0.8676
B( 22-C , 27-H ) :   0.7153 B( 28-C , 29-H ) :   0.9003 B( 28-C , 30-H ) :   0.9147
B( 31-O , 32-C ) :   1.2286 B( 31-O , 33-O ) :   0.1035 B( 32-C , 33-O ) :   1.9534
B( 32-C , 34-C ) :   0.9032 B( 34-C , 35-H ) :   0.9199 B( 34-C , 36-H ) :   0.9150
B( 34-C , 37-H ) :   0.9220

Dispersion correction           -0.025489847
FINAL SINGLE POINT ENERGY      -988.142348873734
Dispersion correction            ... done

DIPOLE MOMENT
-------------
                                X             Y             Z
Electronic contribution:     23.41414      19.26703     -12.19419
Nuclear contribution   :    -25.01006     -20.45340      13.71326
                        -----------------------------------------
Total Dipole Moment    :     -1.59592      -1.18638       1.51908
                        -----------------------------------------
Magnitude (a.u.)       :      2.50241
Magnitude (Debye)      :      6.36061

Rotational constants in cm-1:     0.013307     0.008343     0.006750
Rotational constants in MHz :   398.923933   250.124521   202.370741

                             ****ORCA TERMINATED NORMALLY****
TOTAL RUN TIME: 0 days 0 hours 21 minutes 3 seconds 20 msec
