                         Program Version 5.0.3 -  RELEASE  -
|  1> ! EnGrad PBEh-3c
|  2> %output
|  3> xyzfile=True
|  4> end
|  5> %scf
|  6> maxiter 250
|  7> end
|  8> %output
|  9> Print[P_Hirshfeld] = 1
| 10> end
| 11> % maxcore
| 12> 4000
| 13> *xyz 0 1
| 14> Pd   0.49059539   0.39003516  -0.31119160
| 15> O    1.99068713   1.32059802   0.56032007
| 16> C    1.61128094   2.62594951   0.32870714
| 17> O    0.55365920   2.84016823  -0.15154215
| 18> C    2.66313298   3.70811013   0.58603653
| 19> H    2.14363350   4.56367432   1.02236251
| 20> H    3.08563676   4.03538376  -0.36238723
| 21> H    3.47101203   3.40205577   1.24246670
| 22> N   -1.38120017  -0.65456597  -1.13487953
| 23> C   -1.24167856  -1.60707312  -2.23229230
| 24> H   -0.81660341  -1.11302238  -3.08264472
| 25> H   -2.24694845  -1.93284857  -2.49991949
| 26> H   -0.63896035  -2.44088783  -1.93191274
| 27> C   -2.17918300   0.49867054  -1.59788737
| 28> H   -2.29517151   1.25862106  -0.84453507
| 29> H   -3.15904392   0.12398981  -1.89806454
| 30> H   -1.68231701   0.91362550  -2.46927185
| 31> C   -1.52245826  -0.99110193   1.38351030
| 32> C   -0.91293039  -2.03584664   2.16980131
| 33> C   -0.70777221  -1.88142516   3.52033419
| 34> C   -1.13934182  -0.73740746   4.14016353
| 35> C   -1.76345241   0.28603476   3.41547536
| 36> C   -1.83570554   0.12415383   2.09474493
| 37> H   -0.99286538  -0.60241226   5.21259568
| 38> H   -2.24499184   1.05025765   3.95428672
| 39> H   -0.64183818  -2.97800236   1.71380094
| 40> H   -0.37701272  -2.72183946   4.11832719
| 41> H   -2.33422528   3.09361590   1.65096659
| 42> C   -2.05613381  -1.34024432   0.05375774
| 43> H   -3.11641663  -1.06988409   0.04274824
| 44> H   -2.05505085  -2.41538069  -0.11557429
| 45> O    1.94628759  -0.71833990  -1.17523651
| 46> C    2.22434790  -0.50381073  -2.45095228
| 47> O    1.51847666  -0.03459882  -3.29768743
| 48> C    3.65720239  -1.01085163  -2.81664402
| 49> H    3.63561544  -2.09384614  -2.93052828
| 50> H    4.41444212  -0.75286362  -2.10920043
| 51> H    3.93963749  -0.59565395  -3.79764916
| 52> *
| 53>
| 54>                          ****END OF INPUT****

CARTESIAN COORDINATES (ANGSTROEM)
---------------------------------
  Pd     0.490595    0.390035   -0.311192
  O      1.990687    1.320598    0.560320
  C      1.611281    2.625950    0.328707
  O      0.553659    2.840168   -0.151542
  C      2.663133    3.708110    0.586037
  H      2.143633    4.563674    1.022363
  H      3.085637    4.035384   -0.362387
  H      3.471012    3.402056    1.242467
  N     -1.381200   -0.654566   -1.134880
  C     -1.241679   -1.607073   -2.232292
  H     -0.816603   -1.113022   -3.082645
  H     -2.246948   -1.932849   -2.499919
  H     -0.638960   -2.440888   -1.931913
  C     -2.179183    0.498671   -1.597887
  H     -2.295172    1.258621   -0.844535
  H     -3.159044    0.123990   -1.898065
  H     -1.682317    0.913625   -2.469272
  C     -1.522458   -0.991102    1.383510
  C     -0.912930   -2.035847    2.169801
  C     -0.707772   -1.881425    3.520334
  C     -1.139342   -0.737407    4.140164
  C     -1.763452    0.286035    3.415475
  C     -1.835706    0.124154    2.094745
  H     -0.992865   -0.602412    5.212596
  H     -2.244992    1.050258    3.954287
  H     -0.641838   -2.978002    1.713801
  H     -0.377013   -2.721839    4.118327
  H     -2.334225    3.093616    1.650967
  C     -2.056134   -1.340244    0.053758
  H     -3.116417   -1.069884    0.042748
  H     -2.055051   -2.415381   -0.115574
  O      1.946288   -0.718340   -1.175237
  C      2.224348   -0.503811   -2.450952
  O      1.518477   -0.034599   -3.297687
  C      3.657202   -1.010852   -2.816644
  H      3.635615   -2.093846   -2.930528
  H      4.414442   -0.752864   -2.109200
  H      3.939637   -0.595654   -3.797649

 Total Charge           Charge          ....    0
 Multiplicity           Mult            ....    1
 Number of Electrons    NEL             ....  154
 Basis Dimension        Dim             ....  339

ORBITAL ENERGIES
----------------

  NO   OCC          E(Eh)            E(eV)
   0   2.0000     -19.489154      -530.3268
   1   2.0000     -19.482232      -530.1385
   2   2.0000     -19.472110      -529.8630
   3   2.0000     -19.437181      -528.9126
   4   2.0000     -14.714766      -400.4091
   5   2.0000     -10.561135      -287.3831
   6   2.0000     -10.533055      -286.6190
   7   2.0000     -10.512043      -286.0472
   8   2.0000     -10.502215      -285.7798
   9   2.0000     -10.493182      -285.5340
  10   2.0000     -10.488308      -285.4014
  11   2.0000     -10.486620      -285.3554
  12   2.0000     -10.483544      -285.2717
  13   2.0000     -10.482060      -285.2313
  14   2.0000     -10.474823      -285.0344
  15   2.0000     -10.473739      -285.0049
  16   2.0000     -10.434947      -283.9493
  17   2.0000     -10.409779      -283.2645
  18   2.0000      -3.657894       -99.5364
  19   2.0000      -2.309611       -62.8477
  20   2.0000      -2.297681       -62.5231
  21   2.0000      -2.269575       -61.7583
  22   2.0000      -1.192366       -32.4459
  23   2.0000      -1.144450       -31.1421
  24   2.0000      -1.069329       -29.0979
  25   2.0000      -1.058534       -28.8042
  26   2.0000      -1.050710       -28.5913
  27   2.0000      -1.000442       -27.2234
  28   2.0000      -0.904100       -24.6018
  29   2.0000      -0.872304       -23.7366
  30   2.0000      -0.822766       -22.3886
  31   2.0000      -0.815944       -22.2030
  32   2.0000      -0.811907       -22.0931
  33   2.0000      -0.782003       -21.2794
  34   2.0000      -0.724324       -19.7099
  35   2.0000      -0.713298       -19.4098
  36   2.0000      -0.681122       -18.5343
  37   2.0000      -0.612671       -16.6716
  38   2.0000      -0.600281       -16.3345
  39   2.0000      -0.580018       -15.7831
  40   2.0000      -0.579090       -15.7578
  41   2.0000      -0.575078       -15.6487
  42   2.0000      -0.563356       -15.3297
  43   2.0000      -0.541589       -14.7374
  44   2.0000      -0.536514       -14.5993
  45   2.0000      -0.535851       -14.5813
  46   2.0000      -0.520399       -14.1608
  47   2.0000      -0.512764       -13.9530
  48   2.0000      -0.507150       -13.8003
  49   2.0000      -0.502459       -13.6726
  50   2.0000      -0.490380       -13.3439
  51   2.0000      -0.487355       -13.2616
  52   2.0000      -0.481084       -13.0910
  53   2.0000      -0.478142       -13.0109
  54   2.0000      -0.466600       -12.6968
  55   2.0000      -0.455322       -12.3899
  56   2.0000      -0.450779       -12.2663
  57   2.0000      -0.448835       -12.2134
  58   2.0000      -0.442008       -12.0277
  59   2.0000      -0.438734       -11.9385
  60   2.0000      -0.437242       -11.8980
  61   2.0000      -0.425490       -11.5782
  62   2.0000      -0.413621       -11.2552
  63   2.0000      -0.401693       -10.9306
  64   2.0000      -0.380698       -10.3593
  65   2.0000      -0.365109        -9.9351
  66   2.0000      -0.347668        -9.4605
  67   2.0000      -0.347365        -9.4523
  68   2.0000      -0.340222        -9.2579
  69   2.0000      -0.334809        -9.1106
  70   2.0000      -0.326955        -8.8969
  71   2.0000      -0.311639        -8.4801
  72   2.0000      -0.308849        -8.4042
  73   2.0000      -0.293913        -7.9978
  74   2.0000      -0.286246        -7.7891
  75   2.0000      -0.279589        -7.6080
  76   2.0000      -0.215061        -5.8521
  77   0.0000      -0.175295        -4.7700
  78   0.0000      -0.074498        -2.0272
  79   0.0000      -0.028556        -0.7771
  80   0.0000      -0.002713        -0.0738
  81   0.0000       0.059291         1.6134

MULLIKEN ATOMIC CHARGES
-----------------------
   0 Pd:    0.535165
   1 O :   -0.532632
   2 C :    0.606640
   3 O :   -0.401159
   4 C :   -0.755578
   5 H :    0.244256
   6 H :    0.259558
   7 H :    0.254176
   8 N :   -0.463899
   9 C :   -0.527247
  10 H :    0.297353
  11 H :    0.209292
  12 H :    0.261309
  13 C :   -0.550949
  14 H :    0.281999
  15 H :    0.224418
  16 H :    0.290460
  17 C :    0.012261
  18 C :   -0.244723
  19 C :   -0.185404
  20 C :   -0.226842
  21 C :   -0.265561
  22 C :    0.050172
  23 H :    0.243141
  24 H :    0.257558
  25 H :    0.240571
  26 H :    0.239248
  27 H :   -0.084860
  28 C :   -0.324761
  29 H :    0.249985
  30 H :    0.259709
  31 O :   -0.536294
  32 C :    0.552550
  33 O :   -0.436385
  34 C :   -0.738938
  35 H :    0.228567
  36 H :    0.247595
  37 H :    0.229252
Sum of atomic charges:   -0.0000000

LOEWDIN ATOMIC CHARGES
----------------------
   0 Pd:   -0.202802
   1 O :   -0.198632
   2 C :    0.183372
   3 O :   -0.144051
   4 C :   -0.381545
   5 H :    0.150823
   6 H :    0.161172
   7 H :    0.150046
   8 N :   -0.087996
   9 C :   -0.239654
  10 H :    0.162312
  11 H :    0.114413
  12 H :    0.145688
  13 C :   -0.236496
  14 H :    0.156548
  15 H :    0.120505
  16 H :    0.162344
  17 C :   -0.067075
  18 C :   -0.087082
  19 C :   -0.130322
  20 C :   -0.097748
  21 C :   -0.138450
  22 C :    0.055045
  23 H :    0.146819
  24 H :    0.159506
  25 H :    0.149476
  26 H :    0.151419
  27 H :   -0.086937
  28 C :   -0.098852
  29 H :    0.145550
  30 H :    0.148419
  31 O :   -0.193607
  32 C :    0.136942
  33 O :   -0.243194
  34 C :   -0.389762
  35 H :    0.142934
  36 H :    0.143011
  37 H :    0.137863

  Mayer bond orders larger than 0.100000
B(  0-Pd,  1-O ) :   0.7413 B(  0-Pd,  3-O ) :   0.2366 B(  0-Pd,  8-N ) :   0.3626
B(  0-Pd, 31-O ) :   0.6771 B(  1-O ,  2-C ) :   1.1643 B(  2-C ,  3-O ) :   1.8245
B(  2-C ,  4-C ) :   0.9409 B(  4-C ,  5-H ) :   0.9116 B(  4-C ,  6-H ) :   0.9057
B(  4-C ,  7-H ) :   0.9090 B(  8-N ,  9-C ) :   0.9281 B(  8-N , 13-C ) :   0.9247
B(  8-N , 28-C ) :   0.8865 B(  9-C , 10-H ) :   0.8816 B(  9-C , 11-H ) :   0.9064
B(  9-C , 12-H ) :   0.9102 B( 13-C , 14-H ) :   0.8900 B( 13-C , 15-H ) :   0.9040
B( 13-C , 16-H ) :   0.8918 B( 17-C , 18-C ) :   1.3445 B( 17-C , 22-C ) :   1.3819
B( 17-C , 28-C ) :   0.9331 B( 18-C , 19-C ) :   1.4553 B( 18-C , 25-H ) :   0.9016
B( 19-C , 20-C ) :   1.4222 B( 19-C , 26-H ) :   0.9083 B( 20-C , 21-C ) :   1.3925
B( 20-C , 23-H ) :   0.9011 B( 21-C , 22-C ) :   1.4576 B( 21-C , 24-H ) :   0.8713
B( 22-C , 27-H ) :   0.7259 B( 28-C , 29-H ) :   0.9000 B( 28-C , 30-H ) :   0.9133
B( 31-O , 32-C ) :   1.2407 B( 31-O , 33-O ) :   0.1022 B( 32-C , 33-O ) :   1.9140
B( 32-C , 34-C ) :   0.9152 B( 34-C , 35-H ) :   0.9187 B( 34-C , 36-H ) :   0.9109
B( 34-C , 37-H ) :   0.9226

Dispersion correction           -0.025551093
FINAL SINGLE POINT ENERGY      -988.168956391629
Dispersion correction            ... done

DIPOLE MOMENT
-------------
                                X             Y             Z
Electronic contribution:     20.52212      17.63103     -14.43282
Nuclear contribution   :    -22.34534     -19.08113      15.83499
                        -----------------------------------------
Total Dipole Moment    :     -1.82322      -1.45009       1.40218
                        -----------------------------------------
Magnitude (a.u.)       :      2.71901
Magnitude (Debye)      :      6.91117

Rotational constants in cm-1:     0.013342     0.008373     0.006782
Rotational constants in MHz :   399.968715   251.008477   203.330118

                             ****ORCA TERMINATED NORMALLY****
TOTAL RUN TIME: 0 days 0 hours 30 minutes 45 seconds 927 msec
