                         Program Version 5.0.3 -  RELEASE  -
|  1> ! EnGrad PBEh-3c
|  2> %output
|  3> xyzfile=True
|  4> end
|  5> %scf
|  6> maxiter 250
|  7> end
|  8> %output
|  9> Print[P_Hirshfeld] = 1
| 10> end
| 11> % maxcore
| 12> 4000
| 13> *xyz 0 1
| 14> Pd   0.47576648   0.38247756  -0.32308365
| 15> O    1.99846123   1.33396336   0.56987271
| 16> C    1.61996812   2.62387857   0.32379294
| 17> O    0.55912718   2.83734582  -0.14611526
| 18> C    2.66193601   3.71130109   0.58476613
| 19> H    2.14124671   4.56534281   1.02330277
| 20> H    3.08260534   4.03683716  -0.36213518
| 21> H    3.46902099   3.40542088   1.24144109
| 22> N   -1.37301021  -0.65031967  -1.12815283
| 23> C   -1.24298939  -1.59692332  -2.23044722
| 24> H   -0.82783876  -1.10831549  -3.08809132
| 25> H   -2.24756514  -1.92381422  -2.51020991
| 26> H   -0.64154674  -2.43355260  -1.94255747
| 27> C   -2.17733527   0.49738748  -1.59287409
| 28> H   -2.29578757   1.25580151  -0.84510854
| 29> H   -3.16120482   0.13061087  -1.89450262
| 30> H   -1.68834555   0.92085731  -2.46422150
| 31> C   -1.52056647  -0.99567142   1.37869240
| 32> C   -0.89306971  -2.03020346   2.16659211
| 33> C   -0.70946276  -1.88255307   3.52080348
| 34> C   -1.13330377  -0.73604944   4.13847057
| 35> C   -1.77170843   0.27978075   3.40633162
| 36> C   -1.84559480   0.12278583   2.08545665
| 37> H   -0.99185567  -0.60331676   5.21419810
| 38> H   -2.26543689   1.03089084   3.95765400
| 39> H   -0.62383395  -2.97385592   1.71581593
| 40> H   -0.36706493  -2.71962284   4.11700724
| 41> H   -2.34518449   3.10942253   1.65973840
| 42> C   -2.05322748  -1.34432835   0.05138949
| 43> H   -3.11798610  -1.08184403   0.04667815
| 44> H   -2.05241376  -2.41950395  -0.11336674
| 45> O    1.93383978  -0.71202556  -1.17314413
| 46> C    2.23428867  -0.50643900  -2.44073230
| 47> O    1.52610832  -0.03063807  -3.29235219
| 48> C    3.65610288  -1.01931428  -2.81731725
| 49> H    3.63183918  -2.10272416  -2.92403844
| 50> H    4.41010782  -0.76172149  -2.11341620
| 51> H    3.94916624  -0.60875412  -3.79970107
| 52> *
| 53>
| 54>                          ****END OF INPUT****

CARTESIAN COORDINATES (ANGSTROEM)
---------------------------------
  Pd     0.475766    0.382478   -0.323084
  O      1.998461    1.333963    0.569873
  C      1.619968    2.623879    0.323793
  O      0.559127    2.837346   -0.146115
  C      2.661936    3.711301    0.584766
  H      2.141247    4.565343    1.023303
  H      3.082605    4.036837   -0.362135
  H      3.469021    3.405421    1.241441
  N     -1.373010   -0.650320   -1.128153
  C     -1.242989   -1.596923   -2.230447
  H     -0.827839   -1.108315   -3.088091
  H     -2.247565   -1.923814   -2.510210
  H     -0.641547   -2.433553   -1.942557
  C     -2.177335    0.497387   -1.592874
  H     -2.295788    1.255802   -0.845109
  H     -3.161205    0.130611   -1.894503
  H     -1.688346    0.920857   -2.464221
  C     -1.520566   -0.995671    1.378692
  C     -0.893070   -2.030203    2.166592
  C     -0.709463   -1.882553    3.520803
  C     -1.133304   -0.736049    4.138471
  C     -1.771708    0.279781    3.406332
  C     -1.845595    0.122786    2.085457
  H     -0.991856   -0.603317    5.214198
  H     -2.265437    1.030891    3.957654
  H     -0.623834   -2.973856    1.715816
  H     -0.367065   -2.719623    4.117007
  H     -2.345184    3.109423    1.659738
  C     -2.053227   -1.344328    0.051389
  H     -3.117986   -1.081844    0.046678
  H     -2.052414   -2.419504   -0.113367
  O      1.933840   -0.712026   -1.173144
  C      2.234289   -0.506439   -2.440732
  O      1.526108   -0.030638   -3.292352
  C      3.656103   -1.019314   -2.817317
  H      3.631839   -2.102724   -2.924038
  H      4.410108   -0.761721   -2.113416
  H      3.949166   -0.608754   -3.799701

 Total Charge           Charge          ....    0
 Multiplicity           Mult            ....    1
 Number of Electrons    NEL             ....  154
 Basis Dimension        Dim             ....  339

ORBITAL ENERGIES
----------------

  NO   OCC          E(Eh)            E(eV)
   0   2.0000     -19.483124      -530.1628
   1   2.0000     -19.474076      -529.9165
   2   2.0000     -19.472315      -529.8686
   3   2.0000     -19.433292      -528.8068
   4   2.0000     -14.716542      -400.4575
   5   2.0000     -10.553825      -287.1842
   6   2.0000     -10.531879      -286.5870
   7   2.0000     -10.525792      -286.4214
   8   2.0000     -10.514067      -286.1023
   9   2.0000     -10.506974      -285.9093
  10   2.0000     -10.491029      -285.4754
  11   2.0000     -10.484388      -285.2947
  12   2.0000     -10.480592      -285.1914
  13   2.0000     -10.479202      -285.1536
  14   2.0000     -10.475147      -285.0432
  15   2.0000     -10.472917      -284.9826
  16   2.0000     -10.430102      -283.8175
  17   2.0000     -10.409879      -283.2672
  18   2.0000      -3.656652       -99.5026
  19   2.0000      -2.307526       -62.7910
  20   2.0000      -2.297268       -62.5118
  21   2.0000      -2.267913       -61.7130
  22   2.0000      -1.187152       -32.3040
  23   2.0000      -1.141269       -31.0555
  24   2.0000      -1.070678       -29.1346
  25   2.0000      -1.054718       -28.7003
  26   2.0000      -1.048424       -28.5291
  27   2.0000      -1.003393       -27.3037
  28   2.0000      -0.906106       -24.6564
  29   2.0000      -0.874943       -23.8084
  30   2.0000      -0.821168       -22.3451
  31   2.0000      -0.813548       -22.1378
  32   2.0000      -0.811946       -22.0942
  33   2.0000      -0.783448       -21.3187
  34   2.0000      -0.726067       -19.7573
  35   2.0000      -0.715537       -19.4708
  36   2.0000      -0.682935       -18.5836
  37   2.0000      -0.612747       -16.6737
  38   2.0000      -0.594912       -16.1884
  39   2.0000      -0.581104       -15.8126
  40   2.0000      -0.579995       -15.7825
  41   2.0000      -0.575588       -15.6626
  42   2.0000      -0.564352       -15.3568
  43   2.0000      -0.542993       -14.7756
  44   2.0000      -0.536089       -14.5877
  45   2.0000      -0.530633       -14.4393
  46   2.0000      -0.515175       -14.0186
  47   2.0000      -0.508952       -13.8493
  48   2.0000      -0.507517       -13.8102
  49   2.0000      -0.501854       -13.6561
  50   2.0000      -0.490128       -13.3371
  51   2.0000      -0.485710       -13.2168
  52   2.0000      -0.480515       -13.0755
  53   2.0000      -0.478317       -13.0157
  54   2.0000      -0.466696       -12.6994
  55   2.0000      -0.452501       -12.3132
  56   2.0000      -0.450316       -12.2537
  57   2.0000      -0.446660       -12.1542
  58   2.0000      -0.442621       -12.0443
  59   2.0000      -0.439017       -11.9462
  60   2.0000      -0.433500       -11.7961
  61   2.0000      -0.424636       -11.5549
  62   2.0000      -0.413219       -11.2443
  63   2.0000      -0.398121       -10.8334
  64   2.0000      -0.376510       -10.2454
  65   2.0000      -0.364855        -9.9282
  66   2.0000      -0.345077        -9.3900
  67   2.0000      -0.344404        -9.3717
  68   2.0000      -0.340866        -9.2754
  69   2.0000      -0.335070        -9.1177
  70   2.0000      -0.326524        -8.8852
  71   2.0000      -0.310672        -8.4538
  72   2.0000      -0.306565        -8.3421
  73   2.0000      -0.292839        -7.9686
  74   2.0000      -0.284142        -7.7319
  75   2.0000      -0.277291        -7.5455
  76   2.0000      -0.259827        -7.0703
  77   0.0000      -0.149914        -4.0794
  78   0.0000      -0.074485        -2.0268
  79   0.0000      -0.030149        -0.8204
  80   0.0000      -0.005792        -0.1576
  81   0.0000       0.064822         1.7639

MULLIKEN ATOMIC CHARGES
-----------------------
   0 Pd:    0.475749
   1 O :   -0.527982
   2 C :    0.605606
   3 O :   -0.405978
   4 C :   -0.755855
   5 H :    0.240928
   6 H :    0.257251
   7 H :    0.252020
   8 N :   -0.466573
   9 C :   -0.529472
  10 H :    0.299522
  11 H :    0.209707
  12 H :    0.261343
  13 C :   -0.554916
  14 H :    0.289526
  15 H :    0.223587
  16 H :    0.289948
  17 C :   -0.023844
  18 C :   -0.238449
  19 C :   -0.188153
  20 C :   -0.236467
  21 C :   -0.248592
  22 C :    0.052169
  23 H :    0.245803
  24 H :    0.268989
  25 H :    0.242271
  26 H :    0.240430
  27 H :   -0.018651
  28 C :   -0.321289
  29 H :    0.255721
  30 H :    0.261807
  31 O :   -0.535702
  32 C :    0.554721
  33 O :   -0.444884
  34 C :   -0.738659
  35 H :    0.228657
  36 H :    0.248504
  37 H :    0.231208
Sum of atomic charges:   -0.0000000

LOEWDIN ATOMIC CHARGES
----------------------
   0 Pd:   -0.253996
   1 O :   -0.201817
   2 C :    0.172248
   3 O :   -0.149889
   4 C :   -0.382582
   5 H :    0.149063
   6 H :    0.159623
   7 H :    0.148703
   8 N :   -0.080427
   9 C :   -0.240545
  10 H :    0.162652
  11 H :    0.114641
  12 H :    0.145193
  13 C :   -0.240643
  14 H :    0.158692
  15 H :    0.120179
  16 H :    0.161937
  17 C :   -0.064604
  18 C :   -0.085690
  19 C :   -0.129739
  20 C :   -0.105372
  21 C :   -0.135597
  22 C :    0.047637
  23 H :    0.148142
  24 H :    0.162101
  25 H :    0.152465
  26 H :    0.149834
  27 H :   -0.020021
  28 C :   -0.096724
  29 H :    0.149273
  30 H :    0.149720
  31 O :   -0.187724
  32 C :    0.138555
  33 O :   -0.252544
  34 C :   -0.388145
  35 H :    0.143190
  36 H :    0.142933
  37 H :    0.139277

  Mayer bond orders larger than 0.100000
B(  0-Pd,  1-O ) :   0.7284 B(  0-Pd,  3-O ) :   0.2321 B(  0-Pd,  8-N ) :   0.3745
B(  0-Pd, 31-O ) :   0.6776 B(  1-O ,  2-C ) :   1.1833 B(  2-C ,  3-O ) :   1.8231
B(  2-C ,  4-C ) :   0.9397 B(  4-C ,  5-H ) :   0.9136 B(  4-C ,  6-H ) :   0.9071
B(  4-C ,  7-H ) :   0.9103 B(  8-N ,  9-C ) :   0.9288 B(  8-N , 13-C ) :   0.9198
B(  8-N , 28-C ) :   0.8882 B(  9-C , 10-H ) :   0.8809 B(  9-C , 11-H ) :   0.9060
B(  9-C , 12-H ) :   0.9101 B( 13-C , 14-H ) :   0.8827 B( 13-C , 15-H ) :   0.9051
B( 13-C , 16-H ) :   0.8919 B( 17-C , 18-C ) :   1.3629 B( 17-C , 22-C ) :   1.4276
B( 17-C , 28-C ) :   0.9420 B( 18-C , 19-C ) :   1.4543 B( 18-C , 21-C ) :   0.1016
B( 18-C , 25-H ) :   0.9025 B( 19-C , 20-C ) :   1.4252 B( 19-C , 26-H ) :   0.9098
B( 20-C , 21-C ) :   1.3782 B( 20-C , 23-H ) :   0.9037 B( 21-C , 22-C ) :   1.4841
B( 21-C , 24-H ) :   0.8976 B( 22-C , 27-H ) :   0.7200 B( 28-C , 29-H ) :   0.8973
B( 28-C , 30-H ) :   0.9134 B( 31-O , 32-C ) :   1.2440 B( 31-O , 33-O ) :   0.1018
B( 32-C , 33-O ) :   1.9021 B( 32-C , 34-C ) :   0.9190 B( 34-C , 35-H ) :   0.9185
B( 34-C , 36-H ) :   0.9097 B( 34-C , 37-H ) :   0.9229

Dispersion correction           -0.025566983
FINAL SINGLE POINT ENERGY      -988.240831960530
Dispersion correction            ... done

DIPOLE MOMENT
-------------
                                X             Y             Z
Electronic contribution:     19.59342      17.25281     -14.98683
Nuclear contribution   :    -21.52731     -18.65986      16.48633
                        -----------------------------------------
Total Dipole Moment    :     -1.93389      -1.40705       1.49951
                        -----------------------------------------
Magnitude (a.u.)       :      2.82281
Magnitude (Debye)      :      7.17501

Rotational constants in cm-1:     0.013349     0.008381     0.006792
Rotational constants in MHz :   400.204147   251.266925   203.608090

                             ****ORCA TERMINATED NORMALLY****
TOTAL RUN TIME: 0 days 0 hours 20 minutes 1 seconds 889 msec
