                         Program Version 5.0.3 -  RELEASE  -
|  1> ! EnGrad PBEh-3c
|  2> %output
|  3> xyzfile=True
|  4> end
|  5> %scf
|  6> maxiter 250
|  7> end
|  8> %output
|  9> Print[P_Hirshfeld] = 1
| 10> end
| 11> % maxcore
| 12> 4000
| 13> *xyz 0 1
| 14> Pd   0.48555356   0.38746557  -0.31523490
| 15> O    1.99333033   1.32514223   0.56356797
| 16> C    1.61423458   2.62524539   0.32703631
| 17> O    0.55551831   2.83920861  -0.14969701
| 18> C    2.66272601   3.70919506   0.58560459
| 19> H    2.14282199   4.56424161   1.02268220
| 20> H    3.08460608   4.03587791  -0.36230153
| 21> H    3.47033507   3.40319990   1.24211799
| 22> N   -1.37841558  -0.65312223  -1.13259245
| 23> C   -1.24212424  -1.60362219  -2.23166498
| 24> H   -0.82042343  -1.11142204  -3.08449656
| 25> H   -2.24715812  -1.92977689  -2.50341823
| 26> H   -0.63983972  -2.43839385  -1.93553195
| 27> C   -2.17855477   0.49823429  -1.59618285
| 28> H   -2.29538097   1.25766241  -0.84473005
| 29> H   -3.15977863   0.12624097  -1.89685349
| 30> H   -1.68436671   0.91608432  -2.46755473
| 31> C   -1.52181505  -0.99265555   1.38187221
| 32> C   -0.90617776  -2.03392796   2.16871018
| 33> C   -0.70834700  -1.88180865   3.52049375
| 34> C   -1.13728888  -0.73694574   4.13958793
| 35> C   -1.76625946   0.28390840   3.41236649
| 36> C   -1.83906789   0.12368871   2.09158691
| 37> H   -0.99252208  -0.60271979   5.21314050
| 38> H   -2.25194315   1.04367293   3.95543160
| 39> H   -0.63571674  -2.97659257   1.71448604
| 40> H   -0.37363047  -2.72108581   4.11787841
| 41> H   -2.33795141   3.09899015   1.65394900
| 42> C   -2.05514566  -1.34163289   0.05295254
| 43> H   -3.11695025  -1.07395047   0.04408441
| 44> H   -2.05415424  -2.41678260  -0.11482372
| 45> O    1.94205533  -0.71619303  -1.17452510
| 46> C    2.22772776  -0.50470434  -2.44747748
| 47> O    1.52107142  -0.03325217  -3.29587345
| 48> C    3.65682856  -1.01372893  -2.81687291
| 49> H    3.63433151  -2.09686467  -2.92832173
| 50> H    4.41296846  -0.75587530  -2.11063379
| 51> H    3.94287726  -0.60010801  -3.79834681
| 52> *
| 53>
| 54>                          ****END OF INPUT****

CARTESIAN COORDINATES (ANGSTROEM)
---------------------------------
  Pd     0.485554    0.387466   -0.315235
  O      1.993330    1.325142    0.563568
  C      1.614235    2.625245    0.327036
  O      0.555518    2.839209   -0.149697
  C      2.662726    3.709195    0.585605
  H      2.142822    4.564242    1.022682
  H      3.084606    4.035878   -0.362302
  H      3.470335    3.403200    1.242118
  N     -1.378416   -0.653122   -1.132592
  C     -1.242124   -1.603622   -2.231665
  H     -0.820423   -1.111422   -3.084497
  H     -2.247158   -1.929777   -2.503418
  H     -0.639840   -2.438394   -1.935532
  C     -2.178555    0.498234   -1.596183
  H     -2.295381    1.257662   -0.844730
  H     -3.159779    0.126241   -1.896853
  H     -1.684367    0.916084   -2.467555
  C     -1.521815   -0.992656    1.381872
  C     -0.906178   -2.033928    2.168710
  C     -0.708347   -1.881809    3.520494
  C     -1.137289   -0.736946    4.139588
  C     -1.766259    0.283908    3.412366
  C     -1.839068    0.123689    2.091587
  H     -0.992522   -0.602720    5.213140
  H     -2.251943    1.043673    3.955432
  H     -0.635717   -2.976593    1.714486
  H     -0.373630   -2.721086    4.117878
  H     -2.337951    3.098990    1.653949
  C     -2.055146   -1.341633    0.052953
  H     -3.116950   -1.073950    0.044084
  H     -2.054154   -2.416783   -0.114824
  O      1.942055   -0.716193   -1.174525
  C      2.227728   -0.504704   -2.447477
  O      1.521071   -0.033252   -3.295873
  C      3.656829   -1.013729   -2.816873
  H      3.634332   -2.096865   -2.928322
  H      4.412968   -0.755875   -2.110634
  H      3.942877   -0.600108   -3.798347

 Total Charge           Charge          ....    0
 Multiplicity           Mult            ....    1
 Number of Electrons    NEL             ....  154
 Basis Dimension        Dim             ....  339

ORBITAL ENERGIES
----------------

  NO   OCC          E(Eh)            E(eV)
   0   2.0000     -19.485699      -530.2328
   1   2.0000     -19.477477      -530.0091
   2   2.0000     -19.471111      -529.8359
   3   2.0000     -19.434858      -528.8494
   4   2.0000     -14.713734      -400.3811
   5   2.0000     -10.557131      -287.2741
   6   2.0000     -10.531715      -286.5825
   7   2.0000     -10.526113      -286.4301
   8   2.0000     -10.513272      -286.0807
   9   2.0000     -10.506736      -285.9028
  10   2.0000     -10.491110      -285.4776
  11   2.0000     -10.484127      -285.2876
  12   2.0000     -10.480388      -285.1859
  13   2.0000     -10.478493      -285.1343
  14   2.0000     -10.475178      -285.0441
  15   2.0000     -10.472159      -284.9619
  16   2.0000     -10.432502      -283.8828
  17   2.0000     -10.409086      -283.2456
  18   2.0000      -3.655968       -99.4839
  19   2.0000      -2.307355       -62.7863
  20   2.0000      -2.296107       -62.4802
  21   2.0000      -2.267448       -61.7004
  22   2.0000      -1.188856       -32.3504
  23   2.0000      -1.142318       -31.0841
  24   2.0000      -1.068433       -29.0735
  25   2.0000      -1.055786       -28.7294
  26   2.0000      -1.048940       -28.5431
  27   2.0000      -1.003905       -27.3176
  28   2.0000      -0.905853       -24.6495
  29   2.0000      -0.875086       -23.8123
  30   2.0000      -0.820129       -22.3169
  31   2.0000      -0.813674       -22.1412
  32   2.0000      -0.813158       -22.1272
  33   2.0000      -0.781743       -21.2723
  34   2.0000      -0.725170       -19.7329
  35   2.0000      -0.715041       -19.4573
  36   2.0000      -0.682476       -18.5711
  37   2.0000      -0.612776       -16.6745
  38   2.0000      -0.597161       -16.2496
  39   2.0000      -0.580689       -15.8013
  40   2.0000      -0.578732       -15.7481
  41   2.0000      -0.573758       -15.6127
  42   2.0000      -0.563652       -15.3377
  43   2.0000      -0.541997       -14.7485
  44   2.0000      -0.536061       -14.5870
  45   2.0000      -0.533173       -14.5084
  46   2.0000      -0.517108       -14.0712
  47   2.0000      -0.510181       -13.8827
  48   2.0000      -0.507157       -13.8004
  49   2.0000      -0.501291       -13.6408
  50   2.0000      -0.489480       -13.3194
  51   2.0000      -0.485881       -13.2215
  52   2.0000      -0.480239       -13.0680
  53   2.0000      -0.478331       -13.0161
  54   2.0000      -0.466912       -12.7053
  55   2.0000      -0.452173       -12.3043
  56   2.0000      -0.450293       -12.2531
  57   2.0000      -0.448434       -12.2025
  58   2.0000      -0.442744       -12.0477
  59   2.0000      -0.438332       -11.9276
  60   2.0000      -0.435007       -11.8372
  61   2.0000      -0.424434       -11.5494
  62   2.0000      -0.412529       -11.2255
  63   2.0000      -0.398999       -10.8573
  64   2.0000      -0.377847       -10.2817
  65   2.0000      -0.363826        -9.9002
  66   2.0000      -0.345200        -9.3934
  67   2.0000      -0.345134        -9.3916
  68   2.0000      -0.340594        -9.2680
  69   2.0000      -0.335317        -9.1245
  70   2.0000      -0.327024        -8.8988
  71   2.0000      -0.310676        -8.4539
  72   2.0000      -0.306764        -8.3475
  73   2.0000      -0.292676        -7.9641
  74   2.0000      -0.284597        -7.7443
  75   2.0000      -0.277749        -7.5579
  76   2.0000      -0.259611        -7.0644
  77   0.0000      -0.148658        -4.0452
  78   0.0000      -0.072947        -1.9850
  79   0.0000      -0.029640        -0.8065
  80   0.0000      -0.006055        -0.1648
  81   0.0000       0.062787         1.7085

MULLIKEN ATOMIC CHARGES
-----------------------
   0 Pd:    0.475720
   1 O :   -0.531636
   2 C :    0.606631
   3 O :   -0.402796
   4 C :   -0.755473
   5 H :    0.241733
   6 H :    0.258463
   7 H :    0.253038
   8 N :   -0.464815
   9 C :   -0.527668
  10 H :    0.298205
  11 H :    0.208915
  12 H :    0.260411
  13 C :   -0.552419
  14 H :    0.287916
  15 H :    0.222212
  16 H :    0.288322
  17 C :   -0.018341
  18 C :   -0.243755
  19 C :   -0.185177
  20 C :   -0.238981
  21 C :   -0.246974
  22 C :    0.051596
  23 H :    0.245768
  24 H :    0.269740
  25 H :    0.243777
  26 H :    0.239335
  27 H :   -0.021968
  28 C :   -0.321788
  29 H :    0.254881
  30 H :    0.260937
  31 O :   -0.536608
  32 C :    0.553348
  33 O :   -0.439399
  34 C :   -0.738845
  35 H :    0.228298
  36 H :    0.247725
  37 H :    0.229671
Sum of atomic charges:   -0.0000000

LOEWDIN ATOMIC CHARGES
----------------------
   0 Pd:   -0.256011
   1 O :   -0.200169
   2 C :    0.179039
   3 O :   -0.146816
   4 C :   -0.382122
   5 H :    0.149531
   6 H :    0.160416
   7 H :    0.149312
   8 N :   -0.085583
   9 C :   -0.240442
  10 H :    0.162448
  11 H :    0.114208
  12 H :    0.145040
  13 C :   -0.240747
  14 H :    0.158597
  15 H :    0.119394
  16 H :    0.161330
  17 C :   -0.064598
  18 C :   -0.085620
  19 C :   -0.129736
  20 C :   -0.105362
  21 C :   -0.135803
  22 C :    0.049681
  23 H :    0.148029
  24 H :    0.162303
  25 H :    0.152649
  26 H :    0.149902
  27 H :   -0.023373
  28 C :   -0.096887
  29 H :    0.148657
  30 H :    0.149300
  31 O :   -0.191918
  32 C :    0.137306
  33 O :   -0.246504
  34 C :   -0.389312
  35 H :    0.142833
  36 H :    0.142839
  37 H :    0.138188

  Mayer bond orders larger than 0.100000
B(  0-Pd,  1-O ) :   0.7375 B(  0-Pd,  3-O ) :   0.2305 B(  0-Pd,  8-N ) :   0.3681
B(  0-Pd, 31-O ) :   0.6771 B(  1-O ,  2-C ) :   1.1699 B(  2-C ,  3-O ) :   1.8270
B(  2-C ,  4-C ) :   0.9404 B(  4-C ,  5-H ) :   0.9129 B(  4-C ,  6-H ) :   0.9064
B(  4-C ,  7-H ) :   0.9097 B(  8-N ,  9-C ) :   0.9293 B(  8-N , 13-C ) :   0.9208
B(  8-N , 28-C ) :   0.8893 B(  9-C , 10-H ) :   0.8815 B(  9-C , 11-H ) :   0.9063
B(  9-C , 12-H ) :   0.9104 B( 13-C , 14-H ) :   0.8834 B( 13-C , 15-H ) :   0.9055
B( 13-C , 16-H ) :   0.8927 B( 17-C , 18-C ) :   1.3607 B( 17-C , 22-C ) :   1.4293
B( 17-C , 28-C ) :   0.9412 B( 18-C , 19-C ) :   1.4553 B( 18-C , 21-C ) :   0.1014
B( 18-C , 25-H ) :   0.9018 B( 19-C , 20-C ) :   1.4225 B( 19-C , 26-H ) :   0.9106
B( 20-C , 21-C ) :   1.3804 B( 20-C , 23-H ) :   0.9037 B( 21-C , 22-C ) :   1.4816
B( 21-C , 24-H ) :   0.8975 B( 22-C , 27-H ) :   0.7195 B( 28-C , 29-H ) :   0.8974
B( 28-C , 30-H ) :   0.9138 B( 31-O , 32-C ) :   1.2422 B( 31-O , 33-O ) :   0.1021
B( 32-C , 33-O ) :   1.9099 B( 32-C , 34-C ) :   0.9165 B( 34-C , 35-H ) :   0.9187
B( 34-C , 36-H ) :   0.9106 B( 34-C , 37-H ) :   0.9228

Dispersion correction           -0.025556631
FINAL SINGLE POINT ENERGY      -988.240818851847
Dispersion correction            ... done

DIPOLE MOMENT
-------------
                                X             Y             Z
Electronic contribution:     20.17518      17.59405     -14.53056
Nuclear contribution   :    -22.06721     -18.93789      16.05645
                        -----------------------------------------
Total Dipole Moment    :     -1.89203      -1.34385       1.52589
                        -----------------------------------------
Magnitude (a.u.)       :      2.77741
Magnitude (Debye)      :      7.05963

Rotational constants in cm-1:     0.013344     0.008376     0.006786
Rotational constants in MHz :   400.053277   251.097038   203.425509

                             ****ORCA TERMINATED NORMALLY****
TOTAL RUN TIME: 0 days 0 hours 13 minutes 59 seconds 374 msec
