                         Program Version 5.0.3 -  RELEASE  -
|  1> ! EnGrad PBEh-3c
|  2> %output
|  3> xyzfile=True
|  4> end
|  5> %scf
|  6> maxiter 250
|  7> end
|  8> %output
|  9> Print[P_Hirshfeld] = 1
| 10> end
| 11> % maxcore
| 12> 4000
| 13> *xyz 0 1
| 14> Pd   0.61061148   0.43819866  -0.23547733
| 15> O    1.92777157   1.24900311   0.48011825
| 16> C    1.55702984   2.62000660   0.36133270
| 17> O    0.49930810   2.86281225  -0.18985442
| 18> C    2.65962882   3.68058441   0.59711143
| 19> H    2.15810551   4.55184470   1.01466089
| 20> H    3.10157527   4.02415642  -0.36359813
| 21> H    3.48309635   3.37746471   1.24872493
| 22> N   -1.43064691  -0.67309891  -1.16830350
| 23> C   -1.23569958  -1.66662332  -2.25090402
| 24> H   -0.72703448  -1.12727456  -3.05440022
| 25> H   -2.24924121  -1.99757190  -2.43257934
| 26> H   -0.61496864  -2.49028378  -1.86981647
| 27> C   -2.19374961   0.51089690  -1.62728139
| 28> H   -2.29255396   1.28236862  -0.82356746
| 29> H   -3.15233986   0.08497741  -1.91881249
| 30> H   -1.64206423   0.87694425  -2.50014914
| 31> C   -1.53458936  -0.96740038   1.41884675
| 32> C   -1.04895379  -2.06782823   2.18555701
| 33> C   -0.68605396  -1.86927298   3.51085673
| 34> C   -1.18618946  -0.74706715   4.16358094
| 35> C   -1.71474552   0.32648959   3.49636617
| 36> C   -1.77442303   0.15209039   2.16505605
| 37> H   -1.01133687  -0.59763856   5.20093670
| 38> H   -2.12002552   1.21296965   3.93939607
| 39> H   -0.74761915  -2.99801799   1.68126809
| 40> H   -0.41499095  -2.73025066   4.11791470
| 41> H   -2.26356754   2.91576469   1.59626140
| 42> C   -2.06732081  -1.30187787   0.04679591
| 43> H   -3.10316651  -0.99045480   0.00324587
| 44> H   -2.04472635  -2.38682476  -0.13696103
| 45> O    2.03635904  -0.78374268  -1.20209762
| 46> C    2.18115664  -0.50738037  -2.49314213
| 47> O    1.43743268  -0.02326915  -3.35229277
| 48> C    3.65213432  -0.96169439  -2.80985667
| 49> H    3.65528446  -2.04786500  -2.96181643
| 50> H    4.44393624  -0.70308504  -2.06381616
| 51> H    3.86730012  -0.52246481  -3.77426692
| 52> *
| 53>
| 54>                          ****END OF INPUT****

CARTESIAN COORDINATES (ANGSTROEM)
---------------------------------
  Pd     0.610611    0.438199   -0.235477
  O      1.927772    1.249003    0.480118
  C      1.557030    2.620007    0.361333
  O      0.499308    2.862812   -0.189854
  C      2.659629    3.680584    0.597111
  H      2.158106    4.551845    1.014661
  H      3.101575    4.024156   -0.363598
  H      3.483096    3.377465    1.248725
  N     -1.430647   -0.673099   -1.168303
  C     -1.235700   -1.666623   -2.250904
  H     -0.727034   -1.127275   -3.054400
  H     -2.249241   -1.997572   -2.432579
  H     -0.614969   -2.490284   -1.869816
  C     -2.193750    0.510897   -1.627281
  H     -2.292554    1.282369   -0.823567
  H     -3.152340    0.084977   -1.918812
  H     -1.642064    0.876944   -2.500149
  C     -1.534589   -0.967400    1.418847
  C     -1.048954   -2.067828    2.185557
  C     -0.686054   -1.869273    3.510857
  C     -1.186189   -0.747067    4.163581
  C     -1.714746    0.326490    3.496366
  C     -1.774423    0.152090    2.165056
  H     -1.011337   -0.597639    5.200937
  H     -2.120026    1.212970    3.939396
  H     -0.747619   -2.998018    1.681268
  H     -0.414991   -2.730251    4.117915
  H     -2.263568    2.915765    1.596261
  C     -2.067321   -1.301878    0.046796
  H     -3.103167   -0.990455    0.003246
  H     -2.044726   -2.386825   -0.136961
  O      2.036359   -0.783743   -1.202098
  C      2.181157   -0.507380   -2.493142
  O      1.437433   -0.023269   -3.352293
  C      3.652134   -0.961694   -2.809857
  H      3.655284   -2.047865   -2.961816
  H      4.443936   -0.703085   -2.063816
  H      3.867300   -0.522465   -3.774267

 Total Charge           Charge          ....    0
 Multiplicity           Mult            ....    1
 Number of Electrons    NEL             ....  154
 Basis Dimension        Dim             ....  339

ORBITAL ENERGIES
----------------

  NO   OCC          E(Eh)            E(eV)
   0   2.0000     -19.522290      -531.2285
   1   2.0000     -19.511064      -530.9231
   2   2.0000     -19.466076      -529.6989
   3   2.0000     -19.440885      -529.0134
   4   2.0000     -14.683581      -399.5606
   5   2.0000     -10.594427      -288.2890
   6   2.0000     -10.535601      -286.6883
   7   2.0000     -10.531875      -286.5869
   8   2.0000     -10.506031      -285.8836
   9   2.0000     -10.504498      -285.8419
  10   2.0000     -10.492732      -285.5218
  11   2.0000     -10.482424      -285.2413
  12   2.0000     -10.481291      -285.2104
  13   2.0000     -10.478550      -285.1358
  14   2.0000     -10.472492      -284.9710
  15   2.0000     -10.467456      -284.8339
  16   2.0000     -10.459727      -284.6236
  17   2.0000     -10.406513      -283.1756
  18   2.0000      -3.660989       -99.6206
  19   2.0000      -2.324923       -63.2644
  20   2.0000      -2.294046       -62.4242
  21   2.0000      -2.274426       -61.8903
  22   2.0000      -1.200599       -32.6700
  23   2.0000      -1.123095       -30.5610
  24   2.0000      -1.091518       -29.7017
  25   2.0000      -1.046115       -28.4662
  26   2.0000      -1.043660       -28.3994
  27   2.0000      -1.004323       -27.3290
  28   2.0000      -0.900756       -24.5108
  29   2.0000      -0.870928       -23.6992
  30   2.0000      -0.832353       -22.6495
  31   2.0000      -0.807010       -21.9599
  32   2.0000      -0.803606       -21.8672
  33   2.0000      -0.770642       -20.9702
  34   2.0000      -0.717735       -19.5305
  35   2.0000      -0.705045       -19.1852
  36   2.0000      -0.672648       -18.3037
  37   2.0000      -0.640718       -17.4348
  38   2.0000      -0.607838       -16.5401
  39   2.0000      -0.573577       -15.6078
  40   2.0000      -0.571132       -15.5413
  41   2.0000      -0.565944       -15.4001
  42   2.0000      -0.554741       -15.0953
  43   2.0000      -0.551977       -15.0201
  44   2.0000      -0.542845       -14.7716
  45   2.0000      -0.535736       -14.5781
  46   2.0000      -0.529852       -14.4180
  47   2.0000      -0.525184       -14.2910
  48   2.0000      -0.500654       -13.6235
  49   2.0000      -0.490344       -13.3429
  50   2.0000      -0.479188       -13.0394
  51   2.0000      -0.476704       -12.9718
  52   2.0000      -0.475668       -12.9436
  53   2.0000      -0.471696       -12.8355
  54   2.0000      -0.469398       -12.7730
  55   2.0000      -0.464386       -12.6366
  56   2.0000      -0.459764       -12.5108
  57   2.0000      -0.445810       -12.1311
  58   2.0000      -0.441594       -12.0164
  59   2.0000      -0.440457       -11.9855
  60   2.0000      -0.435863       -11.8604
  61   2.0000      -0.427067       -11.6211
  62   2.0000      -0.420875       -11.4526
  63   2.0000      -0.413630       -11.2554
  64   2.0000      -0.393544       -10.7089
  65   2.0000      -0.374549       -10.1920
  66   2.0000      -0.353951        -9.6315
  67   2.0000      -0.342768        -9.3272
  68   2.0000      -0.336272        -9.1504
  69   2.0000      -0.331492        -9.0204
  70   2.0000      -0.314932        -8.5697
  71   2.0000      -0.311372        -8.4729
  72   2.0000      -0.302059        -8.2194
  73   2.0000      -0.293362        -7.9828
  74   2.0000      -0.284944        -7.7537
  75   2.0000      -0.275704        -7.5023
  76   2.0000      -0.263254        -7.1635
  77   0.0000      -0.133849        -3.6422
  78   0.0000      -0.058904        -1.6029
  79   0.0000      -0.024700        -0.6721
  80   0.0000      -0.013741        -0.3739
  81   0.0000       0.016331         0.4444

MULLIKEN ATOMIC CHARGES
-----------------------
   0 Pd:    0.565188
   1 O :   -0.573297
   2 C :    0.604751
   3 O :   -0.394176
   4 C :   -0.751614
   5 H :    0.254057
   6 H :    0.271014
   7 H :    0.260044
   8 N :   -0.458452
   9 C :   -0.515539
  10 H :    0.291113
  11 H :    0.203850
  12 H :    0.246663
  13 C :   -0.528692
  14 H :    0.268068
  15 H :    0.209650
  16 H :    0.274691
  17 C :    0.003119
  18 C :   -0.260986
  19 C :   -0.190202
  20 C :   -0.244748
  21 C :   -0.243781
  22 C :    0.051226
  23 H :    0.244788
  24 H :    0.278089
  25 H :    0.250178
  26 H :    0.231286
  27 H :   -0.043347
  28 C :   -0.311528
  29 H :    0.245351
  30 H :    0.247775
  31 O :   -0.535272
  32 C :    0.560561
  33 O :   -0.464690
  34 C :   -0.730781
  35 H :    0.226553
  36 H :    0.234396
  37 H :    0.224694
Sum of atomic charges:    0.0000000

LOEWDIN ATOMIC CHARGES
----------------------
   0 Pd:   -0.225231
   1 O :   -0.157199
   2 C :    0.242420
   3 O :   -0.143458
   4 C :   -0.376740
   5 H :    0.155168
   6 H :    0.169411
   7 H :    0.154349
   8 N :   -0.144116
   9 C :   -0.241972
  10 H :    0.166014
  11 H :    0.112488
  12 H :    0.141856
  13 C :   -0.243251
  14 H :    0.156868
  15 H :    0.113311
  16 H :    0.157321
  17 C :   -0.064127
  18 C :   -0.090461
  19 C :   -0.128138
  20 C :   -0.109916
  21 C :   -0.140265
  22 C :    0.059359
  23 H :    0.146716
  24 H :    0.167440
  25 H :    0.154135
  26 H :    0.149375
  27 H :   -0.044401
  28 C :   -0.103447
  29 H :    0.142209
  30 H :    0.144255
  31 O :   -0.222737
  32 C :    0.159663
  33 O :   -0.279669
  34 C :   -0.393196
  35 H :    0.141371
  36 H :    0.142611
  37 H :    0.131985

  Mayer bond orders larger than 0.100000
B(  0-Pd,  1-O ) :   0.7934 B(  0-Pd,  3-O ) :   0.2315 B(  0-Pd,  8-N ) :   0.2962
B(  0-Pd, 31-O ) :   0.6278 B(  1-O ,  2-C ) :   1.0843 B(  1-O ,  3-O ) :   0.1016
B(  2-C ,  3-O ) :   1.8202 B(  2-C ,  4-C ) :   0.9461 B(  4-C ,  5-H ) :   0.9039
B(  4-C ,  6-H ) :   0.8984 B(  4-C ,  7-H ) :   0.9041 B(  8-N ,  9-C ) :   0.9271
B(  8-N , 13-C ) :   0.9282 B(  8-N , 28-C ) :   0.9090 B(  9-C , 10-H ) :   0.8792
B(  9-C , 11-H ) :   0.9094 B(  9-C , 12-H ) :   0.9144 B( 13-C , 14-H ) :   0.8912
B( 13-C , 15-H ) :   0.9089 B( 13-C , 16-H ) :   0.8993 B( 17-C , 18-C ) :   1.3453
B( 17-C , 22-C ) :   1.4299 B( 17-C , 28-C ) :   0.9346 B( 18-C , 19-C ) :   1.4447
B( 18-C , 25-H ) :   0.8996 B( 19-C , 20-C ) :   1.4015 B( 19-C , 26-H ) :   0.9160
B( 20-C , 21-C ) :   1.3913 B( 20-C , 23-H ) :   0.9056 B( 21-C , 22-C ) :   1.4568
B( 21-C , 24-H ) :   0.8948 B( 22-C , 27-H ) :   0.7315 B( 28-C , 29-H ) :   0.8971
B( 28-C , 30-H ) :   0.9174 B( 31-O , 32-C ) :   1.2779 B( 31-O , 33-O ) :   0.1107
B( 32-C , 33-O ) :   1.8741 B( 32-C , 34-C ) :   0.9070 B( 34-C , 35-H ) :   0.9189
B( 34-C , 36-H ) :   0.9196 B( 34-C , 37-H ) :   0.9178

Dispersion correction           -0.025412593
FINAL SINGLE POINT ENERGY      -988.187988916048
Dispersion correction            ... done

DIPOLE MOMENT
-------------
                                X             Y             Z
Electronic contribution:     27.68885      21.07115      -9.64439
Nuclear contribution   :    -28.97519     -21.73050      11.65517
                        -----------------------------------------
Total Dipole Moment    :     -1.28634      -0.65936       2.01078
                        -----------------------------------------
Magnitude (a.u.)       :      2.47642
Magnitude (Debye)      :      6.29457

Rotational constants in cm-1:     0.013258     0.008297     0.006718
Rotational constants in MHz :   397.465190   248.741196   201.394586

                             ****ORCA TERMINATED NORMALLY****
TOTAL RUN TIME: 0 days 0 hours 20 minutes 13 seconds 508 msec
