                         Program Version 5.0.3 -  RELEASE  -
|  1> ! EnGrad PBEh-3c
|  2> %output
|  3> xyzfile=True
|  4> end
|  5> %scf
|  6> maxiter 250
|  7> end
|  8> %output
|  9> Print[P_Hirshfeld] = 1
| 10> end
| 11> % maxcore
| 12> 4000
| 13> *xyz 0 1
| 14> Pd   0.52575985   0.40377633  -0.28959273
| 15> O    1.97225310   1.30066340   0.53673878
| 16> C    1.59584318   2.62356111   0.33806265
| 17> O    0.53744666   2.84679721  -0.16260767
| 18> C    2.66173026   3.69999670   0.58930406
| 19> H    2.14773566   4.56025598   1.02010334
| 20> H    3.09006170   4.03210944  -0.36271839
| 21> H    3.47443784   3.39492601   1.24424213
| 22> N   -1.39520802  -0.65954476  -1.14407360
| 23> C   -1.24005870  -1.62387713  -2.23785035
| 24> H   -0.79039876  -1.11651864  -3.07482055
| 25> H   -2.24782784  -1.95157308  -2.48064344
| 26> H   -0.63184364  -2.45507653  -1.91440433
| 27> C   -2.18343993   0.50230534  -1.60618107
| 28> H   -2.29447208   1.26560549  -0.83792625
| 29> H   -3.15738705   0.11297468  -1.90391334
| 30> H   -1.67076641   0.90350074  -2.47803388
| 31> C   -1.52592201  -0.98453598   1.39375957
| 32> C   -0.95208044  -2.04482694   2.17412646
| 33> C   -0.70117976  -1.87777841   3.51739544
| 34> C   -1.15301048  -0.74019978   4.14730171
| 35> C   -1.74969766   0.29759831   3.43937249
| 36> C   -1.81828448   0.13281989   2.11520734
| 37> H   -0.99857106  -0.60108617   5.20921696
| 38> H   -2.20953146   1.09810205   3.95027615
| 39> H   -0.67169351  -2.98348087   1.70380643
| 40> H   -0.38692792  -2.72403232   4.11789008
| 41> H   -2.31403690   3.04008293   1.63540236
| 42> C   -2.05905999  -1.32885160   0.05097317
| 43> H   -3.11251876  -1.04710650   0.03095476
| 44> H   -2.05112316  -2.40715111  -0.12194089
| 45> O    1.97237410  -0.73791033  -1.18338970
| 46> C    2.21275509  -0.50556469  -2.46215873
| 47> O    1.49418146  -0.03004262  -3.31401233
| 48> C    3.65531935  -0.99699976  -2.81461718
| 49> H    3.64106791  -2.08111121  -2.93909032
| 50> H    4.42292464  -0.73890316  -2.09558186
| 51> H    3.91857911  -0.57514562  -3.79060509
| 52> *
| 53>
| 54>                          ****END OF INPUT****

CARTESIAN COORDINATES (ANGSTROEM)
---------------------------------
  Pd     0.525760    0.403776   -0.289593
  O      1.972253    1.300663    0.536739
  C      1.595843    2.623561    0.338063
  O      0.537447    2.846797   -0.162608
  C      2.661730    3.699997    0.589304
  H      2.147736    4.560256    1.020103
  H      3.090062    4.032109   -0.362718
  H      3.474438    3.394926    1.244242
  N     -1.395208   -0.659545   -1.144074
  C     -1.240059   -1.623877   -2.237850
  H     -0.790399   -1.116519   -3.074821
  H     -2.247828   -1.951573   -2.480643
  H     -0.631844   -2.455077   -1.914404
  C     -2.183440    0.502305   -1.606181
  H     -2.294472    1.265605   -0.837926
  H     -3.157387    0.112975   -1.903913
  H     -1.670766    0.903501   -2.478034
  C     -1.525922   -0.984536    1.393760
  C     -0.952080   -2.044827    2.174126
  C     -0.701180   -1.877778    3.517395
  C     -1.153010   -0.740200    4.147302
  C     -1.749698    0.297598    3.439372
  C     -1.818284    0.132820    2.115207
  H     -0.998571   -0.601086    5.209217
  H     -2.209531    1.098102    3.950276
  H     -0.671694   -2.983481    1.703806
  H     -0.386928   -2.724032    4.117890
  H     -2.314037    3.040083    1.635402
  C     -2.059060   -1.328852    0.050973
  H     -3.112519   -1.047106    0.030955
  H     -2.051123   -2.407151   -0.121941
  O      1.972374   -0.737910   -1.183390
  C      2.212755   -0.505565   -2.462159
  O      1.494181   -0.030043   -3.314012
  C      3.655319   -0.997000   -2.814617
  H      3.641068   -2.081111   -2.939090
  H      4.422925   -0.738903   -2.095582
  H      3.918579   -0.575146   -3.790605

 Total Charge           Charge          ....    0
 Multiplicity           Mult            ....    1
 Number of Electrons    NEL             ....  154
 Basis Dimension        Dim             ....  339

ORBITAL ENERGIES
----------------

  NO   OCC          E(Eh)            E(eV)
   0   2.0000     -19.497701      -530.5594
   1   2.0000     -19.488303      -530.3037
   2   2.0000     -19.469726      -529.7982
   3   2.0000     -19.436470      -528.8932
   4   2.0000     -14.704475      -400.1291
   5   2.0000     -10.569366      -287.6071
   6   2.0000     -10.532637      -286.6076
   7   2.0000     -10.528075      -286.4835
   8   2.0000     -10.510508      -286.0055
   9   2.0000     -10.506382      -285.8932
  10   2.0000     -10.491299      -285.4828
  11   2.0000     -10.483017      -285.2574
  12   2.0000     -10.480479      -285.1883
  13   2.0000     -10.476554      -285.0815
  14   2.0000     -10.475891      -285.0635
  15   2.0000     -10.470517      -284.9173
  16   2.0000     -10.441252      -284.1209
  17   2.0000     -10.407981      -283.2156
  18   2.0000      -3.656579       -99.5006
  19   2.0000      -2.310650       -62.8760
  20   2.0000      -2.294677       -62.4413
  21   2.0000      -2.268690       -61.7342
  22   2.0000      -1.192528       -32.4503
  23   2.0000      -1.136122       -30.9155
  24   2.0000      -1.066353       -29.0169
  25   2.0000      -1.060820       -28.8664
  26   2.0000      -1.047894       -28.5147
  27   2.0000      -1.004283       -27.3279
  28   2.0000      -0.903898       -24.5963
  29   2.0000      -0.874342       -23.7921
  30   2.0000      -0.819744       -22.3064
  31   2.0000      -0.815589       -22.1933
  32   2.0000      -0.810983       -22.0680
  33   2.0000      -0.778094       -21.1730
  34   2.0000      -0.722258       -19.6536
  35   2.0000      -0.711637       -19.3646
  36   2.0000      -0.680536       -18.5183
  37   2.0000      -0.612495       -16.6668
  38   2.0000      -0.607873       -16.5411
  39   2.0000      -0.578577       -15.7439
  40   2.0000      -0.576175       -15.6785
  41   2.0000      -0.567047       -15.4301
  42   2.0000      -0.560777       -15.2595
  43   2.0000      -0.543693       -14.7946
  44   2.0000      -0.537872       -14.6362
  45   2.0000      -0.534579       -14.5466
  46   2.0000      -0.524917       -14.2837
  47   2.0000      -0.515241       -14.0204
  48   2.0000      -0.505121       -13.7451
  49   2.0000      -0.497149       -13.5281
  50   2.0000      -0.485956       -13.2235
  51   2.0000      -0.483863       -13.1666
  52   2.0000      -0.478002       -13.0071
  53   2.0000      -0.477002       -12.9799
  54   2.0000      -0.466607       -12.6970
  55   2.0000      -0.455458       -12.3936
  56   2.0000      -0.450054       -12.2466
  57   2.0000      -0.448336       -12.1999
  58   2.0000      -0.442570       -12.0429
  59   2.0000      -0.440457       -11.9854
  60   2.0000      -0.435217       -11.8428
  61   2.0000      -0.423154       -11.5146
  62   2.0000      -0.412109       -11.2141
  63   2.0000      -0.406016       -11.0483
  64   2.0000      -0.383472       -10.4348
  65   2.0000      -0.361493        -9.8367
  66   2.0000      -0.350528        -9.5383
  67   2.0000      -0.346426        -9.4267
  68   2.0000      -0.339057        -9.2262
  69   2.0000      -0.332859        -9.0575
  70   2.0000      -0.328741        -8.9455
  71   2.0000      -0.310886        -8.4597
  72   2.0000      -0.307694        -8.3728
  73   2.0000      -0.293178        -7.9778
  74   2.0000      -0.284084        -7.7303
  75   2.0000      -0.279406        -7.6030
  76   2.0000      -0.260733        -7.0949
  77   0.0000      -0.144017        -3.9189
  78   0.0000      -0.069258        -1.8846
  79   0.0000      -0.027533        -0.7492
  80   0.0000      -0.007940        -0.2161
  81   0.0000       0.049693         1.3522

MULLIKEN ATOMIC CHARGES
-----------------------
   0 Pd:    0.494496
   1 O :   -0.542756
   2 C :    0.611512
   3 O :   -0.400634
   4 C :   -0.754642
   5 H :    0.245709
   6 H :    0.262712
   7 H :    0.255327
   8 N :   -0.460136
   9 C :   -0.522635
  10 H :    0.295446
  11 H :    0.206809
  12 H :    0.256046
  13 C :   -0.544155
  14 H :    0.281513
  15 H :    0.217878
  16 H :    0.283809
  17 C :   -0.006267
  18 C :   -0.256231
  19 C :   -0.181131
  20 C :   -0.242821
  21 C :   -0.244978
  22 C :    0.049317
  23 H :    0.245569
  24 H :    0.272243
  25 H :    0.247670
  26 H :    0.235319
  27 H :   -0.029057
  28 C :   -0.320172
  29 H :    0.251878
  30 H :    0.257011
  31 O :   -0.534826
  32 C :    0.556290
  33 O :   -0.448640
  34 C :   -0.736917
  35 H :    0.227680
  36 H :    0.243439
  37 H :    0.228325
Sum of atomic charges:   -0.0000000

LOEWDIN ATOMIC CHARGES
----------------------
   0 Pd:   -0.251278
   1 O :   -0.185006
   2 C :    0.201388
   3 O :   -0.145653
   4 C :   -0.380473
   5 H :    0.151377
   6 H :    0.163390
   7 H :    0.150927
   8 N :   -0.103463
   9 C :   -0.240178
  10 H :    0.163245
  11 H :    0.113257
  12 H :    0.144144
  13 C :   -0.241247
  14 H :    0.158164
  15 H :    0.117161
  16 H :    0.159931
  17 C :   -0.064370
  18 C :   -0.087405
  19 C :   -0.129151
  20 C :   -0.106622
  21 C :   -0.137229
  22 C :    0.053683
  23 H :    0.147574
  24 H :    0.163377
  25 H :    0.153247
  26 H :    0.149827
  27 H :   -0.030339
  28 C :   -0.098978
  29 H :    0.146472
  30 H :    0.147668
  31 O :   -0.199908
  32 C :    0.143518
  33 O :   -0.257809
  34 C :   -0.390685
  35 H :    0.142348
  36 H :    0.142888
  37 H :    0.136208

  Mayer bond orders larger than 0.100000
B(  0-Pd,  1-O ) :   0.7590 B(  0-Pd,  3-O ) :   0.2315 B(  0-Pd,  8-N ) :   0.3472
B(  0-Pd, 31-O ) :   0.6621 B(  1-O ,  2-C ) :   1.1393 B(  2-C ,  3-O ) :   1.8250
B(  2-C ,  4-C ) :   0.9430 B(  4-C ,  5-H ) :   0.9101 B(  4-C ,  6-H ) :   0.9040
B(  4-C ,  7-H ) :   0.9078 B(  8-N ,  9-C ) :   0.9289 B(  8-N , 13-C ) :   0.9235
B(  8-N , 28-C ) :   0.8950 B(  9-C , 10-H ) :   0.8813 B(  9-C , 11-H ) :   0.9072
B(  9-C , 12-H ) :   0.9118 B( 13-C , 14-H ) :   0.8861 B( 13-C , 15-H ) :   0.9066
B( 13-C , 16-H ) :   0.8949 B( 17-C , 18-C ) :   1.3568 B( 17-C , 22-C ) :   1.4295
B( 17-C , 28-C ) :   0.9384 B( 18-C , 19-C ) :   1.4538 B( 18-C , 25-H ) :   0.9001
B( 19-C , 20-C ) :   1.4147 B( 19-C , 26-H ) :   0.9134 B( 20-C , 21-C ) :   1.3856
B( 20-C , 23-H ) :   0.9040 B( 21-C , 22-C ) :   1.4742 B( 21-C , 24-H ) :   0.8971
B( 22-C , 27-H ) :   0.7239 B( 28-C , 29-H ) :   0.8975 B( 28-C , 30-H ) :   0.9151
B( 31-O , 32-C ) :   1.2560 B( 31-O , 33-O ) :   0.1049 B( 32-C , 33-O ) :   1.8985
B( 32-C , 34-C ) :   0.9128 B( 34-C , 35-H ) :   0.9188 B( 34-C , 36-H ) :   0.9136
B( 34-C , 37-H ) :   0.9212

Dispersion correction           -0.025519998
FINAL SINGLE POINT ENERGY      -988.241291066123
Dispersion correction            ... done

DIPOLE MOMENT
-------------
                                X             Y             Z
Electronic contribution:     22.58610      18.70682     -12.95936
Nuclear contribution   :    -24.28814     -19.83572      14.64143
                        -----------------------------------------
Total Dipole Moment    :     -1.70204      -1.12891       1.68207
                        -----------------------------------------
Magnitude (a.u.)       :      2.64589
Magnitude (Debye)      :      6.72532

Rotational constants in cm-1:     0.013325     0.008352     0.006765
Rotational constants in MHz :   399.462109   250.382273   202.817806

                             ****ORCA TERMINATED NORMALLY****
TOTAL RUN TIME: 0 days 0 hours 20 minutes 49 seconds 880 msec
