                         Program Version 5.0.3 -  RELEASE  -
|  1> ! EnGrad PBEh-3c
|  2> %output
|  3> xyzfile=True
|  4> end
|  5> %scf
|  6> maxiter 250
|  7> end
|  8> %output
|  9> Print[P_Hirshfeld] = 1
| 10> end
| 11> % maxcore
| 12> 4000
| 13> *xyz -1 1
| 14> C   -2.32567924  -0.09082855   0.72054614
| 15> C   -1.89247043   0.96603020   1.54277308
| 16> C   -3.66207410  -0.46406488   0.84412373
| 17> C   -4.63694285   0.48051672   1.13245789
| 18> C   -4.23222442   1.59636451   1.84557495
| 19> C   -2.88078408   1.84484103   2.00155730
| 20> H   -2.62626688  -1.38640270  -1.67423356
| 21> H   -3.98928178  -1.48763837   0.71028346
| 22> H   -2.64017048   2.88664741   2.20763296
| 23> H   -5.69273499   0.25273349   1.01751787
| 24> H   -4.99392310   2.28687093   2.18890307
| 25> C   -0.46939429   1.46356946   1.57456019
| 26> C    0.66027256   0.49870699   1.82194851
| 27> H   -0.37678126   2.24941982   2.33958531
| 28> H   -0.37731127   2.04303983   0.64704159
| 29> C    1.75301759   0.64785229   0.79084259
| 30> H    0.30407076  -0.53292094   1.85081817
| 31> H    1.09764253   0.61622076   2.82329858
| 32> C    1.66134738   0.01802431  -0.46242430
| 33> C    2.72518830   0.19333352  -1.34922718
| 34> C    3.73947179   1.11715976  -1.11651112
| 35> C    2.92215305   1.34361323   1.11070420
| 36> C    3.78941682   1.76187930   0.10894316
| 37> H    2.80649085  -0.40347059  -2.24897328
| 38> H    4.47963441   1.33698138  -1.87721950
| 39> H    3.04238645   1.74848182   2.11101698
| 40> H    4.46807452   2.59184295   0.26433027
| 41> Pd   0.25265750  -1.31020825  -0.79681051
| 42> Br  -1.49438393  -3.75610336  -0.83964037
| 43> P    1.38399535  -3.00062963   0.08619190
| 44> H    0.91725233  -3.55456031   1.28745602
| 45> C    0.41630903  -1.31586299  -3.87766050
| 46> O    1.50487869  -1.73816559  -4.19121380
| 47> O   -0.46108259  -2.01998410  -3.26867695
| 48> O   -0.12585791  -0.18963590  -4.38090337
| 49> H    2.71553214  -2.80719133   0.50774163
| 50> H    1.65643843  -4.17736316  -0.63342893
| 51> H    0.58112644   0.29090176  -4.81890994
| 52> *
| 53>
| 54>                          ****END OF INPUT****

CARTESIAN COORDINATES (ANGSTROEM)
---------------------------------
  C     -2.325679   -0.090829    0.720546
  C     -1.892470    0.966030    1.542773
  C     -3.662074   -0.464065    0.844124
  C     -4.636943    0.480517    1.132458
  C     -4.232224    1.596365    1.845575
  C     -2.880784    1.844841    2.001557
  H     -2.626267   -1.386403   -1.674234
  H     -3.989282   -1.487638    0.710283
  H     -2.640170    2.886647    2.207633
  H     -5.692735    0.252733    1.017518
  H     -4.993923    2.286871    2.188903
  C     -0.469394    1.463569    1.574560
  C      0.660273    0.498707    1.821949
  H     -0.376781    2.249420    2.339585
  H     -0.377311    2.043040    0.647042
  C      1.753018    0.647852    0.790843
  H      0.304071   -0.532921    1.850818
  H      1.097643    0.616221    2.823299
  C      1.661347    0.018024   -0.462424
  C      2.725188    0.193334   -1.349227
  C      3.739472    1.117160   -1.116511
  C      2.922153    1.343613    1.110704
  C      3.789417    1.761879    0.108943
  H      2.806491   -0.403471   -2.248973
  H      4.479634    1.336981   -1.877219
  H      3.042386    1.748482    2.111017
  H      4.468075    2.591843    0.264330
  Pd     0.252657   -1.310208   -0.796811
  Br    -1.494384   -3.756103   -0.839640
  P      1.383995   -3.000630    0.086192
  H      0.917252   -3.554560    1.287456
  C      0.416309   -1.315863   -3.877661
  O      1.504879   -1.738166   -4.191214
  O     -0.461083   -2.019984   -3.268677
  O     -0.125858   -0.189636   -4.380903
  H      2.715532   -2.807191    0.507742
  H      1.656438   -4.177363   -0.633429
  H      0.581126    0.290902   -4.818910

 Total Charge           Charge          ....   -1
 Multiplicity           Mult            ....    1
 Number of Electrons    NEL             ....  200
 Basis Dimension        Dim             ....  385

ORBITAL ENERGIES
----------------

  NO   OCC          E(Eh)            E(eV)
   0   2.0000    -484.339288    -13179.5421
   1   2.0000     -77.687439     -2113.9827
   2   2.0000     -63.000549     -1714.3321
   3   2.0000     -56.703963     -1542.9933
   4   2.0000     -56.703424     -1542.9786
   5   2.0000     -56.703133     -1542.9707
   6   2.0000     -19.369095      -527.0599
   7   2.0000     -19.282828      -524.7124
   8   2.0000     -19.274246      -524.4789
   9   2.0000     -10.412296      -283.3330
  10   2.0000     -10.361929      -281.9624
  11   2.0000     -10.361233      -281.9435
  12   2.0000     -10.357381      -281.8387
  13   2.0000     -10.356835      -281.8238
  14   2.0000     -10.354571      -281.7622
  15   2.0000     -10.353908      -281.7442
  16   2.0000     -10.350436      -281.6497
  17   2.0000     -10.346113      -281.5320
  18   2.0000     -10.344298      -281.4827
  19   2.0000     -10.343064      -281.4491
  20   2.0000     -10.342737      -281.4402
  21   2.0000     -10.341851      -281.4161
  22   2.0000     -10.340964      -281.3919
  23   2.0000     -10.339783      -281.3598
  24   2.0000      -8.827347      -240.2043
  25   2.0000      -6.761350      -183.9857
  26   2.0000      -6.595871      -179.4828
  27   2.0000      -6.594075      -179.4339
  28   2.0000      -6.590341      -179.3323
  29   2.0000      -4.852438      -132.0415
  30   2.0000      -4.852092      -132.0321
  31   2.0000      -4.851009      -132.0027
  32   2.0000      -3.544018       -96.4376
  33   2.0000      -2.610675       -71.0401
  34   2.0000      -2.610553       -71.0367
  35   2.0000      -2.607413       -70.9513
  36   2.0000      -2.605852       -70.9088
  37   2.0000      -2.605122       -70.8890
  38   2.0000      -2.193066       -59.6763
  39   2.0000      -2.186188       -59.4892
  40   2.0000      -2.159606       -58.7659
  41   2.0000      -1.059590       -28.8329
  42   2.0000      -0.948297       -25.8045
  43   2.0000      -0.883530       -24.0421
  44   2.0000      -0.863990       -23.5104
  45   2.0000      -0.853798       -23.2330
  46   2.0000      -0.796388       -21.6708
  47   2.0000      -0.750534       -20.4231
  48   2.0000      -0.734339       -19.9824
  49   2.0000      -0.720883       -19.6162
  50   2.0000      -0.697568       -18.9818
  51   2.0000      -0.660804       -17.9814
  52   2.0000      -0.635217       -17.2851
  53   2.0000      -0.624097       -16.9826
  54   2.0000      -0.580290       -15.7905
  55   2.0000      -0.564839       -15.3701
  56   2.0000      -0.557331       -15.1658
  57   2.0000      -0.535128       -14.5616
  58   2.0000      -0.515143       -14.0177
  59   2.0000      -0.477116       -12.9830
  60   2.0000      -0.466413       -12.6918
  61   2.0000      -0.439214       -11.9516
  62   2.0000      -0.422008       -11.4834
  63   2.0000      -0.411542       -11.1986
  64   2.0000      -0.404663       -11.0114
  65   2.0000      -0.384809       -10.4712
  66   2.0000      -0.384267       -10.4564
  67   2.0000      -0.380424       -10.3519
  68   2.0000      -0.378067       -10.2877
  69   2.0000      -0.371917       -10.1204
  70   2.0000      -0.368509       -10.0277
  71   2.0000      -0.357086        -9.7168
  72   2.0000      -0.354178        -9.6377
  73   2.0000      -0.351199        -9.5566
  74   2.0000      -0.344974        -9.3872
  75   2.0000      -0.340199        -9.2573
  76   2.0000      -0.335881        -9.1398
  77   2.0000      -0.318846        -8.6763
  78   2.0000      -0.308556        -8.3962
  79   2.0000      -0.303376        -8.2553
  80   2.0000      -0.288785        -7.8582
  81   2.0000      -0.286161        -7.7868
  82   2.0000      -0.280038        -7.6202
  83   2.0000      -0.272682        -7.4201
  84   2.0000      -0.269736        -7.3399
  85   2.0000      -0.237701        -6.4682
  86   2.0000      -0.236343        -6.4312
  87   2.0000      -0.220196        -5.9918
  88   2.0000      -0.204136        -5.5548
  89   2.0000      -0.200671        -5.4605
  90   2.0000      -0.188277        -5.1233
  91   2.0000      -0.179390        -4.8815
  92   2.0000      -0.176630        -4.8064
  93   2.0000      -0.173602        -4.7239
  94   2.0000      -0.171509        -4.6670
  95   2.0000      -0.164327        -4.4716
  96   2.0000      -0.154449        -4.2028
  97   2.0000      -0.135948        -3.6993
  98   2.0000      -0.122961        -3.3459
  99   2.0000      -0.105691        -2.8760
 100   0.0000      -0.015590        -0.4242
 101   0.0000       0.034059         0.9268
 102   0.0000       0.108825         2.9613
 103   0.0000       0.113230         3.0811
 104   0.0000       0.119153         3.2423

MULLIKEN ATOMIC CHARGES
-----------------------
   0 C :   -0.035284
   1 C :   -0.000790
   2 C :   -0.302978
   3 C :   -0.202136
   4 C :   -0.235767
   5 C :   -0.248875
   6 H :    0.193890
   7 H :    0.235884
   8 H :    0.188707
   9 H :    0.188350
  10 H :    0.185697
  11 C :   -0.473969
  12 C :   -0.525509
  13 H :    0.208916
  14 H :    0.269825
  15 C :    0.101751
  16 H :    0.276360
  17 H :    0.215208
  18 C :   -0.156691
  19 C :   -0.273414
  20 C :   -0.225265
  21 C :   -0.275440
  22 C :   -0.234023
  23 H :    0.275049
  24 H :    0.200792
  25 H :    0.184466
  26 H :    0.195690
  27 Pd:    0.172962
  28 Br:   -0.452080
  29 P :   -0.142929
  30 H :    0.130491
  31 C :    0.606304
  32 O :   -0.529804
  33 O :   -0.543223
  34 O :   -0.601579
  35 H :    0.080827
  36 H :    0.151123
  37 H :    0.397463
Sum of atomic charges:   -1.0000000

LOEWDIN ATOMIC CHARGES
----------------------
   0 C :   -0.048488
   1 C :   -0.068558
   2 C :   -0.142365
   3 C :   -0.163898
   4 C :   -0.162921
   5 C :   -0.162474
   6 H :    0.235489
   7 H :    0.136786
   8 H :    0.127331
   9 H :    0.121050
  10 H :    0.118954
  11 C :   -0.218702
  12 C :   -0.214115
  13 H :    0.124065
  14 H :    0.155796
  15 C :   -0.027872
  16 H :    0.159634
  17 H :    0.122592
  18 C :   -0.003153
  19 C :   -0.117721
  20 C :   -0.151199
  21 C :   -0.145908
  22 C :   -0.152488
  23 H :    0.168416
  24 H :    0.128382
  25 H :    0.122826
  26 H :    0.124267
  27 Pd:   -0.694211
  28 Br:   -0.319871
  29 P :    0.421112
  30 H :    0.059967
  31 C :    0.051838
  32 O :   -0.342480
  33 O :   -0.318183
  34 O :   -0.327330
  35 H :    0.024526
  36 H :    0.073513
  37 H :    0.305393

  Mayer bond orders larger than 0.100000
B(  0-C ,  1-C ) :   1.4587 B(  0-C ,  2-C ) :   1.4227 B(  0-C ,  6-H ) :   0.3962
B(  0-C , 27-Pd) :   0.2344 B(  1-C ,  5-C ) :   1.3438 B(  1-C , 11-C ) :   0.9646
B(  2-C ,  3-C ) :   1.4211 B(  2-C ,  7-H ) :   0.9061 B(  3-C ,  4-C ) :   1.4045
B(  3-C ,  9-H ) :   0.9233 B(  4-C ,  5-C ) :   1.4630 B(  4-C , 10-H ) :   0.9269
B(  5-C ,  8-H ) :   0.9221 B(  6-H , 27-Pd) :   0.1669 B(  6-H , 28-Br) :   0.2112
B( 11-C , 12-C ) :   0.9213 B( 11-C , 13-H ) :   0.9305 B( 11-C , 14-H ) :   0.8952
B( 12-C , 15-C ) :   0.9583 B( 12-C , 16-H ) :   0.8838 B( 12-C , 17-H ) :   0.9305
B( 15-C , 18-C ) :   1.3268 B( 15-C , 21-C ) :   1.4244 B( 18-C , 19-C ) :   1.4056
B( 18-C , 27-Pd) :   0.8555 B( 19-C , 20-C ) :   1.3990 B( 19-C , 23-H ) :   0.8714
B( 20-C , 22-C ) :   1.4405 B( 20-C , 24-H ) :   0.9236 B( 21-C , 22-C ) :   1.4103
B( 21-C , 25-H ) :   0.9260 B( 22-C , 26-H ) :   0.9259 B( 27-Pd, 28-Br) :   0.2894
B( 27-Pd, 29-P ) :   0.7271 B( 27-Pd, 33-O ) :   0.2745 B( 28-Br, 29-P ) :   0.1478
B( 29-P , 30-H ) :   0.9245 B( 29-P , 35-H ) :   0.9025 B( 29-P , 36-H ) :   0.9242
B( 31-C , 32-O ) :   1.8075 B( 31-C , 33-O ) :   1.4964 B( 31-C , 34-O ) :   1.0380
B( 34-O , 37-H ) :   0.7895

Dispersion correction           -0.031104788
FINAL SINGLE POINT ENERGY     -3847.403121784426
Dispersion correction            ... done

DIPOLE MOMENT
-------------
                                X             Y             Z
Electronic contribution:     12.41303     -62.89101     -30.80852
Nuclear contribution   :    -11.07176      64.41060      33.80057
                        -----------------------------------------
Total Dipole Moment    :      1.34127       1.51959       2.99205
                        -----------------------------------------
Magnitude (a.u.)       :      3.61393
Magnitude (Debye)      :      9.18589

Rotational constants in cm-1:     0.006592     0.006067     0.004188
Rotational constants in MHz :   197.634561   181.871146   125.565212

                             ****ORCA TERMINATED NORMALLY****
TOTAL RUN TIME: 0 days 0 hours 19 minutes 12 seconds 521 msec
