                         Program Version 5.0.3 -  RELEASE  -
|  1> ! EnGrad PBEh-3c
|  2> %output
|  3> xyzfile=True
|  4> end
|  5> %scf
|  6> maxiter 250
|  7> end
|  8> %output
|  9> Print[P_Hirshfeld] = 1
| 10> end
| 11> % maxcore
| 12> 4000
| 13> *xyz -1 1
| 14> C   -2.36224192  -0.20361756   0.85682512
| 15> C   -1.94330958   1.06590576   1.34530138
| 16> C   -3.70983514  -0.52800137   0.83825567
| 17> C   -4.66733669   0.36359302   1.36161973
| 18> C   -4.26707511   1.63022048   1.79475645
| 19> C   -2.90230511   1.92056455   1.87572001
| 20> H   -2.20536963  -1.38674170  -1.23512048
| 21> H   -3.99785356  -1.52351984   0.47117268
| 22> H   -2.54425011   2.79081143   2.46148117
| 23> H   -5.70941762   0.18907241   1.13100274
| 24> H   -4.97349789   2.36875194   2.17347503
| 25> C   -0.47156908   1.50741536   1.47686695
| 26> C    0.64459326   0.45339262   1.79928057
| 27> H   -0.45132790   2.30158086   2.26375584
| 28> H   -0.22449086   1.97385061   0.51412593
| 29> C    1.79482510   0.52511739   0.80361555
| 30> H    0.23154979  -0.56647445   1.78777958
| 31> H    1.04676825   0.68368944   2.80036772
| 32> C    1.71465300  -0.15939850  -0.44173619
| 33> C    2.72290995   0.14018221  -1.37740888
| 34> C    3.70598555   1.10646298  -1.12522078
| 35> C    2.80485909   1.48323834   1.05889250
| 36> C    3.77550229   1.76127702   0.11034064
| 37> H    2.73918837  -0.40762521  -2.32658563
| 38> H    4.45996201   1.32208942  -1.87370150
| 39> H    2.96015831   1.81991064   2.09050405
| 40> H    4.56659324   2.47704364   0.32576990
| 41> Pd   0.05968607  -1.49671461  -0.90207645
| 42> Br  -1.53595854  -3.52692361  -0.84489145
| 43> P    1.41344291  -2.95424967   0.11563377
| 44> H    0.87534407  -3.53781344   1.28041465
| 45> C    0.43491500  -1.29231963  -3.94161150
| 46> O    1.52297122  -1.66428802  -4.22842218
| 47> O   -0.46093036  -1.87921282  -3.05705198
| 48> O   -0.07342536  -0.13885998  -4.41994322
| 49> H    2.75395255  -2.74899122   0.57629089
| 50> H    1.59927384  -4.14489230  -0.63268748
| 51> H    0.66249483   0.27657913  -4.90809853
| 52> *
| 53>
| 54>                          ****END OF INPUT****

CARTESIAN COORDINATES (ANGSTROEM)
---------------------------------
  C     -2.362242   -0.203618    0.856825
  C     -1.943310    1.065906    1.345301
  C     -3.709835   -0.528001    0.838256
  C     -4.667337    0.363593    1.361620
  C     -4.267075    1.630220    1.794756
  C     -2.902305    1.920565    1.875720
  H     -2.205370   -1.386742   -1.235120
  H     -3.997854   -1.523520    0.471173
  H     -2.544250    2.790811    2.461481
  H     -5.709418    0.189072    1.131003
  H     -4.973498    2.368752    2.173475
  C     -0.471569    1.507415    1.476867
  C      0.644593    0.453393    1.799281
  H     -0.451328    2.301581    2.263756
  H     -0.224491    1.973851    0.514126
  C      1.794825    0.525117    0.803616
  H      0.231550   -0.566474    1.787780
  H      1.046768    0.683689    2.800368
  C      1.714653   -0.159398   -0.441736
  C      2.722910    0.140182   -1.377409
  C      3.705986    1.106463   -1.125221
  C      2.804859    1.483238    1.058893
  C      3.775502    1.761277    0.110341
  H      2.739188   -0.407625   -2.326586
  H      4.459962    1.322089   -1.873701
  H      2.960158    1.819911    2.090504
  H      4.566593    2.477044    0.325770
  Pd     0.059686   -1.496715   -0.902076
  Br    -1.535959   -3.526924   -0.844891
  P      1.413443   -2.954250    0.115634
  H      0.875344   -3.537813    1.280415
  C      0.434915   -1.292320   -3.941611
  O      1.522971   -1.664288   -4.228422
  O     -0.460930   -1.879213   -3.057052
  O     -0.073425   -0.138860   -4.419943
  H      2.753953   -2.748991    0.576291
  H      1.599274   -4.144892   -0.632687
  H      0.662495    0.276579   -4.908099

 Total Charge           Charge          ....   -1
 Multiplicity           Mult            ....    1
 Number of Electrons    NEL             ....  200
 Basis Dimension        Dim             ....  385

ORBITAL ENERGIES
----------------

  NO   OCC          E(Eh)            E(eV)
   0   2.0000    -484.358526    -13180.0656
   1   2.0000     -77.686560     -2113.9588
   2   2.0000     -63.020043     -1714.8625
   3   2.0000     -56.723828     -1543.5338
   4   2.0000     -56.722800     -1543.5059
   5   2.0000     -56.722298     -1543.4922
   6   2.0000     -19.382909      -527.4358
   7   2.0000     -19.316141      -525.6189
   8   2.0000     -19.291863      -524.9583
   9   2.0000     -10.439534      -284.0742
  10   2.0000     -10.357007      -281.8285
  11   2.0000     -10.352557      -281.7074
  12   2.0000     -10.350584      -281.6537
  13   2.0000     -10.348661      -281.6014
  14   2.0000     -10.347286      -281.5640
  15   2.0000     -10.346251      -281.5358
  16   2.0000     -10.346190      -281.5341
  17   2.0000     -10.344433      -281.4863
  18   2.0000     -10.343009      -281.4476
  19   2.0000     -10.342399      -281.4310
  20   2.0000     -10.342176      -281.4249
  21   2.0000     -10.339335      -281.3476
  22   2.0000     -10.339104      -281.3413
  23   2.0000     -10.337219      -281.2900
  24   2.0000      -8.847328      -240.7480
  25   2.0000      -6.759258      -183.9288
  26   2.0000      -6.617270      -180.0651
  27   2.0000      -6.613249      -179.9557
  28   2.0000      -6.609759      -179.8607
  29   2.0000      -4.850376      -131.9854
  30   2.0000      -4.850112      -131.9783
  31   2.0000      -4.848844      -131.9437
  32   2.0000      -3.526571       -95.9629
  33   2.0000      -2.631661       -71.6111
  34   2.0000      -2.631085       -71.5955
  35   2.0000      -2.628123       -71.5148
  36   2.0000      -2.624667       -71.4208
  37   2.0000      -2.624241       -71.4092
  38   2.0000      -2.173088       -59.1327
  39   2.0000      -2.168096       -58.9969
  40   2.0000      -2.141601       -58.2759
  41   2.0000      -1.074105       -29.2279
  42   2.0000      -0.970677       -26.4135
  43   2.0000      -0.869659       -23.6646
  44   2.0000      -0.846057       -23.0224
  45   2.0000      -0.839842       -22.8533
  46   2.0000      -0.774963       -21.0878
  47   2.0000      -0.736421       -20.0390
  48   2.0000      -0.723484       -19.6870
  49   2.0000      -0.713316       -19.4103
  50   2.0000      -0.679285       -18.4843
  51   2.0000      -0.671817       -18.2811
  52   2.0000      -0.644511       -17.5380
  53   2.0000      -0.610562       -16.6142
  54   2.0000      -0.565219       -15.3804
  55   2.0000      -0.555106       -15.1052
  56   2.0000      -0.547194       -14.8899
  57   2.0000      -0.529015       -14.3952
  58   2.0000      -0.524665       -14.2769
  59   2.0000      -0.461169       -12.5490
  60   2.0000      -0.454832       -12.3766
  61   2.0000      -0.424924       -11.5628
  62   2.0000      -0.408188       -11.1074
  63   2.0000      -0.401411       -10.9229
  64   2.0000      -0.399712       -10.8767
  65   2.0000      -0.390873       -10.6362
  66   2.0000      -0.381212       -10.3733
  67   2.0000      -0.375247       -10.2110
  68   2.0000      -0.373914       -10.1747
  69   2.0000      -0.369377       -10.0512
  70   2.0000      -0.367468        -9.9993
  71   2.0000      -0.363150        -9.8818
  72   2.0000      -0.357567        -9.7299
  73   2.0000      -0.342336        -9.3154
  74   2.0000      -0.335595        -9.1320
  75   2.0000      -0.327963        -8.9243
  76   2.0000      -0.318287        -8.6610
  77   2.0000      -0.311092        -8.4653
  78   2.0000      -0.308146        -8.3851
  79   2.0000      -0.297098        -8.0844
  80   2.0000      -0.291156        -7.9228
  81   2.0000      -0.274199        -7.4613
  82   2.0000      -0.273235        -7.4351
  83   2.0000      -0.264385        -7.1943
  84   2.0000      -0.261821        -7.1245
  85   2.0000      -0.238494        -6.4897
  86   2.0000      -0.233422        -6.3517
  87   2.0000      -0.224216        -6.1012
  88   2.0000      -0.213771        -5.8170
  89   2.0000      -0.203606        -5.5404
  90   2.0000      -0.186258        -5.0683
  91   2.0000      -0.182690        -4.9712
  92   2.0000      -0.180019        -4.8986
  93   2.0000      -0.173434        -4.7194
  94   2.0000      -0.168953        -4.5974
  95   2.0000      -0.163689        -4.4542
  96   2.0000      -0.162052        -4.4097
  97   2.0000      -0.143258        -3.8983
  98   2.0000      -0.127043        -3.4570
  99   2.0000      -0.110734        -3.0132
 100   0.0000       0.028619         0.7788
 101   0.0000       0.061680         1.6784
 102   0.0000       0.115340         3.1386
 103   0.0000       0.120771         3.2864
 104   0.0000       0.126443         3.4407

MULLIKEN ATOMIC CHARGES
-----------------------
   0 C :   -0.060216
   1 C :    0.040507
   2 C :   -0.296676
   3 C :   -0.227242
   4 C :   -0.228017
   5 C :   -0.254692
   6 H :    0.204779
   7 H :    0.231035
   8 H :    0.182652
   9 H :    0.186195
  10 H :    0.185314
  11 C :   -0.461198
  12 C :   -0.501607
  13 H :    0.189837
  14 H :    0.265889
  15 C :    0.045333
  16 H :    0.272970
  17 H :    0.196223
  18 C :   -0.116245
  19 C :   -0.285748
  20 C :   -0.229262
  21 C :   -0.246365
  22 C :   -0.231169
  23 H :    0.266709
  24 H :    0.191305
  25 H :    0.179469
  26 H :    0.187343
  27 Pd:    0.064113
  28 Br:   -0.345038
  29 P :   -0.135651
  30 H :    0.123174
  31 C :    0.657997
  32 O :   -0.481834
  33 O :   -0.610392
  34 O :   -0.588059
  35 H :    0.093925
  36 H :    0.134715
  37 H :    0.399928
Sum of atomic charges:   -1.0000000

LOEWDIN ATOMIC CHARGES
----------------------
   0 C :   -0.088427
   1 C :   -0.056970
   2 C :   -0.156876
   3 C :   -0.164195
   4 C :   -0.157261
   5 C :   -0.153468
   6 H :    0.270842
   7 H :    0.136515
   8 H :    0.119314
   9 H :    0.122871
  10 H :    0.121004
  11 C :   -0.212480
  12 C :   -0.217411
  13 H :    0.117607
  14 H :    0.154196
  15 C :   -0.046666
  16 H :    0.158516
  17 H :    0.117223
  18 C :   -0.029042
  19 C :   -0.126619
  20 C :   -0.153590
  21 C :   -0.151864
  22 C :   -0.158730
  23 H :    0.161607
  24 H :    0.124042
  25 H :    0.122890
  26 H :    0.121391
  27 Pd:   -0.899802
  28 Br:   -0.130168
  29 P :    0.420163
  30 H :    0.055450
  31 C :    0.127555
  32 O :   -0.288392
  33 O :   -0.356022
  34 O :   -0.317475
  35 H :    0.037464
  36 H :    0.066827
  37 H :    0.309981

  Mayer bond orders larger than 0.100000
B(  0-C ,  1-C ) :   1.3836 B(  0-C ,  2-C ) :   1.4592 B(  0-C ,  6-H ) :   0.3894
B(  0-C , 27-Pd) :   0.2633 B(  1-C ,  5-C ) :   1.4176 B(  1-C , 11-C ) :   0.9520
B(  2-C ,  3-C ) :   1.3630 B(  2-C ,  7-H ) :   0.9051 B(  3-C ,  4-C ) :   1.4493
B(  3-C ,  9-H ) :   0.9256 B(  4-C ,  5-C ) :   1.4021 B(  4-C , 10-H ) :   0.9287
B(  5-C ,  8-H ) :   0.9195 B(  6-H , 27-Pd) :   0.2111 B(  6-H , 28-Br) :   0.2334
B( 11-C , 12-C ) :   0.9166 B( 11-C , 13-H ) :   0.9361 B( 11-C , 14-H ) :   0.8956
B( 12-C , 15-C ) :   0.9802 B( 12-C , 16-H ) :   0.8845 B( 12-C , 17-H ) :   0.9301
B( 15-C , 18-C ) :   1.3555 B( 15-C , 21-C ) :   1.3791 B( 18-C , 19-C ) :   1.4073
B( 18-C , 27-Pd) :   0.7184 B( 18-C , 28-Br) :   0.1028 B( 19-C , 20-C ) :   1.4119
B( 19-C , 23-H ) :   0.8763 B( 20-C , 22-C ) :   1.4190 B( 20-C , 24-H ) :   0.9264
B( 21-C , 22-C ) :   1.4369 B( 21-C , 25-H ) :   0.9251 B( 22-C , 26-H ) :   0.9272
B( 27-Pd, 28-Br) :   0.4686 B( 27-Pd, 29-P ) :   0.6905 B( 27-Pd, 33-O ) :   0.4440
B( 29-P , 30-H ) :   0.9203 B( 29-P , 35-H ) :   0.9096 B( 29-P , 36-H ) :   0.9227
B( 31-C , 32-O ) :   1.8924 B( 31-C , 33-O ) :   1.3078 B( 31-C , 34-O ) :   1.0654
B( 34-O , 37-H ) :   0.7863

Dispersion correction           -0.031399499
FINAL SINGLE POINT ENERGY     -3847.481801016042
Dispersion correction            ... done

DIPOLE MOMENT
-------------
                                X             Y             Z
Electronic contribution:      2.08274     -74.03066     -37.25841
Nuclear contribution   :     -0.76557      74.65512      39.51139
                        -----------------------------------------
Total Dipole Moment    :      1.31718       0.62446       2.25298
                        -----------------------------------------
Magnitude (a.u.)       :      2.68343
Magnitude (Debye)      :      6.82075

Rotational constants in cm-1:     0.006876     0.006075     0.004268
Rotational constants in MHz :   206.130488   182.115883   127.952468

                             ****ORCA TERMINATED NORMALLY****
TOTAL RUN TIME: 0 days 0 hours 16 minutes 47 seconds 458 msec
