                         Program Version 5.0.3 -  RELEASE  -
|  1> ! EnGrad PBEh-3c
|  2> %output
|  3> xyzfile=True
|  4> end
|  5> %scf
|  6> maxiter 250
|  7> end
|  8> %output
|  9> Print[P_Hirshfeld] = 1
| 10> end
| 11> % maxcore
| 12> 4000
| 13> *xyz -1 1
| 14> C   -2.34962825  -0.19330501   0.82277183
| 15> C   -1.92039128   1.04988273   1.35711071
| 16> C   -3.70253046  -0.54089157   0.86260258
| 17> C   -4.65532647   0.37116164   1.32824687
| 18> C   -4.25917267   1.62597770   1.80603246
| 19> C   -2.89809618   1.93571118   1.86683488
| 20> H   -2.11986789  -1.41531926  -1.17348371
| 21> H   -3.99373512  -1.50646780   0.43366998
| 22> H   -2.54624537   2.77230052   2.47316132
| 23> H   -5.71361151   0.17367243   1.15248860
| 24> H   -4.97054724   2.36998995   2.15757836
| 25> C   -0.47236003   1.49385276   1.45963951
| 26> C    0.63309579   0.46234900   1.79813719
| 27> H   -0.46002976   2.29110336   2.25272574
| 28> H   -0.19737268   1.98341235   0.52794814
| 29> C    1.76810841   0.53269197   0.79528577
| 30> H    0.22340730  -0.56242905   1.79448652
| 31> H    1.03844834   0.68094852   2.79670123
| 32> C    1.70041872  -0.16691434  -0.44175737
| 33> C    2.70931679   0.13151182  -1.37039071
| 34> C    3.69654599   1.09423451  -1.12631934
| 35> C    2.80503600   1.45222500   1.05987541
| 36> C    3.76086485   1.76574817   0.10390231
| 37> H    2.72302449  -0.39777604  -2.33117881
| 38> H    4.44876086   1.31867260  -1.87442951
| 39> H    2.93793496   1.83996407   2.07691475
| 40> H    4.57285458   2.45769171   0.32744056
| 41> Pd   0.07600012  -1.49969666  -0.86656006
| 42> Br  -1.56982179  -3.49351466  -0.84613093
| 43> P    1.41414259  -2.94796038   0.11559041
| 44> H    0.88331699  -3.53534809   1.27258808
| 45> C    0.44802272  -1.24855260  -3.89809089
| 46> O    1.51204316  -1.68034875  -4.23825834
| 47> O   -0.46180055  -1.87084189  -3.07601812
| 48> O   -0.08524066  -0.14084365  -4.42218260
| 49> H    2.74805100  -2.74296464   0.56700499
| 50> H    1.59355632  -4.13210228  -0.63486052
| 51> H    0.67006214   0.27121654  -4.91118634
| 52> *
| 53>
| 54>                          ****END OF INPUT****

CARTESIAN COORDINATES (ANGSTROEM)
---------------------------------
  C     -2.349628   -0.193305    0.822772
  C     -1.920391    1.049883    1.357111
  C     -3.702530   -0.540892    0.862603
  C     -4.655326    0.371162    1.328247
  C     -4.259173    1.625978    1.806032
  C     -2.898096    1.935711    1.866835
  H     -2.119868   -1.415319   -1.173484
  H     -3.993735   -1.506468    0.433670
  H     -2.546245    2.772301    2.473161
  H     -5.713612    0.173672    1.152489
  H     -4.970547    2.369990    2.157578
  C     -0.472360    1.493853    1.459640
  C      0.633096    0.462349    1.798137
  H     -0.460030    2.291103    2.252726
  H     -0.197373    1.983412    0.527948
  C      1.768108    0.532692    0.795286
  H      0.223407   -0.562429    1.794487
  H      1.038448    0.680949    2.796701
  C      1.700419   -0.166914   -0.441757
  C      2.709317    0.131512   -1.370391
  C      3.696546    1.094235   -1.126319
  C      2.805036    1.452225    1.059875
  C      3.760865    1.765748    0.103902
  H      2.723024   -0.397776   -2.331179
  H      4.448761    1.318673   -1.874430
  H      2.937935    1.839964    2.076915
  H      4.572855    2.457692    0.327441
  Pd     0.076000   -1.499697   -0.866560
  Br    -1.569822   -3.493515   -0.846131
  P      1.414143   -2.947960    0.115590
  H      0.883317   -3.535348    1.272588
  C      0.448023   -1.248553   -3.898091
  O      1.512043   -1.680349   -4.238258
  O     -0.461801   -1.870842   -3.076018
  O     -0.085241   -0.140844   -4.422183
  H      2.748051   -2.742965    0.567005
  H      1.593556   -4.132102   -0.634861
  H      0.670062    0.271217   -4.911186

 Total Charge           Charge          ....   -1
 Multiplicity           Mult            ....    1
 Number of Electrons    NEL             ....  200
 Basis Dimension        Dim             ....  385

ORBITAL ENERGIES
----------------

  NO   OCC          E(Eh)            E(eV)
   0   2.0000    -484.365019    -13180.2422
   1   2.0000     -77.686868     -2113.9672
   2   2.0000     -63.026536     -1715.0392
   3   2.0000     -56.730384     -1543.7122
   4   2.0000     -56.729251     -1543.6814
   5   2.0000     -56.728761     -1543.6681
   6   2.0000     -19.385843      -527.5156
   7   2.0000     -19.310040      -525.4529
   8   2.0000     -19.289285      -524.8881
   9   2.0000     -10.435944      -283.9765
  10   2.0000     -10.358332      -281.8646
  11   2.0000     -10.353004      -281.7196
  12   2.0000     -10.349756      -281.6312
  13   2.0000     -10.348068      -281.5852
  14   2.0000     -10.347893      -281.5805
  15   2.0000     -10.347096      -281.5588
  16   2.0000     -10.343496      -281.4608
  17   2.0000     -10.341603      -281.4093
  18   2.0000     -10.341296      -281.4010
  19   2.0000     -10.341154      -281.3971
  20   2.0000     -10.339678      -281.3570
  21   2.0000     -10.338551      -281.3263
  22   2.0000     -10.337483      -281.2972
  23   2.0000     -10.334592      -281.2185
  24   2.0000      -8.853853      -240.9256
  25   2.0000      -6.760473      -183.9618
  26   2.0000      -6.624051      -180.2496
  27   2.0000      -6.619665      -180.1302
  28   2.0000      -6.616113      -180.0336
  29   2.0000      -4.851532      -132.0169
  30   2.0000      -4.851258      -132.0094
  31   2.0000      -4.850087      -131.9776
  32   2.0000      -3.531544       -96.0982
  33   2.0000      -2.638435       -71.7955
  34   2.0000      -2.637692       -71.7752
  35   2.0000      -2.634715       -71.6942
  36   2.0000      -2.630965       -71.5922
  37   2.0000      -2.630549       -71.5809
  38   2.0000      -2.178254       -59.2733
  39   2.0000      -2.173848       -59.1534
  40   2.0000      -2.146011       -58.3959
  41   2.0000      -1.072938       -29.1961
  42   2.0000      -0.964154       -26.2360
  43   2.0000      -0.870333       -23.6830
  44   2.0000      -0.847577       -23.0637
  45   2.0000      -0.836071       -22.7506
  46   2.0000      -0.778493       -21.1839
  47   2.0000      -0.735852       -20.0236
  48   2.0000      -0.724805       -19.7229
  49   2.0000      -0.711243       -19.3539
  50   2.0000      -0.680116       -18.5069
  51   2.0000      -0.676956       -18.4209
  52   2.0000      -0.649803       -17.6820
  53   2.0000      -0.610714       -16.6184
  54   2.0000      -0.566553       -15.4167
  55   2.0000      -0.555356       -15.1120
  56   2.0000      -0.546875       -14.8812
  57   2.0000      -0.526830       -14.3358
  58   2.0000      -0.521464       -14.1898
  59   2.0000      -0.462679       -12.5901
  60   2.0000      -0.454479       -12.3670
  61   2.0000      -0.426342       -11.6014
  62   2.0000      -0.410086       -11.1590
  63   2.0000      -0.400661       -10.9025
  64   2.0000      -0.398991       -10.8571
  65   2.0000      -0.391822       -10.6620
  66   2.0000      -0.382328       -10.4037
  67   2.0000      -0.376173       -10.2362
  68   2.0000      -0.374046       -10.1783
  69   2.0000      -0.372385       -10.1331
  70   2.0000      -0.367787       -10.0080
  71   2.0000      -0.362009        -9.8508
  72   2.0000      -0.357649        -9.7321
  73   2.0000      -0.344789        -9.3822
  74   2.0000      -0.338203        -9.2030
  75   2.0000      -0.329484        -8.9657
  76   2.0000      -0.319010        -8.6807
  77   2.0000      -0.310990        -8.4625
  78   2.0000      -0.305399        -8.3103
  79   2.0000      -0.297281        -8.0894
  80   2.0000      -0.291369        -7.9286
  81   2.0000      -0.280898        -7.6436
  82   2.0000      -0.273113        -7.4318
  83   2.0000      -0.268335        -7.3018
  84   2.0000      -0.265892        -7.2353
  85   2.0000      -0.243403        -6.6233
  86   2.0000      -0.233600        -6.3566
  87   2.0000      -0.224990        -6.1223
  88   2.0000      -0.215303        -5.8587
  89   2.0000      -0.206935        -5.6310
  90   2.0000      -0.186758        -5.0819
  91   2.0000      -0.184329        -5.0158
  92   2.0000      -0.177791        -4.8379
  93   2.0000      -0.175032        -4.7629
  94   2.0000      -0.168186        -4.5766
  95   2.0000      -0.167092        -4.5468
  96   2.0000      -0.164894        -4.4870
  97   2.0000      -0.141417        -3.8481
  98   2.0000      -0.128852        -3.5062
  99   2.0000      -0.111108        -3.0234
 100   0.0000       0.036627         0.9967
 101   0.0000       0.065370         1.7788
 102   0.0000       0.116694         3.1754
 103   0.0000       0.120275         3.2728
 104   0.0000       0.126774         3.4497

MULLIKEN ATOMIC CHARGES
-----------------------
   0 C :   -0.079755
   1 C :    0.026487
   2 C :   -0.286113
   3 C :   -0.222688
   4 C :   -0.231825
   5 C :   -0.251041
   6 H :    0.214834
   7 H :    0.226307
   8 H :    0.179306
   9 H :    0.184855
  10 H :    0.184234
  11 C :   -0.460702
  12 C :   -0.504862
  13 H :    0.186866
  14 H :    0.269372
  15 C :    0.065540
  16 H :    0.271627
  17 H :    0.200446
  18 C :   -0.118900
  19 C :   -0.284499
  20 C :   -0.235706
  21 C :   -0.261044
  22 C :   -0.222338
  23 H :    0.264891
  24 H :    0.192386
  25 H :    0.180998
  26 H :    0.187365
  27 Pd:    0.060927
  28 Br:   -0.327299
  29 P :   -0.135219
  30 H :    0.122989
  31 C :    0.653228
  32 O :   -0.499095
  33 O :   -0.604938
  34 O :   -0.576689
  35 H :    0.097364
  36 H :    0.134741
  37 H :    0.397949
Sum of atomic charges:   -1.0000000

LOEWDIN ATOMIC CHARGES
----------------------
   0 C :   -0.102153
   1 C :   -0.061684
   2 C :   -0.156820
   3 C :   -0.160261
   4 C :   -0.162269
   5 C :   -0.154548
   6 H :    0.279814
   7 H :    0.135518
   8 H :    0.119547
   9 H :    0.121222
  10 H :    0.120534
  11 C :   -0.211924
  12 C :   -0.217099
  13 H :    0.116965
  14 H :    0.153437
  15 C :   -0.043833
  16 H :    0.158747
  17 H :    0.118285
  18 C :   -0.026378
  19 C :   -0.127991
  20 C :   -0.152953
  21 C :   -0.150257
  22 C :   -0.159305
  23 H :    0.161717
  24 H :    0.124274
  25 H :    0.122142
  26 H :    0.121794
  27 Pd:   -0.899605
  28 Br:   -0.114843
  29 P :    0.426476
  30 H :    0.055420
  31 C :    0.116217
  32 O :   -0.308171
  33 O :   -0.354852
  34 O :   -0.306370
  35 H :    0.040065
  36 H :    0.066842
  37 H :    0.312304

  Mayer bond orders larger than 0.100000
B(  0-C ,  1-C ) :   1.4282 B(  0-C ,  2-C ) :   1.4315 B(  0-C ,  6-H ) :   0.3739
B(  0-C , 27-Pd) :   0.2636 B(  1-C ,  5-C ) :   1.4006 B(  1-C , 11-C ) :   0.9554
B(  2-C ,  3-C ) :   1.3959 B(  2-C ,  7-H ) :   0.9087 B(  3-C ,  4-C ) :   1.4341
B(  3-C ,  9-H ) :   0.9254 B(  4-C ,  5-C ) :   1.4236 B(  4-C , 10-H ) :   0.9286
B(  5-C ,  8-H ) :   0.9189 B(  6-H , 27-Pd) :   0.2013 B(  6-H , 28-Br) :   0.2697
B( 11-C , 12-C ) :   0.9149 B( 11-C , 13-H ) :   0.9374 B( 11-C , 14-H ) :   0.8939
B( 12-C , 15-C ) :   0.9741 B( 12-C , 16-H ) :   0.8850 B( 12-C , 17-H ) :   0.9305
B( 15-C , 18-C ) :   1.3533 B( 15-C , 21-C ) :   1.3862 B( 18-C , 19-C ) :   1.4095
B( 18-C , 27-Pd) :   0.7283 B( 18-C , 28-Br) :   0.1039 B( 19-C , 20-C ) :   1.4091
B( 19-C , 23-H ) :   0.8753 B( 20-C , 22-C ) :   1.4195 B( 20-C , 24-H ) :   0.9263
B( 21-C , 22-C ) :   1.4347 B( 21-C , 25-H ) :   0.9261 B( 22-C , 26-H ) :   0.9270
B( 27-Pd, 28-Br) :   0.4563 B( 27-Pd, 29-P ) :   0.7240 B( 27-Pd, 33-O ) :   0.4286
B( 29-P , 30-H ) :   0.9204 B( 29-P , 35-H ) :   0.9119 B( 29-P , 36-H ) :   0.9226
B( 31-C , 32-O ) :   1.8671 B( 31-C , 33-O ) :   1.3264 B( 31-C , 34-O ) :   1.0798
B( 34-O , 37-H ) :   0.7875

Dispersion correction           -0.031556488
FINAL SINGLE POINT ENERGY     -3847.500857034929
Dispersion correction            ... done

DIPOLE MOMENT
-------------
                                X             Y             Z
Electronic contribution:      3.05856     -74.26995     -35.19694
Nuclear contribution   :     -1.67397      74.81533      37.57006
                        -----------------------------------------
Total Dipole Moment    :      1.38459       0.54538       2.37312
                        -----------------------------------------
Magnitude (a.u.)       :      2.80111
Magnitude (Debye)      :      7.11986

Rotational constants in cm-1:     0.006924     0.006101     0.004292
Rotational constants in MHz :   207.562203   182.889348   128.657378

                             ****ORCA TERMINATED NORMALLY****
TOTAL RUN TIME: 0 days 0 hours 16 minutes 51 seconds 816 msec
