                         Program Version 5.0.3 -  RELEASE  -
|  1> ! EnGrad PBEh-3c
|  2> %output
|  3> xyzfile=True
|  4> end
|  5> %scf
|  6> maxiter 250
|  7> end
|  8> %output
|  9> Print[P_Hirshfeld] = 1
| 10> end
| 11> % maxcore
| 12> 4000
| 13> *xyz -1 1
| 14> C   -2.32157924  -0.15970222   0.75294474
| 15> C   -1.90327945   1.01212378   1.39454282
| 16> C   -3.66813261  -0.54003178   0.87175292
| 17> C   -4.63746615   0.40401404   1.25604329
| 18> C   -4.23279357   1.61526153   1.81337874
| 19> C   -2.87842861   1.90999765   1.88396045
| 20> H   -2.04266934  -1.48226081  -1.14713869
| 21> H   -3.98278829  -1.46771871   0.42130449
| 22> H   -2.56268989   2.76877999   2.45122859
| 23> H   -5.70354357   0.16161872   1.16780387
| 24> H   -4.96865862   2.35593183   2.13510569
| 25> C   -0.47521770   1.48704581   1.47388224
| 26> C    0.62633207   0.46568300   1.79748988
| 27> H   -0.45950757   2.25859622   2.23980566
| 28> H   -0.18360720   2.01198446   0.56556956
| 29> C    1.72646297   0.55643070   0.78424474
| 30> H    0.22292273  -0.54256976   1.81806687
| 31> H    1.03104858   0.66814397   2.79384429
| 32> C    1.66545320  -0.13591898  -0.43608236
| 33> C    2.68847987   0.12300215  -1.36623956
| 34> C    3.68316568   1.08668296  -1.11674540
| 35> C    2.81937389   1.39632629   1.06814461
| 36> C    3.74335685   1.75015015   0.09015201
| 37> H    2.70665953  -0.38204827  -2.31989877
| 38> H    4.43025759   1.31219280  -1.87778627
| 39> H    2.91175803   1.85583723   2.05455803
| 40> H    4.55932237   2.44504181   0.31819598
| 41> Pd   0.12735563  -1.45686647  -0.79678326
| 42> Br  -1.62741693  -3.46885963  -0.85273847
| 43> P    1.41864612  -2.95234783   0.11074379
| 44> H    0.90213857  -3.53538749   1.26465760
| 45> C    0.45977863  -1.29678741  -3.84026115
| 46> O    1.46706005  -1.68096758  -4.22688891
| 47> O   -0.44238368  -1.84293892  -3.12786363
| 48> O   -0.08880466  -0.10444924  -4.42777482
| 49> H    2.73124437  -2.74237711   0.53875083
| 50> H    1.59495812  -4.11709538  -0.63944283
| 51> H    0.64916415   0.25914123  -4.89395265
| 52> *
| 53>
| 54>                          ****END OF INPUT****

CARTESIAN COORDINATES (ANGSTROEM)
---------------------------------
  C     -2.321579   -0.159702    0.752945
  C     -1.903279    1.012124    1.394543
  C     -3.668133   -0.540032    0.871753
  C     -4.637466    0.404014    1.256043
  C     -4.232794    1.615262    1.813379
  C     -2.878429    1.909998    1.883960
  H     -2.042669   -1.482261   -1.147139
  H     -3.982788   -1.467719    0.421304
  H     -2.562690    2.768780    2.451229
  H     -5.703544    0.161619    1.167804
  H     -4.968659    2.355932    2.135106
  C     -0.475218    1.487046    1.473882
  C      0.626332    0.465683    1.797490
  H     -0.459508    2.258596    2.239806
  H     -0.183607    2.011984    0.565570
  C      1.726463    0.556431    0.784245
  H      0.222923   -0.542570    1.818067
  H      1.031049    0.668144    2.793844
  C      1.665453   -0.135919   -0.436082
  C      2.688480    0.123002   -1.366240
  C      3.683166    1.086683   -1.116745
  C      2.819374    1.396326    1.068145
  C      3.743357    1.750150    0.090152
  H      2.706660   -0.382048   -2.319899
  H      4.430258    1.312193   -1.877786
  H      2.911758    1.855837    2.054558
  H      4.559322    2.445042    0.318196
  Pd     0.127356   -1.456866   -0.796783
  Br    -1.627417   -3.468860   -0.852738
  P      1.418646   -2.952348    0.110744
  H      0.902139   -3.535387    1.264658
  C      0.459779   -1.296787   -3.840261
  O      1.467060   -1.680968   -4.226889
  O     -0.442384   -1.842939   -3.127864
  O     -0.088805   -0.104449   -4.427775
  H      2.731244   -2.742377    0.538751
  H      1.594958   -4.117095   -0.639443
  H      0.649164    0.259141   -4.893953

 Total Charge           Charge          ....   -1
 Multiplicity           Mult            ....    1
 Number of Electrons    NEL             ....  200
 Basis Dimension        Dim             ....  385

ORBITAL ENERGIES
----------------

  NO   OCC          E(Eh)            E(eV)
   0   2.0000    -484.379157    -13180.6269
   1   2.0000     -77.689878     -2114.0491
   2   2.0000     -63.040540     -1715.4203
   3   2.0000     -56.744478     -1544.0957
   4   2.0000     -56.743168     -1544.0601
   5   2.0000     -56.742747     -1544.0486
   6   2.0000     -19.335527      -526.1464
   7   2.0000     -19.300823      -525.2021
   8   2.0000     -19.282198      -524.6953
   9   2.0000     -10.414045      -283.3806
  10   2.0000     -10.362553      -281.9794
  11   2.0000     -10.354802      -281.7685
  12   2.0000     -10.351488      -281.6783
  13   2.0000     -10.350576      -281.6535
  14   2.0000     -10.348971      -281.6098
  15   2.0000     -10.343346      -281.4567
  16   2.0000     -10.341076      -281.3950
  17   2.0000     -10.338884      -281.3353
  18   2.0000     -10.337604      -281.3005
  19   2.0000     -10.335837      -281.2524
  20   2.0000     -10.335651      -281.2474
  21   2.0000     -10.335412      -281.2409
  22   2.0000     -10.332139      -281.1518
  23   2.0000     -10.329615      -281.0831
  24   2.0000      -8.867768      -241.3042
  25   2.0000      -6.765563      -184.1003
  26   2.0000      -6.638443      -180.6412
  27   2.0000      -6.633294      -180.5011
  28   2.0000      -6.629762      -180.4050
  29   2.0000      -4.856523      -132.1527
  30   2.0000      -4.856187      -132.1436
  31   2.0000      -4.855166      -132.1158
  32   2.0000      -3.542779       -96.4039
  33   2.0000      -2.652720       -72.1842
  34   2.0000      -2.651757       -72.1580
  35   2.0000      -2.648829       -72.0783
  36   2.0000      -2.644414       -71.9582
  37   2.0000      -2.644038       -71.9479
  38   2.0000      -2.190258       -59.5999
  39   2.0000      -2.186026       -59.4848
  40   2.0000      -2.156904       -58.6923
  41   2.0000      -1.059089       -28.8193
  42   2.0000      -0.947229       -25.7754
  43   2.0000      -0.903942       -24.5975
  44   2.0000      -0.855815       -23.2879
  45   2.0000      -0.836659       -22.7666
  46   2.0000      -0.785649       -21.3786
  47   2.0000      -0.739054       -20.1107
  48   2.0000      -0.729215       -19.8430
  49   2.0000      -0.709930       -19.3182
  50   2.0000      -0.690095       -18.7784
  51   2.0000      -0.683215       -18.5912
  52   2.0000      -0.662849       -18.0370
  53   2.0000      -0.613974       -16.7071
  54   2.0000      -0.575192       -15.6518
  55   2.0000      -0.557652       -15.1745
  56   2.0000      -0.548821       -14.9342
  57   2.0000      -0.525539       -14.3007
  58   2.0000      -0.475431       -12.9371
  59   2.0000      -0.469456       -12.7746
  60   2.0000      -0.455820       -12.4035
  61   2.0000      -0.431771       -11.7491
  62   2.0000      -0.415976       -11.3193
  63   2.0000      -0.401654       -10.9296
  64   2.0000      -0.394739       -10.7414
  65   2.0000      -0.393238       -10.7005
  66   2.0000      -0.384660       -10.4671
  67   2.0000      -0.383800       -10.4437
  68   2.0000      -0.377430       -10.2704
  69   2.0000      -0.371096       -10.0980
  70   2.0000      -0.364216        -9.9108
  71   2.0000      -0.359071        -9.7708
  72   2.0000      -0.352367        -9.5884
  73   2.0000      -0.350322        -9.5328
  74   2.0000      -0.342315        -9.3149
  75   2.0000      -0.334893        -9.1129
  76   2.0000      -0.326052        -8.8723
  77   2.0000      -0.315533        -8.5861
  78   2.0000      -0.306079        -8.3288
  79   2.0000      -0.302630        -8.2350
  80   2.0000      -0.294738        -8.0202
  81   2.0000      -0.291034        -7.9194
  82   2.0000      -0.279085        -7.5943
  83   2.0000      -0.275651        -7.5009
  84   2.0000      -0.269592        -7.3360
  85   2.0000      -0.253954        -6.9105
  86   2.0000      -0.236727        -6.4417
  87   2.0000      -0.228281        -6.2118
  88   2.0000      -0.216229        -5.8839
  89   2.0000      -0.203503        -5.5376
  90   2.0000      -0.191317        -5.2060
  91   2.0000      -0.187789        -5.1100
  92   2.0000      -0.182614        -4.9692
  93   2.0000      -0.177761        -4.8371
  94   2.0000      -0.173966        -4.7339
  95   2.0000      -0.170900        -4.6504
  96   2.0000      -0.165504        -4.5036
  97   2.0000      -0.147266        -4.0073
  98   2.0000      -0.138760        -3.7758
  99   2.0000      -0.113915        -3.0998
 100   0.0000       0.041013         1.1160
 101   0.0000       0.063783         1.7356
 102   0.0000       0.112156         3.0519
 103   0.0000       0.122014         3.3202
 104   0.0000       0.128435         3.4949

MULLIKEN ATOMIC CHARGES
-----------------------
   0 C :   -0.101265
   1 C :    0.016410
   2 C :   -0.278143
   3 C :   -0.226430
   4 C :   -0.226444
   5 C :   -0.249689
   6 H :    0.236157
   7 H :    0.213717
   8 H :    0.175425
   9 H :    0.183002
  10 H :    0.180370
  11 C :   -0.469118
  12 C :   -0.513772
  13 H :    0.199032
  14 H :    0.268766
  15 C :    0.109352
  16 H :    0.273810
  17 H :    0.206285
  18 C :   -0.131017
  19 C :   -0.270523
  20 C :   -0.240938
  21 C :   -0.284896
  22 C :   -0.208321
  23 H :    0.268452
  24 H :    0.195648
  25 H :    0.184066
  26 H :    0.186894
  27 Pd:    0.077536
  28 Br:   -0.313936
  29 P :   -0.138217
  30 H :    0.124896
  31 C :    0.616480
  32 O :   -0.461572
  33 O :   -0.563790
  34 O :   -0.661479
  35 H :    0.103854
  36 H :    0.136583
  37 H :    0.382815
Sum of atomic charges:   -1.0000000

LOEWDIN ATOMIC CHARGES
----------------------
   0 C :   -0.117562
   1 C :   -0.069182
   2 C :   -0.157261
   3 C :   -0.156478
   4 C :   -0.166895
   5 C :   -0.152228
   6 H :    0.292788
   7 H :    0.130160
   8 H :    0.118384
   9 H :    0.119147
  10 H :    0.118432
  11 C :   -0.214433
  12 C :   -0.216485
  13 H :    0.120085
  14 H :    0.151950
  15 C :   -0.038394
  16 H :    0.158774
  17 H :    0.119905
  18 C :   -0.010942
  19 C :   -0.121561
  20 C :   -0.149764
  21 C :   -0.146860
  22 C :   -0.156964
  23 H :    0.163596
  24 H :    0.125703
  25 H :    0.122430
  26 H :    0.122680
  27 Pd:   -0.847157
  28 Br:   -0.117940
  29 P :    0.429953
  30 H :    0.057551
  31 C :    0.064598
  32 O :   -0.256959
  33 O :   -0.307063
  34 O :   -0.411446
  35 H :    0.043892
  36 H :    0.067281
  37 H :    0.288267

  Mayer bond orders larger than 0.100000
B(  0-C ,  1-C ) :   1.4665 B(  0-C ,  2-C ) :   1.4118 B(  0-C ,  6-H ) :   0.3259
B(  0-C , 27-Pd) :   0.2835 B(  1-C ,  5-C ) :   1.3904 B(  1-C , 11-C ) :   0.9658
B(  2-C ,  3-C ) :   1.4147 B(  2-C ,  7-H ) :   0.9144 B(  3-C ,  4-C ) :   1.4262
B(  3-C ,  9-H ) :   0.9248 B(  4-C ,  5-C ) :   1.4414 B(  4-C , 10-H ) :   0.9282
B(  5-C ,  8-H ) :   0.9190 B(  6-H , 27-Pd) :   0.1706 B(  6-H , 28-Br) :   0.3634
B( 11-C , 12-C ) :   0.9153 B( 11-C , 13-H ) :   0.9317 B( 11-C , 14-H ) :   0.8951
B( 12-C , 15-C ) :   0.9680 B( 12-C , 16-H ) :   0.8846 B( 12-C , 17-H ) :   0.9311
B( 15-C , 18-C ) :   1.3439 B( 15-C , 21-C ) :   1.3991 B( 18-C , 19-C ) :   1.4127
B( 18-C , 27-Pd) :   0.7783 B( 19-C , 20-C ) :   1.4023 B( 19-C , 23-H ) :   0.8750
B( 20-C , 22-C ) :   1.4312 B( 20-C , 24-H ) :   0.9252 B( 21-C , 22-C ) :   1.4182
B( 21-C , 25-H ) :   0.9263 B( 22-C , 26-H ) :   0.9272 B( 27-Pd, 28-Br) :   0.3838
B( 27-Pd, 29-P ) :   0.7599 B( 27-Pd, 33-O ) :   0.3488 B( 29-P , 30-H ) :   0.9235
B( 29-P , 35-H ) :   0.9162 B( 29-P , 36-H ) :   0.9242 B( 31-C , 32-O ) :   1.9144
B( 31-C , 33-O ) :   1.4806 B( 31-C , 34-O ) :   0.9473 B( 34-O , 37-H ) :   0.8067

Dispersion correction           -0.031705675
FINAL SINGLE POINT ENERGY     -3847.514388077059
Dispersion correction            ... done

DIPOLE MOMENT
-------------
                                X             Y             Z
Electronic contribution:      6.07706     -72.44535     -30.81696
Nuclear contribution   :     -4.43720      72.53182      33.77459
                        -----------------------------------------
Total Dipole Moment    :      1.63985       0.08647       2.95763
                        -----------------------------------------
Magnitude (a.u.)       :      3.38292
Magnitude (Debye)      :      8.59871

Rotational constants in cm-1:     0.006962     0.006145     0.004324
Rotational constants in MHz :   208.715856   184.231989   129.626088

                             ****ORCA TERMINATED NORMALLY****
TOTAL RUN TIME: 0 days 0 hours 15 minutes 10 seconds 793 msec
