                         Program Version 5.0.3 -  RELEASE  -
|  1> ! EnGrad PBEh-3c
|  2> %output
|  3> xyzfile=True
|  4> end
|  5> %scf
|  6> maxiter 250
|  7> end
|  8> %output
|  9> Print[P_Hirshfeld] = 1
| 10> end
| 11> % maxcore
| 12> 4000
| 13> *xyz -1 1
| 14> C   -2.31155853  -0.15046113   0.72288102
| 15> C   -1.89839556   1.00015477   1.40620889
| 16> C   -3.65418493  -0.52101773   0.85699322
| 17> C   -4.62757638   0.41313376   1.23231005
| 18> C   -4.22660743   1.61209563   1.80932567
| 19> C   -2.87161548   1.88361480   1.90549255
| 20> H   -2.03830311  -1.50939420  -1.15096706
| 21> H   -3.97938237  -1.45596704   0.43350075
| 22> H   -2.57137431   2.77820813   2.42846882
| 23> H   -5.69313554   0.16317365   1.16530374
| 24> H   -4.96629216   2.34354928   2.12890293
| 25> C   -0.47737628   1.48545450   1.48573851
| 26> C    0.62886579   0.46707500   1.80021849
| 27> H   -0.45302201   2.24930641   2.24439047
| 28> H   -0.19215813   2.02371013   0.58203301
| 29> C    1.72049996   0.56768455   0.78661884
| 30> H    0.22469484  -0.53634807   1.82980793
| 31> H    1.03157872   0.66021073   2.79418650
| 32> C    1.65400913  -0.11237697  -0.43909985
| 33> C    2.68058679   0.12811332  -1.35975935
| 34> C    3.67787043   1.08187305  -1.12162178
| 35> C    2.82391003   1.38005557   1.07049267
| 36> C    3.74366573   1.73884649   0.09505580
| 37> H    2.70481972  -0.38016875  -2.31372595
| 38> H    4.42245958   1.30884445  -1.87828008
| 39> H    2.90644246   1.85394914   2.04699822
| 40> H    4.54393750   2.44531393   0.30995117
| 41> Pd   0.14893670  -1.42461155  -0.77495238
| 42> Br  -1.64747919  -3.46520407  -0.85566496
| 43> P    1.42087609  -2.95848897   0.10818860
| 44> H    0.90986395  -3.53799307   1.26644965
| 45> C    0.38094675  -1.30240683  -3.82309893
| 46> O    1.51911236  -1.70185866  -4.23706967
| 47> O   -0.42984214  -1.83476493  -3.13903651
| 48> O   -0.09365205  -0.10186453  -4.41051961
| 49> H    2.72706970  -2.74504124   0.52651336
| 50> H    1.59983878  -4.11624355  -0.64289664
| 51> H    0.64846354   0.26443350  -4.89321557
| 52> *
| 53>
| 54>                          ****END OF INPUT****

CARTESIAN COORDINATES (ANGSTROEM)
---------------------------------
  C     -2.311559   -0.150461    0.722881
  C     -1.898396    1.000155    1.406209
  C     -3.654185   -0.521018    0.856993
  C     -4.627576    0.413134    1.232310
  C     -4.226607    1.612096    1.809326
  C     -2.871615    1.883615    1.905493
  H     -2.038303   -1.509394   -1.150967
  H     -3.979382   -1.455967    0.433501
  H     -2.571374    2.778208    2.428469
  H     -5.693136    0.163174    1.165304
  H     -4.966292    2.343549    2.128903
  C     -0.477376    1.485454    1.485739
  C      0.628866    0.467075    1.800218
  H     -0.453022    2.249306    2.244390
  H     -0.192158    2.023710    0.582033
  C      1.720500    0.567685    0.786619
  H      0.224695   -0.536348    1.829808
  H      1.031579    0.660211    2.794186
  C      1.654009   -0.112377   -0.439100
  C      2.680587    0.128113   -1.359759
  C      3.677870    1.081873   -1.121622
  C      2.823910    1.380056    1.070493
  C      3.743666    1.738846    0.095056
  H      2.704820   -0.380169   -2.313726
  H      4.422460    1.308844   -1.878280
  H      2.906442    1.853949    2.046998
  H      4.543937    2.445314    0.309951
  Pd     0.148937   -1.424612   -0.774952
  Br    -1.647479   -3.465204   -0.855665
  P      1.420876   -2.958489    0.108189
  H      0.909864   -3.537993    1.266450
  C      0.380947   -1.302407   -3.823099
  O      1.519112   -1.701859   -4.237070
  O     -0.429842   -1.834765   -3.139037
  O     -0.093652   -0.101865   -4.410520
  H      2.727070   -2.745041    0.526513
  H      1.599839   -4.116244   -0.642897
  H      0.648464    0.264433   -4.893216

 Total Charge           Charge          ....   -1
 Multiplicity           Mult            ....    1
 Number of Electrons    NEL             ....  200
 Basis Dimension        Dim             ....  385

ORBITAL ENERGIES
----------------

  NO   OCC          E(Eh)            E(eV)
   0   2.0000    -484.387033    -13180.8413
   1   2.0000     -77.692082     -2114.1090
   2   2.0000     -63.048363     -1715.6332
   3   2.0000     -56.752334     -1544.3095
   4   2.0000     -56.750956     -1544.2720
   5   2.0000     -56.750565     -1544.2614
   6   2.0000     -19.339787      -526.2624
   7   2.0000     -19.296004      -525.0710
   8   2.0000     -19.268379      -524.3192
   9   2.0000     -10.411932      -283.3231
  10   2.0000     -10.363487      -282.0048
  11   2.0000     -10.355448      -281.7861
  12   2.0000     -10.351487      -281.6783
  13   2.0000     -10.349923      -281.6357
  14   2.0000     -10.348318      -281.5920
  15   2.0000     -10.341319      -281.4016
  16   2.0000     -10.341166      -281.3974
  17   2.0000     -10.337759      -281.3047
  18   2.0000     -10.336412      -281.2681
  19   2.0000     -10.336202      -281.2624
  20   2.0000     -10.335981      -281.2563
  21   2.0000     -10.335237      -281.2361
  22   2.0000     -10.332096      -281.1506
  23   2.0000     -10.328364      -281.0491
  24   2.0000      -8.875546      -241.5159
  25   2.0000      -6.768390      -184.1772
  26   2.0000      -6.646433      -180.8586
  27   2.0000      -6.640900      -180.7081
  28   2.0000      -6.637471      -180.6148
  29   2.0000      -4.859334      -132.2292
  30   2.0000      -4.858970      -132.2193
  31   2.0000      -4.857958      -132.1918
  32   2.0000      -3.547684       -96.5374
  33   2.0000      -2.660637       -72.3996
  34   2.0000      -2.659584       -72.3710
  35   2.0000      -2.656738       -72.2935
  36   2.0000      -2.651986       -72.1642
  37   2.0000      -2.651641       -72.1548
  38   2.0000      -2.195837       -59.7518
  39   2.0000      -2.190954       -59.6189
  40   2.0000      -2.162203       -58.8365
  41   2.0000      -1.039996       -28.2997
  42   2.0000      -0.941137       -25.6096
  43   2.0000      -0.884999       -24.0820
  44   2.0000      -0.859085       -23.3769
  45   2.0000      -0.839808       -22.8523
  46   2.0000      -0.788454       -21.4549
  47   2.0000      -0.741465       -20.1763
  48   2.0000      -0.731448       -19.9037
  49   2.0000      -0.711699       -19.3663
  50   2.0000      -0.696532       -18.9536
  51   2.0000      -0.686054       -18.6685
  52   2.0000      -0.667685       -18.1686
  53   2.0000      -0.616727       -16.7820
  54   2.0000      -0.576687       -15.6925
  55   2.0000      -0.558579       -15.1997
  56   2.0000      -0.551420       -15.0049
  57   2.0000      -0.527807       -14.3624
  58   2.0000      -0.483736       -13.1631
  59   2.0000      -0.471945       -12.8423
  60   2.0000      -0.458512       -12.4767
  61   2.0000      -0.434741       -11.8299
  62   2.0000      -0.417165       -11.3516
  63   2.0000      -0.403697       -10.9852
  64   2.0000      -0.397262       -10.8100
  65   2.0000      -0.395156       -10.7527
  66   2.0000      -0.388558       -10.5732
  67   2.0000      -0.379274       -10.3206
  68   2.0000      -0.378125       -10.2893
  69   2.0000      -0.368985       -10.0406
  70   2.0000      -0.360871        -9.8198
  71   2.0000      -0.355041        -9.6612
  72   2.0000      -0.351352        -9.5608
  73   2.0000      -0.345977        -9.4145
  74   2.0000      -0.341999        -9.3063
  75   2.0000      -0.337805        -9.1921
  76   2.0000      -0.328812        -8.9474
  77   2.0000      -0.317139        -8.6298
  78   2.0000      -0.304969        -8.2986
  79   2.0000      -0.300452        -8.1757
  80   2.0000      -0.294920        -8.0252
  81   2.0000      -0.289902        -7.8886
  82   2.0000      -0.283124        -7.7042
  83   2.0000      -0.277847        -7.5606
  84   2.0000      -0.270854        -7.3703
  85   2.0000      -0.258620        -7.0374
  86   2.0000      -0.240830        -6.5533
  87   2.0000      -0.233026        -6.3410
  88   2.0000      -0.221274        -6.0212
  89   2.0000      -0.200615        -5.4590
  90   2.0000      -0.193826        -5.2743
  91   2.0000      -0.187526        -5.1028
  92   2.0000      -0.184267        -5.0141
  93   2.0000      -0.178485        -4.8568
  94   2.0000      -0.174988        -4.7617
  95   2.0000      -0.167547        -4.5592
  96   2.0000      -0.165621        -4.5068
  97   2.0000      -0.144553        -3.9335
  98   2.0000      -0.131254        -3.5716
  99   2.0000      -0.117658        -3.2016
 100   0.0000       0.038251         1.0409
 101   0.0000       0.059090         1.6079
 102   0.0000       0.113233         3.0812
 103   0.0000       0.120924         3.2905
 104   0.0000       0.129712         3.5296

MULLIKEN ATOMIC CHARGES
-----------------------
   0 C :   -0.105579
   1 C :    0.018946
   2 C :   -0.281847
   3 C :   -0.223248
   4 C :   -0.224372
   5 C :   -0.255442
   6 H :    0.238953
   7 H :    0.209474
   8 H :    0.175222
   9 H :    0.181995
  10 H :    0.181250
  11 C :   -0.475056
  12 C :   -0.518415
  13 H :    0.204552
  14 H :    0.267765
  15 C :    0.120310
  16 H :    0.274285
  17 H :    0.209696
  18 C :   -0.132511
  19 C :   -0.271307
  20 C :   -0.240176
  21 C :   -0.286809
  22 C :   -0.212304
  23 H :    0.281647
  24 H :    0.199550
  25 H :    0.183159
  26 H :    0.189261
  27 Pd:    0.091464
  28 Br:   -0.311915
  29 P :   -0.135887
  30 H :    0.125187
  31 C :    0.633195
  32 O :   -0.613781
  33 O :   -0.482086
  34 O :   -0.658077
  35 H :    0.107757
  36 H :    0.140916
  37 H :    0.394229
Sum of atomic charges:   -1.0000000

LOEWDIN ATOMIC CHARGES
----------------------
   0 C :   -0.122548
   1 C :   -0.069648
   2 C :   -0.158186
   3 C :   -0.157013
   4 C :   -0.167664
   5 C :   -0.151729
   6 H :    0.292622
   7 H :    0.127575
   8 H :    0.117982
   9 H :    0.118867
  10 H :    0.118386
  11 C :   -0.215230
  12 C :   -0.216245
  13 H :    0.121348
  14 H :    0.151493
  15 C :   -0.036437
  16 H :    0.158725
  17 H :    0.120919
  18 C :   -0.004988
  19 C :   -0.118478
  20 C :   -0.148433
  21 C :   -0.147595
  22 C :   -0.154841
  23 H :    0.171053
  24 H :    0.127264
  25 H :    0.122423
  26 H :    0.123031
  27 Pd:   -0.813575
  28 Br:   -0.124037
  29 P :    0.430924
  30 H :    0.058555
  31 C :    0.085942
  32 O :   -0.437305
  33 O :   -0.219149
  34 O :   -0.398459
  35 H :    0.046338
  36 H :    0.069852
  37 H :    0.298261

  Mayer bond orders larger than 0.100000
B(  0-C ,  1-C ) :   1.4657 B(  0-C ,  2-C ) :   1.4137 B(  0-C ,  6-H ) :   0.3075
B(  0-C , 27-Pd) :   0.2960 B(  1-C ,  5-C ) :   1.3925 B(  1-C , 11-C ) :   0.9672
B(  2-C ,  3-C ) :   1.4195 B(  2-C ,  7-H ) :   0.9153 B(  3-C ,  4-C ) :   1.4247
B(  3-C ,  9-H ) :   0.9249 B(  4-C ,  5-C ) :   1.4469 B(  4-C , 10-H ) :   0.9275
B(  5-C ,  8-H ) :   0.9197 B(  6-H , 27-Pd) :   0.1573 B(  6-H , 28-Br) :   0.4041
B( 11-C , 12-C ) :   0.9159 B( 11-C , 13-H ) :   0.9300 B( 11-C , 14-H ) :   0.8957
B( 12-C , 15-C ) :   0.9674 B( 12-C , 16-H ) :   0.8851 B( 12-C , 17-H ) :   0.9306
B( 15-C , 18-C ) :   1.3391 B( 15-C , 21-C ) :   1.4036 B( 18-C , 19-C ) :   1.4132
B( 18-C , 27-Pd) :   0.8007 B( 19-C , 20-C ) :   1.4016 B( 19-C , 23-H ) :   0.8585
B( 20-C , 22-C ) :   1.4314 B( 20-C , 24-H ) :   0.9244 B( 21-C , 22-C ) :   1.4188
B( 21-C , 25-H ) :   0.9267 B( 22-C , 26-H ) :   0.9268 B( 27-Pd, 28-Br) :   0.3480
B( 27-Pd, 29-P ) :   0.7550 B( 27-Pd, 33-O ) :   0.2770 B( 29-P , 30-H ) :   0.9256
B( 29-P , 35-H ) :   0.9188 B( 29-P , 36-H ) :   0.9259 B( 31-C , 32-O ) :   1.7006
B( 31-C , 33-O ) :   1.6557 B( 31-C , 34-O ) :   0.9643 B( 34-O , 37-H ) :   0.7973

Dispersion correction           -0.031706404
FINAL SINGLE POINT ENERGY     -3847.524682901408
Dispersion correction            ... done

DIPOLE MOMENT
-------------
                                X             Y             Z
Electronic contribution:      6.86388     -70.65042     -29.27909
Nuclear contribution   :     -5.55426      70.77905      32.59528
                        -----------------------------------------
Total Dipole Moment    :      1.30961       0.12863       3.31618
                        -----------------------------------------
Magnitude (a.u.)       :      3.56773
Magnitude (Debye)      :      9.06845

Rotational constants in cm-1:     0.006971     0.006157     0.004329
Rotational constants in MHz :   208.998930   184.589518   129.777595

                             ****ORCA TERMINATED NORMALLY****
TOTAL RUN TIME: 0 days 0 hours 16 minutes 24 seconds 570 msec
