                         Program Version 5.0.3 -  RELEASE  -
|  1> ! EnGrad PBEh-3c
|  2> %output
|  3> xyzfile=True
|  4> end
|  5> %scf
|  6> maxiter 250
|  7> end
|  8> %output
|  9> Print[P_Hirshfeld] = 1
| 10> end
| 11> % maxcore
| 12> 4000
| 13> *xyz -1 1
| 14> C   -2.31344430  -0.15770450   0.72770073
| 15> C   -1.90479466   1.00674009   1.39599243
| 16> C   -3.65576600  -0.51352267   0.84452354
| 17> C   -4.62983076   0.40703562   1.24687076
| 18> C   -4.22990353   1.61251667   1.80353136
| 19> C   -2.87273177   1.87687201   1.90731968
| 20> H   -2.03943060  -1.50841411  -1.13980063
| 21> H   -3.98119464  -1.46131394   0.43479751
| 22> H   -2.56813197   2.78130010   2.43096971
| 23> H   -5.68962033   0.16464521   1.16454342
| 24> H   -4.96526294   2.34361609   2.13106332
| 25> C   -0.47624967   1.48763387   1.48630295
| 26> C    0.62942429   0.46513273   1.80070748
| 27> H   -0.45224864   2.25467496   2.24709646
| 28> H   -0.19518038   2.02058545   0.57478873
| 29> C    1.72914322   0.56220034   0.78967600
| 30> H    0.22304100  -0.53923141   1.82804340
| 31> H    1.03211658   0.66174988   2.79505937
| 32> C    1.65732101  -0.11371587  -0.43950797
| 33> C    2.68153501   0.13003486  -1.36200000
| 34> C    3.67769949   1.08277367  -1.12267574
| 35> C    2.81951654   1.39152207   1.06844460
| 36> C    3.74678064   1.73386854   0.09785654
| 37> H    2.70514242  -0.38323021  -2.31512989
| 38> H    4.42251064   1.30777408  -1.87855146
| 39> H    2.90663290   1.85155432   2.04795989
| 40> H    4.54289975   2.44493321   0.31030086
| 41> Pd   0.14104686  -1.42372163  -0.78407896
| 42> Br  -1.64631139  -3.45892778  -0.85632849
| 43> P    1.42097333  -2.95822382   0.10860706
| 44> H    0.90766197  -3.53898757   1.26979938
| 45> C    0.38230706  -1.29978363  -3.85010491
| 46> O    1.51961701  -1.69649479  -4.23214342
| 47> O   -0.43363217  -1.83595018  -3.11946737
| 48> O   -0.08684245  -0.10484488  -4.40603234
| 49> H    2.73174581  -2.74445119   0.53005418
| 50> H    1.60045054  -4.11913127  -0.64392092
| 51> H    0.64982656   0.26532376  -4.89613231
| 52> *
| 53>
| 54>                          ****END OF INPUT****

CARTESIAN COORDINATES (ANGSTROEM)
---------------------------------
  C     -2.313444   -0.157704    0.727701
  C     -1.904795    1.006740    1.395992
  C     -3.655766   -0.513523    0.844524
  C     -4.629831    0.407036    1.246871
  C     -4.229904    1.612517    1.803531
  C     -2.872732    1.876872    1.907320
  H     -2.039431   -1.508414   -1.139801
  H     -3.981195   -1.461314    0.434798
  H     -2.568132    2.781300    2.430970
  H     -5.689620    0.164645    1.164543
  H     -4.965263    2.343616    2.131063
  C     -0.476250    1.487634    1.486303
  C      0.629424    0.465133    1.800707
  H     -0.452249    2.254675    2.247096
  H     -0.195180    2.020585    0.574789
  C      1.729143    0.562200    0.789676
  H      0.223041   -0.539231    1.828043
  H      1.032117    0.661750    2.795059
  C      1.657321   -0.113716   -0.439508
  C      2.681535    0.130035   -1.362000
  C      3.677699    1.082774   -1.122676
  C      2.819517    1.391522    1.068445
  C      3.746781    1.733869    0.097857
  H      2.705142   -0.383230   -2.315130
  H      4.422511    1.307774   -1.878551
  H      2.906633    1.851554    2.047960
  H      4.542900    2.444933    0.310301
  Pd     0.141047   -1.423722   -0.784079
  Br    -1.646311   -3.458928   -0.856328
  P      1.420973   -2.958224    0.108607
  H      0.907662   -3.538988    1.269799
  C      0.382307   -1.299784   -3.850105
  O      1.519617   -1.696495   -4.232143
  O     -0.433632   -1.835950   -3.119467
  O     -0.086842   -0.104845   -4.406032
  H      2.731746   -2.744451    0.530054
  H      1.600451   -4.119131   -0.643921
  H      0.649827    0.265324   -4.896132

 Total Charge           Charge          ....   -1
 Multiplicity           Mult            ....    1
 Number of Electrons    NEL             ....  200
 Basis Dimension        Dim             ....  385

ORBITAL ENERGIES
----------------

  NO   OCC          E(Eh)            E(eV)
   0   2.0000    -484.385265    -13180.7932
   1   2.0000     -77.691332     -2114.0886
   2   2.0000     -63.046612     -1715.5855
   3   2.0000     -56.750593     -1544.2621
   4   2.0000     -56.749207     -1544.2244
   5   2.0000     -56.748805     -1544.2135
   6   2.0000     -19.348854      -526.5091
   7   2.0000     -19.293337      -524.9984
   8   2.0000     -19.274679      -524.4907
   9   2.0000     -10.416382      -283.4442
  10   2.0000     -10.362424      -281.9759
  11   2.0000     -10.354327      -281.7556
  12   2.0000     -10.350477      -281.6508
  13   2.0000     -10.348597      -281.5996
  14   2.0000     -10.347626      -281.5732
  15   2.0000     -10.340713      -281.3851
  16   2.0000     -10.339641      -281.3559
  17   2.0000     -10.335637      -281.2470
  18   2.0000     -10.335363      -281.2395
  19   2.0000     -10.334788      -281.2239
  20   2.0000     -10.333907      -281.1999
  21   2.0000     -10.332747      -281.1683
  22   2.0000     -10.332039      -281.1491
  23   2.0000     -10.326364      -280.9946
  24   2.0000      -8.873813      -241.4687
  25   2.0000      -6.767187      -184.1445
  26   2.0000      -6.644719      -180.8120
  27   2.0000      -6.639169      -180.6610
  28   2.0000      -6.635724      -180.5672
  29   2.0000      -4.858150      -132.1970
  30   2.0000      -4.857797      -132.1874
  31   2.0000      -4.856755      -132.1590
  32   2.0000      -3.544791       -96.4587
  33   2.0000      -2.658926       -72.3531
  34   2.0000      -2.657867       -72.3242
  35   2.0000      -2.655007       -72.2464
  36   2.0000      -2.650241       -72.1167
  37   2.0000      -2.649896       -72.1073
  38   2.0000      -2.193112       -59.6776
  39   2.0000      -2.187653       -59.5291
  40   2.0000      -2.159232       -58.7557
  41   2.0000      -1.039821       -28.2950
  42   2.0000      -0.937542       -25.5118
  43   2.0000      -0.893207       -24.3054
  44   2.0000      -0.857997       -23.3473
  45   2.0000      -0.838804       -22.8250
  46   2.0000      -0.786313       -21.3967
  47   2.0000      -0.739945       -20.1349
  48   2.0000      -0.730919       -19.8893
  49   2.0000      -0.710013       -19.3204
  50   2.0000      -0.695066       -18.9137
  51   2.0000      -0.684925       -18.6378
  52   2.0000      -0.664975       -18.0949
  53   2.0000      -0.615081       -16.7372
  54   2.0000      -0.575698       -15.6655
  55   2.0000      -0.555814       -15.1245
  56   2.0000      -0.550512       -14.9802
  57   2.0000      -0.527352       -14.3500
  58   2.0000      -0.493215       -13.4211
  59   2.0000      -0.471038       -12.8176
  60   2.0000      -0.456968       -12.4347
  61   2.0000      -0.433409       -11.7937
  62   2.0000      -0.415540       -11.3074
  63   2.0000      -0.402778       -10.9602
  64   2.0000      -0.394820       -10.7436
  65   2.0000      -0.392581       -10.6827
  66   2.0000      -0.386074       -10.5056
  67   2.0000      -0.377944       -10.2844
  68   2.0000      -0.377093       -10.2612
  69   2.0000      -0.368129       -10.0173
  70   2.0000      -0.360063        -9.7978
  71   2.0000      -0.357994        -9.7415
  72   2.0000      -0.350386        -9.5345
  73   2.0000      -0.344562        -9.3760
  74   2.0000      -0.342395        -9.3170
  75   2.0000      -0.335798        -9.1375
  76   2.0000      -0.327680        -8.9166
  77   2.0000      -0.316263        -8.6060
  78   2.0000      -0.303463        -8.2576
  79   2.0000      -0.300271        -8.1708
  80   2.0000      -0.294227        -8.0063
  81   2.0000      -0.290288        -7.8991
  82   2.0000      -0.281143        -7.6503
  83   2.0000      -0.276118        -7.5135
  84   2.0000      -0.268662        -7.3107
  85   2.0000      -0.256555        -6.9812
  86   2.0000      -0.238653        -6.4941
  87   2.0000      -0.230375        -6.2688
  88   2.0000      -0.221516        -6.0278
  89   2.0000      -0.200917        -5.4672
  90   2.0000      -0.192451        -5.2368
  91   2.0000      -0.186994        -5.0884
  92   2.0000      -0.184244        -5.0135
  93   2.0000      -0.177777        -4.8376
  94   2.0000      -0.173351        -4.7171
  95   2.0000      -0.167487        -4.5575
  96   2.0000      -0.165036        -4.4909
  97   2.0000      -0.145255        -3.9526
  98   2.0000      -0.134457        -3.6588
  99   2.0000      -0.116516        -3.1706
 100   0.0000       0.040513         1.1024
 101   0.0000       0.061870         1.6836
 102   0.0000       0.114527         3.1164
 103   0.0000       0.121647         3.3102
 104   0.0000       0.133029         3.6199

MULLIKEN ATOMIC CHARGES
-----------------------
   0 C :   -0.104629
   1 C :    0.022572
   2 C :   -0.285956
   3 C :   -0.222170
   4 C :   -0.224891
   5 C :   -0.259046
   6 H :    0.240621
   7 H :    0.208711
   8 H :    0.173262
   9 H :    0.182788
  10 H :    0.180716
  11 C :   -0.474447
  12 C :   -0.517603
  13 H :    0.203291
  14 H :    0.265789
  15 C :    0.116676
  16 H :    0.274579
  17 H :    0.207890
  18 C :   -0.128830
  19 C :   -0.273271
  20 C :   -0.239805
  21 C :   -0.283566
  22 C :   -0.213026
  23 H :    0.279996
  24 H :    0.198175
  25 H :    0.183687
  26 H :    0.188603
  27 Pd:    0.091869
  28 Br:   -0.310191
  29 P :   -0.136848
  30 H :    0.124200
  31 C :    0.645442
  32 O :   -0.598963
  33 O :   -0.515543
  34 O :   -0.642645
  35 H :    0.106385
  36 H :    0.139379
  37 H :    0.396800
Sum of atomic charges:   -1.0000000

LOEWDIN ATOMIC CHARGES
----------------------
   0 C :   -0.127092
   1 C :   -0.068102
   2 C :   -0.158908
   3 C :   -0.159011
   4 C :   -0.167107
   5 C :   -0.152760
   6 H :    0.294403
   7 H :    0.126989
   8 H :    0.117059
   9 H :    0.119065
  10 H :    0.118168
  11 C :   -0.214521
  12 C :   -0.216356
  13 H :    0.120671
  14 H :    0.151054
  15 C :   -0.037167
  16 H :    0.158926
  17 H :    0.120298
  18 C :   -0.004949
  19 C :   -0.119121
  20 C :   -0.149039
  21 C :   -0.147722
  22 C :   -0.155184
  23 H :    0.170133
  24 H :    0.126872
  25 H :    0.122745
  26 H :    0.122716
  27 Pd:   -0.818535
  28 Br:   -0.120089
  29 P :    0.428391
  30 H :    0.058004
  31 C :    0.095448
  32 O :   -0.419833
  33 O :   -0.253009
  34 O :   -0.378622
  35 H :    0.045706
  36 H :    0.069190
  37 H :    0.301289

  Mayer bond orders larger than 0.100000
B(  0-C ,  1-C ) :   1.4580 B(  0-C ,  2-C ) :   1.4250 B(  0-C ,  6-H ) :   0.3056
B(  0-C , 27-Pd) :   0.2944 B(  1-C ,  5-C ) :   1.4029 B(  1-C , 11-C ) :   0.9634
B(  2-C ,  3-C ) :   1.4131 B(  2-C ,  7-H ) :   0.9151 B(  3-C ,  4-C ) :   1.4347
B(  3-C ,  9-H ) :   0.9250 B(  4-C ,  5-C ) :   1.4381 B(  4-C , 10-H ) :   0.9277
B(  5-C ,  8-H ) :   0.9204 B(  6-H , 27-Pd) :   0.1580 B(  6-H , 28-Br) :   0.4038
B( 11-C , 12-C ) :   0.9162 B( 11-C , 13-H ) :   0.9310 B( 11-C , 14-H ) :   0.8969
B( 12-C , 15-C ) :   0.9682 B( 12-C , 16-H ) :   0.8848 B( 12-C , 17-H ) :   0.9306
B( 15-C , 18-C ) :   1.3403 B( 15-C , 21-C ) :   1.4035 B( 18-C , 19-C ) :   1.4124
B( 18-C , 27-Pd) :   0.7987 B( 19-C , 20-C ) :   1.4022 B( 19-C , 23-H ) :   0.8609
B( 20-C , 22-C ) :   1.4301 B( 20-C , 24-H ) :   0.9248 B( 21-C , 22-C ) :   1.4219
B( 21-C , 25-H ) :   0.9264 B( 22-C , 26-H ) :   0.9271 B( 27-Pd, 28-Br) :   0.3521
B( 27-Pd, 29-P ) :   0.7432 B( 27-Pd, 33-O ) :   0.2997 B( 29-P , 30-H ) :   0.9253
B( 29-P , 35-H ) :   0.9185 B( 29-P , 36-H ) :   0.9257 B( 31-C , 32-O ) :   1.7256
B( 31-C , 33-O ) :   1.5947 B( 31-C , 34-O ) :   0.9891 B( 34-O , 37-H ) :   0.7943

Dispersion correction           -0.031672118
FINAL SINGLE POINT ENERGY     -3847.535474600277
Dispersion correction            ... done

DIPOLE MOMENT
-------------
                                X             Y             Z
Electronic contribution:      6.49107     -70.58175     -30.00076
Nuclear contribution   :     -5.12840      70.73406      33.09835
                        -----------------------------------------
Total Dipole Moment    :      1.36268       0.15230       3.09759
                        -----------------------------------------
Magnitude (a.u.)       :      3.38750
Magnitude (Debye)      :      8.61034

Rotational constants in cm-1:     0.006981     0.006157     0.004330
Rotational constants in MHz :   209.288677   184.591945   129.807657

                             ****ORCA TERMINATED NORMALLY****
TOTAL RUN TIME: 0 days 0 hours 17 minutes 33 seconds 352 msec
