                         Program Version 5.0.3 -  RELEASE  -
|  1> ! EnGrad PBEh-3c
|  2> %output
|  3> xyzfile=True
|  4> end
|  5> %scf
|  6> maxiter 250
|  7> end
|  8> %output
|  9> Print[P_Hirshfeld] = 1
| 10> end
| 11> % maxcore
| 12> 4000
| 13> *xyz -1 1
| 14> C   -2.30400575  -0.16116912   0.70744179
| 15> C   -1.90315561   1.00618531   1.38817581
| 16> C   -3.65053065  -0.49236357   0.81008925
| 17> C   -4.62353225   0.40381708   1.24898548
| 18> C   -4.22860794   1.61098856   1.79369968
| 19> C   -2.87226070   1.85547716   1.92840635
| 20> H   -2.03157319  -1.53512656  -1.11740345
| 21> H   -3.98028177  -1.45833117   0.44331895
| 22> H   -2.57011306   2.78865014   2.41538040
| 23> H   -5.67694051   0.16642003   1.16144526
| 24> H   -4.96137502   2.33451927   2.12847188
| 25> C   -0.47688424   1.48799728   1.49236970
| 26> C    0.63177987   0.46471374   1.80411313
| 27> H   -0.44657707   2.25703593   2.25874475
| 28> H   -0.20571603   2.02459478   0.57889798
| 29> C    1.73441277   0.56051812   0.79615294
| 30> H    0.22080036  -0.54012562   1.83512412
| 31> H    1.03395441   0.65789383   2.79816728
| 32> C    1.65324430  -0.09822878  -0.44014514
| 33> C    2.67462814   0.13574258  -1.36411039
| 34> C    3.67280240   1.08096223  -1.12457557
| 35> C    2.81569220   1.39636473   1.06724021
| 36> C    3.75130398   1.71681340   0.10207608
| 37> H    2.70165189  -0.38643051  -2.31249651
| 38> H    4.41579211   1.30288067  -1.88068995
| 39> H    2.90163795   1.84834725   2.04511066
| 40> H    4.53043328   2.44371776   0.30495718
| 41> Pd   0.14452782  -1.39679390  -0.77948662
| 42> Br  -1.66430700  -3.43823486  -0.85995173
| 43> P    1.42276965  -2.96109295   0.10705179
| 44> H    0.91160699  -3.54262277   1.27563526
| 45> C    0.37883789  -1.30956562  -3.89054517
| 46> O    1.51166904  -1.68654811  -4.21750767
| 47> O   -0.43531346  -1.83407536  -3.09829085
| 48> O   -0.08002929  -0.10769985  -4.38870705
| 49> H    2.73704574  -2.74538407   0.52515618
| 50> H    1.60491340  -4.12283323  -0.64950849
| 51> H    0.64919087   0.26747049  -4.89699038
| 52> *
| 53>
| 54>                          ****END OF INPUT****

CARTESIAN COORDINATES (ANGSTROEM)
---------------------------------
  C     -2.304006   -0.161169    0.707442
  C     -1.903156    1.006185    1.388176
  C     -3.650531   -0.492364    0.810089
  C     -4.623532    0.403817    1.248985
  C     -4.228608    1.610989    1.793700
  C     -2.872261    1.855477    1.928406
  H     -2.031573   -1.535127   -1.117403
  H     -3.980282   -1.458331    0.443319
  H     -2.570113    2.788650    2.415380
  H     -5.676941    0.166420    1.161445
  H     -4.961375    2.334519    2.128472
  C     -0.476884    1.487997    1.492370
  C      0.631780    0.464714    1.804113
  H     -0.446577    2.257036    2.258745
  H     -0.205716    2.024595    0.578898
  C      1.734413    0.560518    0.796153
  H      0.220800   -0.540126    1.835124
  H      1.033954    0.657894    2.798167
  C      1.653244   -0.098229   -0.440145
  C      2.674628    0.135743   -1.364110
  C      3.672802    1.080962   -1.124576
  C      2.815692    1.396365    1.067240
  C      3.751304    1.716813    0.102076
  H      2.701652   -0.386431   -2.312497
  H      4.415792    1.302881   -1.880690
  H      2.901638    1.848347    2.045111
  H      4.530433    2.443718    0.304957
  Pd     0.144528   -1.396794   -0.779487
  Br    -1.664307   -3.438235   -0.859952
  P      1.422770   -2.961093    0.107052
  H      0.911607   -3.542623    1.275635
  C      0.378838   -1.309566   -3.890545
  O      1.511669   -1.686548   -4.217508
  O     -0.435313   -1.834075   -3.098291
  O     -0.080029   -0.107700   -4.388707
  H      2.737046   -2.745384    0.525156
  H      1.604913   -4.122833   -0.649508
  H      0.649191    0.267470   -4.896990

 Total Charge           Charge          ....   -1
 Multiplicity           Mult            ....    1
 Number of Electrons    NEL             ....  200
 Basis Dimension        Dim             ....  385

ORBITAL ENERGIES
----------------

  NO   OCC          E(Eh)            E(eV)
   0   2.0000    -484.387054    -13180.8418
   1   2.0000     -77.690280     -2114.0600
   2   2.0000     -63.048405     -1715.6343
   3   2.0000     -56.752446     -1544.3126
   4   2.0000     -56.750959     -1544.2721
   5   2.0000     -56.750568     -1544.2615
   6   2.0000     -19.355609      -526.6929
   7   2.0000     -19.286711      -524.8181
   8   2.0000     -19.281102      -524.6654
   9   2.0000     -10.417712      -283.4804
  10   2.0000     -10.361135      -281.9408
  11   2.0000     -10.352649      -281.7099
  12   2.0000     -10.348912      -281.6082
  13   2.0000     -10.346722      -281.5486
  14   2.0000     -10.346641      -281.5464
  15   2.0000     -10.339933      -281.3639
  16   2.0000     -10.335701      -281.2487
  17   2.0000     -10.334347      -281.2119
  18   2.0000     -10.330248      -281.1003
  19   2.0000     -10.330106      -281.0965
  20   2.0000     -10.329494      -281.0798
  21   2.0000     -10.328476      -281.0521
  22   2.0000     -10.325080      -280.9597
  23   2.0000     -10.320530      -280.8359
  24   2.0000      -8.875635      -241.5183
  25   2.0000      -6.765857      -184.1083
  26   2.0000      -6.646798      -180.8686
  27   2.0000      -6.640839      -180.7064
  28   2.0000      -6.637433      -180.6137
  29   2.0000      -4.856841      -132.1614
  30   2.0000      -4.856473      -132.1513
  31   2.0000      -4.855390      -132.1219
  32   2.0000      -3.541877       -96.3794
  33   2.0000      -2.660952       -72.4082
  34   2.0000      -2.659789       -72.3765
  35   2.0000      -2.656956       -72.2994
  36   2.0000      -2.651835       -72.1601
  37   2.0000      -2.651511       -72.1513
  38   2.0000      -2.191175       -59.6249
  39   2.0000      -2.183771       -59.4234
  40   2.0000      -2.156299       -58.6759
  41   2.0000      -1.044995       -28.4358
  42   2.0000      -0.932934       -25.3864
  43   2.0000      -0.900819       -24.5125
  44   2.0000      -0.858626       -23.3644
  45   2.0000      -0.835389       -22.7321
  46   2.0000      -0.784685       -21.3524
  47   2.0000      -0.738054       -20.0835
  48   2.0000      -0.731429       -19.9032
  49   2.0000      -0.706222       -19.2173
  50   2.0000      -0.696710       -18.9584
  51   2.0000      -0.682936       -18.5836
  52   2.0000      -0.662954       -18.0399
  53   2.0000      -0.613146       -16.6846
  54   2.0000      -0.576102       -15.6765
  55   2.0000      -0.552239       -15.0272
  56   2.0000      -0.548579       -14.9276
  57   2.0000      -0.524744       -14.2790
  58   2.0000      -0.500036       -13.6067
  59   2.0000      -0.471524       -12.8308
  60   2.0000      -0.454316       -12.3626
  61   2.0000      -0.432743       -11.7755
  62   2.0000      -0.413916       -11.2632
  63   2.0000      -0.400782       -10.9058
  64   2.0000      -0.392751       -10.6873
  65   2.0000      -0.389337       -10.5944
  66   2.0000      -0.384212       -10.4549
  67   2.0000      -0.377627       -10.2757
  68   2.0000      -0.375445       -10.2164
  69   2.0000      -0.367850       -10.0097
  70   2.0000      -0.361305        -9.8316
  71   2.0000      -0.356964        -9.7135
  72   2.0000      -0.348030        -9.4704
  73   2.0000      -0.345813        -9.4100
  74   2.0000      -0.341376        -9.2893
  75   2.0000      -0.333357        -9.0711
  76   2.0000      -0.326999        -8.8981
  77   2.0000      -0.316851        -8.6219
  78   2.0000      -0.302555        -8.2329
  79   2.0000      -0.299960        -8.1623
  80   2.0000      -0.292683        -7.9643
  81   2.0000      -0.289896        -7.8885
  82   2.0000      -0.279275        -7.5995
  83   2.0000      -0.274414        -7.4672
  84   2.0000      -0.264729        -7.2036
  85   2.0000      -0.255841        -6.9618
  86   2.0000      -0.235999        -6.4219
  87   2.0000      -0.228692        -6.2230
  88   2.0000      -0.221937        -6.0392
  89   2.0000      -0.202375        -5.5069
  90   2.0000      -0.193859        -5.2752
  91   2.0000      -0.187084        -5.0908
  92   2.0000      -0.184889        -5.0311
  93   2.0000      -0.177559        -4.8316
  94   2.0000      -0.169999        -4.6259
  95   2.0000      -0.167198        -4.5497
  96   2.0000      -0.160800        -4.3756
  97   2.0000      -0.144787        -3.9399
  98   2.0000      -0.134954        -3.6723
  99   2.0000      -0.114045        -3.1033
 100   0.0000       0.044657         1.2152
 101   0.0000       0.068721         1.8700
 102   0.0000       0.115923         3.1544
 103   0.0000       0.122899         3.3442
 104   0.0000       0.138722         3.7748

MULLIKEN ATOMIC CHARGES
-----------------------
   0 C :   -0.110472
   1 C :    0.021389
   2 C :   -0.293201
   3 C :   -0.217649
   4 C :   -0.225801
   5 C :   -0.263588
   6 H :    0.251014
   7 H :    0.204626
   8 H :    0.170457
   9 H :    0.181135
  10 H :    0.179112
  11 C :   -0.476842
  12 C :   -0.520004
  13 H :    0.202329
  14 H :    0.263698
  15 C :    0.120324
  16 H :    0.275406
  17 H :    0.207153
  18 C :   -0.123796
  19 C :   -0.272813
  20 C :   -0.238851
  21 C :   -0.280436
  22 C :   -0.215390
  23 H :    0.279119
  24 H :    0.197037
  25 H :    0.184237
  26 H :    0.188446
  27 Pd:    0.100720
  28 Br:   -0.302979
  29 P :   -0.141871
  30 H :    0.122351
  31 C :    0.647764
  32 O :   -0.573247
  33 O :   -0.550412
  34 O :   -0.627583
  35 H :    0.105352
  36 H :    0.137005
  37 H :    0.396263
Sum of atomic charges:   -1.0000000

LOEWDIN ATOMIC CHARGES
----------------------
   0 C :   -0.142073
   1 C :   -0.067195
   2 C :   -0.160755
   3 C :   -0.162841
   4 C :   -0.167740
   5 C :   -0.155417
   6 H :    0.300057
   7 H :    0.124199
   8 H :    0.115450
   9 H :    0.118251
  10 H :    0.117198
  11 C :   -0.213994
  12 C :   -0.216125
  13 H :    0.119865
  14 H :    0.150290
  15 C :   -0.036891
  16 H :    0.159617
  17 H :    0.119890
  18 C :    0.000761
  19 C :   -0.118569
  20 C :   -0.148861
  21 C :   -0.146943
  22 C :   -0.155426
  23 H :    0.169880
  24 H :    0.126592
  25 H :    0.123215
  26 H :    0.122579
  27 Pd:   -0.806840
  28 Br:   -0.113517
  29 P :    0.420712
  30 H :    0.057333
  31 C :    0.090651
  32 O :   -0.388122
  33 O :   -0.291478
  34 O :   -0.360175
  35 H :    0.045328
  36 H :    0.068037
  37 H :    0.303057

  Mayer bond orders larger than 0.100000
B(  0-C ,  1-C ) :   1.4576 B(  0-C ,  2-C ) :   1.4297 B(  0-C ,  6-H ) :   0.2800
B(  0-C , 27-Pd) :   0.3022 B(  1-C ,  5-C ) :   1.4060 B(  1-C , 11-C ) :   0.9602
B(  2-C ,  3-C ) :   1.4157 B(  2-C ,  7-H ) :   0.9154 B(  3-C ,  4-C ) :   1.4384
B(  3-C ,  9-H ) :   0.9256 B(  4-C ,  5-C ) :   1.4376 B(  4-C , 10-H ) :   0.9278
B(  5-C ,  8-H ) :   0.9215 B(  6-H , 27-Pd) :   0.1454 B(  6-H , 28-Br) :   0.4435
B( 11-C , 12-C ) :   0.9164 B( 11-C , 13-H ) :   0.9325 B( 11-C , 14-H ) :   0.8976
B( 12-C , 15-C ) :   0.9690 B( 12-C , 16-H ) :   0.8840 B( 12-C , 17-H ) :   0.9301
B( 15-C , 18-C ) :   1.3372 B( 15-C , 21-C ) :   1.4066 B( 18-C , 19-C ) :   1.4127
B( 18-C , 27-Pd) :   0.8149 B( 19-C , 20-C ) :   1.4019 B( 19-C , 23-H ) :   0.8635
B( 20-C , 22-C ) :   1.4310 B( 20-C , 24-H ) :   0.9252 B( 21-C , 22-C ) :   1.4230
B( 21-C , 25-H ) :   0.9259 B( 22-C , 26-H ) :   0.9273 B( 27-Pd, 28-Br) :   0.3304
B( 27-Pd, 29-P ) :   0.7155 B( 27-Pd, 33-O ) :   0.3200 B( 29-P , 30-H ) :   0.9258
B( 29-P , 35-H ) :   0.9199 B( 29-P , 36-H ) :   0.9261 B( 31-C , 32-O ) :   1.7672
B( 31-C , 33-O ) :   1.5371 B( 31-C , 34-O ) :   1.0098 B( 34-O , 37-H ) :   0.7932

Dispersion correction           -0.031595252
FINAL SINGLE POINT ENERGY     -3847.544361044338
Dispersion correction            ... done

DIPOLE MOMENT
-------------
                                X             Y             Z
Electronic contribution:      6.82235     -69.21741     -30.05352
Nuclear contribution   :     -5.30892      69.29053      32.86580
                        -----------------------------------------
Total Dipole Moment    :      1.51344       0.07313       2.81228
                        -----------------------------------------
Magnitude (a.u.)       :      3.19449
Magnitude (Debye)      :      8.11974

Rotational constants in cm-1:     0.007011     0.006175     0.004341
Rotational constants in MHz :   210.174262   185.125434   130.149309

                             ****ORCA TERMINATED NORMALLY****
TOTAL RUN TIME: 0 days 0 hours 19 minutes 20 seconds 640 msec
