                         Program Version 5.0.3 -  RELEASE  -
|  1> ! EnGrad PBEh-3c
|  2> %output
|  3> xyzfile=True
|  4> end
|  5> %scf
|  6> maxiter 250
|  7> end
|  8> %output
|  9> Print[P_Hirshfeld] = 1
| 10> end
| 11> % maxcore
| 12> 4000
| 13> *xyz -1 1
| 14> C   -2.29352027  -0.16471817   0.69223139
| 15> C   -1.90316733   1.00590162   1.37467608
| 16> C   -3.64675327  -0.48644511   0.78734189
| 17> C   -4.61895768   0.39905818   1.25509349
| 18> C   -4.22609499   1.60877681   1.78779787
| 19> C   -2.87052751   1.84916394   1.93292439
| 20> H   -1.98795999  -1.56525398  -1.06398662
| 21> H   -3.97928313  -1.45459720   0.42929166
| 22> H   -2.56689361   2.78429112   2.41883798
| 23> H   -5.66989402   0.16075109   1.16839736
| 24> H   -4.95792321   2.33324098   2.12334296
| 25> C   -0.47609084   1.49057064   1.49153021
| 26> C    0.62928829   0.46206807   1.80534552
| 27> H   -0.44810938   2.25809156   2.26099031
| 28> H   -0.20067697   2.02588112   0.57703177
| 29> C    1.73393981   0.55382524   0.79912276
| 30> H    0.21420994  -0.54122048   1.83853813
| 31> H    1.03175602   0.65837286   2.79988395
| 32> C    1.64951571  -0.09826665  -0.43761988
| 33> C    2.66615627   0.13465608  -1.36904461
| 34> C    3.66661164   1.07787612  -1.12353299
| 35> C    2.80762915   1.40133960   1.06440122
| 36> C    3.75038710   1.70491332   0.10090146
| 37> H    2.69154531  -0.38703299  -2.31468828
| 38> H    4.40800762   1.29759852  -1.88325780
| 39> H    2.88970527   1.85421991   2.04113731
| 40> H    4.52843139   2.43383980   0.30483016
| 41> Pd   0.13968273  -1.38696174  -0.77589669
| 42> Br  -1.68804804  -3.39998443  -0.86362669
| 43> P    1.42504162  -2.95857814   0.10728020
| 44> H    0.91459936  -3.54410632   1.27766365
| 45> C    0.37323156  -1.30621792  -3.89931454
| 46> O    1.50876936  -1.68120987  -4.21510404
| 47> O   -0.43344274  -1.82373477  -3.08039139
| 48> O   -0.06882787  -0.10246376  -4.38716522
| 49> H    2.74274330  -2.74228287   0.52325125
| 50> H    1.60431452  -4.12168569  -0.65432113
| 51> H    0.64760462   0.26441831  -4.89860875
| 52> *
| 53>
| 54>                          ****END OF INPUT****

CARTESIAN COORDINATES (ANGSTROEM)
---------------------------------
  C     -2.293520   -0.164718    0.692231
  C     -1.903167    1.005902    1.374676
  C     -3.646753   -0.486445    0.787342
  C     -4.618958    0.399058    1.255093
  C     -4.226095    1.608777    1.787798
  C     -2.870528    1.849164    1.932924
  H     -1.987960   -1.565254   -1.063987
  H     -3.979283   -1.454597    0.429292
  H     -2.566894    2.784291    2.418838
  H     -5.669894    0.160751    1.168397
  H     -4.957923    2.333241    2.123343
  C     -0.476091    1.490571    1.491530
  C      0.629288    0.462068    1.805346
  H     -0.448109    2.258092    2.260990
  H     -0.200677    2.025881    0.577032
  C      1.733940    0.553825    0.799123
  H      0.214210   -0.541220    1.838538
  H      1.031756    0.658373    2.799884
  C      1.649516   -0.098267   -0.437620
  C      2.666156    0.134656   -1.369045
  C      3.666612    1.077876   -1.123533
  C      2.807629    1.401340    1.064401
  C      3.750387    1.704913    0.100901
  H      2.691545   -0.387033   -2.314688
  H      4.408008    1.297599   -1.883258
  H      2.889705    1.854220    2.041137
  H      4.528431    2.433840    0.304830
  Pd     0.139683   -1.386962   -0.775897
  Br    -1.688048   -3.399984   -0.863627
  P      1.425042   -2.958578    0.107280
  H      0.914599   -3.544106    1.277664
  C      0.373232   -1.306218   -3.899315
  O      1.508769   -1.681210   -4.215104
  O     -0.433443   -1.823735   -3.080391
  O     -0.068828   -0.102464   -4.387165
  H      2.742743   -2.742283    0.523251
  H      1.604315   -4.121686   -0.654321
  H      0.647605    0.264418   -4.898609

 Total Charge           Charge          ....   -1
 Multiplicity           Mult            ....    1
 Number of Electrons    NEL             ....  200
 Basis Dimension        Dim             ....  385

ORBITAL ENERGIES
----------------

  NO   OCC          E(Eh)            E(eV)
   0   2.0000    -484.391876    -13180.9730
   1   2.0000     -77.690470     -2114.0652
   2   2.0000     -63.053341     -1715.7686
   3   2.0000     -56.757461     -1544.4490
   4   2.0000     -56.755828     -1544.4046
   5   2.0000     -56.755457     -1544.3945
   6   2.0000     -19.357273      -526.7382
   7   2.0000     -19.286757      -524.8193
   8   2.0000     -19.282146      -524.6939
   9   2.0000     -10.419453      -283.5277
  10   2.0000     -10.361075      -281.9392
  11   2.0000     -10.351874      -281.6888
  12   2.0000     -10.348196      -281.5887
  13   2.0000     -10.346279      -281.5366
  14   2.0000     -10.346155      -281.5332
  15   2.0000     -10.339973      -281.3650
  16   2.0000     -10.333287      -281.1830
  17   2.0000     -10.332484      -281.1612
  18   2.0000     -10.328500      -281.0528
  19   2.0000     -10.327147      -281.0160
  20   2.0000     -10.326541      -280.9995
  21   2.0000     -10.325064      -280.9593
  22   2.0000     -10.319218      -280.8002
  23   2.0000     -10.317615      -280.7566
  24   2.0000      -8.880737      -241.6572
  25   2.0000      -6.765883      -184.1090
  26   2.0000      -6.652239      -181.0166
  27   2.0000      -6.645738      -180.8397
  28   2.0000      -6.642417      -180.7494
  29   2.0000      -4.856868      -132.1621
  30   2.0000      -4.856502      -132.1521
  31   2.0000      -4.855403      -132.1222
  32   2.0000      -3.541064       -96.3572
  33   2.0000      -2.666339       -72.5548
  34   2.0000      -2.665013       -72.5187
  35   2.0000      -2.662244       -72.4433
  36   2.0000      -2.656655       -72.2912
  37   2.0000      -2.656366       -72.2834
  38   2.0000      -2.191127       -59.6236
  39   2.0000      -2.182363       -59.3851
  40   2.0000      -2.155486       -58.6538
  41   2.0000      -1.048649       -28.5352
  42   2.0000      -0.934884       -25.4395
  43   2.0000      -0.899375       -24.4732
  44   2.0000      -0.858742       -23.3676
  45   2.0000      -0.831862       -22.6361
  46   2.0000      -0.783370       -21.3166
  47   2.0000      -0.736050       -20.0289
  48   2.0000      -0.731372       -19.9016
  49   2.0000      -0.705528       -19.1984
  50   2.0000      -0.700876       -19.0718
  51   2.0000      -0.681031       -18.5318
  52   2.0000      -0.662643       -18.0314
  53   2.0000      -0.611075       -16.6282
  54   2.0000      -0.576594       -15.6899
  55   2.0000      -0.550771       -14.9872
  56   2.0000      -0.546015       -14.8578
  57   2.0000      -0.521862       -14.2006
  58   2.0000      -0.506957       -13.7950
  59   2.0000      -0.471455       -12.8289
  60   2.0000      -0.451812       -12.2944
  61   2.0000      -0.431934       -11.7535
  62   2.0000      -0.413092       -11.2408
  63   2.0000      -0.398794       -10.8517
  64   2.0000      -0.392565       -10.6822
  65   2.0000      -0.387472       -10.5437
  66   2.0000      -0.383532       -10.4364
  67   2.0000      -0.378963       -10.3121
  68   2.0000      -0.374452       -10.1893
  69   2.0000      -0.368834       -10.0365
  70   2.0000      -0.361980        -9.8500
  71   2.0000      -0.354612        -9.6495
  72   2.0000      -0.347495        -9.4558
  73   2.0000      -0.346567        -9.4306
  74   2.0000      -0.340368        -9.2619
  75   2.0000      -0.331469        -9.0197
  76   2.0000      -0.327196        -8.9034
  77   2.0000      -0.320742        -8.7278
  78   2.0000      -0.302174        -8.2226
  79   2.0000      -0.299499        -8.1498
  80   2.0000      -0.293012        -7.9733
  81   2.0000      -0.289243        -7.8707
  82   2.0000      -0.279700        -7.6110
  83   2.0000      -0.273421        -7.4402
  84   2.0000      -0.262442        -7.1414
  85   2.0000      -0.256322        -6.9749
  86   2.0000      -0.235738        -6.4147
  87   2.0000      -0.229030        -6.2322
  88   2.0000      -0.223650        -6.0858
  89   2.0000      -0.204090        -5.5536
  90   2.0000      -0.196963        -5.3596
  91   2.0000      -0.188043        -5.1169
  92   2.0000      -0.184513        -5.0209
  93   2.0000      -0.177973        -4.8429
  94   2.0000      -0.169473        -4.6116
  95   2.0000      -0.164650        -4.4803
  96   2.0000      -0.157606        -4.2887
  97   2.0000      -0.144419        -3.9298
  98   2.0000      -0.134683        -3.6649
  99   2.0000      -0.112815        -3.0699
 100   0.0000       0.046723         1.2714
 101   0.0000       0.081253         2.2110
 102   0.0000       0.115618         3.1461
 103   0.0000       0.124391         3.3849
 104   0.0000       0.141547         3.8517

MULLIKEN ATOMIC CHARGES
-----------------------
   0 C :   -0.118255
   1 C :    0.019441
   2 C :   -0.296002
   3 C :   -0.216382
   4 C :   -0.226609
   5 C :   -0.264362
   6 H :    0.260001
   7 H :    0.200801
   8 H :    0.169067
   9 H :    0.179341
  10 H :    0.177175
  11 C :   -0.477086
  12 C :   -0.520293
  13 H :    0.201417
  14 H :    0.261926
  15 C :    0.122683
  16 H :    0.275716
  17 H :    0.205728
  18 C :   -0.121140
  19 C :   -0.271722
  20 C :   -0.239133
  21 C :   -0.279075
  22 C :   -0.214144
  23 H :    0.280025
  24 H :    0.196315
  25 H :    0.184850
  26 H :    0.187672
  27 Pd:    0.095572
  28 Br:   -0.286100
  29 P :   -0.144323
  30 H :    0.120791
  31 C :    0.649753
  32 O :   -0.571665
  33 O :   -0.559316
  34 O :   -0.622950
  35 H :    0.106258
  36 H :    0.134828
  37 H :    0.399196
Sum of atomic charges:   -1.0000000

LOEWDIN ATOMIC CHARGES
----------------------
   0 C :   -0.156495
   1 C :   -0.066679
   2 C :   -0.161278
   3 C :   -0.165164
   4 C :   -0.167976
   5 C :   -0.157502
   6 H :    0.301468
   7 H :    0.122148
   8 H :    0.114597
   9 H :    0.117489
  10 H :    0.116260
  11 C :   -0.213731
  12 C :   -0.216078
  13 H :    0.119164
  14 H :    0.149527
  15 C :   -0.037011
  16 H :    0.159882
  17 H :    0.119412
  18 C :    0.003459
  19 C :   -0.117773
  20 C :   -0.148598
  21 C :   -0.146151
  22 C :   -0.155576
  23 H :    0.170109
  24 H :    0.126442
  25 H :    0.123541
  26 H :    0.122522
  27 Pd:   -0.809378
  28 Br:   -0.091521
  29 P :    0.416547
  30 H :    0.056730
  31 C :    0.093964
  32 O :   -0.386428
  33 O :   -0.299955
  34 O :   -0.352637
  35 H :    0.046375
  36 H :    0.067082
  37 H :    0.303212

  Mayer bond orders larger than 0.100000
B(  0-C ,  1-C ) :   1.4603 B(  0-C ,  2-C ) :   1.4270 B(  0-C ,  6-H ) :   0.2537
B(  0-C , 27-Pd) :   0.3121 B(  1-C ,  5-C ) :   1.4056 B(  1-C , 11-C ) :   0.9589
B(  2-C ,  3-C ) :   1.4165 B(  2-C ,  7-H ) :   0.9160 B(  3-C ,  4-C ) :   1.4402
B(  3-C ,  9-H ) :   0.9261 B(  4-C ,  5-C ) :   1.4366 B(  4-C , 10-H ) :   0.9281
B(  5-C ,  8-H ) :   0.9220 B(  6-H , 27-Pd) :   0.1388 B(  6-H , 28-Br) :   0.4800
B( 11-C , 12-C ) :   0.9162 B( 11-C , 13-H ) :   0.9330 B( 11-C , 14-H ) :   0.8983
B( 12-C , 15-C ) :   0.9702 B( 12-C , 16-H ) :   0.8836 B( 12-C , 17-H ) :   0.9300
B( 15-C , 18-C ) :   1.3354 B( 15-C , 21-C ) :   1.4069 B( 18-C , 19-C ) :   1.4143
B( 18-C , 27-Pd) :   0.8190 B( 19-C , 20-C ) :   1.4002 B( 19-C , 23-H ) :   0.8629
B( 20-C , 22-C ) :   1.4326 B( 20-C , 24-H ) :   0.9253 B( 21-C , 22-C ) :   1.4216
B( 21-C , 25-H ) :   0.9254 B( 22-C , 26-H ) :   0.9276 B( 27-Pd, 28-Br) :   0.3250
B( 27-Pd, 29-P ) :   0.6996 B( 27-Pd, 33-O ) :   0.3276 B( 29-P , 30-H ) :   0.9260
B( 29-P , 35-H ) :   0.9214 B( 29-P , 36-H ) :   0.9263 B( 31-C , 32-O ) :   1.7696
B( 31-C , 33-O ) :   1.5223 B( 31-C , 34-O ) :   1.0196 B( 34-O , 37-H ) :   0.7906

Dispersion correction           -0.031538694
FINAL SINGLE POINT ENERGY     -3847.552642752543
Dispersion correction            ... done

DIPOLE MOMENT
-------------
                                X             Y             Z
Electronic contribution:      6.61732     -68.84261     -29.97611
Nuclear contribution   :     -5.04341      68.78199      32.66682
                        -----------------------------------------
Total Dipole Moment    :      1.57391      -0.06062       2.69071
                        -----------------------------------------
Magnitude (a.u.)       :      3.11782
Magnitude (Debye)      :      7.92486

Rotational constants in cm-1:     0.007061     0.006191     0.004359
Rotational constants in MHz :   211.672568   185.598526   130.671201

                             ****ORCA TERMINATED NORMALLY****
TOTAL RUN TIME: 0 days 0 hours 25 minutes 0 seconds 45 msec
