                         Program Version 5.0.3 -  RELEASE  -
|  1> ! EnGrad PBEh-3c
|  2> %output
|  3> xyzfile=True
|  4> end
|  5> %scf
|  6> maxiter 250
|  7> end
|  8> %output
|  9> Print[P_Hirshfeld] = 1
| 10> end
| 11> % maxcore
| 12> 4000
| 13> *xyz -1 1
| 14> C   -2.26914421  -0.16841651   0.65474460
| 15> C   -1.90010173   1.00434307   1.35002001
| 16> C   -3.63878236  -0.47726100   0.73775382
| 17> C   -4.60561852   0.38686047   1.26001606
| 18> C   -4.21992894   1.60386365   1.78303331
| 19> C   -2.86557407   1.84243197   1.93935010
| 20> H   -1.90422624  -1.63895607  -0.94244329
| 21> H   -3.97834688  -1.44702858   0.40041938
| 22> H   -2.56094792   2.77110396   2.42057383
| 23> H   -5.65788803   0.14778110   1.18132004
| 24> H   -4.95120913   2.32956840   2.11466127
| 25> C   -0.47430859   1.49528038   1.48680153
| 26> C    0.62361592   0.45770626   1.80995228
| 27> H   -0.45018073   2.26178698   2.26849874
| 28> H   -0.19397440   2.02713468   0.57400873
| 29> C    1.73097355   0.54230213   0.80684720
| 30> H    0.19995438  -0.54472006   1.84622139
| 31> H    1.02824590   0.65841887   2.80481684
| 32> C    1.64422195  -0.09913483  -0.43472694
| 33> C    2.64633229   0.13542854  -1.37702030
| 34> C    3.65503524   1.06620375  -1.12767172
| 35> C    2.79097570   1.40832820   1.05877963
| 36> C    3.74928012   1.68570151   0.10226007
| 37> H    2.66915334  -0.39070704  -2.32157962
| 38> H    4.39169639   1.28557697  -1.88904864
| 39> H    2.86568524   1.86717708   2.03604601
| 40> H    4.52350055   2.41349437   0.30369649
| 41> Pd   0.13108276  -1.36306812  -0.77041896
| 42> Br  -1.74207210  -3.30766510  -0.87194823
| 43> P    1.42945489  -2.95308778   0.10813795
| 44> H    0.92262703  -3.54749781   1.28157811
| 45> C    0.38466905  -1.29510890  -3.90097839
| 46> O    1.49348343  -1.67022452  -4.21323335
| 47> O   -0.43382401  -1.80508411  -3.05035949
| 48> O   -0.06143032  -0.09360094  -4.38327400
| 49> H    2.75562226  -2.73734187   0.51926275
| 50> H    1.60419621  -4.11927698  -0.66398000
| 51> H    0.65360058   0.26161171  -4.90807698
| 52> *
| 53>
| 54>                          ****END OF INPUT****

CARTESIAN COORDINATES (ANGSTROEM)
---------------------------------
  C     -2.269144   -0.168417    0.654745
  C     -1.900102    1.004343    1.350020
  C     -3.638782   -0.477261    0.737754
  C     -4.605619    0.386860    1.260016
  C     -4.219929    1.603864    1.783033
  C     -2.865574    1.842432    1.939350
  H     -1.904226   -1.638956   -0.942443
  H     -3.978347   -1.447029    0.400419
  H     -2.560948    2.771104    2.420574
  H     -5.657888    0.147781    1.181320
  H     -4.951209    2.329568    2.114661
  C     -0.474309    1.495280    1.486802
  C      0.623616    0.457706    1.809952
  H     -0.450181    2.261787    2.268499
  H     -0.193974    2.027135    0.574009
  C      1.730974    0.542302    0.806847
  H      0.199954   -0.544720    1.846221
  H      1.028246    0.658419    2.804817
  C      1.644222   -0.099135   -0.434727
  C      2.646332    0.135429   -1.377020
  C      3.655035    1.066204   -1.127672
  C      2.790976    1.408328    1.058780
  C      3.749280    1.685702    0.102260
  H      2.669153   -0.390707   -2.321580
  H      4.391696    1.285577   -1.889049
  H      2.865685    1.867177    2.036046
  H      4.523501    2.413494    0.303696
  Pd     0.131083   -1.363068   -0.770419
  Br    -1.742072   -3.307665   -0.871948
  P      1.429455   -2.953088    0.108138
  H      0.922627   -3.547498    1.281578
  C      0.384669   -1.295109   -3.900978
  O      1.493483   -1.670225   -4.213233
  O     -0.433824   -1.805084   -3.050359
  O     -0.061430   -0.093601   -4.383274
  H      2.755622   -2.737342    0.519263
  H      1.604196   -4.119277   -0.663980
  H      0.653601    0.261612   -4.908077

 Total Charge           Charge          ....   -1
 Multiplicity           Mult            ....    1
 Number of Electrons    NEL             ....  200
 Basis Dimension        Dim             ....  385

ORBITAL ENERGIES
----------------

  NO   OCC          E(Eh)            E(eV)
   0   2.0000    -484.401191    -13181.2265
   1   2.0000     -77.690745     -2114.0727
   2   2.0000     -63.063192     -1716.0367
   3   2.0000     -56.767361     -1544.7184
   4   2.0000     -56.765564     -1544.6695
   5   2.0000     -56.765259     -1544.6612
   6   2.0000     -19.359300      -526.7933
   7   2.0000     -19.289928      -524.9056
   8   2.0000     -19.284546      -524.7592
   9   2.0000     -10.421677      -283.5882
  10   2.0000     -10.360993      -281.9370
  11   2.0000     -10.350692      -281.6567
  12   2.0000     -10.347566      -281.5716
  13   2.0000     -10.346177      -281.5338
  14   2.0000     -10.345700      -281.5208
  15   2.0000     -10.340082      -281.3679
  16   2.0000     -10.331330      -281.1298
  17   2.0000     -10.325561      -280.9728
  18   2.0000     -10.324728      -280.9501
  19   2.0000     -10.320981      -280.8482
  20   2.0000     -10.319999      -280.8214
  21   2.0000     -10.318885      -280.7911
  22   2.0000     -10.311900      -280.6011
  23   2.0000     -10.307168      -280.4723
  24   2.0000      -8.891208      -241.9421
  25   2.0000      -6.765805      -184.1069
  26   2.0000      -6.663344      -181.3188
  27   2.0000      -6.655851      -181.1149
  28   2.0000      -6.652723      -181.0298
  29   2.0000      -4.856787      -132.1599
  30   2.0000      -4.856432      -132.1502
  31   2.0000      -4.855294      -132.1193
  32   2.0000      -3.538903       -96.2985
  33   2.0000      -2.677419       -72.8563
  34   2.0000      -2.675704       -72.8096
  35   2.0000      -2.673084       -72.7383
  36   2.0000      -2.666657       -72.5634
  37   2.0000      -2.666426       -72.5571
  38   2.0000      -2.190754       -59.6134
  39   2.0000      -2.178800       -59.2882
  40   2.0000      -2.153426       -58.5977
  41   2.0000      -1.053893       -28.6779
  42   2.0000      -0.941763       -25.6267
  43   2.0000      -0.897540       -24.4233
  44   2.0000      -0.858543       -23.3621
  45   2.0000      -0.823365       -22.4049
  46   2.0000      -0.780449       -21.2371
  47   2.0000      -0.732109       -19.9217
  48   2.0000      -0.731214       -19.8973
  49   2.0000      -0.722921       -19.6717
  50   2.0000      -0.694810       -18.9068
  51   2.0000      -0.676004       -18.3950
  52   2.0000      -0.661505       -18.0005
  53   2.0000      -0.606499       -16.5037
  54   2.0000      -0.576525       -15.6880
  55   2.0000      -0.549408       -14.9501
  56   2.0000      -0.540620       -14.7110
  57   2.0000      -0.515018       -14.0144
  58   2.0000      -0.507955       -13.8222
  59   2.0000      -0.471138       -12.8203
  60   2.0000      -0.446273       -12.1437
  61   2.0000      -0.430459       -11.7134
  62   2.0000      -0.411645       -11.2014
  63   2.0000      -0.395004       -10.7486
  64   2.0000      -0.391473       -10.6525
  65   2.0000      -0.384444       -10.4613
  66   2.0000      -0.382618       -10.4116
  67   2.0000      -0.381637       -10.3849
  68   2.0000      -0.374028       -10.1778
  69   2.0000      -0.372202       -10.1281
  70   2.0000      -0.362619        -9.8674
  71   2.0000      -0.352328        -9.5873
  72   2.0000      -0.350484        -9.5371
  73   2.0000      -0.344499        -9.3743
  74   2.0000      -0.343366        -9.3435
  75   2.0000      -0.333470        -9.0742
  76   2.0000      -0.327514        -8.9121
  77   2.0000      -0.321626        -8.7519
  78   2.0000      -0.300828        -8.1859
  79   2.0000      -0.299384        -8.1467
  80   2.0000      -0.294795        -8.0218
  81   2.0000      -0.284324        -7.7368
  82   2.0000      -0.280918        -7.6442
  83   2.0000      -0.269854        -7.3431
  84   2.0000      -0.261346        -7.1116
  85   2.0000      -0.252429        -6.8690
  86   2.0000      -0.235565        -6.4101
  87   2.0000      -0.229494        -6.2448
  88   2.0000      -0.226234        -6.1561
  89   2.0000      -0.208271        -5.6673
  90   2.0000      -0.203766        -5.5448
  91   2.0000      -0.191381        -5.2077
  92   2.0000      -0.185052        -5.0355
  93   2.0000      -0.177871        -4.8401
  94   2.0000      -0.171504        -4.6669
  95   2.0000      -0.157139        -4.2760
  96   2.0000      -0.150074        -4.0837
  97   2.0000      -0.143911        -3.9160
  98   2.0000      -0.135001        -3.6736
  99   2.0000      -0.109353        -2.9756
 100   0.0000       0.049930         1.3587
 101   0.0000       0.110677         3.0117
 102   0.0000       0.116013         3.1569
 103   0.0000       0.129736         3.5303
 104   0.0000       0.146354         3.9825

MULLIKEN ATOMIC CHARGES
-----------------------
   0 C :   -0.135862
   1 C :    0.013001
   2 C :   -0.297937
   3 C :   -0.215839
   4 C :   -0.229242
   5 C :   -0.263580
   6 H :    0.281617
   7 H :    0.192249
   8 H :    0.167584
   9 H :    0.174057
  10 H :    0.173738
  11 C :   -0.477026
  12 C :   -0.519937
  13 H :    0.197106
  14 H :    0.260286
  15 C :    0.127183
  16 H :    0.275627
  17 H :    0.203152
  18 C :   -0.113065
  19 C :   -0.267950
  20 C :   -0.241071
  21 C :   -0.276390
  22 C :   -0.215064
  23 H :    0.278203
  24 H :    0.196007
  25 H :    0.184872
  26 H :    0.187600
  27 Pd:    0.083852
  28 Br:   -0.250412
  29 P :   -0.150453
  30 H :    0.117541
  31 C :    0.649073
  32 O :   -0.542977
  33 O :   -0.582878
  34 O :   -0.617934
  35 H :    0.107780
  36 H :    0.129643
  37 H :    0.397444
Sum of atomic charges:   -1.0000000

LOEWDIN ATOMIC CHARGES
----------------------
   0 C :   -0.184310
   1 C :   -0.067073
   2 C :   -0.162960
   3 C :   -0.168783
   4 C :   -0.169653
   5 C :   -0.161986
   6 H :    0.295526
   7 H :    0.118062
   8 H :    0.113406
   9 H :    0.115242
  10 H :    0.114411
  11 C :   -0.212848
  12 C :   -0.215849
  13 H :    0.117214
  14 H :    0.148365
  15 C :   -0.036706
  16 H :    0.160433
  17 H :    0.118565
  18 C :    0.009122
  19 C :   -0.117996
  20 C :   -0.147861
  21 C :   -0.143982
  22 C :   -0.156525
  23 H :    0.169870
  24 H :    0.126198
  25 H :    0.123750
  26 H :    0.122702
  27 Pd:   -0.812331
  28 Br:   -0.038935
  29 P :    0.406593
  30 H :    0.055291
  31 C :    0.092259
  32 O :   -0.352272
  33 O :   -0.324055
  34 O :   -0.348325
  35 H :    0.048252
  36 H :    0.064476
  37 H :    0.302714

  Mayer bond orders larger than 0.100000
B(  0-C ,  1-C ) :   1.4678 B(  0-C ,  2-C ) :   1.4118 B(  0-C ,  6-H ) :   0.2006
B(  0-C , 27-Pd) :   0.3313 B(  1-C ,  5-C ) :   1.3992 B(  1-C , 11-C ) :   0.9573
B(  2-C ,  3-C ) :   1.4247 B(  2-C ,  7-H ) :   0.9174 B(  3-C ,  4-C ) :   1.4365
B(  3-C ,  9-H ) :   0.9271 B(  4-C ,  5-C ) :   1.4416 B(  4-C , 10-H ) :   0.9285
B(  5-C ,  8-H ) :   0.9223 B(  6-H , 27-Pd) :   0.1194 B(  6-H , 28-Br) :   0.5595
B( 11-C , 12-C ) :   0.9157 B( 11-C , 13-H ) :   0.9346 B( 11-C , 14-H ) :   0.8988
B( 12-C , 15-C ) :   0.9723 B( 12-C , 16-H ) :   0.8829 B( 12-C , 17-H ) :   0.9294
B( 15-C , 18-C ) :   1.3322 B( 15-C , 21-C ) :   1.4051 B( 18-C , 19-C ) :   1.4161
B( 18-C , 27-Pd) :   0.8292 B( 19-C , 20-C ) :   1.4009 B( 19-C , 23-H ) :   0.8648
B( 20-C , 22-C ) :   1.4322 B( 20-C , 24-H ) :   0.9252 B( 21-C , 22-C ) :   1.4218
B( 21-C , 25-H ) :   0.9249 B( 22-C , 26-H ) :   0.9277 B( 27-Pd, 28-Br) :   0.3139
B( 27-Pd, 29-P ) :   0.6645 B( 27-Pd, 33-O ) :   0.3499 B( 29-P , 30-H ) :   0.9264
B( 29-P , 35-H ) :   0.9246 B( 29-P , 36-H ) :   0.9265 B( 31-C , 32-O ) :   1.8112
B( 31-C , 33-O ) :   1.4773 B( 31-C , 34-O ) :   1.0251 B( 34-O , 37-H ) :   0.7915

Dispersion correction           -0.031655737
FINAL SINGLE POINT ENERGY     -3847.567638350295
Dispersion correction            ... done

DIPOLE MOMENT
-------------
                                X             Y             Z
Electronic contribution:      6.34415     -67.91749     -29.91090
Nuclear contribution   :     -4.58456      67.54216      32.35348
                        -----------------------------------------
Total Dipole Moment    :      1.75959      -0.37533       2.44259
                        -----------------------------------------
Magnitude (a.u.)       :      3.03369
Magnitude (Debye)      :      7.71102

Rotational constants in cm-1:     0.007177     0.006227     0.004399
Rotational constants in MHz :   215.174847   186.677715   131.864862

                             ****ORCA TERMINATED NORMALLY****
TOTAL RUN TIME: 0 days 0 hours 19 minutes 50 seconds 823 msec
