                         Program Version 5.0.3 -  RELEASE  -
|  1> ! EnGrad PBEh-3c
|  2> %output
|  3> xyzfile=True
|  4> end
|  5> %scf
|  6> maxiter 250
|  7> end
|  8> %output
|  9> Print[P_Hirshfeld] = 1
| 10> end
| 11> % maxcore
| 12> 4000
| 13> *xyz -1 1
| 14> C   -2.25241843  -0.17049980   0.62932523
| 15> C   -1.90151870   1.00871920   1.32760122
| 16> C   -3.63086054  -0.47162709   0.69487367
| 17> C   -4.59450821   0.37228829   1.26638117
| 18> C   -4.21589961   1.59665985   1.78500982
| 19> C   -2.86163939   1.84058177   1.93146980
| 20> H   -1.85118623  -1.70470828  -0.82535447
| 21> H   -3.98087260  -1.44755834   0.37326050
| 22> H   -2.55180436   2.75828656   2.42422837
| 23> H   -5.64991903   0.13575658   1.19052887
| 24> H   -4.94691283   2.32797569   2.11349698
| 25> C   -0.47225299   1.50147169   1.48223147
| 26> C    0.61858371   0.45265278   1.81571400
| 27> H   -0.45177612   2.26877167   2.27418311
| 28> H   -0.19178321   2.02287907   0.56326987
| 29> C    1.73122769   0.53003870   0.81306448
| 30> H    0.18654775  -0.55029223   1.84956448
| 31> H    1.02596298   0.65993394   2.81024525
| 32> C    1.64392405  -0.10599972  -0.43121924
| 33> C    2.63157602   0.13672058  -1.38693973
| 34> C    3.64859241   1.05557808  -1.13109334
| 35> C    2.77654021   1.42031350   1.05585467
| 36> C    3.74712637   1.67271229   0.10231021
| 37> H    2.64906024  -0.39720159  -2.33030103
| 38> H    4.38120335   1.27442574  -1.89579517
| 39> H    2.84788241   1.87725150   2.03578462
| 40> H    4.52332170   2.39811940   0.30433482
| 41> Pd   0.12096314  -1.34607756  -0.77852525
| 42> Br  -1.78680775  -3.21797569  -0.87788952
| 43> P    1.43299336  -2.94734134   0.10958638
| 44> H    0.92891473  -3.55033652   1.28515718
| 45> C    0.37985499  -1.28066475  -3.87498613
| 46> O    1.49481676  -1.66620440  -4.22121988
| 47> O   -0.42208759  -1.78207126  -3.03475374
| 48> O   -0.05774680  -0.08606190  -4.38635042
| 49> H    2.76902726  -2.73462535   0.52030647
| 50> H    1.60462192  -4.11750802  -0.66979371
| 51> H    0.66199107   0.26068840  -4.92077805
| 52> *
| 53>
| 54>                          ****END OF INPUT****

CARTESIAN COORDINATES (ANGSTROEM)
---------------------------------
  C     -2.252418   -0.170500    0.629325
  C     -1.901519    1.008719    1.327601
  C     -3.630861   -0.471627    0.694874
  C     -4.594508    0.372288    1.266381
  C     -4.215900    1.596660    1.785010
  C     -2.861639    1.840582    1.931470
  H     -1.851186   -1.704708   -0.825354
  H     -3.980873   -1.447558    0.373260
  H     -2.551804    2.758287    2.424228
  H     -5.649919    0.135757    1.190529
  H     -4.946913    2.327976    2.113497
  C     -0.472253    1.501472    1.482231
  C      0.618584    0.452653    1.815714
  H     -0.451776    2.268772    2.274183
  H     -0.191783    2.022879    0.563270
  C      1.731228    0.530039    0.813064
  H      0.186548   -0.550292    1.849564
  H      1.025963    0.659934    2.810245
  C      1.643924   -0.106000   -0.431219
  C      2.631576    0.136721   -1.386940
  C      3.648592    1.055578   -1.131093
  C      2.776540    1.420314    1.055855
  C      3.747126    1.672712    0.102310
  H      2.649060   -0.397202   -2.330301
  H      4.381203    1.274426   -1.895795
  H      2.847882    1.877251    2.035785
  H      4.523322    2.398119    0.304335
  Pd     0.120963   -1.346078   -0.778525
  Br    -1.786808   -3.217976   -0.877890
  P      1.432993   -2.947341    0.109586
  H      0.928915   -3.550337    1.285157
  C      0.379855   -1.280665   -3.874986
  O      1.494817   -1.666204   -4.221220
  O     -0.422088   -1.782071   -3.034754
  O     -0.057747   -0.086062   -4.386350
  H      2.769027   -2.734625    0.520306
  H      1.604622   -4.117508   -0.669794
  H      0.661991    0.260688   -4.920778

 Total Charge           Charge          ....   -1
 Multiplicity           Mult            ....    1
 Number of Electrons    NEL             ....  200
 Basis Dimension        Dim             ....  385

ORBITAL ENERGIES
----------------

  NO   OCC          E(Eh)            E(eV)
   0   2.0000    -484.408269    -13181.4191
   1   2.0000     -77.692370     -2114.1169
   2   2.0000     -63.071251     -1716.2560
   3   2.0000     -56.775265     -1544.9335
   4   2.0000     -56.773601     -1544.8882
   5   2.0000     -56.773359     -1544.8816
   6   2.0000     -19.358223      -526.7640
   7   2.0000     -19.290429      -524.9193
   8   2.0000     -19.285421      -524.7830
   9   2.0000     -10.422189      -283.6022
  10   2.0000     -10.361842      -281.9600
  11   2.0000     -10.350960      -281.6639
  12   2.0000     -10.347995      -281.5833
  13   2.0000     -10.346546      -281.5438
  14   2.0000     -10.346327      -281.5379
  15   2.0000     -10.340510      -281.3796
  16   2.0000     -10.331499      -281.1344
  17   2.0000     -10.323808      -280.9251
  18   2.0000     -10.321589      -280.8647
  19   2.0000     -10.318578      -280.7828
  20   2.0000     -10.316747      -280.7330
  21   2.0000     -10.316305      -280.7209
  22   2.0000     -10.310175      -280.5541
  23   2.0000     -10.300148      -280.2813
  24   2.0000      -8.900192      -242.1865
  25   2.0000      -6.766982      -184.1389
  26   2.0000      -6.672727      -181.5741
  27   2.0000      -6.664637      -181.3540
  28   2.0000      -6.661713      -181.2744
  29   2.0000      -4.857959      -132.1918
  30   2.0000      -4.857637      -132.1830
  31   2.0000      -4.856453      -132.1508
  32   2.0000      -3.537766       -96.2675
  33   2.0000      -2.686922       -73.1149
  34   2.0000      -2.684790       -73.0568
  35   2.0000      -2.682313       -72.9895
  36   2.0000      -2.675474       -72.8034
  37   2.0000      -2.675279       -72.7981
  38   2.0000      -2.190972       -59.6194
  39   2.0000      -2.176583       -59.2278
  40   2.0000      -2.152786       -58.5803
  41   2.0000      -1.051098       -28.6018
  42   2.0000      -0.936361       -25.4797
  43   2.0000      -0.904469       -24.6119
  44   2.0000      -0.857797       -23.3418
  45   2.0000      -0.818920       -22.2839
  46   2.0000      -0.778122       -21.1738
  47   2.0000      -0.746486       -20.3129
  48   2.0000      -0.731475       -19.9044
  49   2.0000      -0.727898       -19.8071
  50   2.0000      -0.691150       -18.8071
  51   2.0000      -0.672871       -18.3097
  52   2.0000      -0.660808       -17.9815
  53   2.0000      -0.603472       -16.4213
  54   2.0000      -0.576319       -15.6824
  55   2.0000      -0.548561       -14.9271
  56   2.0000      -0.537132       -14.6161
  57   2.0000      -0.511553       -13.9201
  58   2.0000      -0.507238       -13.8026
  59   2.0000      -0.470380       -12.7997
  60   2.0000      -0.442929       -12.0527
  61   2.0000      -0.429412       -11.6849
  62   2.0000      -0.411158       -11.1882
  63   2.0000      -0.396635       -10.7930
  64   2.0000      -0.390549       -10.6274
  65   2.0000      -0.386365       -10.5135
  66   2.0000      -0.382264       -10.4019
  67   2.0000      -0.380380       -10.3507
  68   2.0000      -0.376518       -10.2456
  69   2.0000      -0.371096       -10.0980
  70   2.0000      -0.365649        -9.9498
  71   2.0000      -0.357686        -9.7331
  72   2.0000      -0.348920        -9.4946
  73   2.0000      -0.347289        -9.4502
  74   2.0000      -0.341961        -9.3052
  75   2.0000      -0.332805        -9.0561
  76   2.0000      -0.325736        -8.8637
  77   2.0000      -0.320487        -8.7209
  78   2.0000      -0.300880        -8.1874
  79   2.0000      -0.298062        -8.1107
  80   2.0000      -0.294076        -8.0022
  81   2.0000      -0.283950        -7.7267
  82   2.0000      -0.281365        -7.6563
  83   2.0000      -0.267526        -7.2798
  84   2.0000      -0.262886        -7.1535
  85   2.0000      -0.248327        -6.7573
  86   2.0000      -0.238289        -6.4842
  87   2.0000      -0.230924        -6.2837
  88   2.0000      -0.228006        -6.2044
  89   2.0000      -0.211395        -5.7523
  90   2.0000      -0.206378        -5.6158
  91   2.0000      -0.191753        -5.2179
  92   2.0000      -0.184914        -5.0318
  93   2.0000      -0.177730        -4.8363
  94   2.0000      -0.171479        -4.6662
  95   2.0000      -0.153419        -4.1748
  96   2.0000      -0.147086        -4.0024
  97   2.0000      -0.143394        -3.9020
  98   2.0000      -0.137375        -3.7382
  99   2.0000      -0.107985        -2.9384
 100   0.0000       0.050657         1.3785
 101   0.0000       0.115110         3.1323
 102   0.0000       0.118683         3.2295
 103   0.0000       0.145167         3.9502
 104   0.0000       0.146377         3.9831

MULLIKEN ATOMIC CHARGES
-----------------------
   0 C :   -0.146335
   1 C :    0.012662
   2 C :   -0.297905
   3 C :   -0.218133
   4 C :   -0.231544
   5 C :   -0.261462
   6 H :    0.295237
   7 H :    0.184127
   8 H :    0.166874
   9 H :    0.170404
  10 H :    0.172218
  11 C :   -0.476054
  12 C :   -0.517746
  13 H :    0.192954
  14 H :    0.259395
  15 C :    0.123406
  16 H :    0.274578
  17 H :    0.200967
  18 C :   -0.109052
  19 C :   -0.265630
  20 C :   -0.241708
  21 C :   -0.269880
  22 C :   -0.217408
  23 H :    0.280597
  24 H :    0.196945
  25 H :    0.185355
  26 H :    0.187130
  27 Pd:    0.075083
  28 Br:   -0.223266
  29 P :   -0.152777
  30 H :    0.115199
  31 C :    0.654398
  32 O :   -0.565359
  33 O :   -0.567311
  34 O :   -0.621145
  35 H :    0.109793
  36 H :    0.126598
  37 H :    0.398795
Sum of atomic charges:   -1.0000000

LOEWDIN ATOMIC CHARGES
----------------------
   0 C :   -0.201939
   1 C :   -0.067345
   2 C :   -0.165146
   3 C :   -0.170322
   4 C :   -0.170788
   5 C :   -0.164085
   6 H :    0.275929
   7 H :    0.114736
   8 H :    0.112530
   9 H :    0.113707
  10 H :    0.113556
  11 C :   -0.211839
  12 C :   -0.215698
  13 H :    0.115638
  14 H :    0.148101
  15 C :   -0.036735
  16 H :    0.160411
  17 H :    0.117931
  18 C :    0.011483
  19 C :   -0.117358
  20 C :   -0.147441
  21 C :   -0.142796
  22 C :   -0.156407
  23 H :    0.171752
  24 H :    0.126617
  25 H :    0.124224
  26 H :    0.122687
  27 Pd:   -0.811988
  28 Br:    0.011371
  29 P :    0.399931
  30 H :    0.054223
  31 C :    0.094971
  32 O :   -0.378192
  33 O :   -0.298480
  34 O :   -0.350984
  35 H :    0.050310
  36 H :    0.062961
  37 H :    0.304475

  Mayer bond orders larger than 0.100000
B(  0-C ,  1-C ) :   1.4584 B(  0-C ,  2-C ) :   1.4050 B(  0-C ,  6-H ) :   0.1725
B(  0-C , 27-Pd) :   0.3439 B(  1-C ,  5-C ) :   1.4009 B(  1-C , 11-C ) :   0.9557
B(  2-C ,  3-C ) :   1.4247 B(  2-C ,  7-H ) :   0.9179 B(  3-C ,  4-C ) :   1.4378
B(  3-C ,  9-H ) :   0.9276 B(  4-C ,  5-C ) :   1.4399 B(  4-C , 10-H ) :   0.9286
B(  5-C ,  8-H ) :   0.9224 B(  6-H , 27-Pd) :   0.1021 B(  6-H , 28-Br) :   0.6131
B( 11-C , 12-C ) :   0.9153 B( 11-C , 13-H ) :   0.9358 B( 11-C , 14-H ) :   0.8991
B( 12-C , 15-C ) :   0.9746 B( 12-C , 16-H ) :   0.8832 B( 12-C , 17-H ) :   0.9289
B( 15-C , 18-C ) :   1.3323 B( 15-C , 21-C ) :   1.4004 B( 18-C , 19-C ) :   1.4156
B( 18-C , 27-Pd) :   0.8324 B( 19-C , 20-C ) :   1.4027 B( 19-C , 23-H ) :   0.8607
B( 20-C , 22-C ) :   1.4296 B( 20-C , 24-H ) :   0.9249 B( 21-C , 22-C ) :   1.4240
B( 21-C , 25-H ) :   0.9243 B( 22-C , 26-H ) :   0.9279 B( 27-Pd, 28-Br) :   0.3124
B( 27-Pd, 29-P ) :   0.6359 B( 27-Pd, 33-O ) :   0.3447 B( 29-P , 30-H ) :   0.9268
B( 29-P , 35-H ) :   0.9270 B( 29-P , 36-H ) :   0.9268 B( 31-C , 32-O ) :   1.7800
B( 31-C , 33-O ) :   1.5060 B( 31-C , 34-O ) :   1.0229 B( 34-O , 37-H ) :   0.7906

Dispersion correction           -0.031775795
FINAL SINGLE POINT ENERGY     -3847.577034433587
Dispersion correction            ... done

DIPOLE MOMENT
-------------
                                X             Y             Z
Electronic contribution:      5.76497     -67.26909     -30.33142
Nuclear contribution   :     -4.02572      66.67683      32.75832
                        -----------------------------------------
Total Dipole Moment    :      1.73924      -0.59227       2.42690
                        -----------------------------------------
Magnitude (a.u.)       :      3.04394
Magnitude (Debye)      :      7.73708

Rotational constants in cm-1:     0.007290     0.006251     0.004432
Rotational constants in MHz :   218.544498   187.401776   132.872539

                             ****ORCA TERMINATED NORMALLY****
TOTAL RUN TIME: 0 days 0 hours 20 minutes 2 seconds 810 msec
