                         Program Version 5.0.3 -  RELEASE  -
|  1> ! EnGrad PBEh-3c
|  2> %output
|  3> xyzfile=True
|  4> end
|  5> %scf
|  6> maxiter 250
|  7> end
|  8> %output
|  9> Print[P_Hirshfeld] = 1
| 10> end
| 11> % maxcore
| 12> 4000
| 13> *xyz -1 1
| 14> C   -2.26573182  -0.16884154   0.64955854
| 15> C   -1.90039082   1.00523588   1.34544613
| 16> C   -3.63716615  -0.47611157   0.72900542
| 17> C   -4.60335180   0.38388745   1.26131467
| 18> C   -4.21910687   1.60239393   1.78343655
| 19> C   -2.86477132   1.84205449   1.93774236
| 20> H   -1.89340502  -1.65237083  -0.91855483
| 21> H   -3.97886218  -1.44713667   0.39487843
| 22> H   -2.55908245   2.76848895   2.42131943
| 23> H   -5.65626220   0.14532786   1.18319882
| 24> H   -4.95033260   2.32924346   2.11442373
| 25> C   -0.47388920   1.49654353   1.48586915
| 26> C    0.62258925   0.45667525   1.81112778
| 27> H   -0.45050622   2.26321200   2.26965846
| 28> H   -0.19352735   2.02626645   0.57181779
| 29> C    1.73102540   0.53980015   0.80811564
| 30> H    0.19721916  -0.54585689   1.84690344
| 31> H    1.02778014   0.65872798   2.80592435
| 32> C    1.64416117  -0.10053541  -0.43401130
| 33> C    2.64332171   0.13569214  -1.37904406
| 34> C    3.65372077   1.06403590  -1.12836980
| 35> C    2.78803057   1.41077344   1.05818288
| 36> C    3.74884071   1.68305145   0.10227030
| 37> H    2.66505394  -0.39203206  -2.32335896
| 38> H    4.38955560   1.28330189  -1.89042507
| 39> H    2.86205311   1.86923246   2.03599269
| 40> H    4.52346406   2.41035757   0.30382672
| 41> Pd   0.12901816  -1.35960171  -0.77207280
| 42> Br  -1.75119907  -3.28936667  -0.87316037
| 43> P    1.43017681  -2.95191539   0.10843346
| 44> H    0.92390985  -3.54807697   1.28230831
| 45> C    0.38368689  -1.29216200  -3.89567545
| 46> O    1.49375546  -1.66940433  -4.21486276
| 47> O   -0.43142955  -1.80038903  -3.04717560
| 48> O   -0.06067881  -0.09206282  -4.38390165
| 49> H    2.75835715  -2.73678765   0.51947569
| 50> H    1.60428306  -4.11891607  -0.66516612
| 51> H    0.65531241   0.26142334  -4.91066825
| 52> *
| 53>
| 54>                          ****END OF INPUT****

CARTESIAN COORDINATES (ANGSTROEM)
---------------------------------
  C     -2.265732   -0.168842    0.649559
  C     -1.900391    1.005236    1.345446
  C     -3.637166   -0.476112    0.729005
  C     -4.603352    0.383887    1.261315
  C     -4.219107    1.602394    1.783437
  C     -2.864771    1.842054    1.937742
  H     -1.893405   -1.652371   -0.918555
  H     -3.978862   -1.447137    0.394878
  H     -2.559082    2.768489    2.421319
  H     -5.656262    0.145328    1.183199
  H     -4.950333    2.329243    2.114424
  C     -0.473889    1.496544    1.485869
  C      0.622589    0.456675    1.811128
  H     -0.450506    2.263212    2.269658
  H     -0.193527    2.026266    0.571818
  C      1.731025    0.539800    0.808116
  H      0.197219   -0.545857    1.846903
  H      1.027780    0.658728    2.805924
  C      1.644161   -0.100535   -0.434011
  C      2.643322    0.135692   -1.379044
  C      3.653721    1.064036   -1.128370
  C      2.788031    1.410773    1.058183
  C      3.748841    1.683051    0.102270
  H      2.665054   -0.392032   -2.323359
  H      4.389556    1.283302   -1.890425
  H      2.862053    1.869232    2.035993
  H      4.523464    2.410358    0.303827
  Pd     0.129018   -1.359602   -0.772073
  Br    -1.751199   -3.289367   -0.873160
  P      1.430177   -2.951915    0.108433
  H      0.923910   -3.548077    1.282308
  C      0.383687   -1.292162   -3.895675
  O      1.493755   -1.669404   -4.214863
  O     -0.431430   -1.800389   -3.047176
  O     -0.060679   -0.092063   -4.383902
  H      2.758357   -2.736788    0.519476
  H      1.604283   -4.118916   -0.665166
  H      0.655312    0.261423   -4.910668

 Total Charge           Charge          ....   -1
 Multiplicity           Mult            ....    1
 Number of Electrons    NEL             ....  200
 Basis Dimension        Dim             ....  385

ORBITAL ENERGIES
----------------

  NO   OCC          E(Eh)            E(eV)
   0   2.0000    -484.402986    -13181.2754
   1   2.0000     -77.691108     -2114.0825
   2   2.0000     -63.065147     -1716.0899
   3   2.0000     -56.769299     -1544.7712
   4   2.0000     -56.767509     -1544.7224
   5   2.0000     -56.767215     -1544.7144
   6   2.0000     -19.359084      -526.7875
   7   2.0000     -19.289000      -524.8804
   8   2.0000     -19.285706      -524.7907
   9   2.0000     -10.421771      -283.5908
  10   2.0000     -10.361171      -281.9418
  11   2.0000     -10.350735      -281.6578
  12   2.0000     -10.347644      -281.5737
  13   2.0000     -10.346247      -281.5357
  14   2.0000     -10.345813      -281.5239
  15   2.0000     -10.340169      -281.3703
  16   2.0000     -10.331330      -281.1298
  17   2.0000     -10.324700      -280.9494
  18   2.0000     -10.324420      -280.9417
  19   2.0000     -10.320390      -280.8321
  20   2.0000     -10.319164      -280.7987
  21   2.0000     -10.318338      -280.7762
  22   2.0000     -10.311423      -280.5881
  23   2.0000     -10.305543      -280.4281
  24   2.0000      -8.893324      -241.9997
  25   2.0000      -6.766077      -184.1143
  26   2.0000      -6.665547      -181.3788
  27   2.0000      -6.657923      -181.1713
  28   2.0000      -6.654831      -181.0871
  29   2.0000      -4.857059      -132.1673
  30   2.0000      -4.856710      -132.1578
  31   2.0000      -4.855563      -132.1266
  32   2.0000      -3.538689       -96.2926
  33   2.0000      -2.679636       -72.9166
  34   2.0000      -2.677848       -72.8679
  35   2.0000      -2.675255       -72.7974
  36   2.0000      -2.668726       -72.6197
  37   2.0000      -2.668502       -72.6136
  38   2.0000      -2.190828       -59.6155
  39   2.0000      -2.178362       -59.2763
  40   2.0000      -2.153302       -58.5943
  41   2.0000      -1.053248       -28.6603
  42   2.0000      -0.940264       -25.5859
  43   2.0000      -0.899397       -24.4738
  44   2.0000      -0.858391       -23.3580
  45   2.0000      -0.822370       -22.3778
  46   2.0000      -0.779939       -21.2232
  47   2.0000      -0.732331       -19.9277
  48   2.0000      -0.730842       -19.8872
  49   2.0000      -0.726832       -19.7781
  50   2.0000      -0.693986       -18.8843
  51   2.0000      -0.675316       -18.3763
  52   2.0000      -0.661418       -17.9981
  53   2.0000      -0.605836       -16.4856
  54   2.0000      -0.576482       -15.6869
  55   2.0000      -0.549222       -14.9451
  56   2.0000      -0.539829       -14.6895
  57   2.0000      -0.514237       -13.9931
  58   2.0000      -0.507810       -13.8182
  59   2.0000      -0.470978       -12.8160
  60   2.0000      -0.445510       -12.1229
  61   2.0000      -0.430219       -11.7068
  62   2.0000      -0.411486       -11.1971
  63   2.0000      -0.394863       -10.7448
  64   2.0000      -0.391316       -10.6483
  65   2.0000      -0.384178       -10.4540
  66   2.0000      -0.382770       -10.4157
  67   2.0000      -0.381420       -10.3790
  68   2.0000      -0.374644       -10.1946
  69   2.0000      -0.371942       -10.1211
  70   2.0000      -0.362863        -9.8740
  71   2.0000      -0.353397        -9.6164
  72   2.0000      -0.350059        -9.5256
  73   2.0000      -0.345570        -9.4034
  74   2.0000      -0.343252        -9.3404
  75   2.0000      -0.333581        -9.0772
  76   2.0000      -0.327112        -8.9012
  77   2.0000      -0.321411        -8.7460
  78   2.0000      -0.300787        -8.1848
  79   2.0000      -0.299180        -8.1411
  80   2.0000      -0.294734        -8.0201
  81   2.0000      -0.283825        -7.7233
  82   2.0000      -0.281390        -7.6570
  83   2.0000      -0.269368        -7.3299
  84   2.0000      -0.261720        -7.1218
  85   2.0000      -0.251568        -6.8455
  86   2.0000      -0.236060        -6.4235
  87   2.0000      -0.229816        -6.2536
  88   2.0000      -0.226705        -6.1690
  89   2.0000      -0.208530        -5.6744
  90   2.0000      -0.204768        -5.5720
  91   2.0000      -0.191552        -5.2124
  92   2.0000      -0.185048        -5.0354
  93   2.0000      -0.177872        -4.8401
  94   2.0000      -0.171542        -4.6679
  95   2.0000      -0.156286        -4.2528
  96   2.0000      -0.149243        -4.0611
  97   2.0000      -0.144036        -3.9194
  98   2.0000      -0.135560        -3.6888
  99   2.0000      -0.109022        -2.9666
 100   0.0000       0.050084         1.3629
 101   0.0000       0.113835         3.0976
 102   0.0000       0.115899         3.1538
 103   0.0000       0.132405         3.6029
 104   0.0000       0.146267         3.9801

MULLIKEN ATOMIC CHARGES
-----------------------
   0 C :   -0.138406
   1 C :    0.012769
   2 C :   -0.297911
   3 C :   -0.216214
   4 C :   -0.229752
   5 C :   -0.263196
   6 H :    0.284770
   7 H :    0.190520
   8 H :    0.167361
   9 H :    0.173241
  10 H :    0.173362
  11 C :   -0.476799
  12 C :   -0.519500
  13 H :    0.196238
  14 H :    0.260067
  15 C :    0.126593
  16 H :    0.275411
  17 H :    0.202683
  18 C :   -0.112124
  19 C :   -0.267469
  20 C :   -0.241234
  21 C :   -0.275175
  22 C :   -0.215459
  23 H :    0.278698
  24 H :    0.196186
  25 H :    0.184991
  26 H :    0.187490
  27 Pd:    0.081946
  28 Br:   -0.244273
  29 P :   -0.151009
  30 H :    0.117049
  31 C :    0.650286
  32 O :   -0.547605
  33 O :   -0.579918
  34 O :   -0.618558
  35 H :    0.108248
  36 H :    0.128970
  37 H :    0.397723
Sum of atomic charges:   -1.0000000

LOEWDIN ATOMIC CHARGES
----------------------
   0 C :   -0.188438
   1 C :   -0.067168
   2 C :   -0.163466
   3 C :   -0.169129
   4 C :   -0.169915
   5 C :   -0.162445
   6 H :    0.292480
   7 H :    0.117318
   8 H :    0.113194
   9 H :    0.114899
  10 H :    0.114209
  11 C :   -0.212627
  12 C :   -0.215815
  13 H :    0.116878
  14 H :    0.148287
  15 C :   -0.036690
  16 H :    0.160433
  17 H :    0.118427
  18 C :    0.009640
  19 C :   -0.117859
  20 C :   -0.147776
  21 C :   -0.143748
  22 C :   -0.156494
  23 H :    0.170252
  24 H :    0.126283
  25 H :    0.123851
  26 H :    0.122700
  27 Pd:   -0.812474
  28 Br:   -0.028413
  29 P :    0.405197
  30 H :    0.055063
  31 C :    0.092823
  32 O :   -0.357579
  33 O :   -0.319012
  34 O :   -0.348817
  35 H :    0.048712
  36 H :    0.064139
  37 H :    0.303077

  Mayer bond orders larger than 0.100000
B(  0-C ,  1-C ) :   1.4668 B(  0-C ,  2-C ) :   1.4102 B(  0-C ,  6-H ) :   0.1935
B(  0-C , 27-Pd) :   0.3342 B(  1-C ,  5-C ) :   1.3996 B(  1-C , 11-C ) :   0.9569
B(  2-C ,  3-C ) :   1.4249 B(  2-C ,  7-H ) :   0.9176 B(  3-C ,  4-C ) :   1.4367
B(  3-C ,  9-H ) :   0.9273 B(  4-C ,  5-C ) :   1.4413 B(  4-C , 10-H ) :   0.9285
B(  5-C ,  8-H ) :   0.9224 B(  6-H , 27-Pd) :   0.1155 B(  6-H , 28-Br) :   0.5721
B( 11-C , 12-C ) :   0.9156 B( 11-C , 13-H ) :   0.9349 B( 11-C , 14-H ) :   0.8989
B( 12-C , 15-C ) :   0.9728 B( 12-C , 16-H ) :   0.8829 B( 12-C , 17-H ) :   0.9293
B( 15-C , 18-C ) :   1.3322 B( 15-C , 21-C ) :   1.4042 B( 18-C , 19-C ) :   1.4160
B( 18-C , 27-Pd) :   0.8298 B( 19-C , 20-C ) :   1.4012 B( 19-C , 23-H ) :   0.8640
B( 20-C , 22-C ) :   1.4317 B( 20-C , 24-H ) :   0.9252 B( 21-C , 22-C ) :   1.4223
B( 21-C , 25-H ) :   0.9248 B( 22-C , 26-H ) :   0.9277 B( 27-Pd, 28-Br) :   0.3133
B( 27-Pd, 29-P ) :   0.6585 B( 27-Pd, 33-O ) :   0.3490 B( 29-P , 30-H ) :   0.9264
B( 29-P , 35-H ) :   0.9252 B( 29-P , 36-H ) :   0.9266 B( 31-C , 32-O ) :   1.8049
B( 31-C , 33-O ) :   1.4831 B( 31-C , 34-O ) :   1.0247 B( 34-O , 37-H ) :   0.7913

Dispersion correction           -0.031681193
FINAL SINGLE POINT ENERGY     -3847.570646264687
Dispersion correction            ... done

DIPOLE MOMENT
-------------
                                X             Y             Z
Electronic contribution:      6.22814     -67.79113     -29.99809
Nuclear contribution   :     -4.47055      67.36562      32.43608
                        -----------------------------------------
Total Dipole Moment    :      1.75759      -0.42552       2.43799
                        -----------------------------------------
Magnitude (a.u.)       :      3.03545
Magnitude (Debye)      :      7.71550

Rotational constants in cm-1:     0.007200     0.006232     0.004405
Rotational constants in MHz :   215.860434   186.829387   132.072840

                             ****ORCA TERMINATED NORMALLY****
TOTAL RUN TIME: 0 days 0 hours 19 minutes 38 seconds 455 msec
