                         Program Version 5.0.3 -  RELEASE  -
|  1> ! EnGrad PBEh-3c
|  2> %output
|  3> xyzfile=True
|  4> end
|  5> %scf
|  6> maxiter 250
|  7> end
|  8> %output
|  9> Print[P_Hirshfeld] = 1
| 10> end
| 11> % maxcore
| 12> 4000
| 13> *xyz -1 1
| 14> C   -2.33385428  -0.10637407   0.77355582
| 15> C   -1.88923619   0.96801184   1.47419403
| 16> C   -3.67826310  -0.47494120   0.81934866
| 17> C   -4.63961461   0.45599087   1.20005524
| 18> C   -4.24294862   1.60977450   1.81972287
| 19> C   -2.90429501   1.86035974   2.01050680
| 20> H   -2.57980701  -1.38065563  -1.62280734
| 21> H   -3.98973426  -1.49127797   0.68927369
| 22> H   -2.62302804   2.87134314   2.24373243
| 23> H   -5.69366272   0.24787835   1.02964798
| 24> H   -4.98625689   2.29687717   2.19294951
| 25> C   -0.49430785   1.51047634   1.57183701
| 26> C    0.68736216   0.46753224   1.81669146
| 27> H   -0.38387853   2.25431900   2.31703874
| 28> H   -0.36507974   2.01950698   0.62268685
| 29> C    1.76898592   0.61809447   0.80468619
| 30> H    0.29497964  -0.53318295   1.83679741
| 31> H    1.08607406   0.63039838   2.81345509
| 32> C    1.69091074   0.00602731  -0.45200662
| 33> C    2.72870125   0.17895324  -1.36500653
| 34> C    3.73273194   1.12853262  -1.10818108
| 35> C    2.88865586   1.38534013   1.10053522
| 36> C    3.80025142   1.74704310   0.10496131
| 37> H    2.80250301  -0.40669796  -2.25619860
| 38> H    4.48108836   1.33434977  -1.87764147
| 39> H    3.03482160   1.75034884   2.10940360
| 40> H    4.48099058   2.57971913   0.27449527
| 41> Pd   0.19800616  -1.33842072  -0.83705893
| 42> Br  -1.49216890  -3.72875396  -0.84295155
| 43> P    1.40452869  -3.00574002   0.09894791
| 44> H    0.90517211  -3.55131290   1.28863314
| 45> C    0.30849830  -1.42671981  -3.87239274
| 46> O    1.58941365  -1.70249938  -4.20540859
| 47> O   -0.43653741  -1.95678136  -3.23698129
| 48> O   -0.10378516  -0.13850986  -4.39316304
| 49> H    2.71518167  -2.79974841   0.52151495
| 50> H    1.64754986  -4.17240885  -0.62952771
| 51> H    0.58853646   0.29430164  -4.83522438
| 52> *
| 53>
| 54>                          ****END OF INPUT****

CARTESIAN COORDINATES (ANGSTROEM)
---------------------------------
  C     -2.333854   -0.106374    0.773556
  C     -1.889236    0.968012    1.474194
  C     -3.678263   -0.474941    0.819349
  C     -4.639615    0.455991    1.200055
  C     -4.242949    1.609775    1.819723
  C     -2.904295    1.860360    2.010507
  H     -2.579807   -1.380656   -1.622807
  H     -3.989734   -1.491278    0.689274
  H     -2.623028    2.871343    2.243732
  H     -5.693663    0.247878    1.029648
  H     -4.986257    2.296877    2.192950
  C     -0.494308    1.510476    1.571837
  C      0.687362    0.467532    1.816691
  H     -0.383879    2.254319    2.317039
  H     -0.365080    2.019507    0.622687
  C      1.768986    0.618094    0.804686
  H      0.294980   -0.533183    1.836797
  H      1.086074    0.630398    2.813455
  C      1.690911    0.006027   -0.452007
  C      2.728701    0.178953   -1.365007
  C      3.732732    1.128533   -1.108181
  C      2.888656    1.385340    1.100535
  C      3.800251    1.747043    0.104961
  H      2.802503   -0.406698   -2.256199
  H      4.481088    1.334350   -1.877641
  H      3.034822    1.750349    2.109404
  H      4.480991    2.579719    0.274495
  Pd     0.198006   -1.338421   -0.837059
  Br    -1.492169   -3.728754   -0.842952
  P      1.404529   -3.005740    0.098948
  H      0.905172   -3.551313    1.288633
  C      0.308498   -1.426720   -3.872393
  O      1.589414   -1.702499   -4.205409
  O     -0.436537   -1.956781   -3.236981
  O     -0.103785   -0.138510   -4.393163
  H      2.715182   -2.799748    0.521515
  H      1.647550   -4.172409   -0.629528
  H      0.588536    0.294302   -4.835224

 Total Charge           Charge          ....   -1
 Multiplicity           Mult            ....    1
 Number of Electrons    NEL             ....  200
 Basis Dimension        Dim             ....  385

ORBITAL ENERGIES
----------------

  NO   OCC          E(Eh)            E(eV)
   0   2.0000    -484.347507    -13179.7657
   1   2.0000     -77.691217     -2114.0855
   2   2.0000     -63.008809     -1714.5569
   3   2.0000     -56.712260     -1543.2191
   4   2.0000     -56.711672     -1543.2030
   5   2.0000     -56.711365     -1543.1947
   6   2.0000     -19.321449      -525.7634
   7   2.0000     -19.304616      -525.3053
   8   2.0000     -19.244706      -523.6751
   9   2.0000     -10.404135      -283.1109
  10   2.0000     -10.368037      -282.1286
  11   2.0000     -10.367016      -282.1008
  12   2.0000     -10.364362      -282.0286
  13   2.0000     -10.359946      -281.9085
  14   2.0000     -10.354139      -281.7505
  15   2.0000     -10.353740      -281.7396
  16   2.0000     -10.352688      -281.7110
  17   2.0000     -10.351000      -281.6650
  18   2.0000     -10.350729      -281.6577
  19   2.0000     -10.350162      -281.6422
  20   2.0000     -10.349930      -281.6359
  21   2.0000     -10.349522      -281.6248
  22   2.0000     -10.348907      -281.6081
  23   2.0000     -10.340892      -281.3900
  24   2.0000      -8.835659      -240.4305
  25   2.0000      -6.765798      -184.1067
  26   2.0000      -6.604333      -179.7130
  27   2.0000      -6.602195      -179.6549
  28   2.0000      -6.598719      -179.5603
  29   2.0000      -4.856897      -132.1629
  30   2.0000      -4.856564      -132.1538
  31   2.0000      -4.855323      -132.1201
  32   2.0000      -3.541569       -96.3710
  33   2.0000      -2.619011       -71.2669
  34   2.0000      -2.618835       -71.2621
  35   2.0000      -2.615905       -71.1824
  36   2.0000      -2.614055       -71.1321
  37   2.0000      -2.613435       -71.1152
  38   2.0000      -2.188840       -59.5614
  39   2.0000      -2.184121       -59.4330
  40   2.0000      -2.158291       -58.7301
  41   2.0000      -1.059890       -28.8411
  42   2.0000      -0.944570       -25.7031
  43   2.0000      -0.866514       -23.5790
  44   2.0000      -0.861118       -23.4322
  45   2.0000      -0.835378       -22.7318
  46   2.0000      -0.796863       -21.6837
  47   2.0000      -0.757706       -20.6182
  48   2.0000      -0.733876       -19.9698
  49   2.0000      -0.732698       -19.9377
  50   2.0000      -0.698410       -19.0047
  51   2.0000      -0.667912       -18.1748
  52   2.0000      -0.644262       -17.5313
  53   2.0000      -0.634332       -17.2610
  54   2.0000      -0.584657       -15.9093
  55   2.0000      -0.580212       -15.7884
  56   2.0000      -0.557097       -15.1594
  57   2.0000      -0.540353       -14.7038
  58   2.0000      -0.482843       -13.1388
  59   2.0000      -0.477034       -12.9807
  60   2.0000      -0.475459       -12.9379
  61   2.0000      -0.442468       -12.0402
  62   2.0000      -0.425760       -11.5855
  63   2.0000      -0.419611       -11.4182
  64   2.0000      -0.410798       -11.1784
  65   2.0000      -0.392627       -10.6839
  66   2.0000      -0.385787       -10.4978
  67   2.0000      -0.384185       -10.4542
  68   2.0000      -0.382272       -10.4021
  69   2.0000      -0.380164       -10.3448
  70   2.0000      -0.364770        -9.9259
  71   2.0000      -0.358166        -9.7462
  72   2.0000      -0.352279        -9.5860
  73   2.0000      -0.350389        -9.5346
  74   2.0000      -0.342874        -9.3301
  75   2.0000      -0.333291        -9.0693
  76   2.0000      -0.328989        -8.9522
  77   2.0000      -0.327843        -8.9210
  78   2.0000      -0.315026        -8.5723
  79   2.0000      -0.306913        -8.3515
  80   2.0000      -0.300306        -8.1717
  81   2.0000      -0.291959        -7.9446
  82   2.0000      -0.279780        -7.6132
  83   2.0000      -0.269908        -7.3446
  84   2.0000      -0.266247        -7.2450
  85   2.0000      -0.236395        -6.4326
  86   2.0000      -0.235560        -6.4099
  87   2.0000      -0.212821        -5.7912
  88   2.0000      -0.208569        -5.6755
  89   2.0000      -0.192373        -5.2347
  90   2.0000      -0.187364        -5.0984
  91   2.0000      -0.186591        -5.0774
  92   2.0000      -0.180758        -4.9187
  93   2.0000      -0.177259        -4.8235
  94   2.0000      -0.170043        -4.6271
  95   2.0000      -0.168832        -4.5942
  96   2.0000      -0.160543        -4.3686
  97   2.0000      -0.124123        -3.3776
  98   2.0000      -0.119280        -3.2458
  99   2.0000      -0.106735        -2.9044
 100   0.0000      -0.019472        -0.5299
 101   0.0000       0.032072         0.8727
 102   0.0000       0.100796         2.7428
 103   0.0000       0.109528         2.9804
 104   0.0000       0.117994         3.2108

MULLIKEN ATOMIC CHARGES
-----------------------
   0 C :   -0.032063
   1 C :    0.021913
   2 C :   -0.289069
   3 C :   -0.221517
   4 C :   -0.213277
   5 C :   -0.264527
   6 H :    0.178011
   7 H :    0.244528
   8 H :    0.195037
   9 H :    0.196817
  10 H :    0.191578
  11 C :   -0.482063
  12 C :   -0.534619
  13 H :    0.223553
  14 H :    0.273520
  15 C :    0.138274
  16 H :    0.276577
  17 H :    0.214997
  18 C :   -0.168117
  19 C :   -0.258160
  20 C :   -0.240973
  21 C :   -0.296928
  22 C :   -0.213597
  23 H :    0.296565
  24 H :    0.201303
  25 H :    0.185514
  26 H :    0.191793
  27 Pd:    0.139793
  28 Br:   -0.449755
  29 P :   -0.133159
  30 H :    0.131395
  31 C :    0.605213
  32 O :   -0.680853
  33 O :   -0.379423
  34 O :   -0.693755
  35 H :    0.092222
  36 H :    0.154669
  37 H :    0.398582
Sum of atomic charges:   -1.0000000

LOEWDIN ATOMIC CHARGES
----------------------
   0 C :   -0.030837
   1 C :   -0.061864
   2 C :   -0.137659
   3 C :   -0.162323
   4 C :   -0.156945
   5 C :   -0.155000
   6 H :    0.223432
   7 H :    0.142282
   8 H :    0.128440
   9 H :    0.124913
  10 H :    0.123247
  11 C :   -0.217705
  12 C :   -0.211704
  13 H :    0.128549
  14 H :    0.158626
  15 C :   -0.041382
  16 H :    0.157696
  17 H :    0.122955
  18 C :    0.003035
  19 C :   -0.111971
  20 C :   -0.144997
  21 C :   -0.146318
  22 C :   -0.155163
  23 H :    0.177610
  24 H :    0.129218
  25 H :    0.122813
  26 H :    0.124798
  27 Pd:   -0.713761
  28 Br:   -0.302646
  29 P :    0.421092
  30 H :    0.061348
  31 C :    0.085153
  32 O :   -0.527411
  33 O :   -0.126219
  34 O :   -0.433220
  35 H :    0.032408
  36 H :    0.076339
  37 H :    0.293171

  Mayer bond orders larger than 0.100000
B(  0-C ,  1-C ) :   1.5150 B(  0-C ,  2-C ) :   1.3972 B(  0-C ,  6-H ) :   0.4354
B(  0-C , 27-Pd) :   0.2434 B(  0-C , 28-Br) :   0.1048 B(  1-C ,  5-C ) :   1.2987
B(  1-C , 11-C ) :   0.9568 B(  2-C ,  3-C ) :   1.4416 B(  2-C ,  5-C ) :   0.1065
B(  2-C ,  7-H ) :   0.9034 B(  3-C ,  4-C ) :   1.3940 B(  3-C ,  9-H ) :   0.9220
B(  4-C ,  5-C ) :   1.4889 B(  4-C , 10-H ) :   0.9250 B(  5-C ,  8-H ) :   0.9193
B(  6-H , 27-Pd) :   0.1866 B(  6-H , 28-Br) :   0.2050 B( 11-C , 12-C ) :   0.9243
B( 11-C , 13-H ) :   0.9259 B( 11-C , 14-H ) :   0.8948 B( 12-C , 15-C ) :   0.9604
B( 12-C , 16-H ) :   0.8861 B( 12-C , 17-H ) :   0.9296 B( 15-C , 18-C ) :   1.3228
B( 15-C , 21-C ) :   1.4337 B( 18-C , 19-C ) :   1.4348 B( 18-C , 27-Pd) :   0.8217
B( 19-C , 20-C ) :   1.3748 B( 19-C , 23-H ) :   0.8493 B( 20-C , 22-C ) :   1.4570
B( 20-C , 24-H ) :   0.9240 B( 21-C , 22-C ) :   1.3930 B( 21-C , 25-H ) :   0.9258
B( 22-C , 26-H ) :   0.9274 B( 27-Pd, 28-Br) :   0.3184 B( 27-Pd, 29-P ) :   0.7052
B( 27-Pd, 33-O ) :   0.2037 B( 28-Br, 29-P ) :   0.1289 B( 29-P , 30-H ) :   0.9275
B( 29-P , 35-H ) :   0.9060 B( 29-P , 36-H ) :   0.9272 B( 31-C , 32-O ) :   1.5799
B( 31-C , 33-O ) :   1.8453 B( 31-C , 34-O ) :   0.9042 B( 34-O , 37-H ) :   0.7931

Dispersion correction           -0.031120180
FINAL SINGLE POINT ENERGY     -3847.396975143716
Dispersion correction            ... done

DIPOLE MOMENT
-------------
                                X             Y             Z
Electronic contribution:      8.72349     -64.76108     -32.02195
Nuclear contribution   :     -8.03928      66.00430      35.99317
                        -----------------------------------------
Total Dipole Moment    :      0.68421       1.24323       3.97122
                        -----------------------------------------
Magnitude (a.u.)       :      4.21715
Magnitude (Debye)      :     10.71914

Rotational constants in cm-1:     0.006620     0.006042     0.004190
Rotational constants in MHz :   198.453715   181.138017   125.609666

                             ****ORCA TERMINATED NORMALLY****
TOTAL RUN TIME: 0 days 0 hours 19 minutes 43 seconds 538 msec
