                         Program Version 5.0.3 -  RELEASE  -
|  1> ! EnGrad PBEh-3c
|  2> %output
|  3> xyzfile=True
|  4> end
|  5> %scf
|  6> maxiter 250
|  7> end
|  8> %output
|  9> Print[P_Hirshfeld] = 1
| 10> end
| 11> % maxcore
| 12> 4000
| 13> *xyz -1 1
| 14> C   -2.35079209  -0.14728850   0.84031144
| 15> C   -1.89804645   1.00759116   1.39300307
| 16> C   -3.70012840  -0.48183355   0.78433409
| 17> C   -4.64621652   0.40161588   1.29105033
| 18> C   -4.25362240   1.64100713   1.78647534
| 19> C   -2.92671034   1.86749679   2.00073140
| 20> H   -2.49526728  -1.37814184  -1.53750423
| 21> H   -3.98840113  -1.50095414   0.64162067
| 22> H   -2.59373965   2.85326466   2.30574678
| 23> H   -5.69157597   0.23870658   1.04784471
| 24> H   -4.97664531   2.31580125   2.19389168
| 25> C   -0.51133699   1.54531861   1.55381899
| 26> C    0.71013837   0.44026232   1.81026109
| 27> H   -0.39947206   2.27169270   2.30646878
| 28> H   -0.33733098   1.99239811   0.59081848
| 29> C    1.79664275   0.57241994   0.82553184
| 30> H    0.27800455  -0.54185658   1.81720051
| 31> H    1.07390376   0.65191039   2.80507486
| 32> C    1.72560792  -0.02642058  -0.44193501
| 33> C    2.73267698   0.16715792  -1.37653233
| 34> C    3.72050964   1.13498601  -1.11442994
| 35> C    2.84156462   1.45143295   1.08187145
| 36> C    3.81122590   1.73526939   0.11378736
| 37> H    2.78910501  -0.41435274  -2.27669083
| 38> H    4.47694652   1.33011519  -1.87542431
| 39> H    3.02195460   1.75725283   2.10801207
| 40> H    4.50223498   2.55554571   0.29021857
| 41> Pd   0.11714048  -1.38322277  -0.88881668
| 42> Br  -1.49237301  -3.67850115  -0.84427452
| 43> P    1.42945586  -3.00593178   0.11201435
| 44> H    0.89069616  -3.54762654   1.28898849
| 45> C    0.37437141  -1.47259770  -4.00380317
| 46> O    1.62857291  -1.64281808  -4.20325338
| 47> O   -0.53533879  -1.96422667  -3.08472813
| 48> O   -0.10715425  -0.09485994  -4.38506607
| 49> H    2.72239476  -2.78607762   0.53947870
| 50> H    1.63188488  -4.16521292  -0.62935685
| 51> H    0.62482265   0.30347343  -4.86673865
| 52> *
| 53>
| 54>                          ****END OF INPUT****

CARTESIAN COORDINATES (ANGSTROEM)
---------------------------------
  C     -2.350792   -0.147288    0.840311
  C     -1.898046    1.007591    1.393003
  C     -3.700128   -0.481834    0.784334
  C     -4.646217    0.401616    1.291050
  C     -4.253622    1.641007    1.786475
  C     -2.926710    1.867497    2.000731
  H     -2.495267   -1.378142   -1.537504
  H     -3.988401   -1.500954    0.641621
  H     -2.593740    2.853265    2.305747
  H     -5.691576    0.238707    1.047845
  H     -4.976645    2.315801    2.193892
  C     -0.511337    1.545319    1.553819
  C      0.710138    0.440262    1.810261
  H     -0.399472    2.271693    2.306469
  H     -0.337331    1.992398    0.590818
  C      1.796643    0.572420    0.825532
  H      0.278005   -0.541857    1.817201
  H      1.073904    0.651910    2.805075
  C      1.725608   -0.026421   -0.441935
  C      2.732677    0.167158   -1.376532
  C      3.720510    1.134986   -1.114430
  C      2.841565    1.451433    1.081871
  C      3.811226    1.735269    0.113787
  H      2.789105   -0.414353   -2.276691
  H      4.476947    1.330115   -1.875424
  H      3.021955    1.757253    2.108012
  H      4.502235    2.555546    0.290219
  Pd     0.117140   -1.383223   -0.888817
  Br    -1.492373   -3.678501   -0.844275
  P      1.429456   -3.005932    0.112014
  H      0.890696   -3.547627    1.288988
  C      0.374371   -1.472598   -4.003803
  O      1.628573   -1.642818   -4.203253
  O     -0.535339   -1.964227   -3.084728
  O     -0.107154   -0.094860   -4.385066
  H      2.722395   -2.786078    0.539479
  H      1.631885   -4.165213   -0.629357
  H      0.624823    0.303473   -4.866739

 Total Charge           Charge          ....   -1
 Multiplicity           Mult            ....    1
 Number of Electrons    NEL             ....  200
 Basis Dimension        Dim             ....  385

ORBITAL ENERGIES
----------------

  NO   OCC          E(Eh)            E(eV)
   0   2.0000    -484.341160    -13179.5930
   1   2.0000     -77.683153     -2113.8661
   2   2.0000     -63.002469     -1714.3843
   3   2.0000     -56.706034     -1543.0496
   4   2.0000     -56.705303     -1543.0297
   5   2.0000     -56.704944     -1543.0200
   6   2.0000     -19.349457      -526.5255
   7   2.0000     -19.320582      -525.7398
   8   2.0000     -19.307811      -525.3923
   9   2.0000     -10.455001      -284.4950
  10   2.0000     -10.361452      -281.9494
  11   2.0000     -10.359393      -281.8934
  12   2.0000     -10.355283      -281.7816
  13   2.0000     -10.353272      -281.7269
  14   2.0000     -10.350639      -281.6552
  15   2.0000     -10.349727      -281.6304
  16   2.0000     -10.349193      -281.6159
  17   2.0000     -10.348081      -281.5856
  18   2.0000     -10.347433      -281.5680
  19   2.0000     -10.345850      -281.5249
  20   2.0000     -10.345107      -281.5047
  21   2.0000     -10.344209      -281.4802
  22   2.0000     -10.342556      -281.4352
  23   2.0000     -10.339517      -281.3526
  24   2.0000      -8.829376      -240.2595
  25   2.0000      -6.757931      -183.8926
  26   2.0000      -6.598408      -179.5518
  27   2.0000      -6.595679      -179.4775
  28   2.0000      -6.592328      -179.3864
  29   2.0000      -4.849073      -131.9500
  30   2.0000      -4.848718      -131.9403
  31   2.0000      -4.847299      -131.9017
  32   2.0000      -3.522628       -95.8556
  33   2.0000      -2.612937       -71.1016
  34   2.0000      -2.612690       -71.0949
  35   2.0000      -2.609842       -71.0174
  36   2.0000      -2.607477       -70.9530
  37   2.0000      -2.606954       -70.9388
  38   2.0000      -2.169409       -59.0326
  39   2.0000      -2.163728       -58.8780
  40   2.0000      -2.139045       -58.2064
  41   2.0000      -1.002694       -27.2847
  42   2.0000      -0.915657       -24.9163
  43   2.0000      -0.875361       -23.8198
  44   2.0000      -0.859105       -23.3774
  45   2.0000      -0.853276       -23.2188
  46   2.0000      -0.786544       -21.4030
  47   2.0000      -0.751613       -20.4524
  48   2.0000      -0.729308       -19.8455
  49   2.0000      -0.728364       -19.8198
  50   2.0000      -0.686819       -18.6893
  51   2.0000      -0.661957       -18.0128
  52   2.0000      -0.639555       -17.4032
  53   2.0000      -0.631087       -17.1727
  54   2.0000      -0.577196       -15.7063
  55   2.0000      -0.573958       -15.6182
  56   2.0000      -0.552337       -15.0299
  57   2.0000      -0.535624       -14.5751
  58   2.0000      -0.477946       -13.0056
  59   2.0000      -0.469738       -12.7822
  60   2.0000      -0.468575       -12.7506
  61   2.0000      -0.436451       -11.8764
  62   2.0000      -0.418923       -11.3995
  63   2.0000      -0.412420       -11.2225
  64   2.0000      -0.403738       -10.9863
  65   2.0000      -0.388124       -10.5614
  66   2.0000      -0.382854       -10.4180
  67   2.0000      -0.379386       -10.3236
  68   2.0000      -0.377048       -10.2600
  69   2.0000      -0.373575       -10.1655
  70   2.0000      -0.359924        -9.7940
  71   2.0000      -0.351447        -9.5634
  72   2.0000      -0.344462        -9.3733
  73   2.0000      -0.344039        -9.3618
  74   2.0000      -0.338360        -9.2072
  75   2.0000      -0.319768        -8.7013
  76   2.0000      -0.318470        -8.6660
  77   2.0000      -0.314020        -8.5449
  78   2.0000      -0.306804        -8.3486
  79   2.0000      -0.300059        -8.1650
  80   2.0000      -0.297623        -8.0987
  81   2.0000      -0.290225        -7.8974
  82   2.0000      -0.288638        -7.8542
  83   2.0000      -0.253835        -6.9072
  84   2.0000      -0.247729        -6.7411
  85   2.0000      -0.227298        -6.1851
  86   2.0000      -0.219202        -5.9648
  87   2.0000      -0.208883        -5.6840
  88   2.0000      -0.201069        -5.4714
  89   2.0000      -0.192880        -5.2485
  90   2.0000      -0.185037        -5.0351
  91   2.0000      -0.183250        -4.9865
  92   2.0000      -0.179953        -4.8968
  93   2.0000      -0.175188        -4.7671
  94   2.0000      -0.171923        -4.6783
  95   2.0000      -0.158549        -4.3143
  96   2.0000      -0.155517        -4.2318
  97   2.0000      -0.147557        -4.0152
  98   2.0000      -0.137526        -3.7423
  99   2.0000      -0.109615        -2.9828
 100   0.0000      -0.000978        -0.0266
 101   0.0000       0.044503         1.2110
 102   0.0000       0.107666         2.9297
 103   0.0000       0.112935         3.0731
 104   0.0000       0.118783         3.2323

MULLIKEN ATOMIC CHARGES
-----------------------
   0 C :   -0.034142
   1 C :    0.045614
   2 C :   -0.287630
   3 C :   -0.244560
   4 C :   -0.207352
   5 C :   -0.264066
   6 H :    0.186565
   7 H :    0.242007
   8 H :    0.189496
   9 H :    0.192267
  10 H :    0.190946
  11 C :   -0.486032
  12 C :   -0.531594
  13 H :    0.220641
  14 H :    0.272804
  15 C :    0.117030
  16 H :    0.279318
  17 H :    0.207303
  18 C :   -0.142326
  19 C :   -0.263234
  20 C :   -0.239916
  21 C :   -0.279151
  22 C :   -0.223704
  23 H :    0.285396
  24 H :    0.194874
  25 H :    0.181524
  26 H :    0.187540
  27 Pd:    0.116081
  28 Br:   -0.432282
  29 P :   -0.143461
  30 H :    0.129593
  31 C :    0.683728
  32 O :   -0.542166
  33 O :   -0.567754
  34 O :   -0.664170
  35 H :    0.093321
  36 H :    0.145968
  37 H :    0.391526
Sum of atomic charges:   -1.0000000

LOEWDIN ATOMIC CHARGES
----------------------
   0 C :   -0.041624
   1 C :   -0.058226
   2 C :   -0.148165
   3 C :   -0.164119
   4 C :   -0.158181
   5 C :   -0.148008
   6 H :    0.239039
   7 H :    0.142154
   8 H :    0.122711
   9 H :    0.123826
  10 H :    0.123844
  11 C :   -0.218128
  12 C :   -0.211524
  13 H :    0.127888
  14 H :    0.159672
  15 C :   -0.052675
  16 H :    0.158628
  17 H :    0.120822
  18 C :    0.001096
  19 C :   -0.120112
  20 C :   -0.144708
  21 C :   -0.145998
  22 C :   -0.161050
  23 H :    0.170006
  24 H :    0.125600
  25 H :    0.122547
  26 H :    0.123789
  27 Pd:   -0.778396
  28 Br:   -0.259853
  29 P :    0.403241
  30 H :    0.060646
  31 C :    0.245637
  32 O :   -0.374441
  33 O :   -0.348804
  34 O :   -0.435215
  35 H :    0.033547
  36 H :    0.071737
  37 H :    0.292798

  Mayer bond orders larger than 0.100000
B(  0-C ,  1-C ) :   1.4923 B(  0-C ,  2-C ) :   1.3934 B(  0-C ,  6-H ) :   0.4130
B(  0-C , 27-Pd) :   0.2613 B(  1-C ,  5-C ) :   1.2881 B(  1-C , 11-C ) :   0.9576
B(  2-C ,  3-C ) :   1.4365 B(  2-C ,  7-H ) :   0.9029 B(  3-C ,  4-C ) :   1.3728
B(  3-C ,  9-H ) :   0.9238 B(  4-C ,  5-C ) :   1.4948 B(  4-C , 10-H ) :   0.9256
B(  5-C ,  8-H ) :   0.9192 B(  6-H , 27-Pd) :   0.2005 B(  6-H , 28-Br) :   0.2054
B( 11-C , 12-C ) :   0.9207 B( 11-C , 13-H ) :   0.9270 B( 11-C , 14-H ) :   0.8926
B( 12-C , 15-C ) :   0.9819 B( 12-C , 16-H ) :   0.8839 B( 12-C , 17-H ) :   0.9263
B( 15-C , 18-C ) :   1.3257 B( 15-C , 21-C ) :   1.4175 B( 18-C , 19-C ) :   1.4419
B( 18-C , 27-Pd) :   0.7836 B( 19-C , 20-C ) :   1.3780 B( 19-C , 23-H ) :   0.8657
B( 20-C , 22-C ) :   1.4549 B( 20-C , 24-H ) :   0.9249 B( 21-C , 22-C ) :   1.3946
B( 21-C , 25-H ) :   0.9251 B( 22-C , 26-H ) :   0.9278 B( 27-Pd, 28-Br) :   0.3635
B( 27-Pd, 29-P ) :   0.6444 B( 27-Pd, 33-O ) :   0.3279 B( 28-Br, 29-P ) :   0.1164
B( 29-P , 30-H ) :   0.9286 B( 29-P , 35-H ) :   0.9072 B( 29-P , 36-H ) :   0.9287
B( 31-C , 32-O ) :   1.7652 B( 31-C , 33-O ) :   1.4318 B( 31-C , 34-O ) :   0.9167
B( 32-O , 33-O ) :   0.1010 B( 34-O , 37-H ) :   0.7967

Dispersion correction           -0.031084649
FINAL SINGLE POINT ENERGY     -3847.395789623730
Dispersion correction            ... done

DIPOLE MOMENT
-------------
                                X             Y             Z
Electronic contribution:      4.96305     -67.49382     -35.88053
Nuclear contribution   :     -3.72374      68.46440      38.88372
                        -----------------------------------------
Total Dipole Moment    :      1.23931       0.97058       3.00319
                        -----------------------------------------
Magnitude (a.u.)       :      3.39074
Magnitude (Debye)      :      8.61856

Rotational constants in cm-1:     0.006662     0.006029     0.004198
Rotational constants in MHz :   199.719434   180.732203   125.859645

                             ****ORCA TERMINATED NORMALLY****
TOTAL RUN TIME: 0 days 0 hours 16 minutes 39 seconds 161 msec
