                         Program Version 5.0.3 -  RELEASE  -
|  1> ! EnGrad PBEh-3c
|  2> %output
|  3> xyzfile=True
|  4> end
|  5> %scf
|  6> maxiter 250
|  7> end
|  8> %output
|  9> Print[P_Hirshfeld] = 1
| 10> end
| 11> % maxcore
| 12> 4000
| 13> *xyz -1 1
| 14> C   -2.33910671  -0.11906169   0.79425683
| 15> C   -1.89196826   0.98028544   1.44901660
| 16> C   -3.68504356  -0.47707852   0.80849059
| 17> C   -4.64166187   0.43912911   1.22827294
| 18> C   -4.24625857   1.61945978   1.80941277
| 19> C   -2.91124603   1.86257294   2.00747543
| 20> H   -2.55359113  -1.37987610  -1.59635473
| 21> H   -3.98932086  -1.49427856   0.67449642
| 22> H   -2.61394567   2.86573698   2.26296316
| 23> H   -5.69301562   0.24503417   1.03529081
| 24> H   -4.98327633   2.30274555   2.19324168
| 25> C   -0.49958861   1.52128098   1.56624960
| 26> C    0.69442509   0.45907580   1.81469740
| 27> H   -0.38871410   2.25970661   2.31376098
| 28> H   -0.35647482   2.01110048   0.61280443
| 29> C    1.77756234   0.60393074   0.81115046
| 30> H    0.28971564  -0.53587265   1.83072039
| 31> H    1.08230003   0.63706928   2.81085637
| 32> C    1.70167038  -0.00403483  -0.44888340
| 33> C    2.72993413   0.17529549  -1.36858069
| 34> C    3.72894179   1.13053383  -1.11011886
| 35> C    2.87405280   1.40583560   1.09474756
| 36> C    3.80365462   1.74339205   0.10769828
| 37> H    2.79834827  -0.40907172  -2.26255327
| 38> H    4.47980397   1.33303662  -1.87695393
| 39> H    3.03083152   1.75248978   2.10897208
| 40> H    4.48757850   2.57222292   0.27937108
| 41> Pd   0.17292960  -1.35231390  -0.85310908
| 42> Br  -1.49223220  -3.71317050  -0.84336181
| 43> P    1.41225864  -3.00579948   0.10299983
| 44> H    0.90068310  -3.55016975   1.28874333
| 45> C    0.32892565  -1.44094661  -3.91314329
| 46> O    1.60155699  -1.68399213  -4.20474025
| 47> O   -0.46717585  -1.95909016  -3.18976738
| 48> O   -0.10482992  -0.12497396  -4.39065216
| 49> H    2.71741846  -2.79550908   0.52708553
| 50> H    1.64269213  -4.17017738  -0.62947473
| 51> H    0.59978885   0.29714582  -4.84499700
| 52> *
| 53>
| 54>                          ****END OF INPUT****

CARTESIAN COORDINATES (ANGSTROEM)
---------------------------------
  C     -2.339107   -0.119062    0.794257
  C     -1.891968    0.980285    1.449017
  C     -3.685044   -0.477079    0.808491
  C     -4.641662    0.439129    1.228273
  C     -4.246259    1.619460    1.809413
  C     -2.911246    1.862573    2.007475
  H     -2.553591   -1.379876   -1.596355
  H     -3.989321   -1.494279    0.674496
  H     -2.613946    2.865737    2.262963
  H     -5.693016    0.245034    1.035291
  H     -4.983276    2.302746    2.193242
  C     -0.499589    1.521281    1.566250
  C      0.694425    0.459076    1.814697
  H     -0.388714    2.259707    2.313761
  H     -0.356475    2.011100    0.612804
  C      1.777562    0.603931    0.811150
  H      0.289716   -0.535873    1.830720
  H      1.082300    0.637069    2.810856
  C      1.701670   -0.004035   -0.448883
  C      2.729934    0.175295   -1.368581
  C      3.728942    1.130534   -1.110119
  C      2.874053    1.405836    1.094748
  C      3.803655    1.743392    0.107698
  H      2.798348   -0.409072   -2.262553
  H      4.479804    1.333037   -1.876954
  H      3.030832    1.752490    2.108972
  H      4.487578    2.572223    0.279371
  Pd     0.172930   -1.352314   -0.853109
  Br    -1.492232   -3.713170   -0.843362
  P      1.412259   -3.005799    0.103000
  H      0.900683   -3.550170    1.288743
  C      0.328926   -1.440947   -3.913143
  O      1.601557   -1.683992   -4.204740
  O     -0.467176   -1.959090   -3.189767
  O     -0.104830   -0.124974   -4.390652
  H      2.717418   -2.795509    0.527086
  H      1.642692   -4.170177   -0.629475
  H      0.599789    0.297146   -4.844997

 Total Charge           Charge          ....   -1
 Multiplicity           Mult            ....    1
 Number of Electrons    NEL             ....  200
 Basis Dimension        Dim             ....  385

ORBITAL ENERGIES
----------------

  NO   OCC          E(Eh)            E(eV)
   0   2.0000    -484.345527    -13179.7118
   1   2.0000     -77.688912     -2114.0228
   2   2.0000     -63.006836     -1714.5032
   3   2.0000     -56.710321     -1543.1663
   4   2.0000     -56.709690     -1543.1491
   5   2.0000     -56.709371     -1543.1404
   6   2.0000     -19.330203      -526.0016
   7   2.0000     -19.304143      -525.2924
   8   2.0000     -19.268066      -524.3107
   9   2.0000     -10.420321      -283.5514
  10   2.0000     -10.365093      -282.0485
  11   2.0000     -10.363522      -282.0058
  12   2.0000     -10.362946      -281.9901
  13   2.0000     -10.357668      -281.8465
  14   2.0000     -10.352824      -281.7147
  15   2.0000     -10.352290      -281.7001
  16   2.0000     -10.351482      -281.6781
  17   2.0000     -10.349728      -281.6304
  18   2.0000     -10.349105      -281.6135
  19   2.0000     -10.348610      -281.6000
  20   2.0000     -10.348392      -281.5941
  21   2.0000     -10.348035      -281.5843
  22   2.0000     -10.347007      -281.5564
  23   2.0000     -10.340430      -281.3774
  24   2.0000      -8.833696      -240.3771
  25   2.0000      -6.763545      -184.0454
  26   2.0000      -6.602470      -179.6623
  27   2.0000      -6.600173      -179.5998
  28   2.0000      -6.596718      -179.5058
  29   2.0000      -4.854659      -132.1020
  30   2.0000      -4.854319      -132.0927
  31   2.0000      -4.853020      -132.0574
  32   2.0000      -3.535598       -96.2085
  33   2.0000      -2.617110       -71.2152
  34   2.0000      -2.616914       -71.2098
  35   2.0000      -2.613997       -71.1305
  36   2.0000      -2.612009       -71.0764
  37   2.0000      -2.611413       -71.0602
  38   2.0000      -2.182585       -59.3912
  39   2.0000      -2.177830       -59.2618
  40   2.0000      -2.152189       -58.5640
  41   2.0000      -1.024150       -27.8685
  42   2.0000      -0.934318       -25.4241
  43   2.0000      -0.864227       -23.5168
  44   2.0000      -0.861575       -23.4447
  45   2.0000      -0.858976       -23.3739
  46   2.0000      -0.793630       -21.5958
  47   2.0000      -0.755964       -20.5708
  48   2.0000      -0.732552       -19.9338
  49   2.0000      -0.731459       -19.9040
  50   2.0000      -0.694973       -18.9112
  51   2.0000      -0.666162       -18.1272
  52   2.0000      -0.642778       -17.4909
  53   2.0000      -0.633484       -17.2380
  54   2.0000      -0.582702       -15.8561
  55   2.0000      -0.578451       -15.7404
  56   2.0000      -0.555804       -15.1242
  57   2.0000      -0.539019       -14.6674
  58   2.0000      -0.479037       -13.0353
  59   2.0000      -0.474857       -12.9215
  60   2.0000      -0.473526       -12.8853
  61   2.0000      -0.440720       -11.9926
  62   2.0000      -0.423673       -11.5287
  63   2.0000      -0.417583       -11.3630
  64   2.0000      -0.408872       -11.1260
  65   2.0000      -0.391305       -10.6479
  66   2.0000      -0.384073       -10.4512
  67   2.0000      -0.382171       -10.3994
  68   2.0000      -0.379061       -10.3148
  69   2.0000      -0.374876       -10.2009
  70   2.0000      -0.363057        -9.8793
  71   2.0000      -0.355459        -9.6725
  72   2.0000      -0.349578        -9.5125
  73   2.0000      -0.341780        -9.3003
  74   2.0000      -0.339501        -9.2383
  75   2.0000      -0.330297        -8.9878
  76   2.0000      -0.327486        -8.9113
  77   2.0000      -0.324623        -8.8334
  78   2.0000      -0.312773        -8.5110
  79   2.0000      -0.304959        -8.2984
  80   2.0000      -0.297805        -8.1037
  81   2.0000      -0.291231        -7.9248
  82   2.0000      -0.281356        -7.6561
  83   2.0000      -0.264987        -7.2107
  84   2.0000      -0.260329        -7.0839
  85   2.0000      -0.232779        -6.3342
  86   2.0000      -0.229972        -6.2578
  87   2.0000      -0.210952        -5.7403
  88   2.0000      -0.207172        -5.6374
  89   2.0000      -0.190003        -5.1702
  90   2.0000      -0.185886        -5.0582
  91   2.0000      -0.184523        -5.0211
  92   2.0000      -0.179146        -4.8748
  93   2.0000      -0.175887        -4.7861
  94   2.0000      -0.171639        -4.6705
  95   2.0000      -0.165551        -4.5049
  96   2.0000      -0.157513        -4.2861
  97   2.0000      -0.138790        -3.7767
  98   2.0000      -0.126568        -3.4441
  99   2.0000      -0.116999        -3.1837
 100   0.0000      -0.013971        -0.3802
 101   0.0000       0.036097         0.9823
 102   0.0000       0.103806         2.8247
 103   0.0000       0.111104         3.0233
 104   0.0000       0.118376         3.2212

MULLIKEN ATOMIC CHARGES
-----------------------
   0 C :   -0.035153
   1 C :    0.031574
   2 C :   -0.287266
   3 C :   -0.230568
   4 C :   -0.208834
   5 C :   -0.267105
   6 H :    0.182882
   7 H :    0.243239
   8 H :    0.192692
   9 H :    0.196275
  10 H :    0.191263
  11 C :   -0.483067
  12 C :   -0.534678
  13 H :    0.222789
  14 H :    0.273223
  15 C :    0.137457
  16 H :    0.277428
  17 H :    0.212692
  18 C :   -0.162149
  19 C :   -0.259471
  20 C :   -0.242746
  21 C :   -0.295114
  22 C :   -0.213837
  23 H :    0.293693
  24 H :    0.199228
  25 H :    0.184812
  26 H :    0.189915
  27 Pd:    0.136354
  28 Br:   -0.444492
  29 P :   -0.135513
  30 H :    0.130813
  31 C :    0.651596
  32 O :   -0.640211
  33 O :   -0.463297
  34 O :   -0.686184
  35 H :    0.092572
  36 H :    0.151950
  37 H :    0.397238
Sum of atomic charges:   -1.0000000

LOEWDIN ATOMIC CHARGES
----------------------
   0 C :   -0.034435
   1 C :   -0.061253
   2 C :   -0.141569
   3 C :   -0.162767
   4 C :   -0.157505
   5 C :   -0.152668
   6 H :    0.230650
   7 H :    0.142260
   8 H :    0.126568
   9 H :    0.124778
  10 H :    0.123566
  11 C :   -0.217321
  12 C :   -0.211464
  13 H :    0.128326
  14 H :    0.158808
  15 C :   -0.045180
  16 H :    0.157953
  17 H :    0.122267
  18 C :    0.003324
  19 C :   -0.114774
  20 C :   -0.144743
  21 C :   -0.146067
  22 C :   -0.157274
  23 H :    0.175475
  24 H :    0.128136
  25 H :    0.122772
  26 H :    0.124517
  27 Pd:   -0.729530
  28 Br:   -0.289561
  29 P :    0.416736
  30 H :    0.061127
  31 C :    0.146907
  32 O :   -0.481270
  33 O :   -0.213611
  34 O :   -0.434540
  35 H :    0.032822
  36 H :    0.074919
  37 H :    0.293619

  Mayer bond orders larger than 0.100000
B(  0-C ,  1-C ) :   1.5121 B(  0-C ,  2-C ) :   1.3956 B(  0-C ,  6-H ) :   0.4314
B(  0-C , 27-Pd) :   0.2490 B(  0-C , 28-Br) :   0.1032 B(  1-C ,  5-C ) :   1.2972
B(  1-C , 11-C ) :   0.9548 B(  2-C ,  3-C ) :   1.4419 B(  2-C ,  5-C ) :   0.1043
B(  2-C ,  7-H ) :   0.9037 B(  3-C ,  4-C ) :   1.3894 B(  3-C ,  9-H ) :   0.9226
B(  4-C ,  5-C ) :   1.4902 B(  4-C , 10-H ) :   0.9253 B(  5-C ,  8-H ) :   0.9194
B(  6-H , 27-Pd) :   0.1893 B(  6-H , 28-Br) :   0.2078 B( 11-C , 12-C ) :   0.9238
B( 11-C , 13-H ) :   0.9265 B( 11-C , 14-H ) :   0.8944 B( 12-C , 15-C ) :   0.9653
B( 12-C , 16-H ) :   0.8856 B( 12-C , 17-H ) :   0.9288 B( 15-C , 18-C ) :   1.3243
B( 15-C , 21-C ) :   1.4298 B( 18-C , 19-C ) :   1.4373 B( 18-C , 27-Pd) :   0.8114
B( 19-C , 20-C ) :   1.3755 B( 19-C , 23-H ) :   0.8548 B( 20-C , 22-C ) :   1.4560
B( 20-C , 24-H ) :   0.9245 B( 21-C , 22-C ) :   1.3934 B( 21-C , 25-H ) :   0.9257
B( 22-C , 26-H ) :   0.9277 B( 27-Pd, 28-Br) :   0.3308 B( 27-Pd, 29-P ) :   0.6886
B( 27-Pd, 33-O ) :   0.2399 B( 28-Br, 29-P ) :   0.1248 B( 29-P , 30-H ) :   0.9279
B( 29-P , 35-H ) :   0.9064 B( 29-P , 36-H ) :   0.9278 B( 31-C , 32-O ) :   1.6401
B( 31-C , 33-O ) :   1.7047 B( 31-C , 34-O ) :   0.9098 B( 34-O , 37-H ) :   0.7935

Dispersion correction           -0.031119409
FINAL SINGLE POINT ENERGY     -3847.425602269224
Dispersion correction            ... done

DIPOLE MOMENT
-------------
                                X             Y             Z
Electronic contribution:      7.55917     -65.60243     -33.20395
Nuclear contribution   :     -6.70103      66.76718      36.88953
                        -----------------------------------------
Total Dipole Moment    :      0.85814       1.16475       3.68558
                        -----------------------------------------
Magnitude (a.u.)       :      3.95937
Magnitude (Debye)      :     10.06391

Rotational constants in cm-1:     0.006634     0.006039     0.004193
Rotational constants in MHz :   198.874373   181.035875   125.700259

                             ****ORCA TERMINATED NORMALLY****
TOTAL RUN TIME: 0 days 0 hours 16 minutes 11 seconds 641 msec
