                         Program Version 5.0.3 -  RELEASE  -
|  1> ! EnGrad PBEh-3c
|  2> %output
|  3> xyzfile=True
|  4> end
|  5> %scf
|  6> maxiter 250
|  7> end
|  8> %output
|  9> Print[P_Hirshfeld] = 1
| 10> end
| 11> % maxcore
| 12> 4000
| 13> *xyz -1 1
| 14> C   -2.36066570  -0.18620197   0.86473368
| 15> C   -1.92360296   1.05663191   1.36801852
| 16> C   -3.71395313  -0.48565281   0.77887635
| 17> C   -4.65464637   0.36818906   1.33944893
| 18> C   -4.26042399   1.65212290   1.77380048
| 19> C   -2.91937552   1.86762684   1.97129039
| 20> H   -2.42341827  -1.37684747  -1.46195903
| 21> H   -3.98969850  -1.51213219   0.59857120
| 22> H   -2.57338608   2.83987403   2.35583560
| 23> H   -5.69188800   0.22887779   1.06685702
| 24> H   -4.97518473   2.33415496   2.19347083
| 25> C   -0.50078229   1.53060916   1.52189206
| 26> C    0.69956097   0.44214740   1.80590668
| 27> H   -0.41344652   2.29603398   2.30876836
| 28> H   -0.31075713   1.98007089   0.56283009
| 29> C    1.81428273   0.54613175   0.82831139
| 30> H    0.26285143  -0.55422622   1.80360060
| 31> H    1.06764665   0.66630618   2.80434952
| 32> C    1.73112758  -0.06673426  -0.44031583
| 33> C    2.73770809   0.16645587  -1.37598475
| 34> C    3.71535235   1.12927443  -1.12784823
| 35> C    2.82102110   1.48908929   1.07047762
| 36> C    3.80931654   1.73716957   0.12477078
| 37> H    2.77725503  -0.41997250  -2.29590095
| 38> H    4.47209605   1.32744283  -1.87228500
| 39> H    3.00910394   1.76806325   2.10631128
| 40> H    4.51991072   2.53425119   0.30184340
| 41> Pd   0.07746784  -1.41915511  -0.91595777
| 42> Br  -1.49641211  -3.63752254  -0.84433970
| 43> P    1.43039193  -2.99451525   0.11585707
| 44> H    0.88167139  -3.54544935   1.28919991
| 45> C    0.31785217  -1.54526307  -3.95056407
| 46> O    1.59081077  -1.61209294  -4.20177853
| 47> O   -0.44036432  -1.86727747  -3.12323141
| 48> O   -0.09970631  -0.10256090  -4.38082547
| 49> H    2.73519723  -2.77481901   0.55506207
| 50> H    1.62150907  -4.16239569  -0.63052282
| 51> H    0.64907128   0.30583467  -4.88881323
| 52> *
| 53>
| 54>                          ****END OF INPUT****

CARTESIAN COORDINATES (ANGSTROEM)
---------------------------------
  C     -2.360666   -0.186202    0.864734
  C     -1.923603    1.056632    1.368019
  C     -3.713953   -0.485653    0.778876
  C     -4.654646    0.368189    1.339449
  C     -4.260424    1.652123    1.773800
  C     -2.919376    1.867627    1.971290
  H     -2.423418   -1.376847   -1.461959
  H     -3.989698   -1.512132    0.598571
  H     -2.573386    2.839874    2.355836
  H     -5.691888    0.228878    1.066857
  H     -4.975185    2.334155    2.193471
  C     -0.500782    1.530609    1.521892
  C      0.699561    0.442147    1.805907
  H     -0.413447    2.296034    2.308768
  H     -0.310757    1.980071    0.562830
  C      1.814283    0.546132    0.828311
  H      0.262851   -0.554226    1.803601
  H      1.067647    0.666306    2.804350
  C      1.731128   -0.066734   -0.440316
  C      2.737708    0.166456   -1.375985
  C      3.715352    1.129274   -1.127848
  C      2.821021    1.489089    1.070478
  C      3.809317    1.737170    0.124771
  H      2.777255   -0.419973   -2.295901
  H      4.472096    1.327443   -1.872285
  H      3.009104    1.768063    2.106311
  H      4.519911    2.534251    0.301843
  Pd     0.077468   -1.419155   -0.915958
  Br    -1.496412   -3.637523   -0.844340
  P      1.430392   -2.994515    0.115857
  H      0.881671   -3.545449    1.289200
  C      0.317852   -1.545263   -3.950564
  O      1.590811   -1.612093   -4.201779
  O     -0.440364   -1.867277   -3.123231
  O     -0.099706   -0.102561   -4.380825
  H      2.735197   -2.774819    0.555062
  H      1.621509   -4.162396   -0.630523
  H      0.649071    0.305835   -4.888813

 Total Charge           Charge          ....   -1
 Multiplicity           Mult            ....    1
 Number of Electrons    NEL             ....  200
 Basis Dimension        Dim             ....  385

ORBITAL ENERGIES
----------------

  NO   OCC          E(Eh)            E(eV)
   0   2.0000    -484.354680    -13179.9609
   1   2.0000     -77.692095     -2114.1094
   2   2.0000     -63.016058     -1714.7541
   3   2.0000     -56.719675     -1543.4208
   4   2.0000     -56.718856     -1543.3985
   5   2.0000     -56.718482     -1543.3884
   6   2.0000     -19.321446      -525.7633
   7   2.0000     -19.298801      -525.1471
   8   2.0000     -19.283948      -524.7429
   9   2.0000     -10.426088      -283.7083
  10   2.0000     -10.366874      -282.0970
  11   2.0000     -10.365794      -282.0676
  12   2.0000     -10.363681      -282.0101
  13   2.0000     -10.356408      -281.8122
  14   2.0000     -10.354754      -281.7672
  15   2.0000     -10.353962      -281.7456
  16   2.0000     -10.352987      -281.7191
  17   2.0000     -10.351827      -281.6875
  18   2.0000     -10.350735      -281.6578
  19   2.0000     -10.350469      -281.6506
  20   2.0000     -10.349305      -281.6189
  21   2.0000     -10.348679      -281.6019
  22   2.0000     -10.346786      -281.5504
  23   2.0000     -10.340614      -281.3824
  24   2.0000      -8.843097      -240.6329
  25   2.0000      -6.766102      -184.1150
  26   2.0000      -6.612401      -179.9326
  27   2.0000      -6.609190      -179.8452
  28   2.0000      -6.606005      -179.7585
  29   2.0000      -4.857234      -132.1720
  30   2.0000      -4.856966      -132.1648
  31   2.0000      -4.855520      -132.1254
  32   2.0000      -3.529289       -96.0368
  33   2.0000      -2.626810       -71.4791
  34   2.0000      -2.626482       -71.4702
  35   2.0000      -2.623760       -71.3961
  36   2.0000      -2.620975       -71.3204
  37   2.0000      -2.620540       -71.3085
  38   2.0000      -2.175712       -59.2041
  39   2.0000      -2.170498       -59.0622
  40   2.0000      -2.146427       -58.4072
  41   2.0000      -1.039941       -28.2982
  42   2.0000      -0.914546       -24.8861
  43   2.0000      -0.862355       -23.4659
  44   2.0000      -0.858980       -23.3740
  45   2.0000      -0.854158       -23.2428
  46   2.0000      -0.785528       -21.3753
  47   2.0000      -0.751906       -20.4604
  48   2.0000      -0.731353       -19.9011
  49   2.0000      -0.729009       -19.8373
  50   2.0000      -0.686644       -18.6845
  51   2.0000      -0.670517       -18.2457
  52   2.0000      -0.650326       -17.6963
  53   2.0000      -0.629016       -17.1164
  54   2.0000      -0.573704       -15.6113
  55   2.0000      -0.570263       -15.5176
  56   2.0000      -0.556316       -15.1381
  57   2.0000      -0.540982       -14.7209
  58   2.0000      -0.469272       -12.7695
  59   2.0000      -0.467397       -12.7185
  60   2.0000      -0.451098       -12.2750
  61   2.0000      -0.435960       -11.8631
  62   2.0000      -0.417381       -11.3575
  63   2.0000      -0.411322       -11.1927
  64   2.0000      -0.401905       -10.9364
  65   2.0000      -0.388414       -10.5693
  66   2.0000      -0.385088       -10.4788
  67   2.0000      -0.383263       -10.4291
  68   2.0000      -0.380765       -10.3612
  69   2.0000      -0.375388       -10.2148
  70   2.0000      -0.366065        -9.9611
  71   2.0000      -0.350465        -9.5366
  72   2.0000      -0.349120        -9.5000
  73   2.0000      -0.344657        -9.3786
  74   2.0000      -0.341599        -9.2954
  75   2.0000      -0.337205        -9.1758
  76   2.0000      -0.320177        -8.7125
  77   2.0000      -0.317474        -8.6389
  78   2.0000      -0.307826        -8.3764
  79   2.0000      -0.296933        -8.0800
  80   2.0000      -0.290036        -7.8923
  81   2.0000      -0.284020        -7.7286
  82   2.0000      -0.275898        -7.5076
  83   2.0000      -0.261685        -7.1208
  84   2.0000      -0.257956        -7.0193
  85   2.0000      -0.232381        -6.3234
  86   2.0000      -0.225108        -6.1255
  87   2.0000      -0.206963        -5.6318
  88   2.0000      -0.202774        -5.5178
  89   2.0000      -0.191544        -5.2122
  90   2.0000      -0.187547        -5.1034
  91   2.0000      -0.183500        -4.9933
  92   2.0000      -0.179101        -4.8736
  93   2.0000      -0.175082        -4.7642
  94   2.0000      -0.165674        -4.5082
  95   2.0000      -0.162830        -4.4308
  96   2.0000      -0.159714        -4.3460
  97   2.0000      -0.147808        -4.0221
  98   2.0000      -0.128975        -3.5096
  99   2.0000      -0.121794        -3.3142
 100   0.0000      -0.003628        -0.0987
 101   0.0000       0.039149         1.0653
 102   0.0000       0.107040         2.9127
 103   0.0000       0.112135         3.0513
 104   0.0000       0.113577         3.0906

MULLIKEN ATOMIC CHARGES
-----------------------
   0 C :   -0.029260
   1 C :    0.051598
   2 C :   -0.287896
   3 C :   -0.244202
   4 C :   -0.213371
   5 C :   -0.256527
   6 H :    0.182074
   7 H :    0.240591
   8 H :    0.190034
   9 H :    0.194416
  10 H :    0.194183
  11 C :   -0.480393
  12 C :   -0.518319
  13 H :    0.204590
  14 H :    0.276274
  15 C :    0.072856
  16 H :    0.274767
  17 H :    0.204492
  18 C :   -0.124960
  19 C :   -0.264786
  20 C :   -0.231615
  21 C :   -0.252113
  22 C :   -0.237048
  23 H :    0.294362
  24 H :    0.199967
  25 H :    0.180400
  26 H :    0.190123
  27 Pd:    0.096967
  28 Br:   -0.412417
  29 P :   -0.135566
  30 H :    0.131251
  31 C :    0.639521
  32 O :   -0.595622
  33 O :   -0.423891
  34 O :   -0.725126
  35 H :    0.099660
  36 H :    0.146002
  37 H :    0.368986
Sum of atomic charges:   -1.0000000

LOEWDIN ATOMIC CHARGES
----------------------
   0 C :   -0.039327
   1 C :   -0.054185
   2 C :   -0.156031
   3 C :   -0.163186
   4 C :   -0.152096
   5 C :   -0.145317
   6 H :    0.239921
   7 H :    0.141795
   8 H :    0.121773
   9 H :    0.125531
  10 H :    0.125132
  11 C :   -0.216221
  12 C :   -0.212899
  13 H :    0.124285
  14 H :    0.160158
  15 C :   -0.054587
  16 H :    0.157683
  17 H :    0.120349
  18 C :   -0.005363
  19 C :   -0.115157
  20 C :   -0.145194
  21 C :   -0.149701
  22 C :   -0.156903
  23 H :    0.175691
  24 H :    0.127688
  25 H :    0.123696
  26 H :    0.123575
  27 Pd:   -0.803485
  28 Br:   -0.222724
  29 P :    0.408424
  30 H :    0.061985
  31 C :    0.155801
  32 O :   -0.429046
  33 O :   -0.151067
  34 O :   -0.511591
  35 H :    0.038608
  36 H :    0.072725
  37 H :    0.279263

  Mayer bond orders larger than 0.100000
B(  0-C ,  1-C ) :   1.4033 B(  0-C ,  2-C ) :   1.4252 B(  0-C ,  6-H ) :   0.4183
B(  0-C , 27-Pd) :   0.2775 B(  1-C ,  5-C ) :   1.3546 B(  1-C , 11-C ) :   0.9589
B(  2-C ,  3-C ) :   1.3978 B(  2-C ,  7-H ) :   0.9021 B(  3-C ,  4-C ) :   1.3985
B(  3-C ,  9-H ) :   0.9225 B(  4-C ,  5-C ) :   1.4465 B(  4-C , 10-H ) :   0.9254
B(  5-C ,  8-H ) :   0.9193 B(  6-H , 27-Pd) :   0.2137 B(  6-H , 28-Br) :   0.2018
B( 11-C , 12-C ) :   0.9166 B( 11-C , 13-H ) :   0.9333 B( 11-C , 14-H ) :   0.8889
B( 12-C , 15-C ) :   0.9880 B( 12-C , 16-H ) :   0.8862 B( 12-C , 17-H ) :   0.9263
B( 15-C , 18-C ) :   1.3452 B( 15-C , 21-C ) :   1.3891 B( 18-C , 19-C ) :   1.4198
B( 18-C , 27-Pd) :   0.7505 B( 19-C , 20-C ) :   1.4028 B( 19-C , 23-H ) :   0.8553
B( 20-C , 22-C ) :   1.4270 B( 20-C , 24-H ) :   0.9240 B( 21-C , 22-C ) :   1.4226
B( 21-C , 25-H ) :   0.9239 B( 22-C , 26-H ) :   0.9267 B( 27-Pd, 28-Br) :   0.4049
B( 27-Pd, 29-P ) :   0.6423 B( 27-Pd, 33-O ) :   0.2633 B( 28-Br, 29-P ) :   0.1070
B( 29-P , 30-H ) :   0.9276 B( 29-P , 35-H ) :   0.9086 B( 29-P , 36-H ) :   0.9280
B( 31-C , 32-O ) :   1.6807 B( 31-C , 33-O ) :   1.7356 B( 31-C , 34-O ) :   0.8089
B( 32-O , 33-O ) :   0.1117 B( 34-O , 37-H ) :   0.8158

Dispersion correction           -0.031143674
FINAL SINGLE POINT ENERGY     -3847.399000978040
Dispersion correction            ... done

DIPOLE MOMENT
-------------
                                X             Y             Z
Electronic contribution:      2.50842     -69.99752     -36.71037
Nuclear contribution   :     -1.58960      70.47513      40.31511
                        -----------------------------------------
Total Dipole Moment    :      0.91881       0.47761       3.60474
                        -----------------------------------------
Magnitude (a.u.)       :      3.75053
Magnitude (Debye)      :      9.53309

Rotational constants in cm-1:     0.006718     0.006043     0.004218
Rotational constants in MHz :   201.402748   181.157506   126.438531

                             ****ORCA TERMINATED NORMALLY****
TOTAL RUN TIME: 0 days 0 hours 15 minutes 22 seconds 191 msec
