                         Program Version 5.0.3 -  RELEASE  -
|  1> ! EnGrad PBEh-3c
|  2> %output
|  3> xyzfile=True
|  4> end
|  5> %scf
|  6> maxiter 250
|  7> end
|  8> %output
|  9> Print[P_Hirshfeld] = 1
| 10> end
| 11> % maxcore
| 12> 4000
| 13> *xyz -1 1
| 14> C   -2.34616758  -0.14105106   0.81733897
| 15> C   -1.90232906   1.00528996   1.42248862
| 16> C   -3.69451184  -0.47988672   0.79879152
| 17> C   -4.64591447   0.41589527   1.26468461
| 18> C   -4.25089794   1.63015740   1.79774925
| 19> C   -2.91390855   1.86422817   1.99562433
| 20> H   -2.51095772  -1.37888418  -1.55233829
| 21> H   -3.98944454  -1.50012587   0.64962987
| 22> H   -2.60066185   2.85726651   2.29338016
| 23> H   -5.69264631   0.23974273   1.04562918
| 24> H   -4.98062622   2.31303256   2.19331673
| 25> C   -0.49997956   1.52433609   1.55172189
| 26> C    0.69610716   0.45353151   1.81181832
| 27> H   -0.39681431   2.27160432   2.31212583
| 28> H   -0.34150164   2.00093786   0.59643714
| 29> C    1.78958877   0.58500077   0.81677090
| 30> H    0.28091724  -0.54188370   1.82183828
| 31> H    1.07750085   0.64664477   2.80872528
| 32> C    1.71131802  -0.02456976  -0.44607740
| 33> C    2.73248021   0.17240039  -1.37100562
| 34> C    3.72449106   1.13012136  -1.11592548
| 35> C    2.85668419   1.43310233   1.08679882
| 36> C    3.80550898   1.74135410   0.11328976
| 37> H    2.79143994  -0.41264188  -2.27347509
| 38> H    4.47727952   1.33120458  -1.87542479
| 39> H    3.02371544   1.75759031   2.10810064
| 40> H    4.49816775   2.55978665   0.28673108
| 41> Pd   0.14166456  -1.37420532  -0.87369289
| 42> Br  -1.49360117  -3.68839475  -0.84368208
| 43> P    1.41819754  -3.00210374   0.10721075
| 44> H    0.89445650  -3.54862375   1.28889287
| 45> C    0.32529893  -1.47511169  -3.92539911
| 46> O    1.59803746  -1.66044416  -4.20377025
| 47> O   -0.45839471  -1.92902024  -3.16797593
| 48> O   -0.10315187  -0.11763338  -4.38743378
| 49> H    2.72324125  -2.78873280   0.53624823
| 50> H    1.63575439  -4.16762877  -0.62981799
| 51> H    0.61592953   0.29999154  -4.85934742
| 52> *
| 53>
| 54>                          ****END OF INPUT****

CARTESIAN COORDINATES (ANGSTROEM)
---------------------------------
  C     -2.346168   -0.141051    0.817339
  C     -1.902329    1.005290    1.422489
  C     -3.694512   -0.479887    0.798792
  C     -4.645914    0.415895    1.264685
  C     -4.250898    1.630157    1.797749
  C     -2.913909    1.864228    1.995624
  H     -2.510958   -1.378884   -1.552338
  H     -3.989445   -1.500126    0.649630
  H     -2.600662    2.857267    2.293380
  H     -5.692646    0.239743    1.045629
  H     -4.980626    2.313033    2.193317
  C     -0.499980    1.524336    1.551722
  C      0.696107    0.453532    1.811818
  H     -0.396814    2.271604    2.312126
  H     -0.341502    2.000938    0.596437
  C      1.789589    0.585001    0.816771
  H      0.280917   -0.541884    1.821838
  H      1.077501    0.646645    2.808725
  C      1.711318   -0.024570   -0.446077
  C      2.732480    0.172400   -1.371006
  C      3.724491    1.130121   -1.115925
  C      2.856684    1.433102    1.086799
  C      3.805509    1.741354    0.113290
  H      2.791440   -0.412642   -2.273475
  H      4.477280    1.331205   -1.875425
  H      3.023715    1.757590    2.108101
  H      4.498168    2.559787    0.286731
  Pd     0.141665   -1.374205   -0.873693
  Br    -1.493601   -3.688395   -0.843682
  P      1.418198   -3.002104    0.107211
  H      0.894456   -3.548624    1.288893
  C      0.325299   -1.475112   -3.925399
  O      1.598037   -1.660444   -4.203770
  O     -0.458395   -1.929020   -3.167976
  O     -0.103152   -0.117633   -4.387434
  H      2.723241   -2.788733    0.536248
  H      1.635754   -4.167629   -0.629818
  H      0.615930    0.299992   -4.859347

 Total Charge           Charge          ....   -1
 Multiplicity           Mult            ....    1
 Number of Electrons    NEL             ....  200
 Basis Dimension        Dim             ....  385

ORBITAL ENERGIES
----------------

  NO   OCC          E(Eh)            E(eV)
   0   2.0000    -484.348756    -13179.7997
   1   2.0000     -77.690209     -2114.0581
   2   2.0000     -63.010079     -1714.5914
   3   2.0000     -56.713605     -1543.2556
   4   2.0000     -56.712920     -1543.2370
   5   2.0000     -56.712578     -1543.2277
   6   2.0000     -19.319177      -525.7015
   7   2.0000     -19.309229      -525.4308
   8   2.0000     -19.272130      -524.4213
   9   2.0000     -10.420875      -283.5664
  10   2.0000     -10.365132      -282.0496
  11   2.0000     -10.363728      -282.0114
  12   2.0000     -10.363229      -281.9978
  13   2.0000     -10.356910      -281.8259
  14   2.0000     -10.353105      -281.7223
  15   2.0000     -10.351663      -281.6831
  16   2.0000     -10.351097      -281.6677
  17   2.0000     -10.350760      -281.6585
  18   2.0000     -10.349661      -281.6286
  19   2.0000     -10.348922      -281.6085
  20   2.0000     -10.348796      -281.6051
  21   2.0000     -10.347727      -281.5760
  22   2.0000     -10.346692      -281.5478
  23   2.0000     -10.340326      -281.3746
  24   2.0000      -8.836980      -240.4664
  25   2.0000      -6.764642      -184.0753
  26   2.0000      -6.605920      -179.7562
  27   2.0000      -6.603342      -179.6861
  28   2.0000      -6.599960      -179.5940
  29   2.0000      -4.855764      -132.1321
  30   2.0000      -4.855445      -132.1234
  31   2.0000      -4.854097      -132.0867
  32   2.0000      -3.533424       -96.1494
  33   2.0000      -2.620487       -71.3071
  34   2.0000      -2.620253       -71.3007
  35   2.0000      -2.617387       -71.2227
  36   2.0000      -2.615157       -71.1620
  37   2.0000      -2.614611       -71.1472
  38   2.0000      -2.180049       -59.3222
  39   2.0000      -2.175510       -59.1986
  40   2.0000      -2.150120       -58.5077
  41   2.0000      -1.028623       -27.9902
  42   2.0000      -0.924623       -25.1603
  43   2.0000      -0.867398       -23.6031
  44   2.0000      -0.862530       -23.4706
  45   2.0000      -0.857589       -23.3362
  46   2.0000      -0.791001       -21.5242
  47   2.0000      -0.754526       -20.5317
  48   2.0000      -0.732292       -19.9267
  49   2.0000      -0.730740       -19.8844
  50   2.0000      -0.692425       -18.8418
  51   2.0000      -0.667464       -18.1626
  52   2.0000      -0.645695       -17.5703
  53   2.0000      -0.632107       -17.2005
  54   2.0000      -0.579992       -15.7824
  55   2.0000      -0.576160       -15.6781
  56   2.0000      -0.555935       -15.1278
  57   2.0000      -0.540010       -14.6944
  58   2.0000      -0.473246       -12.8777
  59   2.0000      -0.471702       -12.8357
  60   2.0000      -0.465180       -12.6582
  61   2.0000      -0.439397       -11.9566
  62   2.0000      -0.421920       -11.4810
  63   2.0000      -0.415649       -11.3104
  64   2.0000      -0.406827       -11.0703
  65   2.0000      -0.388989       -10.5849
  66   2.0000      -0.385235       -10.4828
  67   2.0000      -0.382226       -10.4009
  68   2.0000      -0.379616       -10.3299
  69   2.0000      -0.378209       -10.2916
  70   2.0000      -0.364063        -9.9067
  71   2.0000      -0.353377        -9.6159
  72   2.0000      -0.348247        -9.4763
  73   2.0000      -0.342406        -9.3174
  74   2.0000      -0.340959        -9.2780
  75   2.0000      -0.331507        -9.0208
  76   2.0000      -0.325016        -8.8441
  77   2.0000      -0.322231        -8.7683
  78   2.0000      -0.310789        -8.4570
  79   2.0000      -0.302559        -8.2331
  80   2.0000      -0.296387        -8.0651
  81   2.0000      -0.289176        -7.8689
  82   2.0000      -0.281158        -7.6507
  83   2.0000      -0.263490        -7.1699
  84   2.0000      -0.258556        -7.0357
  85   2.0000      -0.232288        -6.3209
  86   2.0000      -0.228031        -6.2050
  87   2.0000      -0.207939        -5.6583
  88   2.0000      -0.206709        -5.6248
  89   2.0000      -0.188522        -5.1299
  90   2.0000      -0.186345        -5.0707
  91   2.0000      -0.183992        -5.0067
  92   2.0000      -0.180307        -4.9064
  93   2.0000      -0.174552        -4.7498
  94   2.0000      -0.173048        -4.7089
  95   2.0000      -0.165761        -4.5106
  96   2.0000      -0.158920        -4.3244
  97   2.0000      -0.142713        -3.8834
  98   2.0000      -0.129176        -3.5151
  99   2.0000      -0.119381        -3.2485
 100   0.0000      -0.010995        -0.2992
 101   0.0000       0.037233         1.0132
 102   0.0000       0.106781         2.9057
 103   0.0000       0.112286         3.0554
 104   0.0000       0.116505         3.1703

MULLIKEN ATOMIC CHARGES
-----------------------
   0 C :   -0.034133
   1 C :    0.040838
   2 C :   -0.287917
   3 C :   -0.235906
   4 C :   -0.209623
   5 C :   -0.264033
   6 H :    0.184192
   7 H :    0.241425
   8 H :    0.191397
   9 H :    0.195900
  10 H :    0.191811
  11 C :   -0.482404
  12 C :   -0.530558
  13 H :    0.217091
  14 H :    0.274374
  15 C :    0.119017
  16 H :    0.276518
  17 H :    0.210109
  18 C :   -0.148787
  19 C :   -0.261944
  20 C :   -0.239635
  21 C :   -0.281829
  22 C :   -0.220919
  23 H :    0.294245
  24 H :    0.199487
  25 H :    0.183564
  26 H :    0.189318
  27 Pd:    0.122901
  28 Br:   -0.434462
  29 P :   -0.134718
  30 H :    0.131013
  31 C :    0.649669
  32 O :   -0.628083
  33 O :   -0.449697
  34 O :   -0.702472
  35 H :    0.095079
  36 H :    0.150059
  37 H :    0.389115
Sum of atomic charges:   -1.0000000

LOEWDIN ATOMIC CHARGES
----------------------
   0 C :   -0.036149
   1 C :   -0.059684
   2 C :   -0.147784
   3 C :   -0.162146
   4 C :   -0.156422
   5 C :   -0.149401
   6 H :    0.235384
   7 H :    0.141968
   8 H :    0.124837
   9 H :    0.125206
  10 H :    0.124160
  11 C :   -0.216703
  12 C :   -0.211793
  13 H :    0.127197
  14 H :    0.159234
  15 C :   -0.048565
  16 H :    0.157804
  17 H :    0.121616
  18 C :    0.001443
  19 C :   -0.115147
  20 C :   -0.144675
  21 C :   -0.147120
  22 C :   -0.157544
  23 H :    0.175684
  24 H :    0.128042
  25 H :    0.123084
  26 H :    0.124239
  27 Pd:   -0.752053
  28 Br:   -0.268532
  29 P :    0.415124
  30 H :    0.061459
  31 C :    0.146887
  32 O :   -0.465309
  33 O :   -0.191213
  34 O :   -0.462015
  35 H :    0.034880
  36 H :    0.074263
  37 H :    0.289743

  Mayer bond orders larger than 0.100000
B(  0-C ,  1-C ) :   1.4775 B(  0-C ,  2-C ) :   1.4060 B(  0-C ,  6-H ) :   0.4303
B(  0-C , 27-Pd) :   0.2586 B(  0-C , 28-Br) :   0.1023 B(  1-C ,  5-C ) :   1.3187
B(  1-C , 11-C ) :   0.9536 B(  2-C ,  3-C ) :   1.4283 B(  2-C ,  7-H ) :   0.9038
B(  3-C ,  4-C ) :   1.3933 B(  3-C ,  9-H ) :   0.9232 B(  4-C ,  5-C ) :   1.4758
B(  4-C , 10-H ) :   0.9256 B(  5-C ,  8-H ) :   0.9196 B(  6-H , 27-Pd) :   0.1957
B(  6-H , 28-Br) :   0.2084 B( 11-C , 12-C ) :   0.9217 B( 11-C , 13-H ) :   0.9294
B( 11-C , 14-H ) :   0.8925 B( 12-C , 15-C ) :   0.9725 B( 12-C , 16-H ) :   0.8860
B( 12-C , 17-H ) :   0.9280 B( 15-C , 18-C ) :   1.3318 B( 15-C , 21-C ) :   1.4180
B( 18-C , 19-C ) :   1.4323 B( 18-C , 27-Pd) :   0.7932 B( 19-C , 20-C ) :   1.3842
B( 19-C , 23-H ) :   0.8549 B( 20-C , 22-C ) :   1.4465 B( 20-C , 24-H ) :   0.9244
B( 21-C , 22-C ) :   1.4027 B( 21-C , 25-H ) :   0.9254 B( 22-C , 26-H ) :   0.9276
B( 27-Pd, 28-Br) :   0.3522 B( 27-Pd, 29-P ) :   0.6769 B( 27-Pd, 33-O ) :   0.2464
B( 28-Br, 29-P ) :   0.1182 B( 29-P , 30-H ) :   0.9279 B( 29-P , 35-H ) :   0.9072
B( 29-P , 36-H ) :   0.9279 B( 31-C , 32-O ) :   1.6548 B( 31-C , 33-O ) :   1.7205
B( 31-C , 34-O ) :   0.8751 B( 32-O , 33-O ) :   0.1033 B( 34-O , 37-H ) :   0.8001

Dispersion correction           -0.031140905
FINAL SINGLE POINT ENERGY     -3847.428301427980
Dispersion correction            ... done

DIPOLE MOMENT
-------------
                                X             Y             Z
Electronic contribution:      5.90118     -67.04827     -34.34020
Nuclear contribution   :     -5.02696      67.98159      38.01146
                        -----------------------------------------
Total Dipole Moment    :      0.87422       0.93332       3.67126
                        -----------------------------------------
Magnitude (a.u.)       :      3.88760
Magnitude (Debye)      :      9.88150

Rotational constants in cm-1:     0.006663     0.006041     0.004202
Rotational constants in MHz :   199.747336   181.094064   125.958483

                             ****ORCA TERMINATED NORMALLY****
TOTAL RUN TIME: 0 days 0 hours 14 minutes 50 seconds 296 msec
