                         Program Version 5.0.3 -  RELEASE  -
|  1> ! EnGrad PBEh-3c
|  2> %output
|  3> xyzfile=True
|  4> end
|  5> %scf
|  6> maxiter 250
|  7> end
|  8> %output
|  9> Print[P_Hirshfeld] = 1
| 10> end
| 11> % maxcore
| 12> 4000
| 13> *xyz -1 1
| 14> C   -2.35121017  -0.17224643   0.86424408
| 15> C   -1.94874749   1.03561969   1.35836264
| 16> C   -3.70886608  -0.52065677   0.80793669
| 17> C   -4.66375185   0.40272502   1.35418247
| 18> C   -4.27202660   1.60750372   1.77709618
| 19> C   -2.89680235   1.90705080   1.92820094
| 20> H   -2.34217610  -1.37602799  -1.36947404
| 21> H   -3.99455151  -1.51669277   0.54781849
| 22> H   -2.56439141   2.81421790   2.39760976
| 23> H   -5.70182827   0.21085803   1.09283977
| 24> H   -4.98009127   2.35381375   2.18885326
| 25> C   -0.47679526   1.52382457   1.51747122
| 26> C    0.66361329   0.44680209   1.80365194
| 27> H   -0.42947567   2.29326591   2.28217935
| 28> H   -0.27480675   1.98097988   0.53391662
| 29> C    1.80332256   0.53668405   0.80397522
| 30> H    0.25223199  -0.55830815   1.79682356
| 31> H    1.06054175   0.67338350   2.80583534
| 32> C    1.71654797  -0.10703839  -0.43230115
| 33> C    2.73329831   0.14804217  -1.39092548
| 34> C    3.71655101   1.12982978  -1.10345611
| 35> C    2.82476314   1.48457713   1.07285841
| 36> C    3.78945812   1.74210330   0.09913416
| 37> H    2.76170683  -0.41138237  -2.30302656
| 38> H    4.47138022   1.32603008  -1.87698821
| 39> H    2.98954798   1.78982566   2.10040734
| 40> H    4.54189211   2.51461001   0.31303145
| 41> Pd   0.07971546  -1.44989922  -0.90358553
| 42> Br  -1.50960608  -3.59439262  -0.84583642
| 43> P    1.41470662  -2.97343032   0.11170582
| 44> H    0.87834979  -3.54229687   1.28646069
| 45> C    0.51130685  -1.33810770  -4.04453658
| 46> O    1.52325418  -1.65655483  -4.20432068
| 47> O   -0.54197458  -1.94756437  -3.00820567
| 48> O   -0.06216317  -0.10049835  -4.42529000
| 49> H    2.74730832  -2.76437737   0.56643379
| 50> H    1.61395874  -4.15819293  -0.63136675
| 51> H    0.61825291   0.26837992  -4.87238257
| 52> *
| 53>
| 54>                          ****END OF INPUT****

CARTESIAN COORDINATES (ANGSTROEM)
---------------------------------
  C     -2.351210   -0.172246    0.864244
  C     -1.948747    1.035620    1.358363
  C     -3.708866   -0.520657    0.807937
  C     -4.663752    0.402725    1.354182
  C     -4.272027    1.607504    1.777096
  C     -2.896802    1.907051    1.928201
  H     -2.342176   -1.376028   -1.369474
  H     -3.994552   -1.516693    0.547818
  H     -2.564391    2.814218    2.397610
  H     -5.701828    0.210858    1.092840
  H     -4.980091    2.353814    2.188853
  C     -0.476795    1.523825    1.517471
  C      0.663613    0.446802    1.803652
  H     -0.429476    2.293266    2.282179
  H     -0.274807    1.980980    0.533917
  C      1.803323    0.536684    0.803975
  H      0.252232   -0.558308    1.796824
  H      1.060542    0.673384    2.805835
  C      1.716548   -0.107038   -0.432301
  C      2.733298    0.148042   -1.390925
  C      3.716551    1.129830   -1.103456
  C      2.824763    1.484577    1.072858
  C      3.789458    1.742103    0.099134
  H      2.761707   -0.411382   -2.303027
  H      4.471380    1.326030   -1.876988
  H      2.989548    1.789826    2.100407
  H      4.541892    2.514610    0.313031
  Pd     0.079715   -1.449899   -0.903586
  Br    -1.509606   -3.594393   -0.845836
  P      1.414707   -2.973430    0.111706
  H      0.878350   -3.542297    1.286461
  C      0.511307   -1.338108   -4.044537
  O      1.523254   -1.656555   -4.204321
  O     -0.541975   -1.947564   -3.008206
  O     -0.062163   -0.100498   -4.425290
  H      2.747308   -2.764377    0.566434
  H      1.613959   -4.158193   -0.631367
  H      0.618253    0.268380   -4.872383

 Total Charge           Charge          ....   -1
 Multiplicity           Mult            ....    1
 Number of Electrons    NEL             ....  200
 Basis Dimension        Dim             ....  385

ORBITAL ENERGIES
----------------

  NO   OCC          E(Eh)            E(eV)
   0   2.0000    -484.343026    -13179.6438
   1   2.0000     -77.679948     -2113.7788
   2   2.0000     -63.004377     -1714.4362
   3   2.0000     -56.708075     -1543.1052
   4   2.0000     -56.707192     -1543.0811
   5   2.0000     -56.706704     -1543.0679
   6   2.0000     -19.381454      -527.3962
   7   2.0000     -19.373419      -527.1775
   8   2.0000     -19.287085      -524.8283
   9   2.0000     -10.456978      -284.5488
  10   2.0000     -10.352881      -281.7162
  11   2.0000     -10.348509      -281.5972
  12   2.0000     -10.346150      -281.5331
  13   2.0000     -10.345293      -281.5097
  14   2.0000     -10.344535      -281.4891
  15   2.0000     -10.344025      -281.4752
  16   2.0000     -10.341129      -281.3964
  17   2.0000     -10.339369      -281.3485
  18   2.0000     -10.338961      -281.3374
  19   2.0000     -10.338804      -281.3332
  20   2.0000     -10.335707      -281.2489
  21   2.0000     -10.334786      -281.2238
  22   2.0000     -10.334234      -281.2088
  23   2.0000     -10.333909      -281.2000
  24   2.0000      -8.831441      -240.3157
  25   2.0000      -6.752726      -183.7510
  26   2.0000      -6.600943      -179.6208
  27   2.0000      -6.597578      -179.5292
  28   2.0000      -6.594087      -179.4342
  29   2.0000      -4.843871      -131.8084
  30   2.0000      -4.843575      -131.8004
  31   2.0000      -4.842239      -131.7640
  32   2.0000      -3.516320       -95.6839
  33   2.0000      -2.615400       -71.1686
  34   2.0000      -2.615029       -71.1586
  35   2.0000      -2.612055       -71.0776
  36   2.0000      -2.609140       -70.9983
  37   2.0000      -2.608655       -70.9851
  38   2.0000      -2.162775       -58.8521
  39   2.0000      -2.157202       -58.7005
  40   2.0000      -2.131286       -57.9952
  41   2.0000      -1.139998       -31.0209
  42   2.0000      -1.022172       -27.8147
  43   2.0000      -0.847724       -23.0677
  44   2.0000      -0.840044       -22.8588
  45   2.0000      -0.805979       -21.9318
  46   2.0000      -0.773285       -21.0421
  47   2.0000      -0.737652       -20.0725
  48   2.0000      -0.721198       -19.6248
  49   2.0000      -0.708128       -19.2691
  50   2.0000      -0.679678       -18.4950
  51   2.0000      -0.657181       -17.8828
  52   2.0000      -0.635863       -17.3027
  53   2.0000      -0.608975       -16.5711
  54   2.0000      -0.571027       -15.5384
  55   2.0000      -0.564803       -15.3691
  56   2.0000      -0.540178       -14.6990
  57   2.0000      -0.527002       -14.3405
  58   2.0000      -0.520966       -14.1762
  59   2.0000      -0.462192       -12.5769
  60   2.0000      -0.453786       -12.3481
  61   2.0000      -0.441237       -12.0067
  62   2.0000      -0.422299       -11.4913
  63   2.0000      -0.413488       -11.2516
  64   2.0000      -0.411575       -11.1995
  65   2.0000      -0.403376       -10.9764
  66   2.0000      -0.398904       -10.8547
  67   2.0000      -0.394780       -10.7425
  68   2.0000      -0.373925       -10.1750
  69   2.0000      -0.371124       -10.0988
  70   2.0000      -0.365703        -9.9513
  71   2.0000      -0.364021        -9.9055
  72   2.0000      -0.347102        -9.4451
  73   2.0000      -0.340602        -9.2683
  74   2.0000      -0.330278        -8.9873
  75   2.0000      -0.324251        -8.8233
  76   2.0000      -0.321516        -8.7489
  77   2.0000      -0.313263        -8.5243
  78   2.0000      -0.309711        -8.4277
  79   2.0000      -0.295765        -8.0482
  80   2.0000      -0.291405        -7.9295
  81   2.0000      -0.277417        -7.5489
  82   2.0000      -0.270499        -7.3607
  83   2.0000      -0.257950        -7.0192
  84   2.0000      -0.254081        -6.9139
  85   2.0000      -0.248871        -6.7721
  86   2.0000      -0.231760        -6.3065
  87   2.0000      -0.214910        -5.8480
  88   2.0000      -0.213211        -5.8018
  89   2.0000      -0.194351        -5.2886
  90   2.0000      -0.183753        -5.0002
  91   2.0000      -0.176356        -4.7989
  92   2.0000      -0.174509        -4.7486
  93   2.0000      -0.170719        -4.6455
  94   2.0000      -0.165585        -4.5058
  95   2.0000      -0.154272        -4.1980
  96   2.0000      -0.147975        -4.0266
  97   2.0000      -0.127875        -3.4796
  98   2.0000      -0.110690        -3.0120
  99   2.0000      -0.096837        -2.6351
 100   0.0000       0.024032         0.6539
 101   0.0000       0.061042         1.6610
 102   0.0000       0.110602         3.0096
 103   0.0000       0.121699         3.3116
 104   0.0000       0.130278         3.5450

MULLIKEN ATOMIC CHARGES
-----------------------
   0 C :   -0.053583
   1 C :    0.050190
   2 C :   -0.310342
   3 C :   -0.232531
   4 C :   -0.207709
   5 C :   -0.270034
   6 H :    0.204456
   7 H :    0.238096
   8 H :    0.190814
   9 H :    0.183138
  10 H :    0.175794
  11 C :   -0.465862
  12 C :   -0.506841
  13 H :    0.199911
  14 H :    0.260721
  15 C :    0.057511
  16 H :    0.277325
  17 H :    0.193340
  18 C :   -0.119857
  19 C :   -0.278370
  20 C :   -0.226031
  21 C :   -0.253670
  22 C :   -0.224966
  23 H :    0.254025
  24 H :    0.184214
  25 H :    0.183540
  26 H :    0.181872
  27 Pd:    0.069075
  28 Br:   -0.386738
  29 P :   -0.144382
  30 H :    0.123818
  31 C :    0.554731
  32 O :   -0.288478
  33 O :   -0.619740
  34 O :   -0.605557
  35 H :    0.085731
  36 H :    0.132004
  37 H :    0.394383
Sum of atomic charges:   -1.0000000

LOEWDIN ATOMIC CHARGES
----------------------
   0 C :   -0.080216
   1 C :   -0.059917
   2 C :   -0.151669
   3 C :   -0.168438
   4 C :   -0.156163
   5 C :   -0.153462
   6 H :    0.266191
   7 H :    0.136955
   8 H :    0.120880
   9 H :    0.122088
  10 H :    0.117660
  11 C :   -0.215014
  12 C :   -0.216393
  13 H :    0.119655
  14 H :    0.153382
  15 C :   -0.047894
  16 H :    0.158716
  17 H :    0.115882
  18 C :   -0.020008
  19 C :   -0.125428
  20 C :   -0.153179
  21 C :   -0.149406
  22 C :   -0.160476
  23 H :    0.153810
  24 H :    0.121853
  25 H :    0.124301
  26 H :    0.120599
  27 Pd:   -0.885852
  28 Br:   -0.188857
  29 P :    0.406495
  30 H :    0.055805
  31 C :    0.140185
  32 O :   -0.090042
  33 O :   -0.439956
  34 O :   -0.355570
  35 H :    0.030789
  36 H :    0.064165
  37 H :    0.288528

  Mayer bond orders larger than 0.100000
B(  0-C ,  1-C ) :   1.4129 B(  0-C ,  2-C ) :   1.4604 B(  0-C ,  6-H ) :   0.3737
B(  0-C , 27-Pd) :   0.2584 B(  1-C ,  5-C ) :   1.4037 B(  1-C , 11-C ) :   0.9460
B(  2-C ,  3-C ) :   1.3401 B(  2-C ,  5-C ) :   0.1055 B(  2-C ,  7-H ) :   0.9040
B(  3-C ,  4-C ) :   1.4676 B(  3-C ,  9-H ) :   0.9262 B(  4-C ,  5-C ) :   1.3925
B(  4-C , 10-H ) :   0.9300 B(  5-C ,  8-H ) :   0.9181 B(  6-H , 27-Pd) :   0.2078
B(  6-H , 28-Br) :   0.2164 B( 11-C , 12-C ) :   0.9214 B( 11-C , 13-H ) :   0.9328
B( 11-C , 14-H ) :   0.8991 B( 12-C , 15-C ) :   0.9814 B( 12-C , 16-H ) :   0.8822
B( 12-C , 17-H ) :   0.9301 B( 15-C , 18-C ) :   1.3532 B( 15-C , 21-C ) :   1.3918
B( 18-C , 19-C ) :   1.4163 B( 18-C , 27-Pd) :   0.7503 B( 19-C , 20-C ) :   1.3963
B( 19-C , 21-C ) :   0.1043 B( 19-C , 23-H ) :   0.8903 B( 20-C , 22-C ) :   1.4430
B( 20-C , 24-H ) :   0.9274 B( 21-C , 22-C ) :   1.4126 B( 21-C , 25-H ) :   0.9234
B( 22-C , 26-H ) :   0.9288 B( 27-Pd, 28-Br) :   0.4198 B( 27-Pd, 29-P ) :   0.6606
B( 27-Pd, 33-O ) :   0.5115 B( 28-Br, 29-P ) :   0.1110 B( 29-P , 30-H ) :   0.9215
B( 29-P , 35-H ) :   0.9066 B( 29-P , 36-H ) :   0.9234 B( 31-C , 32-O ) :   2.1238
B( 31-C , 33-O ) :   1.1284 B( 31-C , 34-O ) :   1.0083 B( 34-O , 37-H ) :   0.7913

Dispersion correction           -0.031232944
FINAL SINGLE POINT ENERGY     -3847.357054263160
Dispersion correction            ... done

DIPOLE MOMENT
-------------
                                X             Y             Z
Electronic contribution:      3.63917     -71.42735     -38.02267
Nuclear contribution   :     -1.81807      72.10486      39.64505
                        -----------------------------------------
Total Dipole Moment    :      1.82110       0.67751       1.62238
                        -----------------------------------------
Magnitude (a.u.)       :      2.53132
Magnitude (Debye)      :      6.43409

Rotational constants in cm-1:     0.006779     0.006047     0.004235
Rotational constants in MHz :   203.240794   181.287274   126.967064

                             ****ORCA TERMINATED NORMALLY****
TOTAL RUN TIME: 0 days 0 hours 15 minutes 44 seconds 60 msec
