                         Program Version 5.0.3 -  RELEASE  -
|  1> ! EnGrad PBEh-3c
|  2> %output
|  3> xyzfile=True
|  4> end
|  5> %scf
|  6> maxiter 250
|  7> end
|  8> %output
|  9> Print[P_Hirshfeld] = 1
| 10> end
| 11> % maxcore
| 12> 4000
| 13> *xyz -1 1
| 14> C   -2.34767292  -0.15036366   0.83134132
| 15> C   -1.91618612   1.01434414   1.40334541
| 16> C   -3.69879694  -0.49205760   0.80152158
| 17> C   -4.65123938   0.41196362   1.29140196
| 18> C   -4.25720538   1.62339471   1.79158379
| 19> C   -2.90880192   1.87701179   1.97549676
| 20> H   -2.46057219  -1.37803154  -1.49774873
| 21> H   -3.99096910  -1.50507151   0.61923662
| 22> H   -2.58983421   2.84441542   2.32449531
| 23> H   -5.69538735   0.23111993   1.05972272
| 24> H   -4.98046652   2.32520677   2.19198427
| 25> C   -0.49305846   1.52418339   1.54149721
| 26> C    0.68640693   0.45152261   1.80938045
| 27> H   -0.40656454   2.27807085   2.30318605
| 28> H   -0.32159155   1.99497991   0.57777320
| 29> C    1.79368865   0.57057702   0.81295107
| 30> H    0.27235398  -0.54678681   1.81437076
| 31> H    1.07243813   0.65462695   2.80786256
| 32> C    1.71287929  -0.04918871  -0.44196484
| 33> C    2.73272443   0.16512886  -1.37695220
| 34> C    3.72212076   1.13003431  -1.11220306
| 35> C    2.84715496   1.44846884   1.08263726
| 36> C    3.80071740   1.74157776   0.10906396
| 37> H    2.78256387  -0.41226588  -2.28229694
| 38> H    4.47551843   1.32965986  -1.87589151
| 39> H    3.01351560   1.76721336   2.10580399
| 40> H    4.51122056   2.54630029   0.29458240
| 41> Pd   0.12317120  -1.39680184  -0.88261659
| 42> Br  -1.49837904  -3.66033276  -0.84432520
| 43> P    1.41715541  -2.99354401   0.10855264
| 44> H    0.88964824  -3.54673502   1.28816680
| 45> C    0.38082695  -1.43421257  -3.96096463
| 46> O    1.57571278  -1.65928310  -4.20393457
| 47> O   -0.48334539  -1.93455613  -3.12028051
| 48> O   -0.09091572  -0.11251814  -4.39873481
| 49> H    2.73042587  -2.78146209   0.54525938
| 50> H    1.62924784  -4.16481194  -0.63028033
| 51> H    0.61662312   0.29055468  -4.86323874
| 52> *
| 53>
| 54>                          ****END OF INPUT****

CARTESIAN COORDINATES (ANGSTROEM)
---------------------------------
  C     -2.347673   -0.150364    0.831341
  C     -1.916186    1.014344    1.403345
  C     -3.698797   -0.492058    0.801522
  C     -4.651239    0.411964    1.291402
  C     -4.257205    1.623395    1.791584
  C     -2.908802    1.877012    1.975497
  H     -2.460572   -1.378032   -1.497749
  H     -3.990969   -1.505072    0.619237
  H     -2.589834    2.844415    2.324495
  H     -5.695387    0.231120    1.059723
  H     -4.980467    2.325207    2.191984
  C     -0.493058    1.524183    1.541497
  C      0.686407    0.451523    1.809380
  H     -0.406565    2.278071    2.303186
  H     -0.321592    1.994980    0.577773
  C      1.793689    0.570577    0.812951
  H      0.272354   -0.546787    1.814371
  H      1.072438    0.654627    2.807863
  C      1.712879   -0.049189   -0.441965
  C      2.732724    0.165129   -1.376952
  C      3.722121    1.130034   -1.112203
  C      2.847155    1.448469    1.082637
  C      3.800717    1.741578    0.109064
  H      2.782564   -0.412266   -2.282297
  H      4.475518    1.329660   -1.875892
  H      3.013516    1.767213    2.105804
  H      4.511221    2.546300    0.294582
  Pd     0.123171   -1.396802   -0.882617
  Br    -1.498379   -3.660333   -0.844325
  P      1.417155   -2.993544    0.108553
  H      0.889648   -3.546735    1.288167
  C      0.380827   -1.434213   -3.960965
  O      1.575713   -1.659283   -4.203935
  O     -0.483345   -1.934556   -3.120281
  O     -0.090916   -0.112518   -4.398735
  H      2.730426   -2.781462    0.545259
  H      1.629248   -4.164812   -0.630280
  H      0.616623    0.290555   -4.863239

 Total Charge           Charge          ....   -1
 Multiplicity           Mult            ....    1
 Number of Electrons    NEL             ....  200
 Basis Dimension        Dim             ....  385

ORBITAL ENERGIES
----------------

  NO   OCC          E(Eh)            E(eV)
   0   2.0000    -484.346951    -13179.7506
   1   2.0000     -77.687302     -2113.9790
   2   2.0000     -63.008275     -1714.5423
   3   2.0000     -56.711852     -1543.2079
   4   2.0000     -56.711111     -1543.1878
   5   2.0000     -56.710724     -1543.1773
   6   2.0000     -19.339862      -526.2644
   7   2.0000     -19.303092      -525.2638
   8   2.0000     -19.298367      -525.1353
   9   2.0000     -10.435319      -283.9595
  10   2.0000     -10.360270      -281.9173
  11   2.0000     -10.358566      -281.8709
  12   2.0000     -10.355049      -281.7752
  13   2.0000     -10.354383      -281.7571
  14   2.0000     -10.350006      -281.6380
  15   2.0000     -10.349378      -281.6209
  16   2.0000     -10.348769      -281.6043
  17   2.0000     -10.347824      -281.5786
  18   2.0000     -10.347428      -281.5678
  19   2.0000     -10.346504      -281.5427
  20   2.0000     -10.344971      -281.5010
  21   2.0000     -10.343750      -281.4677
  22   2.0000     -10.342967      -281.4464
  23   2.0000     -10.340751      -281.3861
  24   2.0000      -8.835204      -240.4181
  25   2.0000      -6.761218      -183.9821
  26   2.0000      -6.604319      -179.7127
  27   2.0000      -6.601512      -179.6363
  28   2.0000      -6.598056      -179.5422
  29   2.0000      -4.852349      -132.0391
  30   2.0000      -4.852039      -132.0307
  31   2.0000      -4.850696      -131.9941
  32   2.0000      -3.527971       -96.0010
  33   2.0000      -2.618858       -71.2627
  34   2.0000      -2.618589       -71.2554
  35   2.0000      -2.615656       -71.1756
  36   2.0000      -2.613227       -71.1095
  37   2.0000      -2.612691       -71.0949
  38   2.0000      -2.174546       -59.1724
  39   2.0000      -2.169783       -59.0428
  40   2.0000      -2.144000       -58.3412
  41   2.0000      -1.020914       -27.7805
  42   2.0000      -0.923427       -25.1277
  43   2.0000      -0.898086       -24.4382
  44   2.0000      -0.857891       -23.3444
  45   2.0000      -0.852822       -23.2065
  46   2.0000      -0.785730       -21.3808
  47   2.0000      -0.749545       -20.3961
  48   2.0000      -0.728184       -19.8149
  49   2.0000      -0.725291       -19.7362
  50   2.0000      -0.688771       -18.7424
  51   2.0000      -0.663836       -18.0639
  52   2.0000      -0.643019       -17.4974
  53   2.0000      -0.625370       -17.0172
  54   2.0000      -0.577015       -15.7014
  55   2.0000      -0.573941       -15.6177
  56   2.0000      -0.551481       -15.0066
  57   2.0000      -0.534569       -14.5464
  58   2.0000      -0.482648       -13.1335
  59   2.0000      -0.469034       -12.7631
  60   2.0000      -0.467648       -12.7253
  61   2.0000      -0.434288       -11.8176
  62   2.0000      -0.417835       -11.3699
  63   2.0000      -0.411084       -11.1862
  64   2.0000      -0.403774       -10.9873
  65   2.0000      -0.384657       -10.4670
  66   2.0000      -0.381949       -10.3934
  67   2.0000      -0.378229       -10.2921
  68   2.0000      -0.376775       -10.2526
  69   2.0000      -0.374150       -10.1811
  70   2.0000      -0.359068        -9.7707
  71   2.0000      -0.352109        -9.5814
  72   2.0000      -0.348794        -9.4912
  73   2.0000      -0.343224        -9.3396
  74   2.0000      -0.337440        -9.1822
  75   2.0000      -0.331397        -9.0178
  76   2.0000      -0.321609        -8.7514
  77   2.0000      -0.319210        -8.6861
  78   2.0000      -0.305474        -8.3124
  79   2.0000      -0.299995        -8.1633
  80   2.0000      -0.297681        -8.1003
  81   2.0000      -0.290892        -7.9156
  82   2.0000      -0.284580        -7.7438
  83   2.0000      -0.258970        -7.0469
  84   2.0000      -0.254630        -6.9288
  85   2.0000      -0.230741        -6.2788
  86   2.0000      -0.223890        -6.0924
  87   2.0000      -0.211267        -5.7489
  88   2.0000      -0.203715        -5.5434
  89   2.0000      -0.192537        -5.2392
  90   2.0000      -0.184033        -5.0078
  91   2.0000      -0.183017        -4.9801
  92   2.0000      -0.181100        -4.9280
  93   2.0000      -0.177306        -4.8247
  94   2.0000      -0.173525        -4.7218
  95   2.0000      -0.162154        -4.4124
  96   2.0000      -0.156406        -4.2560
  97   2.0000      -0.149859        -4.0779
  98   2.0000      -0.140560        -3.8248
  99   2.0000      -0.114038        -3.1031
 100   0.0000      -0.001057        -0.0288
 101   0.0000       0.044284         1.2050
 102   0.0000       0.109769         2.9870
 103   0.0000       0.113725         3.0946
 104   0.0000       0.120876         3.2892

MULLIKEN ATOMIC CHARGES
-----------------------
   0 C :   -0.041062
   1 C :    0.044719
   2 C :   -0.294891
   3 C :   -0.235001
   4 C :   -0.210219
   5 C :   -0.265084
   6 H :    0.193297
   7 H :    0.240709
   8 H :    0.191483
   9 H :    0.192311
  10 H :    0.187071
  11 C :   -0.477195
  12 C :   -0.523435
  13 H :    0.211932
  14 H :    0.270250
  15 C :    0.100243
  16 H :    0.276924
  17 H :    0.205123
  18 C :   -0.140075
  19 C :   -0.268247
  20 C :   -0.236016
  21 C :   -0.273093
  22 C :   -0.221795
  23 H :    0.283934
  24 H :    0.195025
  25 H :    0.183543
  26 H :    0.187046
  27 Pd:    0.114787
  28 Br:   -0.419369
  29 P :   -0.137439
  30 H :    0.129023
  31 C :    0.673119
  32 O :   -0.539975
  33 O :   -0.556674
  34 O :   -0.671627
  35 H :    0.092230
  36 H :    0.145018
  37 H :    0.393404
Sum of atomic charges:   -1.0000000

LOEWDIN ATOMIC CHARGES
----------------------
   0 C :   -0.048876
   1 C :   -0.060421
   2 C :   -0.149121
   3 C :   -0.163705
   4 C :   -0.156699
   5 C :   -0.149748
   6 H :    0.247907
   7 H :    0.140296
   8 H :    0.123266
   9 H :    0.124345
  10 H :    0.122419
  11 C :   -0.215771
  12 C :   -0.213167
  13 H :    0.124913
  14 H :    0.157387
  15 C :   -0.048423
  16 H :    0.158107
  17 H :    0.119909
  18 C :   -0.004345
  19 C :   -0.118133
  20 C :   -0.147239
  21 C :   -0.147735
  22 C :   -0.158434
  23 H :    0.169443
  24 H :    0.126266
  25 H :    0.123435
  26 H :    0.123169
  27 Pd:   -0.784275
  28 Br:   -0.243667
  29 P :    0.413599
  30 H :    0.059926
  31 C :    0.175424
  32 O :   -0.358544
  33 O :   -0.311653
  34 O :   -0.426084
  35 H :    0.033698
  36 H :    0.071519
  37 H :    0.291009

  Mayer bond orders larger than 0.100000
B(  0-C ,  1-C ) :   1.4576 B(  0-C ,  2-C ) :   1.4220 B(  0-C ,  6-H ) :   0.4156
B(  0-C , 27-Pd) :   0.2608 B(  1-C ,  5-C ) :   1.3463 B(  1-C , 11-C ) :   0.9512
B(  2-C ,  3-C ) :   1.4025 B(  2-C ,  5-C ) :   0.1008 B(  2-C ,  7-H ) :   0.9039
B(  3-C ,  4-C ) :   1.4151 B(  3-C ,  9-H ) :   0.9243 B(  4-C ,  5-C ) :   1.4515
B(  4-C , 10-H ) :   0.9272 B(  5-C ,  8-H ) :   0.9190 B(  6-H , 27-Pd) :   0.1949
B(  6-H , 28-Br) :   0.2164 B( 11-C , 12-C ) :   0.9216 B( 11-C , 13-H ) :   0.9307
B( 11-C , 14-H ) :   0.8945 B( 12-C , 15-C ) :   0.9756 B( 12-C , 16-H ) :   0.8851
B( 12-C , 17-H ) :   0.9287 B( 15-C , 18-C ) :   1.3387 B( 15-C , 21-C ) :   1.4106
B( 18-C , 19-C ) :   1.4274 B( 18-C , 27-Pd) :   0.7830 B( 19-C , 20-C ) :   1.3882
B( 19-C , 23-H ) :   0.8666 B( 20-C , 22-C ) :   1.4455 B( 20-C , 24-H ) :   0.9254
B( 21-C , 22-C ) :   1.4058 B( 21-C , 25-H ) :   0.9248 B( 22-C , 26-H ) :   0.9280
B( 27-Pd, 28-Br) :   0.3691 B( 27-Pd, 29-P ) :   0.6744 B( 27-Pd, 33-O ) :   0.3223
B( 28-Br, 29-P ) :   0.1161 B( 29-P , 30-H ) :   0.9262 B( 29-P , 35-H ) :   0.9070
B( 29-P , 36-H ) :   0.9267 B( 31-C , 32-O ) :   1.7937 B( 31-C , 33-O ) :   1.4977
B( 31-C , 34-O ) :   0.9264 B( 34-O , 37-H ) :   0.7961

Dispersion correction           -0.031173526
FINAL SINGLE POINT ENERGY     -3847.449318228233
Dispersion correction            ... done

DIPOLE MOMENT
-------------
                                X             Y             Z
Electronic contribution:      5.23820     -68.31840     -35.41486
Nuclear contribution   :     -4.06903      69.21249      38.49912
                        -----------------------------------------
Total Dipole Moment    :      1.16917       0.89408       3.08427
                        -----------------------------------------
Magnitude (a.u.)       :      3.41746
Magnitude (Debye)      :      8.68650

Rotational constants in cm-1:     0.006699     0.006044     0.004212
Rotational constants in MHz :   200.817793   181.182281   126.277674

                             ****ORCA TERMINATED NORMALLY****
TOTAL RUN TIME: 0 days 0 hours 18 minutes 43 seconds 346 msec
