                         Program Version 5.0.3 -  RELEASE  -
|  1> ! EnGrad PBEh-3c
|  2> %output
|  3> xyzfile=True
|  4> end
|  5> %scf
|  6> maxiter 250
|  7> end
|  8> %output
|  9> Print[P_Hirshfeld] = 1
| 10> end
| 11> % maxcore
| 12> 4000
| 13> *xyz -1 1
| 14> C   -2.36426572  -0.20191962   0.86580348
| 15> C   -1.95300806   1.06599954   1.34486521
| 16> C   -3.70960873  -0.52236386   0.82786768
| 17> C   -4.67136103   0.36783892   1.36898880
| 18> C   -4.26859622   1.62756964   1.78997777
| 19> C   -2.90161518   1.91187782   1.88336526
| 20> H   -2.24647597  -1.37790755  -1.26919439
| 21> H   -3.99895058  -1.52796021   0.49164459
| 22> H   -2.54627439   2.80034054   2.45003234
| 23> H   -5.70676722   0.19618260   1.12027502
| 24> H   -4.97555795   2.36640468   2.17988681
| 25> C   -0.47139881   1.51456377   1.48993103
| 26> C    0.64935840   0.44896722   1.79990394
| 27> H   -0.44610109   2.30186400   2.26766219
| 28> H   -0.23844092   1.97271289   0.51199140
| 29> C    1.80305362   0.52501413   0.80527284
| 30> H    0.23687239  -0.56570350   1.78740675
| 31> H    1.05089402   0.68307211   2.80232649
| 32> C    1.71727551  -0.15043933  -0.44007747
| 33> C    2.72792986   0.14303356  -1.38244558
| 34> C    3.71028125   1.11375382  -1.12001497
| 35> C    2.80828466   1.49131450   1.06064490
| 36> C    3.78056035   1.75648354   0.10905653
| 37> H    2.74667581  -0.41025385  -2.32115767
| 38> H    4.46475988   1.32352670  -1.87438471
| 39> H    2.96990217   1.81062731   2.09551262
| 40> H    4.56170948   2.48765550   0.32362769
| 41> Pd   0.05905564  -1.48953003  -0.91205821
| 42> Br  -1.52357728  -3.54482127  -0.84475223
| 43> P    1.41261239  -2.95808391   0.11489298
| 44> H    0.87371812  -3.53925249   1.28353125
| 45> C    0.40635781  -1.30678439  -3.95083856
| 46> O    1.54597189  -1.66602757  -4.22822020
| 47> O   -0.45907373  -1.88555306  -3.05399973
| 48> O   -0.06077641  -0.13289415  -4.42405056
| 49> H    2.75487325  -2.75276479   0.57749456
| 50> H    1.60301058  -4.15032056  -0.63194358
| 51> H    0.64921889   0.27554644  -4.89985634
| 52> *
| 53>
| 54>                          ****END OF INPUT****

CARTESIAN COORDINATES (ANGSTROEM)
---------------------------------
  C     -2.364266   -0.201920    0.865803
  C     -1.953008    1.066000    1.344865
  C     -3.709609   -0.522364    0.827868
  C     -4.671361    0.367839    1.368989
  C     -4.268596    1.627570    1.789978
  C     -2.901615    1.911878    1.883365
  H     -2.246476   -1.377908   -1.269194
  H     -3.998951   -1.527960    0.491645
  H     -2.546274    2.800341    2.450032
  H     -5.706767    0.196183    1.120275
  H     -4.975558    2.366405    2.179887
  C     -0.471399    1.514564    1.489931
  C      0.649358    0.448967    1.799904
  H     -0.446101    2.301864    2.267662
  H     -0.238441    1.972713    0.511991
  C      1.803054    0.525014    0.805273
  H      0.236872   -0.565704    1.787407
  H      1.050894    0.683072    2.802326
  C      1.717276   -0.150439   -0.440077
  C      2.727930    0.143034   -1.382446
  C      3.710281    1.113754   -1.120015
  C      2.808285    1.491315    1.060645
  C      3.780560    1.756484    0.109057
  H      2.746676   -0.410254   -2.321158
  H      4.464760    1.323527   -1.874385
  H      2.969902    1.810627    2.095513
  H      4.561709    2.487655    0.323628
  Pd     0.059056   -1.489530   -0.912058
  Br    -1.523577   -3.544821   -0.844752
  P      1.412612   -2.958084    0.114893
  H      0.873718   -3.539252    1.283531
  C      0.406358   -1.306784   -3.950839
  O      1.545972   -1.666028   -4.228220
  O     -0.459074   -1.885553   -3.054000
  O     -0.060776   -0.132894   -4.424051
  H      2.754873   -2.752765    0.577495
  H      1.603011   -4.150321   -0.631944
  H      0.649219    0.275546   -4.899856

 Total Charge           Charge          ....   -1
 Multiplicity           Mult            ....    1
 Number of Electrons    NEL             ....  200
 Basis Dimension        Dim             ....  385

ORBITAL ENERGIES
----------------

  NO   OCC          E(Eh)            E(eV)
   0   2.0000    -484.356894    -13180.0211
   1   2.0000     -77.687300     -2113.9789
   2   2.0000     -63.018398     -1714.8178
   3   2.0000     -56.722153     -1543.4883
   4   2.0000     -56.721174     -1543.4616
   5   2.0000     -56.720672     -1543.4479
   6   2.0000     -19.381553      -527.3989
   7   2.0000     -19.308795      -525.4190
   8   2.0000     -19.297497      -525.1116
   9   2.0000     -10.443035      -284.1694
  10   2.0000     -10.357274      -281.8358
  11   2.0000     -10.352779      -281.7134
  12   2.0000     -10.352159      -281.6966
  13   2.0000     -10.348259      -281.5904
  14   2.0000     -10.347919      -281.5812
  15   2.0000     -10.347417      -281.5675
  16   2.0000     -10.346793      -281.5505
  17   2.0000     -10.345848      -281.5248
  18   2.0000     -10.344622      -281.4915
  19   2.0000     -10.344342      -281.4839
  20   2.0000     -10.343303      -281.4556
  21   2.0000     -10.340246      -281.3724
  22   2.0000     -10.339868      -281.3621
  23   2.0000     -10.339344      -281.3479
  24   2.0000      -8.845649      -240.7023
  25   2.0000      -6.759735      -183.9417
  26   2.0000      -6.615470      -180.0161
  27   2.0000      -6.611619      -179.9113
  28   2.0000      -6.608155      -179.8170
  29   2.0000      -4.850873      -131.9990
  30   2.0000      -4.850612      -131.9919
  31   2.0000      -4.849317      -131.9566
  32   2.0000      -3.525921       -95.9452
  33   2.0000      -2.629866       -71.5623
  34   2.0000      -2.629359       -71.5485
  35   2.0000      -2.626407       -71.4682
  36   2.0000      -2.623090       -71.3779
  37   2.0000      -2.622656       -71.3661
  38   2.0000      -2.172343       -59.1125
  39   2.0000      -2.167419       -58.9785
  40   2.0000      -2.141233       -58.2659
  41   2.0000      -1.068516       -29.0758
  42   2.0000      -0.952894       -25.9296
  43   2.0000      -0.877666       -23.8825
  44   2.0000      -0.847206       -23.0536
  45   2.0000      -0.842738       -22.9321
  46   2.0000      -0.774812       -21.0837
  47   2.0000      -0.737989       -20.0817
  48   2.0000      -0.722972       -19.6731
  49   2.0000      -0.715410       -19.4673
  50   2.0000      -0.680744       -18.5240
  51   2.0000      -0.670304       -18.2399
  52   2.0000      -0.643441       -17.5089
  53   2.0000      -0.611380       -16.6365
  54   2.0000      -0.566130       -15.4052
  55   2.0000      -0.557718       -15.1763
  56   2.0000      -0.547510       -14.8985
  57   2.0000      -0.535484       -14.5713
  58   2.0000      -0.530016       -14.4225
  59   2.0000      -0.461170       -12.5491
  60   2.0000      -0.456380       -12.4187
  61   2.0000      -0.425247       -11.5716
  62   2.0000      -0.408799       -11.1240
  63   2.0000      -0.402097       -10.9416
  64   2.0000      -0.395298       -10.7566
  65   2.0000      -0.392382       -10.6772
  66   2.0000      -0.378760       -10.3066
  67   2.0000      -0.373400       -10.1607
  68   2.0000      -0.373196       -10.1552
  69   2.0000      -0.369555       -10.0561
  70   2.0000      -0.367214        -9.9924
  71   2.0000      -0.360512        -9.8100
  72   2.0000      -0.355030        -9.6608
  73   2.0000      -0.342034        -9.3072
  74   2.0000      -0.334879        -9.1125
  75   2.0000      -0.329011        -8.9528
  76   2.0000      -0.319115        -8.6836
  77   2.0000      -0.311515        -8.4768
  78   2.0000      -0.306614        -8.3434
  79   2.0000      -0.297932        -8.1071
  80   2.0000      -0.292751        -7.9662
  81   2.0000      -0.275321        -7.4919
  82   2.0000      -0.272765        -7.4223
  83   2.0000      -0.262344        -7.1387
  84   2.0000      -0.260975        -7.1015
  85   2.0000      -0.236887        -6.4460
  86   2.0000      -0.232878        -6.3369
  87   2.0000      -0.221918        -6.0387
  88   2.0000      -0.206467        -5.6183
  89   2.0000      -0.203510        -5.5378
  90   2.0000      -0.184409        -5.0180
  91   2.0000      -0.181684        -4.9439
  92   2.0000      -0.180993        -4.9251
  93   2.0000      -0.173685        -4.7262
  94   2.0000      -0.172479        -4.6934
  95   2.0000      -0.162272        -4.4156
  96   2.0000      -0.161895        -4.4054
  97   2.0000      -0.145090        -3.9481
  98   2.0000      -0.129639        -3.5277
  99   2.0000      -0.112244        -3.0543
 100   0.0000       0.023062         0.6275
 101   0.0000       0.058751         1.5987
 102   0.0000       0.113620         3.0918
 103   0.0000       0.121463         3.3052
 104   0.0000       0.124660         3.3922

MULLIKEN ATOMIC CHARGES
-----------------------
   0 C :   -0.051713
   1 C :    0.045805
   2 C :   -0.301060
   3 C :   -0.229905
   4 C :   -0.223612
   5 C :   -0.257140
   6 H :    0.200055
   7 H :    0.232669
   8 H :    0.184990
   9 H :    0.187924
  10 H :    0.185176
  11 C :   -0.461993
  12 C :   -0.501265
  13 H :    0.194007
  14 H :    0.263496
  15 C :    0.042760
  16 H :    0.273848
  17 H :    0.194796
  18 C :   -0.119095
  19 C :   -0.285902
  20 C :   -0.227561
  21 C :   -0.244975
  22 C :   -0.230837
  23 H :    0.273165
  24 H :    0.191326
  25 H :    0.179960
  26 H :    0.186431
  27 Pd:    0.069315
  28 Br:   -0.354798
  29 P :   -0.134002
  30 H :    0.123548
  31 C :    0.673710
  32 O :   -0.525172
  33 O :   -0.599686
  34 O :   -0.592714
  35 H :    0.093209
  36 H :    0.136271
  37 H :    0.408969
Sum of atomic charges:   -1.0000000

LOEWDIN ATOMIC CHARGES
----------------------
   0 C :   -0.080931
   1 C :   -0.055738
   2 C :   -0.155622
   3 C :   -0.165594
   4 C :   -0.154611
   5 C :   -0.152423
   6 H :    0.265520
   7 H :    0.136963
   8 H :    0.119747
   9 H :    0.123794
  10 H :    0.121009
  11 C :   -0.213340
  12 C :   -0.217271
  13 H :    0.118742
  14 H :    0.154346
  15 C :   -0.047583
  16 H :    0.158176
  17 H :    0.116882
  18 C :   -0.028122
  19 C :   -0.124470
  20 C :   -0.153368
  21 C :   -0.152619
  22 C :   -0.158025
  23 H :    0.163869
  24 H :    0.124301
  25 H :    0.123427
  26 H :    0.121239
  27 Pd:   -0.891008
  28 Br:   -0.141577
  29 P :    0.419657
  30 H :    0.055788
  31 C :    0.153984
  32 O :   -0.340381
  33 O :   -0.341196
  34 O :   -0.318073
  35 H :    0.036791
  36 H :    0.067739
  37 H :    0.309976

  Mayer bond orders larger than 0.100000
B(  0-C ,  1-C ) :   1.3712 B(  0-C ,  2-C ) :   1.4693 B(  0-C ,  6-H ) :   0.3948
B(  0-C , 27-Pd) :   0.2641 B(  1-C ,  5-C ) :   1.4237 B(  1-C , 11-C ) :   0.9507
B(  2-C ,  3-C ) :   1.3473 B(  2-C ,  7-H ) :   0.9042 B(  3-C ,  4-C ) :   1.4594
B(  3-C ,  9-H ) :   0.9252 B(  4-C ,  5-C ) :   1.3915 B(  4-C , 10-H ) :   0.9286
B(  5-C ,  8-H ) :   0.9196 B(  6-H , 27-Pd) :   0.2126 B(  6-H , 28-Br) :   0.2232
B( 11-C , 12-C ) :   0.9180 B( 11-C , 13-H ) :   0.9344 B( 11-C , 14-H ) :   0.8970
B( 12-C , 15-C ) :   0.9815 B( 12-C , 16-H ) :   0.8846 B( 12-C , 17-H ) :   0.9301
B( 15-C , 18-C ) :   1.3556 B( 15-C , 21-C ) :   1.3797 B( 18-C , 19-C ) :   1.4086
B( 18-C , 27-Pd) :   0.7198 B( 18-C , 28-Br) :   0.1015 B( 19-C , 20-C ) :   1.4082
B( 19-C , 23-H ) :   0.8714 B( 20-C , 22-C ) :   1.4236 B( 20-C , 24-H ) :   0.9264
B( 21-C , 22-C ) :   1.4322 B( 21-C , 25-H ) :   0.9245 B( 22-C , 26-H ) :   0.9275
B( 27-Pd, 28-Br) :   0.4639 B( 27-Pd, 29-P ) :   0.6829 B( 27-Pd, 33-O ) :   0.4260
B( 28-Br, 29-P ) :   0.1015 B( 29-P , 30-H ) :   0.9206 B( 29-P , 35-H ) :   0.9088
B( 29-P , 36-H ) :   0.9229 B( 31-C , 32-O ) :   1.8294 B( 31-C , 33-O ) :   1.3417
B( 31-C , 34-O ) :   1.0672 B( 34-O , 37-H ) :   0.7802

Dispersion correction           -0.031331883
FINAL SINGLE POINT ENERGY     -3847.476649370102
Dispersion correction            ... done

DIPOLE MOMENT
-------------
                                X             Y             Z
Electronic contribution:      1.85846     -73.54609     -37.69593
Nuclear contribution   :     -0.69762      74.26426      40.05229
                        -----------------------------------------
Total Dipole Moment    :      1.16083       0.71817       2.35636
                        -----------------------------------------
Magnitude (a.u.)       :      2.72318
Magnitude (Debye)      :      6.92178

Rotational constants in cm-1:     0.006852     0.006062     0.004257
Rotational constants in MHz :   205.410281   181.726274   127.610882

                             ****ORCA TERMINATED NORMALLY****
TOTAL RUN TIME: 0 days 0 hours 15 minutes 30 seconds 246 msec
