                         Program Version 5.0.3 -  RELEASE  -
|  1> ! EnGrad PBEh-3c
|  2> %output
|  3> xyzfile=True
|  4> end
|  5> %scf
|  6> maxiter 250
|  7> end
|  8> %output
|  9> Print[P_Hirshfeld] = 1
| 10> end
| 11> % maxcore
| 12> 4000
| 13> *xyz -1 1
| 14> C   -2.35857678  -0.20669256   0.84056517
| 15> C   -1.92574548   1.06573594   1.34609129
| 16> C   -3.71024517  -0.53821099   0.85706849
| 17> C   -4.66004854   0.35590362   1.34827422
| 18> C   -4.26432034   1.63502118   1.80341071
| 19> C   -2.90355458   1.93629635   1.86187433
| 20> H   -2.13092542  -1.40274048  -1.17341211
| 21> H   -3.99586683  -1.51547826   0.43409775
| 22> H   -2.54058412   2.77355405   2.48221517
| 23> H   -5.71421755   0.17619574   1.15043081
| 24> H   -4.96976707   2.37300288   2.16186319
| 25> C   -0.47187744   1.49446946   1.45320771
| 26> C    0.63596351   0.46140707   1.79815163
| 27> H   -0.46079373   2.30106809   2.25668140
| 28> H   -0.19922710   1.97591105   0.51799158
| 29> C    1.77992313   0.52530439   0.80061416
| 30> H    0.22191049  -0.56787065   1.78845478
| 31> H    1.03929641   0.68480742   2.79682036
| 32> C    1.70990361  -0.17562370  -0.44474015
| 33> C    2.71381882   0.13501839  -1.36828733
| 34> C    3.69820597   1.09325915  -1.13464860
| 35> C    2.79865534   1.46861230   1.05571888
| 36> C    3.76634206   1.76995808   0.11266618
| 37> H    2.72562849  -0.40286470  -2.33641577
| 38> H    4.45127298   1.31948647  -1.87246418
| 39> H    2.94251201   1.83672287   2.08143344
| 40> H    4.57543780   2.45782539   0.32964947
| 41> Pd   0.06082778  -1.50972599  -0.88399932
| 42> Br  -1.55838120  -3.49451068  -0.84514358
| 43> P    1.41494700  -2.94730580   0.11697535
| 44> H    0.87828869  -3.53520729   1.27477044
| 45> C    0.48663250  -1.26612374  -3.92490115
| 46> O    1.48131667  -1.66113766  -4.22878796
| 47> O   -0.46429276  -1.86773057  -3.06257965
| 48> O   -0.09633281  -0.14966418  -4.41250476
| 49> H    2.75228514  -2.74215722   0.57411102
| 50> H    1.59250653  -4.13506165  -0.63403470
| 51> H    0.68653776   0.27844935  -4.92302526
| 52> *
| 53>
| 54>                          ****END OF INPUT****

CARTESIAN COORDINATES (ANGSTROEM)
---------------------------------
  C     -2.358577   -0.206693    0.840565
  C     -1.925745    1.065736    1.346091
  C     -3.710245   -0.538211    0.857068
  C     -4.660049    0.355904    1.348274
  C     -4.264320    1.635021    1.803411
  C     -2.903555    1.936296    1.861874
  H     -2.130925   -1.402740   -1.173412
  H     -3.995867   -1.515478    0.434098
  H     -2.540584    2.773554    2.482215
  H     -5.714218    0.176196    1.150431
  H     -4.969767    2.373003    2.161863
  C     -0.471877    1.494469    1.453208
  C      0.635964    0.461407    1.798152
  H     -0.460794    2.301068    2.256681
  H     -0.199227    1.975911    0.517992
  C      1.779923    0.525304    0.800614
  H      0.221910   -0.567871    1.788455
  H      1.039296    0.684807    2.796820
  C      1.709904   -0.175624   -0.444740
  C      2.713819    0.135018   -1.368287
  C      3.698206    1.093259   -1.134649
  C      2.798655    1.468612    1.055719
  C      3.766342    1.769958    0.112666
  H      2.725628   -0.402865   -2.336416
  H      4.451273    1.319486   -1.872464
  H      2.942512    1.836723    2.081433
  H      4.575438    2.457825    0.329649
  Pd     0.060828   -1.509726   -0.883999
  Br    -1.558381   -3.494511   -0.845144
  P      1.414947   -2.947306    0.116975
  H      0.878289   -3.535207    1.274770
  C      0.486633   -1.266124   -3.924901
  O      1.481317   -1.661138   -4.228788
  O     -0.464293   -1.867731   -3.062580
  O     -0.096333   -0.149664   -4.412505
  H      2.752285   -2.742157    0.574111
  H      1.592507   -4.135062   -0.634035
  H      0.686538    0.278449   -4.923025

 Total Charge           Charge          ....   -1
 Multiplicity           Mult            ....    1
 Number of Electrons    NEL             ....  200
 Basis Dimension        Dim             ....  385

ORBITAL ENERGIES
----------------

  NO   OCC          E(Eh)            E(eV)
   0   2.0000    -484.361326    -13180.1418
   1   2.0000     -77.685242     -2113.9229
   2   2.0000     -63.022878     -1714.9397
   3   2.0000     -56.726719     -1543.6125
   4   2.0000     -56.725595     -1543.5819
   5   2.0000     -56.725100     -1543.5684
   6   2.0000     -19.384634      -527.4827
   7   2.0000     -19.330385      -526.0065
   8   2.0000     -19.282578      -524.7056
   9   2.0000     -10.434245      -283.9302
  10   2.0000     -10.356771      -281.8221
  11   2.0000     -10.352364      -281.7022
  12   2.0000     -10.349618      -281.6274
  13   2.0000     -10.347867      -281.5798
  14   2.0000     -10.347196      -281.5615
  15   2.0000     -10.347123      -281.5595
  16   2.0000     -10.343270      -281.4547
  17   2.0000     -10.340529      -281.3801
  18   2.0000     -10.340486      -281.3789
  19   2.0000     -10.340419      -281.3771
  20   2.0000     -10.339695      -281.3574
  21   2.0000     -10.339132      -281.3421
  22   2.0000     -10.337199      -281.2895
  23   2.0000     -10.332873      -281.1718
  24   2.0000      -8.850241      -240.8273
  25   2.0000      -6.758426      -183.9061
  26   2.0000      -6.620411      -180.1505
  27   2.0000      -6.616061      -180.0322
  28   2.0000      -6.612542      -179.9364
  29   2.0000      -4.849505      -131.9617
  30   2.0000      -4.849237      -131.9544
  31   2.0000      -4.848021      -131.9214
  32   2.0000      -3.527960       -96.0007
  33   2.0000      -2.634786       -71.6962
  34   2.0000      -2.634080       -71.6770
  35   2.0000      -2.631114       -71.5962
  36   2.0000      -2.627390       -71.4949
  37   2.0000      -2.626981       -71.4838
  38   2.0000      -2.174674       -59.1759
  39   2.0000      -2.169539       -59.0362
  40   2.0000      -2.142514       -58.3008
  41   2.0000      -1.099015       -29.9057
  42   2.0000      -0.992435       -27.0055
  43   2.0000      -0.852947       -23.2099
  44   2.0000      -0.845233       -23.0000
  45   2.0000      -0.833917       -22.6920
  46   2.0000      -0.775531       -21.1033
  47   2.0000      -0.734110       -19.9762
  48   2.0000      -0.724323       -19.7098
  49   2.0000      -0.709879       -19.3168
  50   2.0000      -0.677288       -18.4300
  51   2.0000      -0.673957       -18.3393
  52   2.0000      -0.646402       -17.5895
  53   2.0000      -0.609183       -16.5767
  54   2.0000      -0.563879       -15.3439
  55   2.0000      -0.550708       -14.9855
  56   2.0000      -0.546474       -14.8703
  57   2.0000      -0.526847       -14.3362
  58   2.0000      -0.505304       -13.7500
  59   2.0000      -0.461264       -12.5516
  60   2.0000      -0.452085       -12.3019
  61   2.0000      -0.424590       -11.5537
  62   2.0000      -0.410843       -11.1796
  63   2.0000      -0.407961       -11.1012
  64   2.0000      -0.399073       -10.8593
  65   2.0000      -0.393124       -10.6974
  66   2.0000      -0.388652       -10.5758
  67   2.0000      -0.383740       -10.4421
  68   2.0000      -0.378194       -10.2912
  69   2.0000      -0.371110       -10.0984
  70   2.0000      -0.369592       -10.0571
  71   2.0000      -0.363338        -9.8869
  72   2.0000      -0.358721        -9.7613
  73   2.0000      -0.343185        -9.3385
  74   2.0000      -0.337264        -9.1774
  75   2.0000      -0.327385        -8.9086
  76   2.0000      -0.315559        -8.5868
  77   2.0000      -0.312976        -8.5165
  78   2.0000      -0.305899        -8.3239
  79   2.0000      -0.295592        -8.0435
  80   2.0000      -0.288677        -7.8553
  81   2.0000      -0.277829        -7.5601
  82   2.0000      -0.269945        -7.3456
  83   2.0000      -0.266634        -7.2555
  84   2.0000      -0.262713        -7.1488
  85   2.0000      -0.242662        -6.6032
  86   2.0000      -0.238624        -6.4933
  87   2.0000      -0.226553        -6.1648
  88   2.0000      -0.221578        -6.0294
  89   2.0000      -0.203898        -5.5483
  90   2.0000      -0.188349        -5.1252
  91   2.0000      -0.184050        -5.0082
  92   2.0000      -0.177742        -4.8366
  93   2.0000      -0.172870        -4.7040
  94   2.0000      -0.165350        -4.4994
  95   2.0000      -0.163964        -4.4617
  96   2.0000      -0.160908        -4.3785
  97   2.0000      -0.138078        -3.7573
  98   2.0000      -0.121549        -3.3075
  99   2.0000      -0.107795        -2.9333
 100   0.0000       0.038078         1.0362
 101   0.0000       0.067790         1.8447
 102   0.0000       0.117058         3.1853
 103   0.0000       0.119954         3.2641
 104   0.0000       0.128992         3.5100

MULLIKEN ATOMIC CHARGES
-----------------------
   0 C :   -0.074724
   1 C :    0.030199
   2 C :   -0.287830
   3 C :   -0.223952
   4 C :   -0.234777
   5 C :   -0.249969
   6 H :    0.213145
   7 H :    0.227160
   8 H :    0.177957
   9 H :    0.183710
  10 H :    0.185855
  11 C :   -0.458941
  12 C :   -0.501854
  13 H :    0.181653
  14 H :    0.270088
  15 C :    0.050155
  16 H :    0.271173
  17 H :    0.198875
  18 C :   -0.111013
  19 C :   -0.283569
  20 C :   -0.232836
  21 C :   -0.249587
  22 C :   -0.231433
  23 H :    0.253357
  24 H :    0.191637
  25 H :    0.178772
  26 H :    0.188734
  27 Pd:    0.052731
  28 Br:   -0.327571
  29 P :   -0.138850
  30 H :    0.122522
  31 C :    0.621307
  32 O :   -0.392970
  33 O :   -0.626301
  34 O :   -0.576300
  35 H :    0.095073
  36 H :    0.131925
  37 H :    0.376449
Sum of atomic charges:   -1.0000000

LOEWDIN ATOMIC CHARGES
----------------------
   0 C :   -0.101125
   1 C :   -0.059775
   2 C :   -0.159272
   3 C :   -0.161445
   4 C :   -0.162096
   5 C :   -0.155017
   6 H :    0.279092
   7 H :    0.135900
   8 H :    0.118593
   9 H :    0.121217
  10 H :    0.121022
  11 C :   -0.210852
  12 C :   -0.217554
  13 H :    0.115339
  14 H :    0.154010
  15 C :   -0.044891
  16 H :    0.159065
  17 H :    0.117904
  18 C :   -0.030733
  19 C :   -0.129878
  20 C :   -0.154060
  21 C :   -0.150656
  22 C :   -0.160099
  23 H :    0.156870
  24 H :    0.123698
  25 H :    0.121957
  26 H :    0.121698
  27 Pd:   -0.916542
  28 Br:   -0.110015
  29 P :    0.420666
  30 H :    0.054881
  31 C :    0.077123
  32 O :   -0.187055
  33 O :   -0.380419
  34 O :   -0.315642
  35 H :    0.038554
  36 H :    0.065195
  37 H :    0.304339

  Mayer bond orders larger than 0.100000
B(  0-C ,  1-C ) :   1.4062 B(  0-C ,  2-C ) :   1.4389 B(  0-C ,  6-H ) :   0.3786
B(  0-C , 27-Pd) :   0.2602 B(  1-C ,  5-C ) :   1.4054 B(  1-C , 11-C ) :   0.9549
B(  2-C ,  3-C ) :   1.3903 B(  2-C ,  7-H ) :   0.9073 B(  3-C ,  4-C ) :   1.4316
B(  3-C ,  9-H ) :   0.9259 B(  4-C ,  5-C ) :   1.4199 B(  4-C , 10-H ) :   0.9285
B(  5-C ,  8-H ) :   0.9193 B(  6-H , 27-Pd) :   0.2095 B(  6-H , 28-Br) :   0.2503
B( 11-C , 12-C ) :   0.9142 B( 11-C , 13-H ) :   0.9390 B( 11-C , 14-H ) :   0.8929
B( 12-C , 15-C ) :   0.9776 B( 12-C , 16-H ) :   0.8844 B( 12-C , 17-H ) :   0.9298
B( 15-C , 18-C ) :   1.3555 B( 15-C , 21-C ) :   1.3778 B( 18-C , 19-C ) :   1.4046
B( 18-C , 27-Pd) :   0.7155 B( 18-C , 28-Br) :   0.1052 B( 19-C , 20-C ) :   1.4184
B( 19-C , 23-H ) :   0.8851 B( 20-C , 22-C ) :   1.4106 B( 20-C , 24-H ) :   0.9263
B( 21-C , 22-C ) :   1.4444 B( 21-C , 25-H ) :   0.9260 B( 22-C , 26-H ) :   0.9265
B( 27-Pd, 28-Br) :   0.4776 B( 27-Pd, 29-P ) :   0.7043 B( 27-Pd, 33-O ) :   0.4774
B( 29-P , 30-H ) :   0.9196 B( 29-P , 35-H ) :   0.9108 B( 29-P , 36-H ) :   0.9222
B( 31-C , 32-O ) :   2.0101 B( 31-C , 33-O ) :   1.2463 B( 31-C , 34-O ) :   1.0564
B( 34-O , 37-H ) :   0.8015

Dispersion correction           -0.031503347
FINAL SINGLE POINT ENERGY     -3847.462377856787
Dispersion correction            ... done

DIPOLE MOMENT
-------------
                                X             Y             Z
Electronic contribution:      2.48910     -74.91840     -36.45969
Nuclear contribution   :     -0.88862      75.36297      38.53180
                        -----------------------------------------
Total Dipole Moment    :      1.60049       0.44456       2.07211
                        -----------------------------------------
Magnitude (a.u.)       :      2.65572
Magnitude (Debye)      :      6.75030

Rotational constants in cm-1:     0.006919     0.006098     0.004289
Rotational constants in MHz :   207.425107   182.799273   128.566082

                             ****ORCA TERMINATED NORMALLY****
TOTAL RUN TIME: 0 days 0 hours 14 minutes 55 seconds 289 msec
