                         Program Version 5.0.3 -  RELEASE  -
|  1> ! EnGrad PBEh-3c
|  2> %output
|  3> xyzfile=True
|  4> end
|  5> %scf
|  6> maxiter 250
|  7> end
|  8> %output
|  9> Print[P_Hirshfeld] = 1
| 10> end
| 11> % maxcore
| 12> 4000
| 13> *xyz -1 1
| 14> C   -2.34378677  -0.12270826   0.72994584
| 15> C   -1.90193964   0.94244057   1.53942563
| 16> C   -3.68818254  -0.47367845   0.87071349
| 17> C   -4.64475341   0.48535931   1.17633093
| 18> C   -4.22827412   1.60819656   1.86973352
| 19> C   -2.86939908   1.83326340   2.02686436
| 20> H   -2.62551002  -1.36941838  -1.60456461
| 21> H   -4.03172844  -1.48838237   0.72015700
| 22> H   -2.63111472   2.86798050   2.26868705
| 23> H   -5.70253747   0.27169755   1.08090588
| 24> H   -4.96679810   2.31194316   2.23535431
| 25> C   -0.48877034   1.47025710   1.50189701
| 26> C    0.64878738   0.49962548   1.78995234
| 27> H   -0.35642000   2.26725731   2.24773195
| 28> H   -0.41174677   2.01307884   0.55432939
| 29> C    1.77128378   0.62253144   0.79298729
| 30> H    0.29649373  -0.53401550   1.83577657
| 31> H    1.07061021   0.63794956   2.79630516
| 32> C    1.68579088  -0.00173810  -0.46109281
| 33> C    2.74874880   0.18058042  -1.34563788
| 34> C    3.75229549   1.11437071  -1.10893485
| 35> C    2.90726381   1.37068869   1.10410033
| 36> C    3.79179879   1.77187297   0.11051577
| 37> H    2.82923967  -0.40787756  -2.25088259
| 38> H    4.49492922   1.33538604  -1.86694002
| 39> H    3.01333704   1.78419544   2.10205245
| 40> H    4.47201765   2.59971261   0.27152217
| 41> Pd   0.27017680  -1.32433083  -0.81397210
| 42> Br  -1.48193739  -3.79031491  -0.89468303
| 43> P    1.37499912  -3.00622733   0.09742840
| 44> H    0.87411443  -3.55227786   1.29126449
| 45> C    0.44046812  -1.30115584  -3.88099355
| 46> O    1.52887088  -1.72972025  -4.19234264
| 47> O   -0.44359105  -1.98943416  -3.26174513
| 48> O   -0.11130829  -0.18751751  -4.40917505
| 49> H    2.69623020  -2.80395587   0.55040856
| 50> H    1.66564569  -4.18625764  -0.61012800
| 51> H    0.59469046   0.28062415  -4.86328114
| 52> *
| 53>
| 54>                          ****END OF INPUT****

CARTESIAN COORDINATES (ANGSTROEM)
---------------------------------
  C     -2.343787   -0.122708    0.729946
  C     -1.901940    0.942441    1.539426
  C     -3.688183   -0.473678    0.870713
  C     -4.644753    0.485359    1.176331
  C     -4.228274    1.608197    1.869734
  C     -2.869399    1.833263    2.026864
  H     -2.625510   -1.369418   -1.604565
  H     -4.031728   -1.488382    0.720157
  H     -2.631115    2.867980    2.268687
  H     -5.702537    0.271698    1.080906
  H     -4.966798    2.311943    2.235354
  C     -0.488770    1.470257    1.501897
  C      0.648787    0.499625    1.789952
  H     -0.356420    2.267257    2.247732
  H     -0.411747    2.013079    0.554329
  C      1.771284    0.622531    0.792987
  H      0.296494   -0.534015    1.835777
  H      1.070610    0.637950    2.796305
  C      1.685791   -0.001738   -0.461093
  C      2.748749    0.180580   -1.345638
  C      3.752295    1.114371   -1.108935
  C      2.907264    1.370689    1.104100
  C      3.791799    1.771873    0.110516
  H      2.829240   -0.407878   -2.250883
  H      4.494929    1.335386   -1.866940
  H      3.013337    1.784195    2.102052
  H      4.472018    2.599713    0.271522
  Pd     0.270177   -1.324331   -0.813972
  Br    -1.481937   -3.790315   -0.894683
  P      1.374999   -3.006227    0.097428
  H      0.874114   -3.552278    1.291264
  C      0.440468   -1.301156   -3.880994
  O      1.528871   -1.729720   -4.192343
  O     -0.443591   -1.989434   -3.261745
  O     -0.111308   -0.187518   -4.409175
  H      2.696230   -2.803956    0.550409
  H      1.665646   -4.186258   -0.610128
  H      0.594690    0.280624   -4.863281

 Total Charge           Charge          ....   -1
 Multiplicity           Mult            ....    1
 Number of Electrons    NEL             ....  200
 Basis Dimension        Dim             ....  385

ORBITAL ENERGIES
----------------

  NO   OCC          E(Eh)            E(eV)
   0   2.0000    -484.337259    -13179.4868
   1   2.0000     -77.688456     -2114.0104
   2   2.0000     -62.998535     -1714.2773
   3   2.0000     -56.701930     -1542.9380
   4   2.0000     -56.701419     -1542.9241
   5   2.0000     -56.701130     -1542.9162
   6   2.0000     -19.367775      -527.0239
   7   2.0000     -19.282713      -524.7093
   8   2.0000     -19.272456      -524.4302
   9   2.0000     -10.411890      -283.3219
  10   2.0000     -10.361984      -281.9639
  11   2.0000     -10.360459      -281.9224
  12   2.0000     -10.360376      -281.9202
  13   2.0000     -10.358061      -281.8572
  14   2.0000     -10.355046      -281.7751
  15   2.0000     -10.354141      -281.7505
  16   2.0000     -10.351023      -281.6657
  17   2.0000     -10.346451      -281.5412
  18   2.0000     -10.345267      -281.5090
  19   2.0000     -10.344471      -281.4874
  20   2.0000     -10.343549      -281.4623
  21   2.0000     -10.343074      -281.4493
  22   2.0000     -10.342212      -281.4259
  23   2.0000     -10.341418      -281.4043
  24   2.0000      -8.825331      -240.1495
  25   2.0000      -6.762218      -184.0093
  26   2.0000      -6.593868      -179.4283
  27   2.0000      -6.592037      -179.3784
  28   2.0000      -6.588339      -179.2778
  29   2.0000      -4.853314      -132.0654
  30   2.0000      -4.852966      -132.0559
  31   2.0000      -4.851926      -132.0276
  32   2.0000      -3.544439       -96.4491
  33   2.0000      -2.608655       -70.9851
  34   2.0000      -2.608527       -70.9816
  35   2.0000      -2.605417       -70.8970
  36   2.0000      -2.603830       -70.8538
  37   2.0000      -2.603111       -70.8343
  38   2.0000      -2.193257       -59.6815
  39   2.0000      -2.187038       -59.5123
  40   2.0000      -2.159896       -58.7737
  41   2.0000      -1.057509       -28.7763
  42   2.0000      -0.946515       -25.7560
  43   2.0000      -0.882530       -24.0149
  44   2.0000      -0.864259       -23.5177
  45   2.0000      -0.853819       -23.2336
  46   2.0000      -0.795007       -21.6332
  47   2.0000      -0.750902       -20.4331
  48   2.0000      -0.735196       -20.0057
  49   2.0000      -0.722486       -19.6598
  50   2.0000      -0.696273       -18.9465
  51   2.0000      -0.660380       -17.9698
  52   2.0000      -0.633746       -17.2451
  53   2.0000      -0.624340       -16.9892
  54   2.0000      -0.580998       -15.8098
  55   2.0000      -0.566316       -15.4103
  56   2.0000      -0.557624       -15.1737
  57   2.0000      -0.536425       -14.5969
  58   2.0000      -0.512298       -13.9403
  59   2.0000      -0.477095       -12.9824
  60   2.0000      -0.467538       -12.7224
  61   2.0000      -0.439232       -11.9521
  62   2.0000      -0.420962       -11.4550
  63   2.0000      -0.412206       -11.2167
  64   2.0000      -0.405247       -11.0273
  65   2.0000      -0.384703       -10.4683
  66   2.0000      -0.384331       -10.4582
  67   2.0000      -0.379816       -10.3353
  68   2.0000      -0.378357       -10.2956
  69   2.0000      -0.372102       -10.1254
  70   2.0000      -0.369058       -10.0426
  71   2.0000      -0.356369        -9.6973
  72   2.0000      -0.353414        -9.6169
  73   2.0000      -0.349956        -9.5228
  74   2.0000      -0.347205        -9.4479
  75   2.0000      -0.340702        -9.2710
  76   2.0000      -0.335679        -9.1343
  77   2.0000      -0.319957        -8.7065
  78   2.0000      -0.306766        -8.3475
  79   2.0000      -0.305444        -8.3115
  80   2.0000      -0.287941        -7.8353
  81   2.0000      -0.285235        -7.7616
  82   2.0000      -0.280615        -7.6359
  83   2.0000      -0.272094        -7.4040
  84   2.0000      -0.269940        -7.3455
  85   2.0000      -0.238577        -6.4920
  86   2.0000      -0.236406        -6.4329
  87   2.0000      -0.219422        -5.9708
  88   2.0000      -0.205125        -5.5817
  89   2.0000      -0.200734        -5.4622
  90   2.0000      -0.188721        -5.1354
  91   2.0000      -0.179382        -4.8812
  92   2.0000      -0.177235        -4.8228
  93   2.0000      -0.174469        -4.7475
  94   2.0000      -0.172726        -4.7001
  95   2.0000      -0.163149        -4.4395
  96   2.0000      -0.152506        -4.1499
  97   2.0000      -0.135217        -3.6794
  98   2.0000      -0.123827        -3.3695
  99   2.0000      -0.110149        -2.9973
 100   0.0000      -0.014649        -0.3986
 101   0.0000       0.033817         0.9202
 102   0.0000       0.109687         2.9847
 103   0.0000       0.112452         3.0600
 104   0.0000       0.118080         3.2131

MULLIKEN ATOMIC CHARGES
-----------------------
   0 C :   -0.034107
   1 C :   -0.007625
   2 C :   -0.304904
   3 C :   -0.200058
   4 C :   -0.237000
   5 C :   -0.246641
   6 H :    0.198768
   7 H :    0.234492
   8 H :    0.188468
   9 H :    0.188898
  10 H :    0.187748
  11 C :   -0.474429
  12 C :   -0.526161
  13 H :    0.208254
  14 H :    0.271216
  15 C :    0.112298
  16 H :    0.273728
  17 H :    0.212781
  18 C :   -0.162000
  19 C :   -0.271923
  20 C :   -0.228663
  21 C :   -0.276839
  22 C :   -0.229703
  23 H :    0.276443
  24 H :    0.200538
  25 H :    0.184709
  26 H :    0.194776
  27 Pd:    0.181631
  28 Br:   -0.458865
  29 P :   -0.140308
  30 H :    0.131258
  31 C :    0.607006
  32 O :   -0.531231
  33 O :   -0.547616
  34 O :   -0.602190
  35 H :    0.080842
  36 H :    0.150774
  37 H :    0.395634
Sum of atomic charges:   -1.0000000

LOEWDIN ATOMIC CHARGES
----------------------
   0 C :   -0.051367
   1 C :   -0.070145
   2 C :   -0.144432
   3 C :   -0.162978
   4 C :   -0.163445
   5 C :   -0.160477
   6 H :    0.241057
   7 H :    0.135886
   8 H :    0.127221
   9 H :    0.121538
  10 H :    0.119431
  11 C :   -0.216391
  12 C :   -0.213695
  13 H :    0.124236
  14 H :    0.155339
  15 C :   -0.031009
  16 H :    0.158118
  17 H :    0.121443
  18 C :   -0.003229
  19 C :   -0.116739
  20 C :   -0.150037
  21 C :   -0.145625
  22 C :   -0.152438
  23 H :    0.169101
  24 H :    0.128328
  25 H :    0.123150
  26 H :    0.124393
  27 Pd:   -0.686271
  28 Br:   -0.330294
  29 P :    0.424737
  30 H :    0.060825
  31 C :    0.055292
  32 O :   -0.344221
  33 O :   -0.319888
  34 O :   -0.330083
  35 H :    0.024893
  36 H :    0.073729
  37 H :    0.304046

  Mayer bond orders larger than 0.100000
B(  0-C ,  1-C ) :   1.4594 B(  0-C ,  2-C ) :   1.4206 B(  0-C ,  6-H ) :   0.4282
B(  0-C , 27-Pd) :   0.2130 B(  1-C ,  5-C ) :   1.3473 B(  1-C , 11-C ) :   0.9634
B(  2-C ,  3-C ) :   1.4215 B(  2-C ,  7-H ) :   0.9081 B(  3-C ,  4-C ) :   1.4069
B(  3-C ,  9-H ) :   0.9233 B(  4-C ,  5-C ) :   1.4635 B(  4-C , 10-H ) :   0.9262
B(  5-C ,  8-H ) :   0.9222 B(  6-H , 27-Pd) :   0.1586 B(  6-H , 28-Br) :   0.2089
B( 11-C , 12-C ) :   0.9232 B( 11-C , 13-H ) :   0.9304 B( 11-C , 14-H ) :   0.8949
B( 12-C , 15-C ) :   0.9583 B( 12-C , 16-H ) :   0.8840 B( 12-C , 17-H ) :   0.9301
B( 15-C , 18-C ) :   1.3306 B( 15-C , 21-C ) :   1.4228 B( 18-C , 19-C ) :   1.4056
B( 18-C , 27-Pd) :   0.8547 B( 18-C , 29-P ) :   0.1041 B( 19-C , 20-C ) :   1.3998
B( 19-C , 23-H ) :   0.8704 B( 20-C , 22-C ) :   1.4380 B( 20-C , 24-H ) :   0.9239
B( 21-C , 22-C ) :   1.4127 B( 21-C , 25-H ) :   0.9260 B( 22-C , 26-H ) :   0.9261
B( 27-Pd, 28-Br) :   0.2823 B( 27-Pd, 29-P ) :   0.7400 B( 27-Pd, 33-O ) :   0.2930
B( 28-Br, 29-P ) :   0.1503 B( 29-P , 30-H ) :   0.9239 B( 29-P , 35-H ) :   0.9017
B( 29-P , 36-H ) :   0.9237 B( 31-C , 32-O ) :   1.8078 B( 31-C , 33-O ) :   1.4931
B( 31-C , 34-O ) :   1.0363 B( 34-O , 37-H ) :   0.7912

Dispersion correction           -0.031063883
FINAL SINGLE POINT ENERGY     -3847.412272111457
Dispersion correction            ... done

DIPOLE MOMENT
-------------
                                X             Y             Z
Electronic contribution:     13.28303     -63.59650     -31.69380
Nuclear contribution   :    -11.96220      65.16326      34.72742
                        -----------------------------------------
Total Dipole Moment    :      1.32083       1.56676       3.03362
                        -----------------------------------------
Magnitude (a.u.)       :      3.66090
Magnitude (Debye)      :      9.30527

Rotational constants in cm-1:     0.006561     0.006037     0.004156
Rotational constants in MHz :   196.694995   180.979925   124.602060

                             ****ORCA TERMINATED NORMALLY****
TOTAL RUN TIME: 0 days 0 hours 21 minutes 15 seconds 646 msec
