                         Program Version 5.0.3 -  RELEASE  -
|  1> ! EnGrad PBEh-3c
|  2> %output
|  3> xyzfile=True
|  4> end
|  5> %scf
|  6> maxiter 250
|  7> end
|  8> %output
|  9> Print[P_Hirshfeld] = 1
| 10> end
| 11> % maxcore
| 12> 4000
| 13> *xyz -1 1
| 14> C   -2.35385505  -0.12876965   0.78188786
| 15> C   -1.89012332   0.96541117   1.45875513
| 16> C   -3.69221784  -0.47476819   0.82119623
| 17> C   -4.64079056   0.46181251   1.23270281
| 18> C   -4.22482208   1.62124808   1.83543363
| 19> C   -2.90629079   1.85288592   2.01560974
| 20> H   -2.56853598  -1.38737297  -1.57354060
| 21> H   -4.02203482  -1.48510701   0.67619446
| 22> H   -2.60663484   2.85574858   2.29221529
| 23> H   -5.69906564   0.26616303   1.06959896
| 24> H   -4.96105070   2.32165501   2.22079389
| 25> C   -0.49182079   1.49624986   1.54035973
| 26> C    0.68309326   0.46573967   1.80183541
| 27> H   -0.37845682   2.25308366   2.26765477
| 28> H   -0.38480343   2.00485416   0.57087993
| 29> C    1.77438282   0.60587152   0.80524347
| 30> H    0.29131361  -0.53427962   1.83091797
| 31> H    1.06967211   0.64733032   2.79656673
| 32> C    1.70911402  -0.01527042  -0.44372007
| 33> C    2.73986520   0.17274866  -1.36212236
| 34> C    3.73867394   1.13161379  -1.10201007
| 35> C    2.87953823   1.40798830   1.09701806
| 36> C    3.79463006   1.75816850   0.10697277
| 37> H    2.81021990  -0.40575175  -2.25666845
| 38> H    4.48606094   1.33330975  -1.87059171
| 39> H    3.00852102   1.78850793   2.10205834
| 40> H    4.48237545   2.58829094   0.27767615
| 41> Pd   0.20124457  -1.35011786  -0.85331748
| 42> Br  -1.48415844  -3.75586994  -0.87740290
| 43> P    1.40083522  -3.01309962   0.10647030
| 44> H    0.88184459  -3.55362806   1.28404571
| 45> C    0.30238800  -1.44044645  -3.87284631
| 46> O    1.61136334  -1.69127550  -4.20515656
| 47> O   -0.41706488  -1.93589840  -3.22450097
| 48> O   -0.09022555  -0.13667634  -4.41006853
| 49> H    2.70221740  -2.79692996   0.54175262
| 50> H    1.65195870  -4.17705681  -0.62244285
| 51> H    0.59037066   0.28556549  -4.85973256
| 52> *
| 53>
| 54>                          ****END OF INPUT****

CARTESIAN COORDINATES (ANGSTROEM)
---------------------------------
  C     -2.353855   -0.128770    0.781888
  C     -1.890123    0.965411    1.458755
  C     -3.692218   -0.474768    0.821196
  C     -4.640791    0.461813    1.232703
  C     -4.224822    1.621248    1.835434
  C     -2.906291    1.852886    2.015610
  H     -2.568536   -1.387373   -1.573541
  H     -4.022035   -1.485107    0.676194
  H     -2.606635    2.855749    2.292215
  H     -5.699066    0.266163    1.069599
  H     -4.961051    2.321655    2.220794
  C     -0.491821    1.496250    1.540360
  C      0.683093    0.465740    1.801835
  H     -0.378457    2.253084    2.267655
  H     -0.384803    2.004854    0.570880
  C      1.774383    0.605872    0.805243
  H      0.291314   -0.534280    1.830918
  H      1.069672    0.647330    2.796567
  C      1.709114   -0.015270   -0.443720
  C      2.739865    0.172749   -1.362122
  C      3.738674    1.131614   -1.102010
  C      2.879538    1.407988    1.097018
  C      3.794630    1.758169    0.106973
  H      2.810220   -0.405752   -2.256668
  H      4.486061    1.333310   -1.870592
  H      3.008521    1.788508    2.102058
  H      4.482375    2.588291    0.277676
  Pd     0.201245   -1.350118   -0.853317
  Br    -1.484158   -3.755870   -0.877403
  P      1.400835   -3.013100    0.106470
  H      0.881845   -3.553628    1.284046
  C      0.302388   -1.440446   -3.872846
  O      1.611363   -1.691275   -4.205157
  O     -0.417065   -1.935898   -3.224501
  O     -0.090226   -0.136676   -4.410069
  H      2.702217   -2.796930    0.541753
  H      1.651959   -4.177057   -0.622443
  H      0.590371    0.285565   -4.859733

 Total Charge           Charge          ....   -1
 Multiplicity           Mult            ....    1
 Number of Electrons    NEL             ....  200
 Basis Dimension        Dim             ....  385

ORBITAL ENERGIES
----------------

  NO   OCC          E(Eh)            E(eV)
   0   2.0000    -484.346442    -13179.7367
   1   2.0000     -77.691920     -2114.1046
   2   2.0000     -63.007761     -1714.5284
   3   2.0000     -56.711205     -1543.1903
   4   2.0000     -56.710634     -1543.1748
   5   2.0000     -56.710320     -1543.1663
   6   2.0000     -19.313773      -525.5545
   7   2.0000     -19.312156      -525.5105
   8   2.0000     -19.239841      -523.5427
   9   2.0000     -10.403961      -283.1062
  10   2.0000     -10.370427      -282.1937
  11   2.0000     -10.369650      -282.1725
  12   2.0000     -10.364930      -282.0441
  13   2.0000     -10.360414      -281.9212
  14   2.0000     -10.354732      -281.7666
  15   2.0000     -10.354515      -281.7607
  16   2.0000     -10.353129      -281.7230
  17   2.0000     -10.352599      -281.7085
  18   2.0000     -10.351569      -281.6805
  19   2.0000     -10.350709      -281.6571
  20   2.0000     -10.350179      -281.6427
  21   2.0000     -10.349867      -281.6342
  22   2.0000     -10.349776      -281.6317
  23   2.0000     -10.341271      -281.4003
  24   2.0000      -8.834615      -240.4021
  25   2.0000      -6.766668      -184.1304
  26   2.0000      -6.603307      -179.6851
  27   2.0000      -6.601095      -179.6249
  28   2.0000      -6.597725      -179.5332
  29   2.0000      -4.857768      -132.1866
  30   2.0000      -4.857439      -132.1776
  31   2.0000      -4.856192      -132.1437
  32   2.0000      -3.541363       -96.3654
  33   2.0000      -2.617945       -71.2379
  34   2.0000      -2.617761       -71.2329
  35   2.0000      -2.614914       -71.1554
  36   2.0000      -2.613004       -71.1035
  37   2.0000      -2.612416       -71.0875
  38   2.0000      -2.188433       -59.5503
  39   2.0000      -2.184178       -59.4345
  40   2.0000      -2.158199       -58.7276
  41   2.0000      -1.077137       -29.3104
  42   2.0000      -0.941870       -25.6296
  43   2.0000      -0.868090       -23.6219
  44   2.0000      -0.862258       -23.4632
  45   2.0000      -0.823216       -22.4008
  46   2.0000      -0.798651       -21.7324
  47   2.0000      -0.757481       -20.6121
  48   2.0000      -0.739026       -20.1099
  49   2.0000      -0.733485       -19.9592
  50   2.0000      -0.698767       -19.0144
  51   2.0000      -0.668737       -18.1972
  52   2.0000      -0.644102       -17.5269
  53   2.0000      -0.635839       -17.3021
  54   2.0000      -0.584632       -15.9086
  55   2.0000      -0.580335       -15.7917
  56   2.0000      -0.558118       -15.1872
  57   2.0000      -0.541479       -14.7344
  58   2.0000      -0.481708       -13.1079
  59   2.0000      -0.478492       -13.0204
  60   2.0000      -0.475917       -12.9504
  61   2.0000      -0.444445       -12.0940
  62   2.0000      -0.426410       -11.6032
  63   2.0000      -0.420999       -11.4560
  64   2.0000      -0.411008       -11.1841
  65   2.0000      -0.393482       -10.7072
  66   2.0000      -0.392476       -10.6798
  67   2.0000      -0.386420       -10.5150
  68   2.0000      -0.384849       -10.4723
  69   2.0000      -0.381380       -10.3779
  70   2.0000      -0.366161        -9.9637
  71   2.0000      -0.360929        -9.8214
  72   2.0000      -0.356960        -9.7134
  73   2.0000      -0.352880        -9.6024
  74   2.0000      -0.343445        -9.3456
  75   2.0000      -0.333121        -9.0647
  76   2.0000      -0.327082        -8.9004
  77   2.0000      -0.326689        -8.8896
  78   2.0000      -0.316606        -8.6153
  79   2.0000      -0.308070        -8.3830
  80   2.0000      -0.303274        -8.2525
  81   2.0000      -0.292831        -7.9683
  82   2.0000      -0.280537        -7.6338
  83   2.0000      -0.270100        -7.3498
  84   2.0000      -0.265455        -7.2234
  85   2.0000      -0.236498        -6.4354
  86   2.0000      -0.235417        -6.4060
  87   2.0000      -0.213366        -5.8060
  88   2.0000      -0.207670        -5.6510
  89   2.0000      -0.193119        -5.2550
  90   2.0000      -0.187308        -5.0969
  91   2.0000      -0.186270        -5.0687
  92   2.0000      -0.181602        -4.9416
  93   2.0000      -0.178823        -4.8660
  94   2.0000      -0.169135        -4.6024
  95   2.0000      -0.168349        -4.5810
  96   2.0000      -0.160160        -4.3582
  97   2.0000      -0.123232        -3.3533
  98   2.0000      -0.116979        -3.1832
  99   2.0000      -0.101199        -2.7538
 100   0.0000      -0.017293        -0.4706
 101   0.0000       0.031682         0.8621
 102   0.0000       0.102079         2.7777
 103   0.0000       0.109216         2.9719
 104   0.0000       0.117047         3.1850

MULLIKEN ATOMIC CHARGES
-----------------------
   0 C :   -0.031816
   1 C :    0.021230
   2 C :   -0.283623
   3 C :   -0.231738
   4 C :   -0.202233
   5 C :   -0.262366
   6 H :    0.172398
   7 H :    0.243417
   8 H :    0.192345
   9 H :    0.197427
  10 H :    0.191177
  11 C :   -0.479830
  12 C :   -0.537093
  13 H :    0.224595
  14 H :    0.271604
  15 C :    0.137197
  16 H :    0.276843
  17 H :    0.216452
  18 C :   -0.170611
  19 C :   -0.255982
  20 C :   -0.242761
  21 C :   -0.294943
  22 C :   -0.210818
  23 H :    0.299116
  24 H :    0.202352
  25 H :    0.185449
  26 H :    0.190641
  27 Pd:    0.140551
  28 Br:   -0.457671
  29 P :   -0.130078
  30 H :    0.132966
  31 C :    0.593906
  32 O :   -0.696033
  33 O :   -0.343451
  34 O :   -0.705889
  35 H :    0.093899
  36 H :    0.155158
  37 H :    0.398213
Sum of atomic charges:   -1.0000000

LOEWDIN ATOMIC CHARGES
----------------------
   0 C :   -0.032311
   1 C :   -0.058792
   2 C :   -0.141219
   3 C :   -0.161090
   4 C :   -0.156856
   5 C :   -0.152242
   6 H :    0.219063
   7 H :    0.142242
   8 H :    0.127144
   9 H :    0.125247
  10 H :    0.123820
  11 C :   -0.217467
  12 C :   -0.212298
  13 H :    0.128763
  14 H :    0.159840
  15 C :   -0.041788
  16 H :    0.157651
  17 H :    0.123610
  18 C :    0.002141
  19 C :   -0.109650
  20 C :   -0.144747
  21 C :   -0.146697
  22 C :   -0.154329
  23 H :    0.178801
  24 H :    0.129705
  25 H :    0.123024
  26 H :    0.124595
  27 Pd:   -0.711503
  28 Br:   -0.312585
  29 P :    0.423215
  30 H :    0.062354
  31 C :    0.084364
  32 O :   -0.549524
  33 O :   -0.085815
  34 O :   -0.447374
  35 H :    0.033666
  36 H :    0.076937
  37 H :    0.290107

  Mayer bond orders larger than 0.100000
B(  0-C ,  1-C ) :   1.5073 B(  0-C ,  2-C ) :   1.4026 B(  0-C ,  6-H ) :   0.4503
B(  0-C , 27-Pd) :   0.2354 B(  0-C , 28-Br) :   0.1074 B(  1-C ,  5-C ) :   1.3006
B(  1-C , 11-C ) :   0.9571 B(  2-C ,  3-C ) :   1.4414 B(  2-C ,  5-C ) :   0.1008
B(  2-C ,  7-H ) :   0.9035 B(  3-C ,  4-C ) :   1.3892 B(  3-C ,  9-H ) :   0.9218
B(  4-C ,  5-C ) :   1.4939 B(  4-C , 10-H ) :   0.9246 B(  5-C ,  8-H ) :   0.9196
B(  6-H , 27-Pd) :   0.1857 B(  6-H , 28-Br) :   0.1985 B( 11-C , 12-C ) :   0.9236
B( 11-C , 13-H ) :   0.9249 B( 11-C , 14-H ) :   0.8950 B( 12-C , 15-C ) :   0.9623
B( 12-C , 16-H ) :   0.8870 B( 12-C , 17-H ) :   0.9291 B( 15-C , 18-C ) :   1.3323
B( 15-C , 21-C ) :   1.4245 B( 18-C , 19-C ) :   1.4318 B( 18-C , 27-Pd) :   0.8189
B( 19-C , 20-C ) :   1.3787 B( 19-C , 23-H ) :   0.8458 B( 20-C , 22-C ) :   1.4503
B( 20-C , 24-H ) :   0.9238 B( 21-C , 22-C ) :   1.4004 B( 21-C , 25-H ) :   0.9256
B( 22-C , 26-H ) :   0.9277 B( 27-Pd, 28-Br) :   0.3143 B( 27-Pd, 29-P ) :   0.7078
B( 27-Pd, 33-O ) :   0.2001 B( 28-Br, 29-P ) :   0.1293 B( 29-P , 30-H ) :   0.9275
B( 29-P , 35-H ) :   0.9061 B( 29-P , 36-H ) :   0.9275 B( 31-C , 32-O ) :   1.5497
B( 31-C , 33-O ) :   1.8968 B( 31-C , 34-O ) :   0.8850 B( 34-O , 37-H ) :   0.7936

Dispersion correction           -0.031095861
FINAL SINGLE POINT ENERGY     -3847.383426156967
Dispersion correction            ... done

DIPOLE MOMENT
-------------
                                X             Y             Z
Electronic contribution:      8.78591     -65.38836     -32.78545
Nuclear contribution   :     -8.16402      66.62441      36.87991
                        -----------------------------------------
Total Dipole Moment    :      0.62189       1.23605       4.09446
                        -----------------------------------------
Magnitude (a.u.)       :      4.32194
Magnitude (Debye)      :     10.98550

Rotational constants in cm-1:     0.006591     0.006032     0.004170
Rotational constants in MHz :   197.604570   180.822794   125.021618

                             ****ORCA TERMINATED NORMALLY****
TOTAL RUN TIME: 0 days 0 hours 24 minutes 0 seconds 305 msec
