                         Program Version 5.0.3 -  RELEASE  -
|  1> ! EnGrad PBEh-3c
|  2> %output
|  3> xyzfile=True
|  4> end
|  5> %scf
|  6> maxiter 250
|  7> end
|  8> %output
|  9> Print[P_Hirshfeld] = 1
| 10> end
| 11> % maxcore
| 12> 4000
| 13> *xyz -1 1
| 14> C   -2.35449232  -0.13406928   0.79279456
| 15> C   -1.89431895   0.98263839   1.44249866
| 16> C   -3.69684266  -0.47220188   0.80872498
| 17> C   -4.64072839   0.44799489   1.24510556
| 18> C   -4.23106321   1.62838896   1.82667387
| 19> C   -2.90235176   1.85593831   2.00445999
| 20> H   -2.54557815  -1.39449382  -1.55938628
| 21> H   -4.01853278  -1.48526464   0.65703472
| 22> H   -2.59833739   2.85220798   2.30170212
| 23> H   -5.69659341   0.26403277   1.06640421
| 24> H   -4.95894729   2.32497094   2.21394107
| 25> C   -0.48735212   1.49377882   1.54273165
| 26> C    0.68682605   0.46176892   1.80564661
| 27> H   -0.38694723   2.25322437   2.28295454
| 28> H   -0.37251590   2.00308513   0.58007867
| 29> C    1.77861353   0.60133318   0.80921858
| 30> H    0.28855699  -0.53811697   1.82979285
| 31> H    1.07165255   0.64993449   2.79973374
| 32> C    1.71211509  -0.02461369  -0.44158496
| 33> C    2.73763410   0.17465680  -1.36181774
| 34> C    3.73253777   1.13148043  -1.10764850
| 35> C    2.87004885   1.41919870   1.09352021
| 36> C    3.79490012   1.75891394   0.11148570
| 37> H    2.80188994  -0.40638800  -2.26264175
| 38> H    4.48138637   1.33293117  -1.87079809
| 39> H    3.00629330   1.79138196   2.10238623
| 40> H    4.48582085   2.58213067   0.27971326
| 41> Pd   0.18199767  -1.35922442  -0.86121489
| 42> Br  -1.48591866  -3.74166503  -0.87081203
| 43> P    1.40583266  -3.01160593   0.10577784
| 44> H    0.88506951  -3.55471898   1.28219585
| 45> C    0.37017638  -1.42235023  -3.94131853
| 46> O    1.60010516  -1.67874871  -4.19961669
| 47> O   -0.47807695  -1.96938984  -3.15692432
| 48> O   -0.10311720  -0.13616118  -4.39802250
| 49> H    2.70743414  -2.79378411   0.53879887
| 50> H    1.64706720  -4.17451077  -0.62792971
| 51> H    0.60255516   0.28989737  -4.86406814
| 52> *
| 53>
| 54>                          ****END OF INPUT****

CARTESIAN COORDINATES (ANGSTROEM)
---------------------------------
  C     -2.354492   -0.134069    0.792795
  C     -1.894319    0.982638    1.442499
  C     -3.696843   -0.472202    0.808725
  C     -4.640728    0.447995    1.245106
  C     -4.231063    1.628389    1.826674
  C     -2.902352    1.855938    2.004460
  H     -2.545578   -1.394494   -1.559386
  H     -4.018533   -1.485265    0.657035
  H     -2.598337    2.852208    2.301702
  H     -5.696593    0.264033    1.066404
  H     -4.958947    2.324971    2.213941
  C     -0.487352    1.493779    1.542732
  C      0.686826    0.461769    1.805647
  H     -0.386947    2.253224    2.282955
  H     -0.372516    2.003085    0.580079
  C      1.778614    0.601333    0.809219
  H      0.288557   -0.538117    1.829793
  H      1.071653    0.649934    2.799734
  C      1.712115   -0.024614   -0.441585
  C      2.737634    0.174657   -1.361818
  C      3.732538    1.131480   -1.107649
  C      2.870049    1.419199    1.093520
  C      3.794900    1.758914    0.111486
  H      2.801890   -0.406388   -2.262642
  H      4.481386    1.332931   -1.870798
  H      3.006293    1.791382    2.102386
  H      4.485821    2.582131    0.279713
  Pd     0.181998   -1.359224   -0.861215
  Br    -1.485919   -3.741665   -0.870812
  P      1.405833   -3.011606    0.105778
  H      0.885070   -3.554719    1.282196
  C      0.370176   -1.422350   -3.941319
  O      1.600105   -1.678749   -4.199617
  O     -0.478077   -1.969390   -3.156924
  O     -0.103117   -0.136161   -4.398022
  H      2.707434   -2.793784    0.538799
  H      1.647067   -4.174511   -0.627930
  H      0.602555    0.289897   -4.864068

 Total Charge           Charge          ....   -1
 Multiplicity           Mult            ....    1
 Number of Electrons    NEL             ....  200
 Basis Dimension        Dim             ....  385

ORBITAL ENERGIES
----------------

  NO   OCC          E(Eh)            E(eV)
   0   2.0000    -484.340915    -13179.5863
   1   2.0000     -77.686681     -2113.9621
   2   2.0000     -63.002222     -1714.3776
   3   2.0000     -56.705702     -1543.0406
   4   2.0000     -56.705089     -1543.0239
   5   2.0000     -56.704759     -1543.0149
   6   2.0000     -19.346664      -526.4495
   7   2.0000     -19.296527      -525.0852
   8   2.0000     -19.288291      -524.8611
   9   2.0000     -10.430513      -283.8287
  10   2.0000     -10.362170      -281.9690
  11   2.0000     -10.361420      -281.9486
  12   2.0000     -10.359025      -281.8834
  13   2.0000     -10.356735      -281.8211
  14   2.0000     -10.351941      -281.6906
  15   2.0000     -10.351246      -281.6717
  16   2.0000     -10.348932      -281.6087
  17   2.0000     -10.348783      -281.6047
  18   2.0000     -10.347780      -281.5774
  19   2.0000     -10.345742      -281.5220
  20   2.0000     -10.345051      -281.5032
  21   2.0000     -10.344182      -281.4795
  22   2.0000     -10.343171      -281.4520
  23   2.0000     -10.340590      -281.3818
  24   2.0000      -8.829062      -240.2510
  25   2.0000      -6.761301      -183.9844
  26   2.0000      -6.597860      -179.5369
  27   2.0000      -6.595535      -179.4736
  28   2.0000      -6.592059      -179.3791
  29   2.0000      -4.852421      -132.0411
  30   2.0000      -4.852076      -132.0317
  31   2.0000      -4.850791      -131.9967
  32   2.0000      -3.532866       -96.1342
  33   2.0000      -2.612498       -71.0897
  34   2.0000      -2.612296       -71.0842
  35   2.0000      -2.609361       -71.0043
  36   2.0000      -2.607353       -70.9497
  37   2.0000      -2.606751       -70.9333
  38   2.0000      -2.180005       -59.3210
  39   2.0000      -2.175094       -59.1873
  40   2.0000      -2.148943       -58.4757
  41   2.0000      -1.017347       -27.6834
  42   2.0000      -0.919158       -25.0116
  43   2.0000      -0.888573       -24.1793
  44   2.0000      -0.862816       -23.4784
  45   2.0000      -0.857015       -23.3206
  46   2.0000      -0.793389       -21.5892
  47   2.0000      -0.752763       -20.4837
  48   2.0000      -0.731673       -19.9098
  49   2.0000      -0.730945       -19.8900
  50   2.0000      -0.693757       -18.8781
  51   2.0000      -0.663500       -18.0548
  52   2.0000      -0.638697       -17.3798
  53   2.0000      -0.630606       -17.1597
  54   2.0000      -0.579179       -15.7603
  55   2.0000      -0.575046       -15.6478
  56   2.0000      -0.555877       -15.1262
  57   2.0000      -0.537281       -14.6202
  58   2.0000      -0.488765       -13.3000
  59   2.0000      -0.473493       -12.8844
  60   2.0000      -0.471875       -12.8404
  61   2.0000      -0.439816       -11.9680
  62   2.0000      -0.421386       -11.4665
  63   2.0000      -0.415772       -11.3137
  64   2.0000      -0.405778       -11.0418
  65   2.0000      -0.387943       -10.5565
  66   2.0000      -0.382626       -10.4118
  67   2.0000      -0.380838       -10.3631
  68   2.0000      -0.376992       -10.2585
  69   2.0000      -0.372445       -10.1347
  70   2.0000      -0.363184        -9.8827
  71   2.0000      -0.354152        -9.6370
  72   2.0000      -0.348426        -9.4812
  73   2.0000      -0.345370        -9.3980
  74   2.0000      -0.340175        -9.2566
  75   2.0000      -0.328559        -8.9405
  76   2.0000      -0.325372        -8.8538
  77   2.0000      -0.320649        -8.7253
  78   2.0000      -0.309493        -8.4217
  79   2.0000      -0.303976        -8.2716
  80   2.0000      -0.296011        -8.0549
  81   2.0000      -0.290092        -7.8938
  82   2.0000      -0.287435        -7.8215
  83   2.0000      -0.262484        -7.1426
  84   2.0000      -0.258632        -7.0377
  85   2.0000      -0.231468        -6.2986
  86   2.0000      -0.227415        -6.1883
  87   2.0000      -0.212247        -5.7755
  88   2.0000      -0.204625        -5.5681
  89   2.0000      -0.190755        -5.1907
  90   2.0000      -0.185128        -5.0376
  91   2.0000      -0.182574        -4.9681
  92   2.0000      -0.177732        -4.8363
  93   2.0000      -0.176651        -4.8069
  94   2.0000      -0.171439        -4.6651
  95   2.0000      -0.162228        -4.4144
  96   2.0000      -0.152717        -4.1557
  97   2.0000      -0.144443        -3.9305
  98   2.0000      -0.138480        -3.7682
  99   2.0000      -0.114581        -3.1179
 100   0.0000      -0.008095        -0.2203
 101   0.0000       0.039307         1.0696
 102   0.0000       0.109833         2.9887
 103   0.0000       0.113285         3.0827
 104   0.0000       0.119167         3.2427

MULLIKEN ATOMIC CHARGES
-----------------------
   0 C :   -0.038381
   1 C :    0.027419
   2 C :   -0.286942
   3 C :   -0.234715
   4 C :   -0.205512
   5 C :   -0.264743
   6 H :    0.188105
   7 H :    0.239828
   8 H :    0.187754
   9 H :    0.193626
  10 H :    0.189604
  11 C :   -0.477962
  12 C :   -0.534875
  13 H :    0.218970
  14 H :    0.269735
  15 C :    0.131968
  16 H :    0.278503
  17 H :    0.213510
  18 C :   -0.161464
  19 C :   -0.262100
  20 C :   -0.242182
  21 C :   -0.291808
  22 C :   -0.215223
  23 H :    0.286877
  24 H :    0.198235
  25 H :    0.184324
  26 H :    0.189444
  27 Pd:    0.147464
  28 Br:   -0.448485
  29 P :   -0.136136
  30 H :    0.131357
  31 C :    0.671813
  32 O :   -0.588405
  33 O :   -0.536553
  34 O :   -0.661203
  35 H :    0.090517
  36 H :    0.150054
  37 H :    0.397582
Sum of atomic charges:   -1.0000000

LOEWDIN ATOMIC CHARGES
----------------------
   0 C :   -0.042873
   1 C :   -0.061713
   2 C :   -0.147479
   3 C :   -0.162267
   4 C :   -0.159384
   5 C :   -0.152197
   6 H :    0.236804
   7 H :    0.140764
   8 H :    0.124129
   9 H :    0.123496
  10 H :    0.122927
  11 C :   -0.216899
  12 C :   -0.212753
  13 H :    0.126891
  14 H :    0.158573
  15 C :   -0.042748
  16 H :    0.158698
  17 H :    0.122576
  18 C :    0.001146
  19 C :   -0.116661
  20 C :   -0.146595
  21 C :   -0.145967
  22 C :   -0.157087
  23 H :    0.172335
  24 H :    0.127552
  25 H :    0.122763
  26 H :    0.124003
  27 Pd:   -0.727250
  28 Br:   -0.297139
  29 P :    0.417397
  30 H :    0.061157
  31 C :    0.168932
  32 O :   -0.417669
  33 O :   -0.297596
  34 O :   -0.408263
  35 H :    0.031646
  36 H :    0.073885
  37 H :    0.296867

  Mayer bond orders larger than 0.100000
B(  0-C ,  1-C ) :   1.4944 B(  0-C ,  2-C ) :   1.4075 B(  0-C ,  6-H ) :   0.4342
B(  0-C , 27-Pd) :   0.2409 B(  0-C , 28-Br) :   0.1040 B(  1-C ,  5-C ) :   1.3157
B(  1-C , 11-C ) :   0.9555 B(  2-C ,  3-C ) :   1.4353 B(  2-C ,  7-H ) :   0.9051
B(  3-C ,  4-C ) :   1.3940 B(  3-C ,  9-H ) :   0.9232 B(  4-C ,  5-C ) :   1.4845
B(  4-C , 10-H ) :   0.9257 B(  5-C ,  8-H ) :   0.9203 B(  6-H , 27-Pd) :   0.1815
B(  6-H , 28-Br) :   0.2121 B( 11-C , 12-C ) :   0.9235 B( 11-C , 13-H ) :   0.9278
B( 11-C , 14-H ) :   0.8954 B( 12-C , 15-C ) :   0.9647 B( 12-C , 16-H ) :   0.8859
B( 12-C , 17-H ) :   0.9291 B( 15-C , 18-C ) :   1.3360 B( 15-C , 21-C ) :   1.4203
B( 18-C , 19-C ) :   1.4272 B( 18-C , 27-Pd) :   0.8178 B( 19-C , 20-C ) :   1.3868
B( 19-C , 23-H ) :   0.8626 B( 20-C , 22-C ) :   1.4458 B( 20-C , 24-H ) :   0.9246
B( 21-C , 22-C ) :   1.4054 B( 21-C , 25-H ) :   0.9258 B( 22-C , 26-H ) :   0.9278
B( 27-Pd, 28-Br) :   0.3192 B( 27-Pd, 29-P ) :   0.6921 B( 27-Pd, 33-O ) :   0.2881
B( 28-Br, 29-P ) :   0.1292 B( 29-P , 30-H ) :   0.9271 B( 29-P , 35-H ) :   0.9057
B( 29-P , 36-H ) :   0.9273 B( 31-C , 32-O ) :   1.7233 B( 31-C , 33-O ) :   1.5552
B( 31-C , 34-O ) :   0.9467 B( 34-O , 37-H ) :   0.7922

Dispersion correction           -0.031093949
FINAL SINGLE POINT ENERGY     -3847.442784611138
Dispersion correction            ... done

DIPOLE MOMENT
-------------
                                X             Y             Z
Electronic contribution:      8.28453     -65.87023     -34.03826
Nuclear contribution   :     -7.18547      67.10754      37.34744
                        -----------------------------------------
Total Dipole Moment    :      1.09906       1.23731       3.30918
                        -----------------------------------------
Magnitude (a.u.)       :      3.69994
Magnitude (Debye)      :      9.40450

Rotational constants in cm-1:     0.006603     0.006040     0.004177
Rotational constants in MHz :   197.956821   181.062445   125.228091

                             ****ORCA TERMINATED NORMALLY****
TOTAL RUN TIME: 0 days 0 hours 21 minutes 35 seconds 284 msec
