                         Program Version 5.0.3 -  RELEASE  -
|  1> ! EnGrad PBEh-3c
|  2> %output
|  3> xyzfile=True
|  4> end
|  5> %scf
|  6> maxiter 250
|  7> end
|  8> %output
|  9> Print[P_Hirshfeld] = 1
| 10> end
| 11> % maxcore
| 12> 4000
| 13> *xyz -1 1
| 14> C   -2.35281756  -0.14176726   0.80016515
| 15> C   -1.90290479   1.00429272   1.42999888
| 16> C   -3.70122580  -0.46948136   0.79753308
| 17> C   -4.64244380   0.43412418   1.25576160
| 18> C   -4.23776272   1.63420747   1.81701608
| 19> C   -2.89299243   1.85965942   1.98714652
| 20> H   -2.51555888  -1.40429059  -1.54087604
| 21> H   -4.01427177  -1.48572520   0.63157661
| 22> H   -2.58881914   2.84847675   2.31341587
| 23> H   -5.69362059   0.26091011   1.06301741
| 24> H   -4.95790196   2.33010677   2.20523889
| 25> C   -0.47973567   1.48707575   1.54265364
| 26> C    0.68622562   0.46064330   1.81009369
| 27> H   -0.39754474   2.25367439   2.30405549
| 28> H   -0.35550241   2.00264427   0.59251222
| 29> C    1.78366785   0.59587136   0.81210147
| 30> H    0.28520647  -0.54423520   1.82903220
| 31> H    1.07538074   0.65231284   2.80532520
| 32> C    1.71066486  -0.03805265  -0.43998807
| 33> C    2.73479347   0.17759567  -1.36051770
| 34> C    3.72535937   1.13023970  -1.11447805
| 35> C    2.86069241   1.43135090   1.09006167
| 36> C    3.79364363   1.76089285   0.11589346
| 37> H    2.79115094  -0.40643107  -2.26983952
| 38> H    4.47529990   1.33280231  -1.87116550
| 39> H    3.00304905   1.79571286   2.10258903
| 40> H    4.49039760   2.57431295   0.28229383
| 41> Pd   0.16303935  -1.37116618  -0.86840040
| 42> Br  -1.48932978  -3.72359216  -0.86190217
| 43> P    1.40824211  -3.00689868   0.10282505
| 44> H    0.88977437  -3.55655431   1.28024351
| 45> C    0.39402866  -1.42552066  -3.95970157
| 46> O    1.57625371  -1.66590074  -4.19565788
| 47> O   -0.48763490  -1.97110710  -3.13571915
| 48> O   -0.11049984  -0.14454423  -4.38655005
| 49> H    2.71561450  -2.78982036   0.53504223
| 50> H    1.64133351  -4.17185903  -0.63521252
| 51> H    0.61241931   0.29329586  -4.86624844
| 52> *
| 53>
| 54>                          ****END OF INPUT****

CARTESIAN COORDINATES (ANGSTROEM)
---------------------------------
  C     -2.352818   -0.141767    0.800165
  C     -1.902905    1.004293    1.429999
  C     -3.701226   -0.469481    0.797533
  C     -4.642444    0.434124    1.255762
  C     -4.237763    1.634207    1.817016
  C     -2.892992    1.859659    1.987147
  H     -2.515559   -1.404291   -1.540876
  H     -4.014272   -1.485725    0.631577
  H     -2.588819    2.848477    2.313416
  H     -5.693621    0.260910    1.063017
  H     -4.957902    2.330107    2.205239
  C     -0.479736    1.487076    1.542654
  C      0.686226    0.460643    1.810094
  H     -0.397545    2.253674    2.304055
  H     -0.355502    2.002644    0.592512
  C      1.783668    0.595871    0.812101
  H      0.285206   -0.544235    1.829032
  H      1.075381    0.652313    2.805325
  C      1.710665   -0.038053   -0.439988
  C      2.734793    0.177596   -1.360518
  C      3.725359    1.130240   -1.114478
  C      2.860692    1.431351    1.090062
  C      3.793644    1.760893    0.115893
  H      2.791151   -0.406431   -2.269840
  H      4.475300    1.332802   -1.871165
  H      3.003049    1.795713    2.102589
  H      4.490398    2.574313    0.282294
  Pd     0.163039   -1.371166   -0.868400
  Br    -1.489330   -3.723592   -0.861902
  P      1.408242   -3.006899    0.102825
  H      0.889774   -3.556554    1.280244
  C      0.394029   -1.425521   -3.959702
  O      1.576254   -1.665901   -4.195658
  O     -0.487635   -1.971107   -3.135719
  O     -0.110500   -0.144544   -4.386550
  H      2.715614   -2.789820    0.535042
  H      1.641334   -4.171859   -0.635213
  H      0.612419    0.293296   -4.866248

 Total Charge           Charge          ....   -1
 Multiplicity           Mult            ....    1
 Number of Electrons    NEL             ....  200
 Basis Dimension        Dim             ....  385

ORBITAL ENERGIES
----------------

  NO   OCC          E(Eh)            E(eV)
   0   2.0000    -484.342235    -13179.6223
   1   2.0000     -77.686282     -2113.9512
   2   2.0000     -63.003532     -1714.4133
   3   2.0000     -56.707042     -1543.0771
   4   2.0000     -56.706393     -1543.0594
   5   2.0000     -56.706038     -1543.0498
   6   2.0000     -19.351630      -526.5846
   7   2.0000     -19.303740      -525.2815
   8   2.0000     -19.291702      -524.9539
   9   2.0000     -10.433177      -283.9012
  10   2.0000     -10.360596      -281.9261
  11   2.0000     -10.357460      -281.8408
  12   2.0000     -10.355237      -281.7803
  13   2.0000     -10.354462      -281.7592
  14   2.0000     -10.350907      -281.6625
  15   2.0000     -10.350187      -281.6429
  16   2.0000     -10.348407      -281.5945
  17   2.0000     -10.345812      -281.5239
  18   2.0000     -10.345495      -281.5152
  19   2.0000     -10.344059      -281.4762
  20   2.0000     -10.343653      -281.4651
  21   2.0000     -10.341358      -281.4026
  22   2.0000     -10.340279      -281.3733
  23   2.0000     -10.338894      -281.3356
  24   2.0000      -8.830381      -240.2869
  25   2.0000      -6.760585      -183.9649
  26   2.0000      -6.599317      -179.5766
  27   2.0000      -6.596796      -179.5079
  28   2.0000      -6.593288      -179.4125
  29   2.0000      -4.851711      -132.0218
  30   2.0000      -4.851376      -132.0126
  31   2.0000      -4.850079      -131.9774
  32   2.0000      -3.530477       -96.0692
  33   2.0000      -2.613923       -71.1285
  34   2.0000      -2.613689       -71.1221
  35   2.0000      -2.610724       -71.0414
  36   2.0000      -2.608550       -70.9822
  37   2.0000      -2.607962       -70.9663
  38   2.0000      -2.177528       -59.2536
  39   2.0000      -2.172534       -59.1177
  40   2.0000      -2.146218       -58.4016
  41   2.0000      -1.026047       -27.9202
  42   2.0000      -0.928705       -25.2713
  43   2.0000      -0.885924       -24.1072
  44   2.0000      -0.860184       -23.4068
  45   2.0000      -0.853389       -23.2219
  46   2.0000      -0.790218       -21.5029
  47   2.0000      -0.750258       -20.4156
  48   2.0000      -0.730598       -19.8806
  49   2.0000      -0.725432       -19.7400
  50   2.0000      -0.691349       -18.8126
  51   2.0000      -0.662505       -18.0277
  52   2.0000      -0.639316       -17.3967
  53   2.0000      -0.626538       -17.0490
  54   2.0000      -0.576348       -15.6832
  55   2.0000      -0.570450       -15.5227
  56   2.0000      -0.555189       -15.1075
  57   2.0000      -0.536232       -14.5916
  58   2.0000      -0.485229       -13.2038
  59   2.0000      -0.471781       -12.8378
  60   2.0000      -0.467797       -12.7294
  61   2.0000      -0.437022       -11.8920
  62   2.0000      -0.418355       -11.3840
  63   2.0000      -0.412351       -11.2206
  64   2.0000      -0.402045       -10.9402
  65   2.0000      -0.384355       -10.4588
  66   2.0000      -0.382043       -10.3959
  67   2.0000      -0.379278       -10.3207
  68   2.0000      -0.377693       -10.2776
  69   2.0000      -0.375006       -10.2044
  70   2.0000      -0.363509        -9.8916
  71   2.0000      -0.352767        -9.5993
  72   2.0000      -0.349504        -9.5105
  73   2.0000      -0.345735        -9.4079
  74   2.0000      -0.338909        -9.2222
  75   2.0000      -0.334177        -9.0934
  76   2.0000      -0.323303        -8.7975
  77   2.0000      -0.317783        -8.6473
  78   2.0000      -0.305254        -8.3064
  79   2.0000      -0.302225        -8.2240
  80   2.0000      -0.296416        -8.0659
  81   2.0000      -0.288944        -7.8626
  82   2.0000      -0.284127        -7.7315
  83   2.0000      -0.260309        -7.0834
  84   2.0000      -0.257503        -7.0070
  85   2.0000      -0.230332        -6.2677
  86   2.0000      -0.225134        -6.1262
  87   2.0000      -0.212257        -5.7758
  88   2.0000      -0.202789        -5.5182
  89   2.0000      -0.195874        -5.3300
  90   2.0000      -0.185715        -5.0536
  91   2.0000      -0.181559        -4.9405
  92   2.0000      -0.178635        -4.8609
  93   2.0000      -0.176040        -4.7903
  94   2.0000      -0.174154        -4.7390
  95   2.0000      -0.161646        -4.3986
  96   2.0000      -0.154277        -4.1981
  97   2.0000      -0.145381        -3.9560
  98   2.0000      -0.137783        -3.7493
  99   2.0000      -0.112791        -3.0692
 100   0.0000      -0.004273        -0.1163
 101   0.0000       0.042030         1.1437
 102   0.0000       0.113442         3.0869
 103   0.0000       0.117409         3.1949
 104   0.0000       0.119648         3.2558

MULLIKEN ATOMIC CHARGES
-----------------------
   0 C :   -0.041812
   1 C :    0.033684
   2 C :   -0.291870
   3 C :   -0.233319
   4 C :   -0.212256
   5 C :   -0.264243
   6 H :    0.196252
   7 H :    0.236623
   8 H :    0.185499
   9 H :    0.191834
  10 H :    0.189367
  11 C :   -0.475019
  12 C :   -0.531178
  13 H :    0.211160
  14 H :    0.270451
  15 C :    0.119830
  16 H :    0.278108
  17 H :    0.211029
  18 C :   -0.151213
  19 C :   -0.265476
  20 C :   -0.239414
  21 C :   -0.284282
  22 C :   -0.221195
  23 H :    0.280407
  24 H :    0.197004
  25 H :    0.183539
  26 H :    0.189377
  27 Pd:    0.139633
  28 Br:   -0.437393
  29 P :   -0.137037
  30 H :    0.130616
  31 C :    0.667662
  32 O :   -0.531477
  33 O :   -0.570581
  34 O :   -0.651560
  35 H :    0.090131
  36 H :    0.147270
  37 H :    0.389850
Sum of atomic charges:   -1.0000000

LOEWDIN ATOMIC CHARGES
----------------------
   0 C :   -0.049100
   1 C :   -0.063774
   2 C :   -0.153563
   3 C :   -0.162183
   4 C :   -0.160123
   5 C :   -0.151351
   6 H :    0.247190
   7 H :    0.139424
   8 H :    0.122279
   9 H :    0.122902
  10 H :    0.122532
  11 C :   -0.216105
  12 C :   -0.213352
  13 H :    0.124685
  14 H :    0.157726
  15 C :   -0.043282
  16 H :    0.159006
  17 H :    0.121781
  18 C :   -0.000768
  19 C :   -0.119437
  20 C :   -0.147888
  21 C :   -0.146401
  22 C :   -0.157698
  23 H :    0.169478
  24 H :    0.126884
  25 H :    0.122874
  26 H :    0.123669
  27 Pd:   -0.745526
  28 Br:   -0.279405
  29 P :    0.416198
  30 H :    0.060629
  31 C :    0.160407
  32 O :   -0.348076
  33 O :   -0.337433
  34 O :   -0.403100
  35 H :    0.031707
  36 H :    0.072396
  37 H :    0.296796

  Mayer bond orders larger than 0.100000
B(  0-C ,  1-C ) :   1.4647 B(  0-C ,  2-C ) :   1.4189 B(  0-C ,  6-H ) :   0.4209
B(  0-C , 27-Pd) :   0.2496 B(  0-C , 28-Br) :   0.1023 B(  1-C ,  5-C ) :   1.3446
B(  1-C , 11-C ) :   0.9540 B(  2-C ,  3-C ) :   1.4217 B(  2-C ,  7-H ) :   0.9065
B(  3-C ,  4-C ) :   1.4072 B(  3-C ,  9-H ) :   0.9239 B(  4-C ,  5-C ) :   1.4645
B(  4-C , 10-H ) :   0.9263 B(  5-C ,  8-H ) :   0.9207 B(  6-H , 27-Pd) :   0.1819
B(  6-H , 28-Br) :   0.2222 B( 11-C , 12-C ) :   0.9226 B( 11-C , 13-H ) :   0.9317
B( 11-C , 14-H ) :   0.8946 B( 12-C , 15-C ) :   0.9667 B( 12-C , 16-H ) :   0.8859
B( 12-C , 17-H ) :   0.9294 B( 15-C , 18-C ) :   1.3419 B( 15-C , 21-C ) :   1.4137
B( 18-C , 19-C ) :   1.4195 B( 18-C , 27-Pd) :   0.8112 B( 19-C , 20-C ) :   1.3967
B( 19-C , 23-H ) :   0.8691 B( 20-C , 22-C ) :   1.4372 B( 20-C , 24-H ) :   0.9250
B( 21-C , 22-C ) :   1.4137 B( 21-C , 25-H ) :   0.9260 B( 22-C , 26-H ) :   0.9276
B( 27-Pd, 28-Br) :   0.3284 B( 27-Pd, 29-P ) :   0.6872 B( 27-Pd, 33-O ) :   0.3224
B( 28-Br, 29-P ) :   0.1264 B( 29-P , 30-H ) :   0.9263 B( 29-P , 35-H ) :   0.9060
B( 29-P , 36-H ) :   0.9268 B( 31-C , 32-O ) :   1.8101 B( 31-C , 33-O ) :   1.4691
B( 31-C , 34-O ) :   0.9520 B( 34-O , 37-H ) :   0.7972

Dispersion correction           -0.031121803
FINAL SINGLE POINT ENERGY     -3847.448912573824
Dispersion correction            ... done

DIPOLE MOMENT
-------------
                                X             Y             Z
Electronic contribution:      7.49034     -66.66584     -34.74395
Nuclear contribution   :     -6.20742      67.76171      37.74142
                        -----------------------------------------
Total Dipole Moment    :      1.28292       1.09588       2.99746
                        -----------------------------------------
Magnitude (a.u.)       :      3.43971
Magnitude (Debye)      :      8.74305

Rotational constants in cm-1:     0.006624     0.006054     0.004189
Rotational constants in MHz :   198.595362   181.487771   125.574208

                             ****ORCA TERMINATED NORMALLY****
TOTAL RUN TIME: 0 days 0 hours 21 minutes 43 seconds 64 msec
