                         Program Version 5.0.3 -  RELEASE  -
|  1> ! EnGrad PBEh-3c
|  2> %output
|  3> xyzfile=True
|  4> end
|  5> %scf
|  6> maxiter 250
|  7> end
|  8> %output
|  9> Print[P_Hirshfeld] = 1
| 10> end
| 11> % maxcore
| 12> 4000
| 13> *xyz -1 1
| 14> C   -2.34800109  -0.15646932   0.80991288
| 15> C   -1.91779136   1.04208801   1.40451422
| 16> C   -3.70290318  -0.46909248   0.77645576
| 17> C   -4.64837564   0.41559689   1.27574373
| 18> C   -4.24398559   1.63853636   1.79453597
| 19> C   -2.87976345   1.87487390   1.94494342
| 20> H   -2.44086066  -1.42942325  -1.49450610
| 21> H   -4.00435335  -1.48555224   0.56842326
| 22> H   -2.56746350   2.83987072   2.34026791
| 23> H   -5.68898031   0.25175877   1.05591106
| 24> H   -4.95866211   2.34462000   2.18477743
| 25> C   -0.46415975   1.47591022   1.54912663
| 26> C    0.68065056   0.45834601   1.82085709
| 27> H   -0.42235652   2.24833220   2.35011553
| 28> H   -0.31161611   2.00583732   0.62097841
| 29> C    1.78978549   0.58091302   0.81471264
| 30> H    0.27847628  -0.55797567   1.82868765
| 31> H    1.08469602   0.65613102   2.81912166
| 32> C    1.70205793  -0.06863714  -0.43503143
| 33> C    2.72445235   0.17903890  -1.36131463
| 34> C    3.71027641   1.13055448  -1.12226952
| 35> C    2.84381477   1.45676956   1.08417555
| 36> C    3.78689656   1.76374898   0.11818420
| 37> H    2.76487533  -0.40319749  -2.28393179
| 38> H    4.46107895   1.33289098  -1.87356787
| 39> H    2.99397223   1.80739820   2.10220865
| 40> H    4.50267680   2.55663926   0.28884115
| 41> Pd   0.12600871  -1.39940207  -0.87900416
| 42> Br  -1.49999167  -3.67921893  -0.84052887
| 43> P    1.41100052  -2.99316950   0.09388849
| 44> H    0.90229257  -3.56098500   1.27518455
| 45> C    0.41918886  -1.39971214  -3.98179494
| 46> O    1.54594418  -1.65162980  -4.19582226
| 47> O   -0.50688616  -1.98369359  -3.09428693
| 48> O   -0.11243159  -0.16463730  -4.37187380
| 49> H    2.73526457  -2.78048597   0.52485496
| 50> H    1.62805264  -4.16521443  -0.65274274
| 51> H    0.62035226   0.29323582  -4.86102883
| 52> *
| 53>
| 54>                          ****END OF INPUT****

CARTESIAN COORDINATES (ANGSTROEM)
---------------------------------
  C     -2.348001   -0.156469    0.809913
  C     -1.917791    1.042088    1.404514
  C     -3.702903   -0.469092    0.776456
  C     -4.648376    0.415597    1.275744
  C     -4.243986    1.638536    1.794536
  C     -2.879763    1.874874    1.944943
  H     -2.440861   -1.429423   -1.494506
  H     -4.004353   -1.485552    0.568423
  H     -2.567464    2.839871    2.340268
  H     -5.688980    0.251759    1.055911
  H     -4.958662    2.344620    2.184777
  C     -0.464160    1.475910    1.549127
  C      0.680651    0.458346    1.820857
  H     -0.422357    2.248332    2.350116
  H     -0.311616    2.005837    0.620978
  C      1.789785    0.580913    0.814713
  H      0.278476   -0.557976    1.828688
  H      1.084696    0.656131    2.819122
  C      1.702058   -0.068637   -0.435031
  C      2.724452    0.179039   -1.361315
  C      3.710276    1.130554   -1.122270
  C      2.843815    1.456770    1.084176
  C      3.786897    1.763749    0.118184
  H      2.764875   -0.403197   -2.283932
  H      4.461079    1.332891   -1.873568
  H      2.993972    1.807398    2.102209
  H      4.502677    2.556639    0.288841
  Pd     0.126009   -1.399402   -0.879004
  Br    -1.499992   -3.679219   -0.840529
  P      1.411001   -2.993169    0.093888
  H      0.902293   -3.560985    1.275185
  C      0.419189   -1.399712   -3.981795
  O      1.545944   -1.651630   -4.195822
  O     -0.506886   -1.983694   -3.094287
  O     -0.112432   -0.164637   -4.371874
  H      2.735265   -2.780486    0.524855
  H      1.628053   -4.165214   -0.652743
  H      0.620352    0.293236   -4.861029

 Total Charge           Charge          ....   -1
 Multiplicity           Mult            ....    1
 Number of Electrons    NEL             ....  200
 Basis Dimension        Dim             ....  385

ORBITAL ENERGIES
----------------

  NO   OCC          E(Eh)            E(eV)
   0   2.0000    -484.346249    -13179.7315
   1   2.0000     -77.685795     -2113.9380
   2   2.0000     -63.007533     -1714.5221
   3   2.0000     -56.711120     -1543.1880
   4   2.0000     -56.710382     -1543.1680
   5   2.0000     -56.709963     -1543.1565
   6   2.0000     -19.370316      -527.0931
   7   2.0000     -19.323479      -525.8186
   8   2.0000     -19.288123      -524.8565
   9   2.0000     -10.439634      -284.0769
  10   2.0000     -10.358901      -281.8800
  11   2.0000     -10.353041      -281.7206
  12   2.0000     -10.349432      -281.6224
  13   2.0000     -10.349288      -281.6184
  14   2.0000     -10.348084      -281.5857
  15   2.0000     -10.347052      -281.5576
  16   2.0000     -10.345583      -281.5176
  17   2.0000     -10.341496      -281.4064
  18   2.0000     -10.341467      -281.4056
  19   2.0000     -10.340958      -281.3918
  20   2.0000     -10.339983      -281.3652
  21   2.0000     -10.339811      -281.3606
  22   2.0000     -10.336972      -281.2833
  23   2.0000     -10.332584      -281.1639
  24   2.0000      -8.834425      -240.3969
  25   2.0000      -6.759276      -183.9292
  26   2.0000      -6.603673      -179.6951
  27   2.0000      -6.600717      -179.6146
  28   2.0000      -6.597127      -179.5170
  29   2.0000      -4.850411      -131.9864
  30   2.0000      -4.850095      -131.9778
  31   2.0000      -4.848806      -131.9427
  32   2.0000      -3.526793       -95.9689
  33   2.0000      -2.618214       -71.2452
  34   2.0000      -2.617903       -71.2368
  35   2.0000      -2.614868       -71.1542
  36   2.0000      -2.612317       -71.0848
  37   2.0000      -2.611762       -71.0697
  38   2.0000      -2.173663       -59.1484
  39   2.0000      -2.168688       -59.0130
  40   2.0000      -2.141918       -58.2846
  41   2.0000      -1.059191       -28.8220
  42   2.0000      -0.961834       -26.1728
  43   2.0000      -0.855894       -23.2900
  44   2.0000      -0.854849       -23.2616
  45   2.0000      -0.846472       -23.0337
  46   2.0000      -0.784239       -21.3402
  47   2.0000      -0.744831       -20.2679
  48   2.0000      -0.727994       -19.8097
  49   2.0000      -0.715712       -19.4755
  50   2.0000      -0.686834       -18.6897
  51   2.0000      -0.661363       -17.9966
  52   2.0000      -0.640599       -17.4316
  53   2.0000      -0.618349       -16.8261
  54   2.0000      -0.572157       -15.5692
  55   2.0000      -0.561895       -15.2899
  56   2.0000      -0.551834       -15.0162
  57   2.0000      -0.532501       -14.4901
  58   2.0000      -0.500603       -13.6221
  59   2.0000      -0.468288       -12.7428
  60   2.0000      -0.460044       -12.5184
  61   2.0000      -0.431309       -11.7365
  62   2.0000      -0.413441       -11.2503
  63   2.0000      -0.406062       -11.0495
  64   2.0000      -0.396710       -10.7950
  65   2.0000      -0.394674       -10.7396
  66   2.0000      -0.378840       -10.3088
  67   2.0000      -0.377830       -10.2813
  68   2.0000      -0.374288       -10.1849
  69   2.0000      -0.370224       -10.0743
  70   2.0000      -0.367450        -9.9988
  71   2.0000      -0.362266        -9.8577
  72   2.0000      -0.354106        -9.6357
  73   2.0000      -0.346414        -9.4264
  74   2.0000      -0.339306        -9.2330
  75   2.0000      -0.333843        -9.0843
  76   2.0000      -0.320549        -8.7226
  77   2.0000      -0.313304        -8.5254
  78   2.0000      -0.302877        -8.2417
  79   2.0000      -0.299211        -8.1419
  80   2.0000      -0.297684        -8.1004
  81   2.0000      -0.276815        -7.5325
  82   2.0000      -0.275441        -7.4951
  83   2.0000      -0.257875        -7.0171
  84   2.0000      -0.256138        -6.9699
  85   2.0000      -0.230814        -6.2808
  86   2.0000      -0.224166        -6.0999
  87   2.0000      -0.221923        -6.0388
  88   2.0000      -0.209477        -5.7002
  89   2.0000      -0.199416        -5.4264
  90   2.0000      -0.184953        -5.0328
  91   2.0000      -0.184636        -5.0242
  92   2.0000      -0.178322        -4.8524
  93   2.0000      -0.175073        -4.7640
  94   2.0000      -0.170632        -4.6431
  95   2.0000      -0.161097        -4.3837
  96   2.0000      -0.156566        -4.2604
  97   2.0000      -0.139019        -3.7829
  98   2.0000      -0.129799        -3.5320
  99   2.0000      -0.108308        -2.9472
 100   0.0000       0.004931         0.1342
 101   0.0000       0.047542         1.2937
 102   0.0000       0.116135         3.1602
 103   0.0000       0.119550         3.2531
 104   0.0000       0.128041         3.4842

MULLIKEN ATOMIC CHARGES
-----------------------
   0 C :   -0.046828
   1 C :    0.039652
   2 C :   -0.302950
   3 C :   -0.230822
   4 C :   -0.221501
   5 C :   -0.260746
   6 H :    0.208061
   7 H :    0.231438
   8 H :    0.182652
   9 H :    0.188920
  10 H :    0.185993
  11 C :   -0.467299
  12 C :   -0.522260
  13 H :    0.196905
  14 H :    0.269809
  15 C :    0.089627
  16 H :    0.277209
  17 H :    0.205186
  18 C :   -0.133779
  19 C :   -0.273759
  20 C :   -0.232918
  21 C :   -0.266738
  22 C :   -0.229488
  23 H :    0.270532
  24 H :    0.194383
  25 H :    0.182781
  26 H :    0.188056
  27 Pd:    0.117550
  28 Br:   -0.410978
  29 P :   -0.137015
  30 H :    0.128006
  31 C :    0.648199
  32 O :   -0.460220
  33 O :   -0.609751
  34 O :   -0.616370
  35 H :    0.089204
  36 H :    0.142141
  37 H :    0.387119
Sum of atomic charges:   -1.0000000

LOEWDIN ATOMIC CHARGES
----------------------
   0 C :   -0.064055
   1 C :   -0.064928
   2 C :   -0.161791
   3 C :   -0.163504
   4 C :   -0.160206
   5 C :   -0.151399
   6 H :    0.263488
   7 H :    0.136499
   8 H :    0.119506
   9 H :    0.122329
  10 H :    0.120972
  11 C :   -0.214805
  12 C :   -0.214765
  13 H :    0.120115
  14 H :    0.155581
  15 C :   -0.043355
  16 H :    0.159514
  17 H :    0.119972
  18 C :   -0.007581
  19 C :   -0.122791
  20 C :   -0.151252
  21 C :   -0.148073
  22 C :   -0.158080
  23 H :    0.164421
  24 H :    0.125743
  25 H :    0.123392
  26 H :    0.122601
  27 Pd:   -0.791557
  28 Br:   -0.238125
  29 P :    0.416343
  30 H :    0.058818
  31 C :    0.144336
  32 O :   -0.267343
  33 O :   -0.390530
  34 O :   -0.362423
  35 H :    0.031907
  36 H :    0.069741
  37 H :    0.301286

  Mayer bond orders larger than 0.100000
B(  0-C ,  1-C ) :   1.4105 B(  0-C ,  2-C ) :   1.4480 B(  0-C ,  6-H ) :   0.3857
B(  0-C , 27-Pd) :   0.2670 B(  1-C ,  5-C ) :   1.3968 B(  1-C , 11-C ) :   0.9535
B(  2-C ,  3-C ) :   1.3866 B(  2-C ,  7-H ) :   0.9078 B(  3-C ,  4-C ) :   1.4375
B(  3-C ,  9-H ) :   0.9250 B(  4-C ,  5-C ) :   1.4240 B(  4-C , 10-H ) :   0.9277
B(  5-C ,  8-H ) :   0.9205 B(  6-H , 27-Pd) :   0.1865 B(  6-H , 28-Br) :   0.2420
B( 11-C , 12-C ) :   0.9205 B( 11-C , 13-H ) :   0.9376 B( 11-C , 14-H ) :   0.8941
B( 12-C , 15-C ) :   0.9712 B( 12-C , 16-H ) :   0.8856 B( 12-C , 17-H ) :   0.9304
B( 15-C , 18-C ) :   1.3530 B( 15-C , 21-C ) :   1.3991 B( 18-C , 19-C ) :   1.4053
B( 18-C , 27-Pd) :   0.7941 B( 19-C , 20-C ) :   1.4109 B( 19-C , 23-H ) :   0.8767
B( 20-C , 22-C ) :   1.4242 B( 20-C , 24-H ) :   0.9257 B( 21-C , 22-C ) :   1.4274
B( 21-C , 25-H ) :   0.9257 B( 22-C , 26-H ) :   0.9274 B( 27-Pd, 28-Br) :   0.3510
B( 27-Pd, 29-P ) :   0.6838 B( 27-Pd, 33-O ) :   0.3837 B( 28-Br, 29-P ) :   0.1203
B( 29-P , 30-H ) :   0.9241 B( 29-P , 35-H ) :   0.9065 B( 29-P , 36-H ) :   0.9251
B( 31-C , 32-O ) :   1.9122 B( 31-C , 33-O ) :   1.3319 B( 31-C , 34-O ) :   1.0009
B( 34-O , 37-H ) :   0.7956

Dispersion correction           -0.031195200
FINAL SINGLE POINT ENERGY     -3847.442869471079
Dispersion correction            ... done

DIPOLE MOMENT
-------------
                                X             Y             Z
Electronic contribution:      5.78667     -68.38803     -35.89826
Nuclear contribution   :     -4.28952      69.30072      38.30477
                        -----------------------------------------
Total Dipole Moment    :      1.49715       0.91269       2.40651
                        -----------------------------------------
Magnitude (a.u.)       :      2.97754
Magnitude (Debye)      :      7.56830

Rotational constants in cm-1:     0.006678     0.006084     0.004215
Rotational constants in MHz :   200.207452   182.380895   126.374121

                             ****ORCA TERMINATED NORMALLY****
TOTAL RUN TIME: 0 days 0 hours 22 minutes 39 seconds 365 msec
