                         Program Version 5.0.3 -  RELEASE  -
|  1> ! EnGrad PBEh-3c
|  2> %output
|  3> xyzfile=True
|  4> end
|  5> %scf
|  6> maxiter 250
|  7> end
|  8> %output
|  9> Print[P_Hirshfeld] = 1
| 10> end
| 11> % maxcore
| 12> 4000
| 13> *xyz -1 1
| 14> C   -2.34026521  -0.16988731   0.80179350
| 15> C   -1.92684535   1.06499607   1.38729933
| 16> C   -3.70003334  -0.47270086   0.77009901
| 17> C   -4.65389138   0.40242893   1.28237475
| 18> C   -4.25178665   1.63823997   1.77894953
| 19> C   -2.86431809   1.90296957   1.89231958
| 20> H   -2.33833304  -1.45911896  -1.42174807
| 21> H   -3.99480491  -1.48527043   0.48767674
| 22> H   -2.54475755   2.82816516   2.37407247
| 23> H   -5.68934127   0.23725279   1.05483764
| 24> H   -4.96027300   2.36126664   2.15926592
| 25> C   -0.45175809   1.46352349   1.55273758
| 26> C    0.66408141   0.45934512   1.83268215
| 27> H   -0.44979023   2.24016528   2.39630398
| 28> H   -0.25183459   2.01441567   0.64836503
| 29> C    1.79041507   0.56461736   0.81347693
| 30> H    0.27021354  -0.57375515   1.82962523
| 31> H    1.09431992   0.65806062   2.83498902
| 32> C    1.68307278  -0.10715452  -0.43480194
| 33> C    2.70793369   0.17656709  -1.35958126
| 34> C    3.69357055   1.12509995  -1.13036195
| 35> C    2.82776320   1.47349397   1.07708305
| 36> C    3.77416945   1.77285018   0.11735956
| 37> H    2.73332791  -0.39642124  -2.30058369
| 38> H    4.44428196   1.33342774  -1.87690104
| 39> H    2.97875731   1.82610444   2.09986688
| 40> H    4.51954471   2.53263121   0.29731966
| 41> Pd   0.10017562  -1.43587531  -0.87985346
| 42> Br  -1.51874723  -3.62100173  -0.81603625
| 43> P    1.40768099  -2.97119175   0.08080598
| 44> H    0.91744683  -3.56569103   1.26902654
| 45> C    0.41621955  -1.31945505  -3.96517945
| 46> O    1.53467285  -1.65791434  -4.20865882
| 47> O   -0.51518199  -1.99671254  -3.07260928
| 48> O   -0.11146922  -0.20085343  -4.36354953
| 49> H    2.75795488  -2.76864613   0.51351446
| 50> H    1.61261289  -4.15569409  -0.67216639
| 51> H    0.62576126   0.28749170  -4.85195944
| 52> *
| 53>
| 54>                          ****END OF INPUT****

CARTESIAN COORDINATES (ANGSTROEM)
---------------------------------
  C     -2.340265   -0.169887    0.801793
  C     -1.926845    1.064996    1.387299
  C     -3.700033   -0.472701    0.770099
  C     -4.653891    0.402429    1.282375
  C     -4.251787    1.638240    1.778950
  C     -2.864318    1.902970    1.892320
  H     -2.338333   -1.459119   -1.421748
  H     -3.994805   -1.485270    0.487677
  H     -2.544758    2.828165    2.374072
  H     -5.689341    0.237253    1.054838
  H     -4.960273    2.361267    2.159266
  C     -0.451758    1.463523    1.552738
  C      0.664081    0.459345    1.832682
  H     -0.449790    2.240165    2.396304
  H     -0.251835    2.014416    0.648365
  C      1.790415    0.564617    0.813477
  H      0.270214   -0.573755    1.829625
  H      1.094320    0.658061    2.834989
  C      1.683073   -0.107155   -0.434802
  C      2.707934    0.176567   -1.359581
  C      3.693571    1.125100   -1.130362
  C      2.827763    1.473494    1.077083
  C      3.774169    1.772850    0.117360
  H      2.733328   -0.396421   -2.300584
  H      4.444282    1.333428   -1.876901
  H      2.978757    1.826104    2.099867
  H      4.519545    2.532631    0.297320
  Pd     0.100176   -1.435875   -0.879853
  Br    -1.518747   -3.621002   -0.816036
  P      1.407681   -2.971192    0.080806
  H      0.917447   -3.565691    1.269027
  C      0.416220   -1.319455   -3.965179
  O      1.534673   -1.657914   -4.208659
  O     -0.515182   -1.996713   -3.072609
  O     -0.111469   -0.200853   -4.363550
  H      2.757955   -2.768646    0.513514
  H      1.612613   -4.155694   -0.672166
  H      0.625761    0.287492   -4.851959

 Total Charge           Charge          ....   -1
 Multiplicity           Mult            ....    1
 Number of Electrons    NEL             ....  200
 Basis Dimension        Dim             ....  385

ORBITAL ENERGIES
----------------

  NO   OCC          E(Eh)            E(eV)
   0   2.0000    -484.354316    -13179.9510
   1   2.0000     -77.687293     -2113.9787
   2   2.0000     -63.015625     -1714.7423
   3   2.0000     -56.719309     -1543.4109
   4   2.0000     -56.718455     -1543.3876
   5   2.0000     -56.717955     -1543.3740
   6   2.0000     -19.402567      -527.9707
   7   2.0000     -19.321026      -525.7518
   8   2.0000     -19.288632      -524.8704
   9   2.0000     -10.444348      -284.2052
  10   2.0000     -10.358272      -281.8629
  11   2.0000     -10.352409      -281.7034
  12   2.0000     -10.348430      -281.5951
  13   2.0000     -10.346863      -281.5525
  14   2.0000     -10.346025      -281.5297
  15   2.0000     -10.343213      -281.4531
  16   2.0000     -10.340597      -281.3820
  17   2.0000     -10.339229      -281.3447
  18   2.0000     -10.338830      -281.3339
  19   2.0000     -10.338603      -281.3277
  20   2.0000     -10.338468      -281.3240
  21   2.0000     -10.335644      -281.2472
  22   2.0000     -10.334387      -281.2130
  23   2.0000     -10.328490      -281.0525
  24   2.0000      -8.842609      -240.6196
  25   2.0000      -6.759702      -183.9408
  26   2.0000      -6.612215      -179.9275
  27   2.0000      -6.608791      -179.8343
  28   2.0000      -6.605044      -179.7324
  29   2.0000      -4.850839      -131.9980
  30   2.0000      -4.850537      -131.9898
  31   2.0000      -4.849338      -131.9572
  32   2.0000      -3.527892       -95.9988
  33   2.0000      -2.626722       -71.4767
  34   2.0000      -2.626295       -71.4651
  35   2.0000      -2.623138       -71.3792
  36   2.0000      -2.620184       -71.2988
  37   2.0000      -2.619647       -71.2842
  38   2.0000      -2.174495       -59.1710
  39   2.0000      -2.170303       -59.0569
  40   2.0000      -2.142311       -58.2953
  41   2.0000      -1.090724       -29.6801
  42   2.0000      -0.976454       -26.5707
  43   2.0000      -0.849343       -23.1118
  44   2.0000      -0.842089       -22.9144
  45   2.0000      -0.839147       -22.8344
  46   2.0000      -0.779057       -21.1992
  47   2.0000      -0.739265       -20.1164
  48   2.0000      -0.725662       -19.7463
  49   2.0000      -0.706808       -19.2332
  50   2.0000      -0.682842       -18.5811
  51   2.0000      -0.665336       -18.1047
  52   2.0000      -0.641574       -17.4581
  53   2.0000      -0.609648       -16.5894
  54   2.0000      -0.567780       -15.4501
  55   2.0000      -0.555108       -15.1053
  56   2.0000      -0.547452       -14.8969
  57   2.0000      -0.540608       -14.7107
  58   2.0000      -0.527825       -14.3629
  59   2.0000      -0.464759       -12.6467
  60   2.0000      -0.453523       -12.3410
  61   2.0000      -0.425719       -11.5844
  62   2.0000      -0.410674       -11.1750
  63   2.0000      -0.408675       -11.1206
  64   2.0000      -0.399825       -10.8798
  65   2.0000      -0.389765       -10.6060
  66   2.0000      -0.381772       -10.3886
  67   2.0000      -0.376972       -10.2579
  68   2.0000      -0.373038       -10.1509
  69   2.0000      -0.372396       -10.1334
  70   2.0000      -0.368964       -10.0400
  71   2.0000      -0.364548        -9.9199
  72   2.0000      -0.361204        -9.8289
  73   2.0000      -0.343521        -9.3477
  74   2.0000      -0.334389        -9.0992
  75   2.0000      -0.329653        -8.9703
  76   2.0000      -0.319569        -8.6959
  77   2.0000      -0.310102        -8.4383
  78   2.0000      -0.300192        -8.1686
  79   2.0000      -0.295667        -8.0455
  80   2.0000      -0.291585        -7.9344
  81   2.0000      -0.269212        -7.3256
  82   2.0000      -0.265013        -7.2114
  83   2.0000      -0.259784        -7.0691
  84   2.0000      -0.257790        -7.0148
  85   2.0000      -0.237202        -6.4546
  86   2.0000      -0.233668        -6.3584
  87   2.0000      -0.223499        -6.0817
  88   2.0000      -0.214722        -5.8429
  89   2.0000      -0.201991        -5.4964
  90   2.0000      -0.186609        -5.0779
  91   2.0000      -0.183928        -5.0049
  92   2.0000      -0.176337        -4.7984
  93   2.0000      -0.174505        -4.7485
  94   2.0000      -0.164606        -4.4791
  95   2.0000      -0.163115        -4.4386
  96   2.0000      -0.159352        -4.3362
  97   2.0000      -0.135461        -3.6861
  98   2.0000      -0.125406        -3.4125
  99   2.0000      -0.106399        -2.8953
 100   0.0000       0.015659         0.4261
 101   0.0000       0.052493         1.4284
 102   0.0000       0.118291         3.2189
 103   0.0000       0.119966         3.2644
 104   0.0000       0.133955         3.6451

MULLIKEN ATOMIC CHARGES
-----------------------
   0 C :   -0.055386
   1 C :    0.038487
   2 C :   -0.311126
   3 C :   -0.221854
   4 C :   -0.233473
   5 C :   -0.257086
   6 H :    0.219337
   7 H :    0.224585
   8 H :    0.180183
   9 H :    0.186145
  10 H :    0.183232
  11 C :   -0.457653
  12 C :   -0.510125
  13 H :    0.181745
  14 H :    0.267579
  15 C :    0.058161
  16 H :    0.274384
  17 H :    0.198863
  18 C :   -0.119239
  19 C :   -0.284977
  20 C :   -0.227215
  21 C :   -0.251082
  22 C :   -0.235264
  23 H :    0.265645
  24 H :    0.193086
  25 H :    0.181677
  26 H :    0.187992
  27 Pd:    0.093554
  28 Br:   -0.374658
  29 P :   -0.133015
  30 H :    0.123763
  31 C :    0.635180
  32 O :   -0.483300
  33 O :   -0.623106
  34 O :   -0.541622
  35 H :    0.088630
  36 H :    0.138249
  37 H :    0.399705
Sum of atomic charges:   -1.0000000

LOEWDIN ATOMIC CHARGES
----------------------
   0 C :   -0.084254
   1 C :   -0.065112
   2 C :   -0.166592
   3 C :   -0.165010
   4 C :   -0.160513
   5 C :   -0.153714
   6 H :    0.278985
   7 H :    0.132945
   8 H :    0.118115
   9 H :    0.122003
  10 H :    0.119294
  11 C :   -0.212538
  12 C :   -0.216284
  13 H :    0.114978
  14 H :    0.152719
  15 C :   -0.041661
  16 H :    0.159345
  17 H :    0.117854
  18 C :   -0.016883
  19 C :   -0.126178
  20 C :   -0.154931
  21 C :   -0.150583
  22 C :   -0.157783
  23 H :    0.161979
  24 H :    0.125105
  25 H :    0.123574
  26 H :    0.121635
  27 Pd:   -0.841376
  28 Br:   -0.186050
  29 P :    0.423985
  30 H :    0.055927
  31 C :    0.123600
  32 O :   -0.294459
  33 O :   -0.409588
  34 O :   -0.267604
  35 H :    0.032687
  36 H :    0.067920
  37 H :    0.318463

  Mayer bond orders larger than 0.100000
B(  0-C ,  1-C ) :   1.3766 B(  0-C ,  2-C ) :   1.4713 B(  0-C ,  6-H ) :   0.3503
B(  0-C , 27-Pd) :   0.2787 B(  1-C ,  5-C ) :   1.4406 B(  1-C , 11-C ) :   0.9524
B(  2-C ,  3-C ) :   1.3598 B(  2-C ,  7-H ) :   0.9094 B(  3-C ,  4-C ) :   1.4663
B(  3-C ,  9-H ) :   0.9259 B(  4-C ,  5-C ) :   1.3897 B(  4-C , 10-H ) :   0.9285
B(  5-C ,  8-H ) :   0.9199 B(  6-H , 27-Pd) :   0.1900 B(  6-H , 28-Br) :   0.2682
B( 11-C , 12-C ) :   0.9170 B( 11-C , 13-H ) :   0.9424 B( 11-C , 14-H ) :   0.8949
B( 12-C , 15-C ) :   0.9737 B( 12-C , 16-H ) :   0.8853 B( 12-C , 17-H ) :   0.9319
B( 15-C , 18-C ) :   1.3596 B( 15-C , 21-C ) :   1.3848 B( 18-C , 19-C ) :   1.3897
B( 18-C , 27-Pd) :   0.7751 B( 19-C , 20-C ) :   1.4218 B( 19-C , 23-H ) :   0.8769
B( 20-C , 22-C ) :   1.4114 B( 20-C , 24-H ) :   0.9263 B( 21-C , 22-C ) :   1.4413
B( 21-C , 25-H ) :   0.9256 B( 22-C , 26-H ) :   0.9268 B( 27-Pd, 28-Br) :   0.3780
B( 27-Pd, 29-P ) :   0.7053 B( 27-Pd, 33-O ) :   0.4248 B( 28-Br, 29-P ) :   0.1138
B( 29-P , 30-H ) :   0.9204 B( 29-P , 35-H ) :   0.9070 B( 29-P , 36-H ) :   0.9220
B( 31-C , 32-O ) :   1.8863 B( 31-C , 33-O ) :   1.2535 B( 31-C , 34-O ) :   1.1263
B( 34-O , 37-H ) :   0.7773

Dispersion correction           -0.031325110
FINAL SINGLE POINT ENERGY     -3847.444112826603
Dispersion correction            ... done

DIPOLE MOMENT
-------------
                                X             Y             Z
Electronic contribution:      4.44732     -70.40432     -36.34602
Nuclear contribution   :     -2.97957      71.27661      38.30406
                        -----------------------------------------
Total Dipole Moment    :      1.46774       0.87229       1.95804
                        -----------------------------------------
Magnitude (a.u.)       :      2.59790
Magnitude (Debye)      :      6.60334

Rotational constants in cm-1:     0.006756     0.006117     0.004249
Rotational constants in MHz :   202.535521   183.387409   127.369684

                             ****ORCA TERMINATED NORMALLY****
TOTAL RUN TIME: 0 days 0 hours 28 minutes 4 seconds 921 msec
