                         Program Version 5.0.3 -  RELEASE  -
|  1> ! EnGrad PBEh-3c
|  2> %output
|  3> xyzfile=True
|  4> end
|  5> %scf
|  6> maxiter 250
|  7> end
|  8> %output
|  9> Print[P_Hirshfeld] = 1
| 10> end
| 11> % maxcore
| 12> 4000
| 13> *xyz 1 1
| 14> Ir   0.43534785  -0.70931397   0.90765364
| 15> C   -0.06707624  -2.69401648   1.74190583
| 16> C    0.90119827  -2.08410774   2.59434032
| 17> C    1.79489694  -2.29696357   0.48462788
| 18> C    0.48859628  -2.84273699   0.45420290
| 19> C    2.04510103  -1.86266407   1.81328308
| 20> N   -0.95635790   0.02060681  -0.40975886
| 21> C   -2.38023010   0.10256996  -0.00567499
| 22> C   -2.87149842   1.51861070   0.25332939
| 23> H   -3.89548631   1.52792779   0.62339472
| 24> H   -2.83331996   2.11073617  -0.66088746
| 25> H   -2.27397567   2.02705535   0.99831369
| 26> C   -3.36312043  -0.60898483  -0.93146104
| 27> H   -2.44286127  -0.39913916   0.95910745
| 28> H   -4.34622529  -0.68095202  -0.46827940
| 29> H   -3.49375711  -0.08448167  -1.87883176
| 30> H   -3.03527277  -1.62317769  -1.15521792
| 31> C   -0.67621730   0.27006798  -1.63241098
| 32> C    0.60091875   0.21844100  -2.27217833
| 33> H   -1.49216518   0.55074524  -2.29434411
| 34> C    1.84714976   0.13050191  -1.72702678
| 35> C    2.91294773   0.08636273  -2.64124731
| 36> S    0.76381245   0.05793691  -3.97169074
| 37> C    2.44915981  -0.04685374  -3.91912963
| 38> H    2.27584384   1.02230957  -0.78407202
| 39> H    3.97090271   0.06277694  -2.42071551
| 40> H    3.04571089  -0.18220250  -4.80846580
| 41> H   -0.94413118  -3.22707258   2.08732767
| 42> H    0.78271661  -1.96474800   3.65792432
| 43> H    2.98486227  -1.45577396   2.15334197
| 44> O    1.61476972   1.64317439   0.82450215
| 45> O   -0.02381309   1.01924832   2.02052234
| 46> C    0.73377864   1.94757319   1.67456973
| 47> C    0.70317900   3.32204912   2.22085834
| 48> H    0.80607321   4.06272522   1.42916893
| 49> H    1.53182376   3.49084797   2.90973381
| 50> H   -0.22207948   3.49558421   2.76281741
| 51> H    2.56360657  -2.49474582  -0.24790232
| 52> H    0.06519765  -3.42990271  -0.34162409
| 53> *
| 54>
| 55>                          ****END OF INPUT****

CARTESIAN COORDINATES (ANGSTROEM)
---------------------------------
  Ir     0.435348   -0.709314    0.907654
  C     -0.067076   -2.694016    1.741906
  C      0.901198   -2.084108    2.594340
  C      1.794897   -2.296964    0.484628
  C      0.488596   -2.842737    0.454203
  C      2.045101   -1.862664    1.813283
  N     -0.956358    0.020607   -0.409759
  C     -2.380230    0.102570   -0.005675
  C     -2.871498    1.518611    0.253329
  H     -3.895486    1.527928    0.623395
  H     -2.833320    2.110736   -0.660887
  H     -2.273976    2.027055    0.998314
  C     -3.363120   -0.608985   -0.931461
  H     -2.442861   -0.399139    0.959107
  H     -4.346225   -0.680952   -0.468279
  H     -3.493757   -0.084482   -1.878832
  H     -3.035273   -1.623178   -1.155218
  C     -0.676217    0.270068   -1.632411
  C      0.600919    0.218441   -2.272178
  H     -1.492165    0.550745   -2.294344
  C      1.847150    0.130502   -1.727027
  C      2.912948    0.086363   -2.641247
  S      0.763812    0.057937   -3.971691
  C      2.449160   -0.046854   -3.919130
  H      2.275844    1.022310   -0.784072
  H      3.970903    0.062777   -2.420716
  H      3.045711   -0.182202   -4.808466
  H     -0.944131   -3.227073    2.087328
  H      0.782717   -1.964748    3.657924
  H      2.984862   -1.455774    2.153342
  O      1.614770    1.643174    0.824502
  O     -0.023813    1.019248    2.020522
  C      0.733779    1.947573    1.674570
  C      0.703179    3.322049    2.220858
  H      0.806073    4.062725    1.429169
  H      1.531824    3.490848    2.909734
  H     -0.222079    3.495584    2.762817
  H      2.563607   -2.494746   -0.247902
  H      0.065198   -3.429903   -0.341624

 Total Charge           Charge          ....    1
 Multiplicity           Mult            ....    1
 Number of Electrons    NEL             ....  164
 Basis Dimension        Dim             ....  358

ORBITAL ENERGIES
----------------

  NO   OCC          E(Eh)            E(eV)
   0   2.0000     -89.747286     -2442.1478
   1   2.0000     -19.620065      -533.8891
   2   2.0000     -19.583581      -532.8963
   3   2.0000     -14.831234      -403.5784
   4   2.0000     -10.675394      -290.4922
   5   2.0000     -10.654555      -289.9252
   6   2.0000     -10.639728      -289.5217
   7   2.0000     -10.638318      -289.4833
   8   2.0000     -10.630732      -289.2769
   9   2.0000     -10.628630      -289.2197
  10   2.0000     -10.623493      -289.0799
  11   2.0000     -10.610867      -288.7364
  12   2.0000     -10.609085      -288.6879
  13   2.0000     -10.600261      -288.4478
  14   2.0000     -10.584556      -288.0204
  15   2.0000     -10.570250      -287.6311
  16   2.0000     -10.548887      -287.0498
  17   2.0000     -10.539040      -286.7819
  18   2.0000     -10.537826      -286.7488
  19   2.0000      -8.387245      -228.2285
  20   2.0000      -6.277176      -170.8106
  21   2.0000      -6.273765      -170.7178
  22   2.0000      -6.271985      -170.6694
  23   2.0000      -4.032806      -109.7382
  24   2.0000      -2.352808       -64.0232
  25   2.0000      -2.315775       -63.0154
  26   2.0000      -2.314474       -62.9800
  27   2.0000      -1.315289       -35.7908
  28   2.0000      -1.200989       -32.6806
  29   2.0000      -1.187040       -32.3010
  30   2.0000      -1.179031       -32.0831
  31   2.0000      -1.121384       -30.5144
  32   2.0000      -1.013192       -27.5704
  33   2.0000      -0.985682       -26.8218
  34   2.0000      -0.982435       -26.7334
  35   2.0000      -0.963061       -26.2062
  36   2.0000      -0.943475       -25.6733
  37   2.0000      -0.936140       -25.4737
  38   2.0000      -0.890088       -24.2205
  39   2.0000      -0.867938       -23.6178
  40   2.0000      -0.794385       -21.6163
  41   2.0000      -0.788465       -21.4552
  42   2.0000      -0.786876       -21.4120
  43   2.0000      -0.778627       -21.1875
  44   2.0000      -0.769442       -20.9376
  45   2.0000      -0.736290       -20.0355
  46   2.0000      -0.730765       -19.8851
  47   2.0000      -0.696561       -18.9544
  48   2.0000      -0.682493       -18.5716
  49   2.0000      -0.662138       -18.0177
  50   2.0000      -0.657834       -17.9006
  51   2.0000      -0.653556       -17.7842
  52   2.0000      -0.644506       -17.5379
  53   2.0000      -0.642092       -17.4722
  54   2.0000      -0.640992       -17.4423
  55   2.0000      -0.632830       -17.2202
  56   2.0000      -0.622274       -16.9329
  57   2.0000      -0.611490       -16.6395
  58   2.0000      -0.609096       -16.5743
  59   2.0000      -0.606032       -16.4910
  60   2.0000      -0.592057       -16.1107
  61   2.0000      -0.583342       -15.8735
  62   2.0000      -0.568535       -15.4706
  63   2.0000      -0.559762       -15.2319
  64   2.0000      -0.559028       -15.2119
  65   2.0000      -0.551969       -15.0198
  66   2.0000      -0.546330       -14.8664
  67   2.0000      -0.535605       -14.5746
  68   2.0000      -0.532236       -14.4829
  69   2.0000      -0.521289       -14.1850
  70   2.0000      -0.511200       -13.9105
  71   2.0000      -0.507695       -13.8151
  72   2.0000      -0.504966       -13.7408
  73   2.0000      -0.493824       -13.4376
  74   2.0000      -0.473511       -12.8849
  75   2.0000      -0.468088       -12.7373
  76   2.0000      -0.460459       -12.5297
  77   2.0000      -0.453081       -12.3290
  78   2.0000      -0.439016       -11.9462
  79   2.0000      -0.417769       -11.3681
  80   2.0000      -0.409101       -11.1322
  81   2.0000      -0.398140       -10.8339
  82   0.0000      -0.214613        -5.8399
  83   0.0000      -0.179993        -4.8979
  84   0.0000      -0.149109        -4.0575
  85   0.0000      -0.080261        -2.1840
  86   0.0000      -0.078900        -2.1470

MULLIKEN ATOMIC CHARGES
-----------------------
   0 Ir:    0.640476
   1 C :   -0.277177
   2 C :   -0.187765
   3 C :   -0.275340
   4 C :   -0.194614
   5 C :   -0.177415
   6 N :   -0.492616
   7 C :   -0.145597
   8 C :   -0.629171
   9 H :    0.251662
  10 H :    0.218909
  11 H :    0.261779
  12 C :   -0.658327
  13 H :    0.264517
  14 H :    0.265936
  15 H :    0.226184
  16 H :    0.240952
  17 C :    0.105320
  18 C :   -0.188615
  19 H :    0.269075
  20 C :   -0.291134
  21 C :   -0.139139
  22 S :    0.310896
  23 C :   -0.418635
  24 H :    0.317346
  25 H :    0.267779
  26 H :    0.296779
  27 H :    0.289234
  28 H :    0.297426
  29 H :    0.298032
  30 O :   -0.507963
  31 O :   -0.498800
  32 C :    0.639571
  33 C :   -0.763555
  34 H :    0.273884
  35 H :    0.278955
  36 H :    0.255431
  37 H :    0.289377
  38 H :    0.286345
Sum of atomic charges:    1.0000000

LOEWDIN ATOMIC CHARGES
----------------------
   0 Ir:   -0.143025
   1 C :   -0.035247
   2 C :   -0.016470
   3 C :   -0.036701
   4 C :   -0.058007
   5 C :   -0.055927
   6 N :   -0.034551
   7 C :   -0.065566
   8 C :   -0.351396
   9 H :    0.149359
  10 H :    0.131892
  11 H :    0.144516
  12 C :   -0.356540
  13 H :    0.148979
  14 H :    0.155433
  15 H :    0.132493
  16 H :    0.136065
  17 C :    0.042444
  18 C :   -0.235962
  19 H :    0.154200
  20 C :   -0.165650
  21 C :   -0.170430
  22 S :    0.471832
  23 C :   -0.257971
  24 H :    0.253450
  25 H :    0.158854
  26 H :    0.168408
  27 H :    0.184730
  28 H :    0.191245
  29 H :    0.188213
  30 O :   -0.281579
  31 O :   -0.183470
  32 C :    0.145804
  33 C :   -0.375831
  34 H :    0.168199
  35 H :    0.173558
  36 H :    0.153201
  37 H :    0.187670
  38 H :    0.183778

  Mayer bond orders larger than 0.100000
B(  0-Ir,  1-C ) :   0.5449 B(  0-Ir,  2-C ) :   0.4055 B(  0-Ir,  3-C ) :   0.5250
B(  0-Ir,  4-C ) :   0.4228 B(  0-Ir,  5-C ) :   0.4415 B(  0-Ir,  6-N ) :   0.4978
B(  0-Ir, 30-O ) :   0.3030 B(  0-Ir, 31-O ) :   0.5394 B(  1-C ,  2-C ) :   1.1348
B(  1-C ,  4-C ) :   1.1386 B(  1-C , 27-H ) :   0.9166 B(  2-C ,  5-C ) :   1.2404
B(  2-C , 28-H ) :   0.9096 B(  3-C ,  4-C ) :   1.1997 B(  3-C ,  5-C ) :   1.0951
B(  3-C , 37-H ) :   0.9175 B(  4-C , 38-H ) :   0.9145 B(  5-C , 29-H ) :   0.9044
B(  6-N ,  7-C ) :   0.8861 B(  6-N , 17-C ) :   1.6155 B(  7-C ,  8-C ) :   0.9788
B(  7-C , 12-C ) :   0.9839 B(  7-C , 13-H ) :   0.8902 B(  8-C ,  9-H ) :   0.9077
B(  8-C , 10-H ) :   0.9184 B(  8-C , 11-H ) :   0.9050 B( 12-C , 14-H ) :   0.9054
B( 12-C , 15-H ) :   0.9137 B( 12-C , 16-H ) :   0.9178 B( 17-C , 18-C ) :   1.1172
B( 17-C , 19-H ) :   0.8809 B( 18-C , 20-C ) :   1.3605 B( 18-C , 22-S ) :   1.1612
B( 20-C , 21-C ) :   1.3060 B( 20-C , 24-H ) :   0.7931 B( 21-C , 23-C ) :   1.4747
B( 21-C , 25-H ) :   0.9019 B( 22-S , 23-C ) :   1.2752 B( 23-C , 26-H ) :   0.8898
B( 30-O , 32-C ) :   1.5541 B( 31-O , 32-C ) :   1.3753 B( 32-C , 33-C ) :   0.9521
B( 33-C , 34-H ) :   0.9005 B( 33-C , 35-H ) :   0.8944 B( 33-C , 36-H ) :   0.9072

Dispersion correction           -0.029523467
FINAL SINGLE POINT ENERGY     -1288.325382946634
Dispersion correction            ... done

DIPOLE MOMENT
-------------
                                X             Y             Z
Electronic contribution:     22.44431     -68.66179     114.08269
Nuclear contribution   :    -22.61679      67.45766    -114.33405
                        -----------------------------------------
Total Dipole Moment    :     -0.17248      -1.20413      -0.25136
                        -----------------------------------------
Magnitude (a.u.)       :      1.24212
Magnitude (Debye)      :      3.15722

Rotational constants in cm-1:     0.010976     0.007731     0.007061
Rotational constants in MHz :   329.059108   231.768167   211.680492

                             ****ORCA TERMINATED NORMALLY****
TOTAL RUN TIME: 0 days 0 hours 15 minutes 21 seconds 450 msec
