                         Program Version 5.0.3 -  RELEASE  -
|  1> ! EnGrad PBEh-3c
|  2> %output
|  3> xyzfile=True
|  4> end
|  5> %scf
|  6> maxiter 250
|  7> end
|  8> %output
|  9> Print[P_Hirshfeld] = 1
| 10> end
| 11> % maxcore
| 12> 4000
| 13> *xyz 1 1
| 14> Ir   0.45314444  -0.69194711   0.98155002
| 15> C   -0.08642590  -2.69828889   1.65441118
| 16> C    0.82653483  -2.10977718   2.58869426
| 17> C    1.88759848  -2.34833755   0.57500488
| 18> C    0.60705503  -2.87668899   0.41578997
| 19> C    2.02779103  -1.83548368   1.92189020
| 20> N   -0.98497512  -0.00783814  -0.44585595
| 21> C   -2.42301123   0.07447621   0.02477462
| 22> C   -2.85770329   1.50142876   0.32364541
| 23> H   -3.89150660   1.46654718   0.67454983
| 24> H   -2.83383726   2.12661491  -0.56916497
| 25> H   -2.25771391   1.94428127   1.11354477
| 26> C   -3.37495966  -0.59588292  -0.95946678
| 27> H   -2.44302486  -0.49703310   0.95380684
| 28> H   -4.35181750  -0.66479641  -0.48096742
| 29> H   -3.53034762  -0.01546170  -1.87043606
| 30> H   -3.06771667  -1.60561255  -1.22785584
| 31> C   -0.68698258   0.29225520  -1.66276115
| 32> C    0.63931903   0.21540431  -2.24341729
| 33> H   -1.52657827   0.55432349  -2.31619888
| 34> C    1.91795097   0.35637695  -1.70568067
| 35> C    2.90452690   0.01140213  -2.64458018
| 36> S    0.72924818   0.04859541  -3.98241654
| 37> C    2.42759875  -0.05674194  -3.91665773
| 38> H    2.13667908   0.82176420  -0.80579699
| 39> H    3.94026464   0.03372718  -2.37833211
| 40> H    3.02985060  -0.15483825  -4.80040057
| 41> H   -0.99559340  -3.21895668   1.93109623
| 42> H    0.60113996  -1.92537630   3.62660208
| 43> H    2.92251107  -1.41101604   2.34203931
| 44> O    1.67262542   1.64512123   0.75325202
| 45> O   -0.02542843   1.03364364   1.99921457
| 46> C    0.82382143   1.93382798   1.57861270
| 47> C    0.71742477   3.33560023   2.17719975
| 48> H    0.80945064   4.08611045   1.38803848
| 49> H    1.56839450   3.50607355   2.84558715
| 50> H   -0.19695786   3.51411226   2.74024909
| 51> H    2.67711155  -2.37426860  -0.15776432
| 52> H    0.21231546  -3.40685965  -0.43838320
| 53> *
| 54>
| 55>                          ****END OF INPUT****

CARTESIAN COORDINATES (ANGSTROEM)
---------------------------------
  Ir     0.453144   -0.691947    0.981550
  C     -0.086426   -2.698289    1.654411
  C      0.826535   -2.109777    2.588694
  C      1.887598   -2.348338    0.575005
  C      0.607055   -2.876689    0.415790
  C      2.027791   -1.835484    1.921890
  N     -0.984975   -0.007838   -0.445856
  C     -2.423011    0.074476    0.024775
  C     -2.857703    1.501429    0.323645
  H     -3.891507    1.466547    0.674550
  H     -2.833837    2.126615   -0.569165
  H     -2.257714    1.944281    1.113545
  C     -3.374960   -0.595883   -0.959467
  H     -2.443025   -0.497033    0.953807
  H     -4.351818   -0.664796   -0.480967
  H     -3.530348   -0.015462   -1.870436
  H     -3.067717   -1.605613   -1.227856
  C     -0.686983    0.292255   -1.662761
  C      0.639319    0.215404   -2.243417
  H     -1.526578    0.554323   -2.316199
  C      1.917951    0.356377   -1.705681
  C      2.904527    0.011402   -2.644580
  S      0.729248    0.048595   -3.982417
  C      2.427599   -0.056742   -3.916658
  H      2.136679    0.821764   -0.805797
  H      3.940265    0.033727   -2.378332
  H      3.029851   -0.154838   -4.800401
  H     -0.995593   -3.218957    1.931096
  H      0.601140   -1.925376    3.626602
  H      2.922511   -1.411016    2.342039
  O      1.672625    1.645121    0.753252
  O     -0.025428    1.033644    1.999215
  C      0.823821    1.933828    1.578613
  C      0.717425    3.335600    2.177200
  H      0.809451    4.086110    1.388038
  H      1.568394    3.506074    2.845587
  H     -0.196958    3.514112    2.740249
  H      2.677112   -2.374269   -0.157764
  H      0.212315   -3.406860   -0.438383

 Total Charge           Charge          ....    1
 Multiplicity           Mult            ....    1
 Number of Electrons    NEL             ....  164
 Basis Dimension        Dim             ....  358

ORBITAL ENERGIES
----------------

  NO   OCC          E(Eh)            E(eV)
   0   2.0000     -89.743822     -2442.0535
   1   2.0000     -19.626936      -534.0761
   2   2.0000     -19.604515      -533.4660
   3   2.0000     -14.825457      -403.4212
   4   2.0000     -10.687316      -290.8167
   5   2.0000     -10.654232      -289.9164
   6   2.0000     -10.645206      -289.6708
   7   2.0000     -10.641521      -289.5705
   8   2.0000     -10.639151      -289.5060
   9   2.0000     -10.635952      -289.4190
  10   2.0000     -10.629914      -289.2547
  11   2.0000     -10.611437      -288.7519
  12   2.0000     -10.611384      -288.7504
  13   2.0000     -10.598829      -288.4088
  14   2.0000     -10.572277      -287.6863
  15   2.0000     -10.565481      -287.5014
  16   2.0000     -10.548560      -287.0409
  17   2.0000     -10.541930      -286.8605
  18   2.0000     -10.538995      -286.7806
  19   2.0000      -8.382969      -228.1122
  20   2.0000      -6.273108      -170.6999
  21   2.0000      -6.269667      -170.6063
  22   2.0000      -6.267405      -170.5448
  23   2.0000      -4.033601      -109.7599
  24   2.0000      -2.352752       -64.0216
  25   2.0000      -2.316335       -63.0307
  26   2.0000      -2.315657       -63.0122
  27   2.0000      -1.315504       -35.7967
  28   2.0000      -1.207854       -32.8674
  29   2.0000      -1.185443       -32.2575
  30   2.0000      -1.177822       -32.0502
  31   2.0000      -1.109420       -30.1888
  32   2.0000      -1.008948       -27.4549
  33   2.0000      -0.991307       -26.9748
  34   2.0000      -0.981162       -26.6988
  35   2.0000      -0.955164       -25.9913
  36   2.0000      -0.947661       -25.7872
  37   2.0000      -0.925974       -25.1970
  38   2.0000      -0.889748       -24.2113
  39   2.0000      -0.859254       -23.3815
  40   2.0000      -0.792696       -21.5704
  41   2.0000      -0.791084       -21.5265
  42   2.0000      -0.786547       -21.4030
  43   2.0000      -0.779124       -21.2010
  44   2.0000      -0.763938       -20.7878
  45   2.0000      -0.745934       -20.2979
  46   2.0000      -0.729850       -19.8602
  47   2.0000      -0.714141       -19.4328
  48   2.0000      -0.679928       -18.5018
  49   2.0000      -0.664912       -18.0932
  50   2.0000      -0.661620       -18.0036
  51   2.0000      -0.652845       -17.7648
  52   2.0000      -0.643237       -17.5034
  53   2.0000      -0.642732       -17.4896
  54   2.0000      -0.638314       -17.3694
  55   2.0000      -0.631210       -17.1761
  56   2.0000      -0.615113       -16.7381
  57   2.0000      -0.613168       -16.6852
  58   2.0000      -0.612372       -16.6635
  59   2.0000      -0.601388       -16.3646
  60   2.0000      -0.586622       -15.9628
  61   2.0000      -0.584252       -15.8983
  62   2.0000      -0.569074       -15.4853
  63   2.0000      -0.561512       -15.2795
  64   2.0000      -0.557348       -15.1662
  65   2.0000      -0.554512       -15.0890
  66   2.0000      -0.548499       -14.9254
  67   2.0000      -0.541065       -14.7231
  68   2.0000      -0.532593       -14.4926
  69   2.0000      -0.525236       -14.2924
  70   2.0000      -0.519355       -14.1324
  71   2.0000      -0.517370       -14.0784
  72   2.0000      -0.507478       -13.8092
  73   2.0000      -0.505412       -13.7530
  74   2.0000      -0.486190       -13.2299
  75   2.0000      -0.478610       -13.0236
  76   2.0000      -0.470379       -12.7997
  77   2.0000      -0.456104       -12.4112
  78   2.0000      -0.443018       -12.0551
  79   2.0000      -0.425291       -11.5728
  80   2.0000      -0.413011       -11.2386
  81   2.0000      -0.393900       -10.7186
  82   0.0000      -0.216485        -5.8909
  83   0.0000      -0.171812        -4.6753
  84   0.0000      -0.152766        -4.1570
  85   0.0000      -0.083675        -2.2769
  86   0.0000      -0.081634        -2.2214

MULLIKEN ATOMIC CHARGES
-----------------------
   0 Ir:    0.615468
   1 C :   -0.297677
   2 C :   -0.177149
   3 C :   -0.217602
   4 C :   -0.180466
   5 C :   -0.245670
   6 N :   -0.463719
   7 C :   -0.131848
   8 C :   -0.629221
   9 H :    0.246448
  10 H :    0.222793
  11 H :    0.267655
  12 C :   -0.664492
  13 H :    0.259488
  14 H :    0.262918
  15 H :    0.228822
  16 H :    0.243529
  17 C :    0.060680
  18 C :   -0.259136
  19 H :    0.270093
  20 C :   -0.235063
  21 C :   -0.154962
  22 S :    0.298205
  23 C :   -0.418775
  24 H :    0.371505
  25 H :    0.261880
  26 H :    0.293498
  27 H :    0.291113
  28 H :    0.305329
  29 H :    0.300683
  30 O :   -0.449108
  31 O :   -0.533758
  32 C :    0.627469
  33 C :   -0.761785
  34 H :    0.267914
  35 H :    0.271581
  36 H :    0.263288
  37 H :    0.297775
  38 H :    0.292299
Sum of atomic charges:    1.0000000

LOEWDIN ATOMIC CHARGES
----------------------
   0 Ir:   -0.133858
   1 C :   -0.036179
   2 C :   -0.022246
   3 C :   -0.018884
   4 C :   -0.054233
   5 C :   -0.065914
   6 N :   -0.054104
   7 C :   -0.056376
   8 C :   -0.351335
   9 H :    0.147492
  10 H :    0.134754
  11 H :    0.149391
  12 C :   -0.360354
  13 H :    0.146347
  14 H :    0.153625
  15 H :    0.133930
  16 H :    0.138085
  17 C :    0.032045
  18 C :   -0.224607
  19 H :    0.154005
  20 C :   -0.123393
  21 C :   -0.171105
  22 S :    0.445167
  23 C :   -0.248759
  24 H :    0.189895
  25 H :    0.155466
  26 H :    0.166887
  27 H :    0.186403
  28 H :    0.192396
  29 H :    0.190710
  30 O :   -0.220562
  31 O :   -0.217977
  32 C :    0.164198
  33 C :   -0.381465
  34 H :    0.163322
  35 H :    0.168654
  36 H :    0.154722
  37 H :    0.187136
  38 H :    0.186720

  Mayer bond orders larger than 0.100000
B(  0-Ir,  1-C ) :   0.5856 B(  0-Ir,  2-C ) :   0.4287 B(  0-Ir,  3-C ) :   0.4542
B(  0-Ir,  4-C ) :   0.3690 B(  0-Ir,  5-C ) :   0.4770 B(  0-Ir,  6-N ) :   0.4876
B(  0-Ir, 30-O ) :   0.2542 B(  0-Ir, 31-O ) :   0.6160 B(  1-C ,  2-C ) :   1.1237
B(  1-C ,  4-C ) :   1.1146 B(  1-C , 27-H ) :   0.9163 B(  2-C ,  5-C ) :   1.2299
B(  2-C , 28-H ) :   0.9012 B(  3-C ,  4-C ) :   1.2666 B(  3-C ,  5-C ) :   1.0968
B(  3-C , 37-H ) :   0.9044 B(  4-C , 38-H ) :   0.9100 B(  5-C , 29-H ) :   0.9052
B(  6-N ,  7-C ) :   0.8669 B(  6-N , 17-C ) :   1.6595 B(  7-C ,  8-C ) :   0.9799
B(  7-C , 12-C ) :   0.9845 B(  7-C , 13-H ) :   0.8923 B(  8-C ,  9-H ) :   0.9068
B(  8-C , 10-H ) :   0.9177 B(  8-C , 11-H ) :   0.9009 B( 12-C , 14-H ) :   0.9052
B( 12-C , 15-H ) :   0.9130 B( 12-C , 16-H ) :   0.9176 B( 17-C , 18-C ) :   1.1013
B( 17-C , 19-H ) :   0.8791 B( 18-C , 20-C ) :   1.4270 B( 18-C , 22-S ) :   1.1555
B( 20-C , 21-C ) :   1.3149 B( 20-C , 24-H ) :   0.7873 B( 21-C , 23-C ) :   1.4869
B( 21-C , 25-H ) :   0.9052 B( 22-S , 23-C ) :   1.2564 B( 23-C , 26-H ) :   0.8952
B( 30-O , 32-C ) :   1.6752 B( 31-O , 32-C ) :   1.2546 B( 32-C , 33-C ) :   0.9408
B( 33-C , 34-H ) :   0.9017 B( 33-C , 35-H ) :   0.8972 B( 33-C , 36-H ) :   0.9066

Dispersion correction           -0.029282483
FINAL SINGLE POINT ENERGY     -1288.383984008422
Dispersion correction            ... done

DIPOLE MOMENT
-------------
                                X             Y             Z
Electronic contribution:     23.78716     -67.06238     121.73989
Nuclear contribution   :    -24.00470      65.77517    -121.91946
                        -----------------------------------------
Total Dipole Moment    :     -0.21753      -1.28720      -0.17957
                        -----------------------------------------
Magnitude (a.u.)       :      1.31775
Magnitude (Debye)      :      3.34945

Rotational constants in cm-1:     0.010874     0.007642     0.006991
Rotational constants in MHz :   326.001002   229.098464   209.575684

                             ****ORCA TERMINATED NORMALLY****
TOTAL RUN TIME: 0 days 0 hours 15 minutes 8 seconds 639 msec
