                         Program Version 5.0.3 -  RELEASE  -
|  1> ! EnGrad PBEh-3c
|  2> %output
|  3> xyzfile=True
|  4> end
|  5> %scf
|  6> maxiter 250
|  7> end
|  8> %output
|  9> Print[P_Hirshfeld] = 1
| 10> end
| 11> % maxcore
| 12> 4000
| 13> *xyz 1 1
| 14> Ir   0.45247889  -0.71325735   1.01367767
| 15> C   -0.09853657  -2.69775548   1.57630290
| 16> C    0.75725359  -2.11926271   2.59587140
| 17> C    1.98800097  -2.37273330   0.66265096
| 18> C    0.70939794  -2.90551250   0.39630888
| 19> C    2.01647483  -1.82411814   2.01554785
| 20> N   -0.99471781  -0.02704337  -0.44841034
| 21> C   -2.42272562   0.04136795   0.02578961
| 22> C   -2.84737490   1.47302901   0.39308084
| 23> H   -3.88446314   1.41652250   0.72069986
| 24> H   -2.82925239   2.14324460  -0.48162856
| 25> H   -2.23982158   1.87472700   1.21286454
| 26> C   -3.39304082  -0.58044567  -0.97882292
| 27> H   -2.44281342  -0.58346700   0.94386779
| 28> H   -4.35889240  -0.65388735  -0.49411749
| 29> H   -3.55960349   0.04560247  -1.86208763
| 30> H   -3.09426575  -1.58800776  -1.29592408
| 31> C   -0.69330306   0.30461843  -1.66237374
| 32> C    0.63601172   0.26460820  -2.25083523
| 33> H   -1.53017354   0.55472790  -2.33860741
| 34> C    1.91199807   0.45804787  -1.79967223
| 35> C    2.89881021   0.02041414  -2.65844670
| 36> S    0.71318368   0.01923277  -3.95988170
| 37> C    2.40519911  -0.09447702  -3.92311658
| 38> H    2.03042406   0.65589718  -0.71029727
| 39> H    3.94531426   0.00302571  -2.34765150
| 40> H    3.00744619  -0.14002821  -4.80696919
| 41> H   -1.05958586  -3.16769152   1.77408198
| 42> H    0.43469857  -1.87680193   3.60267914
| 43> H    2.87032460  -1.36398324   2.51997872
| 44> O    1.69062523   1.61213300   0.72742114
| 45> O    0.01413787   1.06386282   1.96992180
| 46> C    0.85939322   1.93094129   1.52982885
| 47> C    0.73963953   3.32628741   2.12455396
| 48> H    0.80836868   4.09531792   1.35198650
| 49> H    1.59372747   3.51078756   2.78229714
| 50> H   -0.16872317   3.51892837   2.71234614
| 51> H    2.77740517  -2.24424566  -0.08757518
| 52> H    0.35113785  -3.36505723  -0.53754284
| 53> *
| 54>
| 55>                          ****END OF INPUT****

CARTESIAN COORDINATES (ANGSTROEM)
---------------------------------
  Ir     0.452479   -0.713257    1.013678
  C     -0.098537   -2.697755    1.576303
  C      0.757254   -2.119263    2.595871
  C      1.988001   -2.372733    0.662651
  C      0.709398   -2.905512    0.396309
  C      2.016475   -1.824118    2.015548
  N     -0.994718   -0.027043   -0.448410
  C     -2.422726    0.041368    0.025790
  C     -2.847375    1.473029    0.393081
  H     -3.884463    1.416522    0.720700
  H     -2.829252    2.143245   -0.481629
  H     -2.239822    1.874727    1.212865
  C     -3.393041   -0.580446   -0.978823
  H     -2.442813   -0.583467    0.943868
  H     -4.358892   -0.653887   -0.494117
  H     -3.559603    0.045602   -1.862088
  H     -3.094266   -1.588008   -1.295924
  C     -0.693303    0.304618   -1.662374
  C      0.636012    0.264608   -2.250835
  H     -1.530174    0.554728   -2.338607
  C      1.911998    0.458048   -1.799672
  C      2.898810    0.020414   -2.658447
  S      0.713184    0.019233   -3.959882
  C      2.405199   -0.094477   -3.923117
  H      2.030424    0.655897   -0.710297
  H      3.945314    0.003026   -2.347652
  H      3.007446   -0.140028   -4.806969
  H     -1.059586   -3.167692    1.774082
  H      0.434699   -1.876802    3.602679
  H      2.870325   -1.363983    2.519979
  O      1.690625    1.612133    0.727421
  O      0.014138    1.063863    1.969922
  C      0.859393    1.930941    1.529829
  C      0.739640    3.326287    2.124554
  H      0.808369    4.095318    1.351986
  H      1.593727    3.510788    2.782297
  H     -0.168723    3.518928    2.712346
  H      2.777405   -2.244246   -0.087575
  H      0.351138   -3.365057   -0.537543

 Total Charge           Charge          ....    1
 Multiplicity           Mult            ....    1
 Number of Electrons    NEL             ....  164
 Basis Dimension        Dim             ....  358

ORBITAL ENERGIES
----------------

  NO   OCC          E(Eh)            E(eV)
   0   2.0000     -89.738265     -2441.9023
   1   2.0000     -19.626374      -534.0608
   2   2.0000     -19.603235      -533.4311
   3   2.0000     -14.827349      -403.4727
   4   2.0000     -10.683699      -290.7182
   5   2.0000     -10.658334      -290.0280
   6   2.0000     -10.657367      -290.0017
   7   2.0000     -10.650877      -289.8251
   8   2.0000     -10.645854      -289.6884
   9   2.0000     -10.645648      -289.6828
  10   2.0000     -10.640192      -289.5344
  11   2.0000     -10.615573      -288.8644
  12   2.0000     -10.603730      -288.5422
  13   2.0000     -10.595449      -288.3168
  14   2.0000     -10.567229      -287.5489
  15   2.0000     -10.564488      -287.4743
  16   2.0000     -10.550313      -287.0886
  17   2.0000     -10.542625      -286.8794
  18   2.0000     -10.540853      -286.8312
  19   2.0000      -8.378123      -227.9803
  20   2.0000      -6.268142      -170.5648
  21   2.0000      -6.264747      -170.4724
  22   2.0000      -6.262720      -170.4173
  23   2.0000      -4.037114      -109.8555
  24   2.0000      -2.356299       -64.1182
  25   2.0000      -2.319766       -63.1240
  26   2.0000      -2.319158       -63.1075
  27   2.0000      -1.328652       -36.1545
  28   2.0000      -1.215457       -33.0743
  29   2.0000      -1.183904       -32.2157
  30   2.0000      -1.174599       -31.9625
  31   2.0000      -1.115770       -30.3616
  32   2.0000      -1.006876       -27.3985
  33   2.0000      -0.991583       -26.9823
  34   2.0000      -0.982337       -26.7307
  35   2.0000      -0.955820       -26.0092
  36   2.0000      -0.944059       -25.6891
  37   2.0000      -0.926105       -25.2006
  38   2.0000      -0.888409       -24.1748
  39   2.0000      -0.859629       -23.3917
  40   2.0000      -0.794135       -21.6095
  41   2.0000      -0.792732       -21.5713
  42   2.0000      -0.785207       -21.3666
  43   2.0000      -0.775981       -21.1155
  44   2.0000      -0.763271       -20.7697
  45   2.0000      -0.743471       -20.2309
  46   2.0000      -0.726339       -19.7647
  47   2.0000      -0.710668       -19.3383
  48   2.0000      -0.679034       -18.4775
  49   2.0000      -0.667080       -18.1522
  50   2.0000      -0.664654       -18.0862
  51   2.0000      -0.654722       -17.8159
  52   2.0000      -0.646377       -17.5888
  53   2.0000      -0.643237       -17.5034
  54   2.0000      -0.640271       -17.4227
  55   2.0000      -0.627579       -17.0773
  56   2.0000      -0.617868       -16.8131
  57   2.0000      -0.615145       -16.7389
  58   2.0000      -0.612808       -16.6753
  59   2.0000      -0.602671       -16.3995
  60   2.0000      -0.587508       -15.9869
  61   2.0000      -0.574118       -15.6225
  62   2.0000      -0.570914       -15.5354
  63   2.0000      -0.561255       -15.2725
  64   2.0000      -0.556452       -15.1418
  65   2.0000      -0.549302       -14.9473
  66   2.0000      -0.547721       -14.9042
  67   2.0000      -0.541825       -14.7438
  68   2.0000      -0.533298       -14.5118
  69   2.0000      -0.524593       -14.2749
  70   2.0000      -0.522999       -14.2315
  71   2.0000      -0.512624       -13.9492
  72   2.0000      -0.509440       -13.8626
  73   2.0000      -0.502494       -13.6736
  74   2.0000      -0.486884       -13.2488
  75   2.0000      -0.480106       -13.0643
  76   2.0000      -0.469020       -12.7627
  77   2.0000      -0.460658       -12.5351
  78   2.0000      -0.443832       -12.0773
  79   2.0000      -0.427730       -11.6391
  80   2.0000      -0.413977       -11.2649
  81   2.0000      -0.394082       -10.7235
  82   0.0000      -0.219378        -5.9696
  83   0.0000      -0.169650        -4.6164
  84   0.0000      -0.156935        -4.2704
  85   0.0000      -0.089091        -2.4243
  86   0.0000      -0.085740        -2.3331

MULLIKEN ATOMIC CHARGES
-----------------------
   0 Ir:    0.590266
   1 C :   -0.313920
   2 C :   -0.172196
   3 C :   -0.174909
   4 C :   -0.188009
   5 C :   -0.280483
   6 N :   -0.452223
   7 C :   -0.129900
   8 C :   -0.628826
   9 H :    0.246374
  10 H :    0.223085
  11 H :    0.268976
  12 C :   -0.664823
  13 H :    0.250544
  14 H :    0.264848
  15 H :    0.229625
  16 H :    0.241660
  17 C :    0.064151
  18 C :   -0.220010
  19 H :    0.270890
  20 C :   -0.206872
  21 C :   -0.164237
  22 S :    0.294585
  23 C :   -0.421522
  24 H :    0.301542
  25 H :    0.262673
  26 H :    0.293260
  27 H :    0.295016
  28 H :    0.313356
  29 H :    0.307256
  30 O :   -0.437003
  31 O :   -0.527382
  32 C :    0.624017
  33 C :   -0.772210
  34 H :    0.268389
  35 H :    0.271085
  36 H :    0.263065
  37 H :    0.308588
  38 H :    0.301275
Sum of atomic charges:    1.0000000

LOEWDIN ATOMIC CHARGES
----------------------
   0 Ir:   -0.137042
   1 C :   -0.040602
   2 C :   -0.021020
   3 C :    0.000982
   4 C :   -0.057399
   5 C :   -0.069653
   6 N :   -0.057942
   7 C :   -0.057137
   8 C :   -0.351636
   9 H :    0.146177
  10 H :    0.135608
  11 H :    0.151435
  12 C :   -0.361965
  13 H :    0.143716
  14 H :    0.153452
  15 H :    0.134650
  16 H :    0.138481
  17 C :    0.036214
  18 C :   -0.239775
  19 H :    0.155235
  20 C :   -0.127770
  21 C :   -0.176263
  22 S :    0.447506
  23 C :   -0.251837
  24 H :    0.189932
  25 H :    0.157511
  26 H :    0.166499
  27 H :    0.188415
  28 H :    0.195980
  29 H :    0.195754
  30 O :   -0.205572
  31 O :   -0.207363
  32 C :    0.139469
  33 C :   -0.383884
  34 H :    0.162339
  35 H :    0.167855
  36 H :    0.155363
  37 H :    0.192502
  38 H :    0.191784

  Mayer bond orders larger than 0.100000
B(  0-Ir,  1-C ) :   0.6088 B(  0-Ir,  2-C ) :   0.4650 B(  0-Ir,  3-C ) :   0.4245
B(  0-Ir,  4-C ) :   0.3609 B(  0-Ir,  5-C ) :   0.4841 B(  0-Ir,  6-N ) :   0.4790
B(  0-Ir, 30-O ) :   0.2369 B(  0-Ir, 31-O ) :   0.6241 B(  1-C ,  2-C ) :   1.1003
B(  1-C ,  4-C ) :   1.1080 B(  1-C , 27-H ) :   0.9113 B(  2-C ,  5-C ) :   1.2121
B(  2-C , 28-H ) :   0.8931 B(  3-C ,  4-C ) :   1.2784 B(  3-C ,  5-C ) :   1.0996
B(  3-C , 37-H ) :   0.8883 B(  4-C , 38-H ) :   0.9006 B(  5-C , 29-H ) :   0.9010
B(  6-N ,  7-C ) :   0.8717 B(  6-N , 17-C ) :   1.6704 B(  7-C ,  8-C ) :   0.9734
B(  7-C , 12-C ) :   0.9820 B(  7-C , 13-H ) :   0.8944 B(  8-C ,  9-H ) :   0.9056
B(  8-C , 10-H ) :   0.9178 B(  8-C , 11-H ) :   0.8994 B( 12-C , 14-H ) :   0.9039
B( 12-C , 15-H ) :   0.9130 B( 12-C , 16-H ) :   0.9186 B( 17-C , 18-C ) :   1.0862
B( 17-C , 19-H ) :   0.8773 B( 18-C , 20-C ) :   1.3988 B( 18-C , 22-S ) :   1.1461
B( 20-C , 21-C ) :   1.3117 B( 20-C , 24-H ) :   0.8334 B( 21-C , 23-C ) :   1.4636
B( 21-C , 25-H ) :   0.9053 B( 22-S , 23-C ) :   1.2741 B( 23-C , 26-H ) :   0.8947
B( 30-O , 32-C ) :   1.7046 B( 31-O , 32-C ) :   1.2570 B( 32-C , 33-C ) :   0.9376
B( 33-C , 34-H ) :   0.9012 B( 33-C , 35-H ) :   0.8967 B( 33-C , 36-H ) :   0.9080

Dispersion correction           -0.029179350
FINAL SINGLE POINT ENERGY     -1288.371334726128
Dispersion correction            ... done

DIPOLE MOMENT
-------------
                                X             Y             Z
Electronic contribution:     23.39591     -68.95219     125.15929
Nuclear contribution   :    -23.65678      67.61400    -125.20804
                        -----------------------------------------
Total Dipole Moment    :     -0.26087      -1.33819      -0.04875
                        -----------------------------------------
Magnitude (a.u.)       :      1.36425
Magnitude (Debye)      :      3.46764

Rotational constants in cm-1:     0.010837     0.007604     0.006958
Rotational constants in MHz :   324.894283   227.970904   208.589255

                             ****ORCA TERMINATED NORMALLY****
TOTAL RUN TIME: 0 days 0 hours 15 minutes 12 seconds 245 msec
