                         Program Version 5.0.3 -  RELEASE  -
|  1> ! EnGrad PBEh-3c
|  2> %output
|  3> xyzfile=True
|  4> end
|  5> %scf
|  6> maxiter 250
|  7> end
|  8> %output
|  9> Print[P_Hirshfeld] = 1
| 10> end
| 11> % maxcore
| 12> 4000
| 13> *xyz 1 1
| 14> Ir   0.45293776  -0.69856478   0.99152693
| 15> C   -0.09018674  -2.69812324   1.63015547
| 16> C    0.80502026  -2.11272281   2.59092304
| 17> C    1.91877743  -2.35591339   0.60222245
| 18> C    0.63883655  -2.88563983   0.40974032
| 19> C    2.02427690  -1.83195423   1.95097460
| 20> N   -0.98800061  -0.01380212  -0.44664919
| 21> C   -2.42292254   0.06419479   0.02508981
| 22> C   -2.85449592   1.49260952   0.34520786
| 23> H   -3.88931933   1.45101254   0.68888124
| 24> H   -2.83241347   2.13177908  -0.54198145
| 25> H   -2.25215764   1.92268192   1.14438749
| 26> C   -3.38057458  -0.59108904  -0.96547762
| 27> H   -2.44295920  -0.52387425   0.95072037
| 28> H   -4.35401453  -0.66140871  -0.48505103
| 29> H   -3.53943272   0.00350114  -1.86784355
| 30> H   -3.07596121  -1.60014556  -1.24899372
| 31> C   -0.68894534   0.29609447  -1.66264085
| 32> C    0.63829198   0.23068406  -2.24572086
| 33> H   -1.52769474   0.55444908  -2.32315761
| 34> C    1.91610236   0.38794979  -1.73486877
| 35> C    2.90275164   0.01420072  -2.64888629
| 36> S    0.72425952   0.03947715  -3.97541858
| 37> C    2.42064278  -0.06846018  -3.91866346
| 38> H    2.10368269   0.77025593  -0.77614055
| 39> H    3.94183274   0.02419316  -2.36880457
| 40> H    3.02289314  -0.15023914  -4.80244038
| 41> H   -1.01546559  -3.20303682   1.88233710
| 42> H    0.54945333  -1.91029204   3.61917307
| 43> H    2.90630510  -1.39641050   2.39729653
| 44> O    1.67821507   1.63487708   0.74523051
| 45> O   -0.01314153   1.04302789   1.99011801
| 46> C    0.83486788   1.93293155   1.56346339
| 47> C    0.72432333   3.33270823   2.16085115
| 48> H    0.80911464   4.08896973   1.37684292
| 49> H    1.57626139   3.50753743   2.82593310
| 50> H   -0.18818988   3.51560785   2.73158412
| 51> H    2.70825668  -2.33389134  -0.13596781
| 52> H    0.25542530  -3.39387835  -0.46917619
| 53> *
| 54>
| 55>                          ****END OF INPUT****

CARTESIAN COORDINATES (ANGSTROEM)
---------------------------------
  Ir     0.452938   -0.698565    0.991527
  C     -0.090187   -2.698123    1.630155
  C      0.805020   -2.112723    2.590923
  C      1.918777   -2.355913    0.602222
  C      0.638837   -2.885640    0.409740
  C      2.024277   -1.831954    1.950975
  N     -0.988001   -0.013802   -0.446649
  C     -2.422923    0.064195    0.025090
  C     -2.854496    1.492610    0.345208
  H     -3.889319    1.451013    0.688881
  H     -2.832413    2.131779   -0.541981
  H     -2.252158    1.922682    1.144387
  C     -3.380575   -0.591089   -0.965478
  H     -2.442959   -0.523874    0.950720
  H     -4.354015   -0.661409   -0.485051
  H     -3.539433    0.003501   -1.867844
  H     -3.075961   -1.600146   -1.248994
  C     -0.688945    0.296094   -1.662641
  C      0.638292    0.230684   -2.245721
  H     -1.527695    0.554449   -2.323158
  C      1.916102    0.387950   -1.734869
  C      2.902752    0.014201   -2.648886
  S      0.724260    0.039477   -3.975419
  C      2.420643   -0.068460   -3.918663
  H      2.103683    0.770256   -0.776141
  H      3.941833    0.024193   -2.368805
  H      3.022893   -0.150239   -4.802440
  H     -1.015466   -3.203037    1.882337
  H      0.549453   -1.910292    3.619173
  H      2.906305   -1.396410    2.397297
  O      1.678215    1.634877    0.745231
  O     -0.013142    1.043028    1.990118
  C      0.834868    1.932932    1.563463
  C      0.724323    3.332708    2.160851
  H      0.809115    4.088970    1.376843
  H      1.576261    3.507537    2.825933
  H     -0.188190    3.515608    2.731584
  H      2.708257   -2.333891   -0.135968
  H      0.255425   -3.393878   -0.469176

 Total Charge           Charge          ....    1
 Multiplicity           Mult            ....    1
 Number of Electrons    NEL             ....  164
 Basis Dimension        Dim             ....  358

ORBITAL ENERGIES
----------------

  NO   OCC          E(Eh)            E(eV)
   0   2.0000     -89.741910     -2442.0015
   1   2.0000     -19.626875      -534.0744
   2   2.0000     -19.604245      -533.4586
   3   2.0000     -14.825853      -403.4320
   4   2.0000     -10.686315      -290.7894
   5   2.0000     -10.655409      -289.9484
   6   2.0000     -10.646713      -289.7118
   7   2.0000     -10.646157      -289.6967
   8   2.0000     -10.641061      -289.5580
   9   2.0000     -10.638600      -289.4910
  10   2.0000     -10.632893      -289.3357
  11   2.0000     -10.612560      -288.7824
  12   2.0000     -10.608468      -288.6711
  13   2.0000     -10.597793      -288.3806
  14   2.0000     -10.569980      -287.6238
  15   2.0000     -10.564956      -287.4871
  16   2.0000     -10.548962      -287.0518
  17   2.0000     -10.541635      -286.8525
  18   2.0000     -10.539965      -286.8070
  19   2.0000      -8.381269      -228.0659
  20   2.0000      -6.271376      -170.6528
  21   2.0000      -6.267953      -170.5597
  22   2.0000      -6.265750      -170.4997
  23   2.0000      -4.034717      -109.7902
  24   2.0000      -2.353896       -64.0528
  25   2.0000      -2.317413       -63.0600
  26   2.0000      -2.316752       -63.0420
  27   2.0000      -1.319757       -35.9124
  28   2.0000      -1.210372       -32.9359
  29   2.0000      -1.184994       -32.2453
  30   2.0000      -1.177319       -32.0365
  31   2.0000      -1.111424       -30.2434
  32   2.0000      -1.008270       -27.4364
  33   2.0000      -0.991744       -26.9867
  34   2.0000      -0.981895       -26.7187
  35   2.0000      -0.955320       -25.9956
  36   2.0000      -0.946942       -25.7676
  37   2.0000      -0.926105       -25.2006
  38   2.0000      -0.889318       -24.1996
  39   2.0000      -0.859335       -23.3837
  40   2.0000      -0.793521       -21.5928
  41   2.0000      -0.791927       -21.5494
  42   2.0000      -0.786162       -21.3926
  43   2.0000      -0.778685       -21.1891
  44   2.0000      -0.763787       -20.7837
  45   2.0000      -0.745585       -20.2884
  46   2.0000      -0.729361       -19.8469
  47   2.0000      -0.713725       -19.4215
  48   2.0000      -0.679665       -18.4946
  49   2.0000      -0.665297       -18.1036
  50   2.0000      -0.663236       -18.0476
  51   2.0000      -0.653704       -17.7882
  52   2.0000      -0.644191       -17.5293
  53   2.0000      -0.642672       -17.4880
  54   2.0000      -0.639638       -17.4054
  55   2.0000      -0.630415       -17.1545
  56   2.0000      -0.616078       -16.7643
  57   2.0000      -0.613954       -16.7065
  58   2.0000      -0.612918       -16.6783
  59   2.0000      -0.601792       -16.3756
  60   2.0000      -0.586755       -15.9664
  61   2.0000      -0.580713       -15.8020
  62   2.0000      -0.570028       -15.5113
  63   2.0000      -0.561499       -15.2792
  64   2.0000      -0.556532       -15.1440
  65   2.0000      -0.554680       -15.0936
  66   2.0000      -0.548549       -14.9268
  67   2.0000      -0.541375       -14.7316
  68   2.0000      -0.532782       -14.4977
  69   2.0000      -0.525030       -14.2868
  70   2.0000      -0.519317       -14.1313
  71   2.0000      -0.517702       -14.0874
  72   2.0000      -0.508348       -13.8329
  73   2.0000      -0.504927       -13.7398
  74   2.0000      -0.486738       -13.2448
  75   2.0000      -0.479175       -13.0390
  76   2.0000      -0.470521       -12.8035
  77   2.0000      -0.457456       -12.4480
  78   2.0000      -0.443427       -12.0663
  79   2.0000      -0.426229       -11.5983
  80   2.0000      -0.413457       -11.2507
  81   2.0000      -0.394006       -10.7214
  82   0.0000      -0.217081        -5.9071
  83   0.0000      -0.170525        -4.6402
  84   0.0000      -0.153884        -4.1874
  85   0.0000      -0.084598        -2.3020
  86   0.0000      -0.082335        -2.2405

MULLIKEN ATOMIC CHARGES
-----------------------
   0 Ir:    0.606716
   1 C :   -0.302818
   2 C :   -0.174645
   3 C :   -0.202642
   4 C :   -0.183576
   5 C :   -0.257380
   6 N :   -0.459751
   7 C :   -0.131299
   8 C :   -0.629108
   9 H :    0.246386
  10 H :    0.222894
  11 H :    0.268015
  12 C :   -0.664609
  13 H :    0.256736
  14 H :    0.263473
  15 H :    0.229098
  16 H :    0.242941
  17 C :    0.054745
  18 C :   -0.246520
  19 H :    0.269873
  20 C :   -0.229747
  21 C :   -0.153808
  22 S :    0.298026
  23 C :   -0.422476
  24 H :    0.358179
  25 H :    0.261766
  26 H :    0.293842
  27 H :    0.292125
  28 H :    0.307805
  29 H :    0.302511
  30 O :   -0.444721
  31 O :   -0.531719
  32 C :    0.625582
  33 C :   -0.765098
  34 H :    0.268108
  35 H :    0.271429
  36 H :    0.263310
  37 H :    0.301360
  38 H :    0.294997
Sum of atomic charges:    1.0000000

LOEWDIN ATOMIC CHARGES
----------------------
   0 Ir:   -0.133137
   1 C :   -0.037604
   2 C :   -0.021579
   3 C :   -0.012191
   4 C :   -0.055330
   5 C :   -0.067171
   6 N :   -0.055698
   7 C :   -0.056661
   8 C :   -0.351440
   9 H :    0.147058
  10 H :    0.135001
  11 H :    0.149959
  12 C :   -0.360852
  13 H :    0.145540
  14 H :    0.153564
  15 H :    0.134134
  16 H :    0.138187
  17 C :    0.033555
  18 C :   -0.230135
  19 H :    0.154301
  20 C :   -0.123020
  21 C :   -0.173126
  22 S :    0.445759
  23 C :   -0.248971
  24 H :    0.187930
  25 H :    0.156119
  26 H :    0.166735
  27 H :    0.186878
  28 H :    0.193308
  29 H :    0.192120
  30 O :   -0.216117
  31 O :   -0.214534
  32 C :    0.156717
  33 C :   -0.382231
  34 H :    0.163036
  35 H :    0.168418
  36 H :    0.154956
  37 H :    0.188407
  38 H :    0.188119

  Mayer bond orders larger than 0.100000
B(  0-Ir,  1-C ) :   0.5933 B(  0-Ir,  2-C ) :   0.4396 B(  0-Ir,  3-C ) :   0.4449
B(  0-Ir,  4-C ) :   0.3661 B(  0-Ir,  5-C ) :   0.4793 B(  0-Ir,  6-N ) :   0.4850
B(  0-Ir, 30-O ) :   0.2497 B(  0-Ir, 31-O ) :   0.6184 B(  1-C ,  2-C ) :   1.1168
B(  1-C ,  4-C ) :   1.1121 B(  1-C , 27-H ) :   0.9152 B(  2-C ,  5-C ) :   1.2249
B(  2-C , 28-H ) :   0.8988 B(  3-C ,  4-C ) :   1.2715 B(  3-C ,  5-C ) :   1.0980
B(  3-C , 37-H ) :   0.8992 B(  4-C , 38-H ) :   0.9073 B(  5-C , 29-H ) :   0.9043
B(  6-N ,  7-C ) :   0.8684 B(  6-N , 17-C ) :   1.6638 B(  7-C ,  8-C ) :   0.9780
B(  7-C , 12-C ) :   0.9839 B(  7-C , 13-H ) :   0.8930 B(  8-C ,  9-H ) :   0.9064
B(  8-C , 10-H ) :   0.9177 B(  8-C , 11-H ) :   0.9005 B( 12-C , 14-H ) :   0.9049
B( 12-C , 15-H ) :   0.9130 B( 12-C , 16-H ) :   0.9179 B( 17-C , 18-C ) :   1.0988
B( 17-C , 19-H ) :   0.8789 B( 18-C , 20-C ) :   1.4167 B( 18-C , 22-S ) :   1.1532
B( 20-C , 21-C ) :   1.3184 B( 20-C , 24-H ) :   0.7958 B( 21-C , 23-C ) :   1.4752
B( 21-C , 25-H ) :   0.9056 B( 22-S , 23-C ) :   1.2637 B( 23-C , 26-H ) :   0.8950
B( 30-O , 32-C ) :   1.6838 B( 31-O , 32-C ) :   1.2562 B( 32-C , 33-C ) :   0.9398
B( 33-C , 34-H ) :   0.9015 B( 33-C , 35-H ) :   0.8970 B( 33-C , 36-H ) :   0.9071

Dispersion correction           -0.029254669
FINAL SINGLE POINT ENERGY     -1288.385395589294
Dispersion correction            ... done

DIPOLE MOMENT
-------------
                                X             Y             Z
Electronic contribution:     23.66966     -67.64996     122.80591
Nuclear contribution   :    -23.89665      66.34620    -122.94069
                        -----------------------------------------
Total Dipole Moment    :     -0.22700      -1.30376      -0.13479
                        -----------------------------------------
Magnitude (a.u.)       :      1.33021
Magnitude (Debye)      :      3.38114

Rotational constants in cm-1:     0.010864     0.007631     0.006981
Rotational constants in MHz :   325.686213   228.775695   209.293719

                             ****ORCA TERMINATED NORMALLY****
TOTAL RUN TIME: 0 days 0 hours 15 minutes 2 seconds 245 msec
