                         Program Version 5.0.3 -  RELEASE  -
|  1> ! EnGrad PBEh-3c
|  2> %output
|  3> xyzfile=True
|  4> end
|  5> %scf
|  6> maxiter 250
|  7> end
|  8> %output
|  9> Print[P_Hirshfeld] = 1
| 10> end
| 11> % maxcore
| 12> 4000
| 13> *xyz 1 1
| 14> Ir   0.45171828  -0.72909151   0.99282779
| 15> C   -0.08400824  -2.69610059   1.56072918
| 16> C    0.73507852  -2.11393633   2.59422108
| 17> C    1.99900195  -2.35310389   0.68519176
| 18> C    0.73286681  -2.90196949   0.39509580
| 19> C    2.00981711  -1.82949218   2.03679873
| 20> N   -0.98318550  -0.02552208  -0.44801615
| 21> C   -2.41173914   0.03030324   0.02557808
| 22> C   -2.84177380   1.45770192   0.40839931
| 23> H   -3.88257829   1.40711153   0.73607214
| 24> H   -2.82327511   2.14182004  -0.45060331
| 25> H   -2.24025239   1.85615788   1.22937735
| 26> C   -3.39506906  -0.57510220  -0.98465629
| 27> H   -2.44376068  -0.59505656   0.92848780
| 28> H   -4.36569403  -0.65426677  -0.49577680
| 29> H   -3.56368927   0.05863153  -1.85830915
| 30> H   -3.10205869  -1.57693056  -1.31250681
| 31> C   -0.69522677   0.29831587  -1.64475183
| 32> C    0.62530421   0.29834924  -2.26676690
| 33> H   -1.52237453   0.55342998  -2.33918073
| 34> C    1.86899051   0.42488434  -1.79344270
| 35> C    2.92245255   0.06144358  -2.65741046
| 36> S    0.71019502   0.00768756  -3.96445086
| 37> C    2.39944290  -0.10726330  -3.92341582
| 38> H    2.02121690   0.62281811  -0.68651060
| 39> H    3.93826866  -0.00570020  -2.35388810
| 40> H    3.00167190  -0.14747493  -4.82155281
| 41> H   -1.07855771  -3.14461058   1.72925019
| 42> H    0.39343428  -1.86643515   3.59743907
| 43> H    2.84907114  -1.35669163   2.55989700
| 44> O    1.76513967   1.57894478   0.66246817
| 45> O    0.02647461   1.05361982   1.96328732
| 46> C    0.77793316   1.96787857   1.60751088
| 47> C    0.75074950   3.32382148   2.10625568
| 48> H    0.80782062   4.09384267   1.34067425
| 49> H    1.59964161   3.50922328   2.76576116
| 50> H   -0.15632407   3.50937534   2.69836991
| 51> H    2.79961145  -2.21383480  -0.06239821
| 52> H    0.39622634  -3.34509857  -0.55127632
| 53> *
| 54>
| 55>                          ****END OF INPUT****

CARTESIAN COORDINATES (ANGSTROEM)
---------------------------------
  Ir     0.451718   -0.729092    0.992828
  C     -0.084008   -2.696101    1.560729
  C      0.735079   -2.113936    2.594221
  C      1.999002   -2.353104    0.685192
  C      0.732867   -2.901969    0.395096
  C      2.009817   -1.829492    2.036799
  N     -0.983186   -0.025522   -0.448016
  C     -2.411739    0.030303    0.025578
  C     -2.841774    1.457702    0.408399
  H     -3.882578    1.407112    0.736072
  H     -2.823275    2.141820   -0.450603
  H     -2.240252    1.856158    1.229377
  C     -3.395069   -0.575102   -0.984656
  H     -2.443761   -0.595057    0.928488
  H     -4.365694   -0.654267   -0.495777
  H     -3.563689    0.058632   -1.858309
  H     -3.102059   -1.576931   -1.312507
  C     -0.695227    0.298316   -1.644752
  C      0.625304    0.298349   -2.266767
  H     -1.522375    0.553430   -2.339181
  C      1.868991    0.424884   -1.793443
  C      2.922453    0.061444   -2.657410
  S      0.710195    0.007688   -3.964451
  C      2.399443   -0.107263   -3.923416
  H      2.021217    0.622818   -0.686511
  H      3.938269   -0.005700   -2.353888
  H      3.001672   -0.147475   -4.821553
  H     -1.078558   -3.144611    1.729250
  H      0.393434   -1.866435    3.597439
  H      2.849071   -1.356692    2.559897
  O      1.765140    1.578945    0.662468
  O      0.026475    1.053620    1.963287
  C      0.777933    1.967879    1.607511
  C      0.750749    3.323821    2.106256
  H      0.807821    4.093843    1.340674
  H      1.599642    3.509223    2.765761
  H     -0.156324    3.509375    2.698370
  H      2.799611   -2.213835   -0.062398
  H      0.396226   -3.345099   -0.551276

 Total Charge           Charge          ....    1
 Multiplicity           Mult            ....    1
 Number of Electrons    NEL             ....  164
 Basis Dimension        Dim             ....  358

ORBITAL ENERGIES
----------------

  NO   OCC          E(Eh)            E(eV)
   0   2.0000     -89.731324     -2441.7135
   1   2.0000     -19.653390      -534.7959
   2   2.0000     -19.584014      -532.9081
   3   2.0000     -14.826848      -403.4591
   4   2.0000     -10.701118      -291.1922
   5   2.0000     -10.657669      -290.0099
   6   2.0000     -10.655295      -289.9453
   7   2.0000     -10.648092      -289.7493
   8   2.0000     -10.647010      -289.7199
   9   2.0000     -10.645965      -289.6914
  10   2.0000     -10.640116      -289.5323
  11   2.0000     -10.617046      -288.9045
  12   2.0000     -10.593990      -288.2771
  13   2.0000     -10.591130      -288.1993
  14   2.0000     -10.558972      -287.3242
  15   2.0000     -10.555693      -287.2350
  16   2.0000     -10.553045      -287.1630
  17   2.0000     -10.551435      -287.1192
  18   2.0000     -10.545722      -286.9637
  19   2.0000      -8.371341      -227.7958
  20   2.0000      -6.261432      -170.3822
  21   2.0000      -6.257968      -170.2880
  22   2.0000      -6.255888      -170.2314
  23   2.0000      -4.038845      -109.9026
  24   2.0000      -2.358425       -64.1760
  25   2.0000      -2.322187       -63.1899
  26   2.0000      -2.320116       -63.1336
  27   2.0000      -1.323176       -36.0054
  28   2.0000      -1.190903       -32.4061
  29   2.0000      -1.179201       -32.0877
  30   2.0000      -1.142849       -31.0985
  31   2.0000      -1.107064       -30.1247
  32   2.0000      -1.007129       -27.4054
  33   2.0000      -0.993684       -27.0395
  34   2.0000      -0.983508       -26.7626
  35   2.0000      -0.958903       -26.0931
  36   2.0000      -0.949563       -25.8389
  37   2.0000      -0.935786       -25.4640
  38   2.0000      -0.890172       -24.2228
  39   2.0000      -0.857907       -23.3448
  40   2.0000      -0.794336       -21.6150
  41   2.0000      -0.792551       -21.5664
  42   2.0000      -0.786833       -21.4108
  43   2.0000      -0.775915       -21.1137
  44   2.0000      -0.762515       -20.7491
  45   2.0000      -0.755380       -20.5549
  46   2.0000      -0.724214       -19.7069
  47   2.0000      -0.705581       -19.1998
  48   2.0000      -0.682403       -18.5691
  49   2.0000      -0.665530       -18.1100
  50   2.0000      -0.660922       -17.9846
  51   2.0000      -0.654965       -17.8225
  52   2.0000      -0.646898       -17.6030
  53   2.0000      -0.642979       -17.4964
  54   2.0000      -0.641506       -17.4563
  55   2.0000      -0.628833       -17.1114
  56   2.0000      -0.618943       -16.8423
  57   2.0000      -0.615595       -16.7512
  58   2.0000      -0.613120       -16.6838
  59   2.0000      -0.602890       -16.4055
  60   2.0000      -0.586245       -15.9525
  61   2.0000      -0.572174       -15.5696
  62   2.0000      -0.567251       -15.4357
  63   2.0000      -0.562737       -15.3129
  64   2.0000      -0.560523       -15.2526
  65   2.0000      -0.558075       -15.1860
  66   2.0000      -0.554172       -15.0798
  67   2.0000      -0.537113       -14.6156
  68   2.0000      -0.534963       -14.5571
  69   2.0000      -0.525450       -14.2982
  70   2.0000      -0.522485       -14.2175
  71   2.0000      -0.514132       -13.9902
  72   2.0000      -0.502240       -13.6666
  73   2.0000      -0.499696       -13.5974
  74   2.0000      -0.479563       -13.0496
  75   2.0000      -0.469674       -12.7805
  76   2.0000      -0.463925       -12.6240
  77   2.0000      -0.452808       -12.3215
  78   2.0000      -0.431443       -11.7402
  79   2.0000      -0.417510       -11.3610
  80   2.0000      -0.403964       -10.9924
  81   2.0000      -0.391547       -10.6545
  82   0.0000      -0.215789        -5.8719
  83   0.0000      -0.162636        -4.4255
  84   0.0000      -0.158726        -4.3191
  85   0.0000      -0.092419        -2.5149
  86   0.0000      -0.084256        -2.2927

MULLIKEN ATOMIC CHARGES
-----------------------
   0 Ir:    0.608054
   1 C :   -0.331731
   2 C :   -0.176908
   3 C :   -0.187269
   4 C :   -0.179193
   5 C :   -0.259195
   6 N :   -0.456559
   7 C :   -0.132538
   8 C :   -0.629384
   9 H :    0.247941
  10 H :    0.228340
  11 H :    0.257661
  12 C :   -0.666711
  13 H :    0.252242
  14 H :    0.263067
  15 H :    0.232633
  16 H :    0.243559
  17 C :    0.059522
  18 C :   -0.189707
  19 H :    0.266268
  20 C :   -0.232378
  21 C :   -0.155303
  22 S :    0.280899
  23 C :   -0.430465
  24 H :    0.317902
  25 H :    0.261244
  26 H :    0.288829
  27 H :    0.295414
  28 H :    0.312021
  29 H :    0.309360
  30 O :   -0.570220
  31 O :   -0.468353
  32 C :    0.658062
  33 C :   -0.779664
  34 H :    0.294555
  35 H :    0.291912
  36 H :    0.259475
  37 H :    0.312639
  38 H :    0.303977
Sum of atomic charges:    1.0000000

LOEWDIN ATOMIC CHARGES
----------------------
   0 Ir:   -0.135032
   1 C :   -0.054947
   2 C :   -0.020674
   3 C :    0.003150
   4 C :   -0.053076
   5 C :   -0.065875
   6 N :   -0.053703
   7 C :   -0.056715
   8 C :   -0.351940
   9 H :    0.147073
  10 H :    0.137268
  11 H :    0.145320
  12 C :   -0.362039
  13 H :    0.143603
  14 H :    0.153444
  15 H :    0.135744
  16 H :    0.138825
  17 C :    0.041340
  18 C :   -0.246776
  19 H :    0.153209
  20 C :   -0.134490
  21 C :   -0.175441
  22 S :    0.437615
  23 C :   -0.256420
  24 H :    0.203520
  25 H :    0.155501
  26 H :    0.165189
  27 H :    0.188733
  28 H :    0.196205
  29 H :    0.197247
  30 O :   -0.391089
  31 O :   -0.140288
  32 C :    0.220610
  33 C :   -0.375627
  34 H :    0.179132
  35 H :    0.183456
  36 H :    0.158670
  37 H :    0.195853
  38 H :    0.193423

  Mayer bond orders larger than 0.100000
B(  0-Ir,  1-C ) :   0.5830 B(  0-Ir,  2-C ) :   0.4685 B(  0-Ir,  3-C ) :   0.4355
B(  0-Ir,  4-C ) :   0.3927 B(  0-Ir,  5-C ) :   0.4674 B(  0-Ir,  6-N ) :   0.4789
B(  0-Ir, 30-O ) :   0.3232 B(  0-Ir, 31-O ) :   0.5250 B(  1-C ,  2-C ) :   1.1071
B(  1-C ,  4-C ) :   1.1117 B(  1-C , 27-H ) :   0.9073 B(  2-C ,  5-C ) :   1.2034
B(  2-C , 28-H ) :   0.8934 B(  3-C ,  4-C ) :   1.2513 B(  3-C ,  5-C ) :   1.1150
B(  3-C , 37-H ) :   0.8865 B(  4-C , 38-H ) :   0.8988 B(  5-C , 29-H ) :   0.8999
B(  6-N ,  7-C ) :   0.8748 B(  6-N , 17-C ) :   1.6771 B(  7-C ,  8-C ) :   0.9749
B(  7-C , 12-C ) :   0.9849 B(  7-C , 13-H ) :   0.8943 B(  8-C ,  9-H ) :   0.9063
B(  8-C , 10-H ) :   0.9164 B(  8-C , 11-H ) :   0.9047 B( 12-C , 14-H ) :   0.9046
B( 12-C , 15-H ) :   0.9124 B( 12-C , 16-H ) :   0.9177 B( 17-C , 18-C ) :   1.0808
B( 17-C , 19-H ) :   0.8778 B( 18-C , 20-C ) :   1.4110 B( 18-C , 22-S ) :   1.1309
B( 20-C , 21-C ) :   1.3080 B( 20-C , 24-H ) :   0.8033 B( 21-C , 23-C ) :   1.4709
B( 21-C , 25-H ) :   0.9063 B( 22-S , 23-C ) :   1.2724 B( 23-C , 26-H ) :   0.8948
B( 30-O , 32-C ) :   1.4144 B( 31-O , 32-C ) :   1.4372 B( 32-C , 33-C ) :   0.9709
B( 33-C , 34-H ) :   0.8882 B( 33-C , 35-H ) :   0.8818 B( 33-C , 36-H ) :   0.9019

Dispersion correction           -0.029234344
FINAL SINGLE POINT ENERGY     -1288.344292954295
Dispersion correction            ... done

DIPOLE MOMENT
-------------
                                X             Y             Z
Electronic contribution:     22.88369     -70.18210     123.67756
Nuclear contribution   :    -23.44989      69.05096    -123.23879
                        -----------------------------------------
Total Dipole Moment    :     -0.56620      -1.13114       0.43878
                        -----------------------------------------
Magnitude (a.u.)       :      1.33888
Magnitude (Debye)      :      3.40316

Rotational constants in cm-1:     0.010847     0.007620     0.006971
Rotational constants in MHz :   325.187429   228.445294   208.991571

                             ****ORCA TERMINATED NORMALLY****
TOTAL RUN TIME: 0 days 0 hours 15 minutes 18 seconds 891 msec
