                         Program Version 5.0.3 -  RELEASE  -
|  1> ! EnGrad PBEh-3c
|  2> %output
|  3> xyzfile=True
|  4> end
|  5> %scf
|  6> maxiter 250
|  7> end
|  8> %output
|  9> Print[P_Hirshfeld] = 1
| 10> end
| 11> % maxcore
| 12> 4000
| 13> *xyz 1 1
| 14> Ir   0.45261025  -0.70676320   0.99187629
| 15> C   -0.08852741  -2.69758003   1.61150998
| 16> C    0.78623634  -2.11304872   2.59180878
| 17> C    1.94032295  -2.35515886   0.62450513
| 18> C    0.66408981  -2.89002541   0.40580731
| 19> C    2.02039350  -1.83129301   1.97402398
| 20> N   -0.98670744  -0.01694970  -0.44701631
| 21> C   -2.41991907   0.05509269   0.02522094
| 22> C   -2.85107920   1.48323455   0.36217888
| 23> H   -3.88750892   1.43922225   0.70155507
| 24> H   -2.82995923   2.13447574  -0.51744046
| 25> H   -2.24896030   1.90481588   1.16721281
| 26> C   -3.38446729  -0.58679553  -0.97062835
| 27> H   -2.44317445  -0.54299134   0.94474948
| 28> H   -4.35715124  -0.65949064  -0.48793160
| 29> H   -3.54594719   0.01830725  -1.86528294
| 30> H   -3.08297009  -1.59391082  -1.26605113
| 31> C   -0.69063232   0.29669106  -1.65783648
| 32> C    0.63480392   0.24885658  -2.25137309
| 33> H   -1.52626592   0.55417538  -2.32746087
| 34> C    1.90344975   0.39786912  -1.75059969
| 35> C    2.90804262   0.02688851  -2.65117558
| 36> S    0.72048228   0.03093957  -3.97247303
| 37> C    2.41494923  -0.07888135  -3.91993978
| 38> H    2.08153525   0.73065926  -0.75206906
| 39> H    3.94087555   0.01616484  -2.36479852
| 40> H    3.01719385  -0.14949677  -4.80757332
| 41> H   -1.03240994  -3.18734556   1.84122327
| 42> H    0.50755203  -1.89851360   3.61333607
| 43> H    2.89093405  -1.38574339   2.44096537
| 44> O    1.70156000   1.61985561   0.72300342
| 45> O   -0.00250201   1.04587252   1.98291222
| 46> C    0.81957719   1.94231710   1.57529301
| 47> C    0.73142048   3.33032156   2.14618871
| 48> H    0.80876711   4.09027843   1.36712927
| 49> H    1.58254051   3.50799019   2.80977301
| 50> H   -0.17963183   3.51393402   2.72266394
| 51> H    2.73279140  -2.30164832  -0.11620958
| 52> H    0.29323957  -3.38077779  -0.49122543
| 53> *
| 54>
| 55>                          ****END OF INPUT****

CARTESIAN COORDINATES (ANGSTROEM)
---------------------------------
  Ir     0.452610   -0.706763    0.991876
  C     -0.088527   -2.697580    1.611510
  C      0.786236   -2.113049    2.591809
  C      1.940323   -2.355159    0.624505
  C      0.664090   -2.890025    0.405807
  C      2.020393   -1.831293    1.974024
  N     -0.986707   -0.016950   -0.447016
  C     -2.419919    0.055093    0.025221
  C     -2.851079    1.483235    0.362179
  H     -3.887509    1.439222    0.701555
  H     -2.829959    2.134476   -0.517440
  H     -2.248960    1.904816    1.167213
  C     -3.384467   -0.586796   -0.970628
  H     -2.443174   -0.542991    0.944749
  H     -4.357151   -0.659491   -0.487932
  H     -3.545947    0.018307   -1.865283
  H     -3.082970   -1.593911   -1.266051
  C     -0.690632    0.296691   -1.657836
  C      0.634804    0.248857   -2.251373
  H     -1.526266    0.554175   -2.327461
  C      1.903450    0.397869   -1.750600
  C      2.908043    0.026889   -2.651176
  S      0.720482    0.030940   -3.972473
  C      2.414949   -0.078881   -3.919940
  H      2.081535    0.730659   -0.752069
  H      3.940876    0.016165   -2.364799
  H      3.017194   -0.149497   -4.807573
  H     -1.032410   -3.187346    1.841223
  H      0.507552   -1.898514    3.613336
  H      2.890934   -1.385743    2.440965
  O      1.701560    1.619856    0.723003
  O     -0.002502    1.045873    1.982912
  C      0.819577    1.942317    1.575293
  C      0.731420    3.330322    2.146189
  H      0.808767    4.090278    1.367129
  H      1.582541    3.507990    2.809773
  H     -0.179632    3.513934    2.722664
  H      2.732791   -2.301648   -0.116210
  H      0.293240   -3.380778   -0.491225

 Total Charge           Charge          ....    1
 Multiplicity           Mult            ....    1
 Number of Electrons    NEL             ....  164
 Basis Dimension        Dim             ....  358

ORBITAL ENERGIES
----------------

  NO   OCC          E(Eh)            E(eV)
   0   2.0000     -89.739099     -2441.9250
   1   2.0000     -19.634081      -534.2705
   2   2.0000     -19.598546      -533.3035
   3   2.0000     -14.826081      -403.4382
   4   2.0000     -10.690737      -290.9097
   5   2.0000     -10.655382      -289.9477
   6   2.0000     -10.649188      -289.7791
   7   2.0000     -10.646873      -289.7162
   8   2.0000     -10.642626      -289.6006
   9   2.0000     -10.640386      -289.5396
  10   2.0000     -10.634663      -289.3839
  11   2.0000     -10.613699      -288.8134
  12   2.0000     -10.604472      -288.5624
  13   2.0000     -10.595915      -288.3295
  14   2.0000     -10.565869      -287.5119
  15   2.0000     -10.563141      -287.4377
  16   2.0000     -10.549565      -287.0683
  17   2.0000     -10.544874      -286.9406
  18   2.0000     -10.541391      -286.8458
  19   2.0000      -8.378626      -227.9940
  20   2.0000      -6.268730      -170.5808
  21   2.0000      -6.265298      -170.4874
  22   2.0000      -6.263129      -170.4284
  23   2.0000      -4.036063      -109.8269
  24   2.0000      -2.355348       -64.0923
  25   2.0000      -2.318623       -63.0929
  26   2.0000      -2.318130       -63.0795
  27   2.0000      -1.310275       -35.6544
  28   2.0000      -1.198227       -32.6054
  29   2.0000      -1.186557       -32.2879
  30   2.0000      -1.178303       -32.0633
  31   2.0000      -1.110320       -30.2133
  32   2.0000      -1.008012       -27.4294
  33   2.0000      -0.992611       -27.0103
  34   2.0000      -0.982651       -26.7393
  35   2.0000      -0.953592       -25.9486
  36   2.0000      -0.944735       -25.7075
  37   2.0000      -0.934311       -25.4239
  38   2.0000      -0.889574       -24.2065
  39   2.0000      -0.858906       -23.3720
  40   2.0000      -0.794039       -21.6069
  41   2.0000      -0.792367       -21.5614
  42   2.0000      -0.786322       -21.3969
  43   2.0000      -0.778418       -21.1818
  44   2.0000      -0.762264       -20.7423
  45   2.0000      -0.746990       -20.3266
  46   2.0000      -0.729270       -19.8444
  47   2.0000      -0.713110       -19.4047
  48   2.0000      -0.680392       -18.5144
  49   2.0000      -0.662552       -18.0290
  50   2.0000      -0.661364       -17.9966
  51   2.0000      -0.654093       -17.7988
  52   2.0000      -0.643605       -17.5134
  53   2.0000      -0.642534       -17.4842
  54   2.0000      -0.638427       -17.3725
  55   2.0000      -0.630080       -17.1453
  56   2.0000      -0.616887       -16.7864
  57   2.0000      -0.614204       -16.7133
  58   2.0000      -0.613306       -16.6889
  59   2.0000      -0.601992       -16.3810
  60   2.0000      -0.586623       -15.9628
  61   2.0000      -0.577019       -15.7015
  62   2.0000      -0.569376       -15.4935
  63   2.0000      -0.561283       -15.2733
  64   2.0000      -0.556051       -15.1309
  65   2.0000      -0.554416       -15.0864
  66   2.0000      -0.551495       -15.0069
  67   2.0000      -0.541293       -14.7293
  68   2.0000      -0.533469       -14.5164
  69   2.0000      -0.524982       -14.2855
  70   2.0000      -0.520735       -14.1699
  71   2.0000      -0.515662       -14.0319
  72   2.0000      -0.509391       -13.8612
  73   2.0000      -0.503060       -13.6890
  74   2.0000      -0.482820       -13.1382
  75   2.0000      -0.477270       -12.9872
  76   2.0000      -0.470693       -12.8082
  77   2.0000      -0.458082       -12.4650
  78   2.0000      -0.443458       -12.0671
  79   2.0000      -0.425671       -11.5831
  80   2.0000      -0.411180       -11.1888
  81   2.0000      -0.393547       -10.7090
  82   0.0000      -0.216442        -5.8897
  83   0.0000      -0.167935        -4.5697
  84   0.0000      -0.155433        -4.2295
  85   0.0000      -0.083846        -2.2816
  86   0.0000      -0.082083        -2.2336

MULLIKEN ATOMIC CHARGES
-----------------------
   0 Ir:    0.607957
   1 C :   -0.310943
   2 C :   -0.174485
   3 C :   -0.197782
   4 C :   -0.182613
   5 C :   -0.258242
   6 N :   -0.458935
   7 C :   -0.131723
   8 C :   -0.629144
   9 H :    0.246720
  10 H :    0.224440
  11 H :    0.265372
  12 C :   -0.665234
  13 H :    0.255466
  14 H :    0.263369
  15 H :    0.230097
  16 H :    0.243089
  17 C :    0.054390
  18 C :   -0.233691
  19 H :    0.268835
  20 C :   -0.231513
  21 C :   -0.152537
  22 S :    0.295024
  23 C :   -0.426328
  24 H :    0.352076
  25 H :    0.262199
  26 H :    0.292648
  27 H :    0.292918
  28 H :    0.309041
  29 H :    0.304374
  30 O :   -0.492182
  31 O :   -0.516080
  32 C :    0.644414
  33 C :   -0.767781
  34 H :    0.275383
  35 H :    0.276867
  36 H :    0.262739
  37 H :    0.304484
  38 H :    0.297309
Sum of atomic charges:    1.0000000

LOEWDIN ATOMIC CHARGES
----------------------
   0 Ir:   -0.130794
   1 C :   -0.042465
   2 C :   -0.020913
   3 C :   -0.007567
   4 C :   -0.054881
   5 C :   -0.066913
   6 N :   -0.055231
   7 C :   -0.056720
   8 C :   -0.351543
   9 H :    0.147020
  10 H :    0.135629
  11 H :    0.148755
  12 C :   -0.361171
  13 H :    0.144963
  14 H :    0.153548
  15 H :    0.134571
  16 H :    0.138331
  17 C :    0.035861
  18 C :   -0.234755
  19 H :    0.153954
  20 C :   -0.125786
  21 C :   -0.173749
  22 S :    0.443944
  23 C :   -0.250798
  24 H :    0.191420
  25 H :    0.156022
  26 H :    0.166327
  27 H :    0.187237
  28 H :    0.194012
  29 H :    0.193449
  30 O :   -0.271454
  31 O :   -0.195062
  32 C :    0.178856
  33 C :   -0.379464
  34 H :    0.167413
  35 H :    0.172369
  36 H :    0.156028
  37 H :    0.190172
  38 H :    0.189386

  Mayer bond orders larger than 0.100000
B(  0-Ir,  1-C ) :   0.5905 B(  0-Ir,  2-C ) :   0.4475 B(  0-Ir,  3-C ) :   0.4436
B(  0-Ir,  4-C ) :   0.3730 B(  0-Ir,  5-C ) :   0.4758 B(  0-Ir,  6-N ) :   0.4834
B(  0-Ir, 30-O ) :   0.2703 B(  0-Ir, 31-O ) :   0.5924 B(  1-C ,  2-C ) :   1.1140
B(  1-C ,  4-C ) :   1.1121 B(  1-C , 27-H ) :   0.9134 B(  2-C ,  5-C ) :   1.2198
B(  2-C , 28-H ) :   0.8974 B(  3-C ,  4-C ) :   1.2663 B(  3-C ,  5-C ) :   1.1023
B(  3-C , 37-H ) :   0.8958 B(  4-C , 38-H ) :   0.9052 B(  5-C , 29-H ) :   0.9033
B(  6-N ,  7-C ) :   0.8702 B(  6-N , 17-C ) :   1.6675 B(  7-C ,  8-C ) :   0.9772
B(  7-C , 12-C ) :   0.9843 B(  7-C , 13-H ) :   0.8934 B(  8-C ,  9-H ) :   0.9064
B(  8-C , 10-H ) :   0.9174 B(  8-C , 11-H ) :   0.9016 B( 12-C , 14-H ) :   0.9048
B( 12-C , 15-H ) :   0.9128 B( 12-C , 16-H ) :   0.9179 B( 17-C , 18-C ) :   1.0952
B( 17-C , 19-H ) :   0.8787 B( 18-C , 20-C ) :   1.4144 B( 18-C , 22-S ) :   1.1484
B( 20-C , 21-C ) :   1.3164 B( 20-C , 24-H ) :   0.7967 B( 21-C , 23-C ) :   1.4728
B( 21-C , 25-H ) :   0.9056 B( 22-S , 23-C ) :   1.2667 B( 23-C , 26-H ) :   0.8952
B( 30-O , 32-C ) :   1.6030 B( 31-O , 32-C ) :   1.3054 B( 32-C , 33-C ) :   0.9484
B( 33-C , 34-H ) :   0.8981 B( 33-C , 35-H ) :   0.8932 B( 33-C , 36-H ) :   0.9059

Dispersion correction           -0.029252357
FINAL SINGLE POINT ENERGY     -1288.386613545530
Dispersion correction            ... done

DIPOLE MOMENT
-------------
                                X             Y             Z
Electronic contribution:     23.45559     -68.33843     123.03992
Nuclear contribution   :    -23.77667      67.07261    -123.02075
                        -----------------------------------------
Total Dipole Moment    :     -0.32108      -1.26583       0.01917
                        -----------------------------------------
Magnitude (a.u.)       :      1.30606
Magnitude (Debye)      :      3.31973

Rotational constants in cm-1:     0.010860     0.007629     0.006979
Rotational constants in MHz :   325.587312   228.707497   209.234242

                             ****ORCA TERMINATED NORMALLY****
TOTAL RUN TIME: 0 days 0 hours 15 minutes 3 seconds 258 msec
