                         Program Version 5.0.3 -  RELEASE  -
|  1> ! EnGrad PBEh-3c
|  2> %output
|  3> xyzfile=True
|  4> end
|  5> %scf
|  6> maxiter 250
|  7> end
|  8> %output
|  9> Print[P_Hirshfeld] = 1
| 10> end
| 11> % maxcore
| 12> 4000
| 13> *xyz 1 1
| 14> Ir   0.46162120  -0.68718989   0.94290472
| 15> C   -0.09011447  -2.70756691   1.70604626
| 16> C    0.86297887  -2.09996449   2.56964584
| 17> C    1.82541407  -2.32988461   0.51350222
| 18> C    0.56477560  -2.85256527   0.42276774
| 19> C    2.03971153  -1.83636666   1.89595974
| 20> N   -0.97399163   0.00215821  -0.43233304
| 21> C   -2.42230713   0.08686728   0.03286315
| 22> C   -2.85581478   1.51096131   0.28286585
| 23> H   -3.89952890   1.49307339   0.65610635
| 24> H   -2.83456510   2.11403085  -0.60448930
| 25> H   -2.27128986   1.97697708   1.06058192
| 26> C   -3.35964446  -0.60501045  -0.95566121
| 27> H   -2.44375100  -0.44553381   0.94492469
| 28> H   -4.35613915  -0.67185923  -0.47154553
| 29> H   -3.51505688  -0.04715060  -1.87250911
| 30> H   -3.05703232  -1.60728506  -1.19284117
| 31> C   -0.69481597   0.28876132  -1.66855176
| 32> C    0.59285863   0.19173099  -2.27639283
| 33> H   -1.50963578   0.55022822  -2.29616547
| 34> C    1.96103762   0.30064773  -1.56923569
| 35> C    2.88423182   0.01837578  -2.65840192
| 36> S    0.73390131   0.06463500  -4.01112598
| 37> C    2.45018912  -0.03731409  -3.91252502
| 38> H    2.19199858   0.89929811  -0.87090164
| 39> H    3.95162277   0.04768525  -2.39195056
| 40> H    3.04131542  -0.16591207  -4.80295997
| 41> H   -0.95433171  -3.24270524   2.00460461
| 42> H    0.68216405  -1.95355463   3.64432132
| 43> H    2.93369673  -1.44190020   2.24684203
| 44> O    1.62665066   1.67305259   0.80460220
| 45> O   -0.06547106   0.99537443   2.02680037
| 46> C    0.86111457   1.94817666   1.55659639
| 47> C    0.69661772   3.35024481   2.21265532
| 48> H    0.81104937   4.07890140   1.40400729
| 49> H    1.55651532   3.50297648   2.87591382
| 50> H   -0.19995198   3.50774949   2.74699007
| 51> H    2.62409246  -2.44250747  -0.18146237
| 52> H    0.14933068  -3.42589362  -0.38157409
| 53> *
| 54>
| 55>                          ****END OF INPUT****

CARTESIAN COORDINATES (ANGSTROEM)
---------------------------------
  Ir     0.461621   -0.687190    0.942905
  C     -0.090114   -2.707567    1.706046
  C      0.862979   -2.099964    2.569646
  C      1.825414   -2.329885    0.513502
  C      0.564776   -2.852565    0.422768
  C      2.039712   -1.836367    1.895960
  N     -0.973992    0.002158   -0.432333
  C     -2.422307    0.086867    0.032863
  C     -2.855815    1.510961    0.282866
  H     -3.899529    1.493073    0.656106
  H     -2.834565    2.114031   -0.604489
  H     -2.271290    1.976977    1.060582
  C     -3.359644   -0.605010   -0.955661
  H     -2.443751   -0.445534    0.944925
  H     -4.356139   -0.671859   -0.471546
  H     -3.515057   -0.047151   -1.872509
  H     -3.057032   -1.607285   -1.192841
  C     -0.694816    0.288761   -1.668552
  C      0.592859    0.191731   -2.276393
  H     -1.509636    0.550228   -2.296165
  C      1.961038    0.300648   -1.569236
  C      2.884232    0.018376   -2.658402
  S      0.733901    0.064635   -4.011126
  C      2.450189   -0.037314   -3.912525
  H      2.191999    0.899298   -0.870902
  H      3.951623    0.047685   -2.391951
  H      3.041315   -0.165912   -4.802960
  H     -0.954332   -3.242705    2.004605
  H      0.682164   -1.953555    3.644321
  H      2.933697   -1.441900    2.246842
  O      1.626651    1.673053    0.804602
  O     -0.065471    0.995374    2.026800
  C      0.861115    1.948177    1.556596
  C      0.696618    3.350245    2.212655
  H      0.811049    4.078901    1.404007
  H      1.556515    3.502976    2.875914
  H     -0.199952    3.507749    2.746990
  H      2.624092   -2.442507   -0.181462
  H      0.149331   -3.425894   -0.381574

 Total Charge           Charge          ....    1
 Multiplicity           Mult            ....    1
 Number of Electrons    NEL             ....  164
 Basis Dimension        Dim             ....  358

ORBITAL ENERGIES
----------------

  NO   OCC          E(Eh)            E(eV)
   0   2.0000     -89.759147     -2442.4706
   1   2.0000     -19.619573      -533.8757
   2   2.0000     -19.601754      -533.3909
   3   2.0000     -14.825800      -403.4305
   4   2.0000     -10.680217      -290.6235
   5   2.0000     -10.648583      -289.7627
   6   2.0000     -10.642191      -289.5887
   7   2.0000     -10.633104      -289.3415
   8   2.0000     -10.633097      -289.3413
   9   2.0000     -10.627976      -289.2019
  10   2.0000     -10.626054      -289.1496
  11   2.0000     -10.620120      -288.9881
  12   2.0000     -10.605460      -288.5892
  13   2.0000     -10.604938      -288.5750
  14   2.0000     -10.593961      -288.2763
  15   2.0000     -10.578757      -287.8626
  16   2.0000     -10.546642      -286.9887
  17   2.0000     -10.536508      -286.7130
  18   2.0000     -10.533399      -286.6284
  19   2.0000      -8.397428      -228.5056
  20   2.0000      -6.287516      -171.0920
  21   2.0000      -6.284080      -170.9985
  22   2.0000      -6.281991      -170.9417
  23   2.0000      -4.026315      -109.5616
  24   2.0000      -2.345048       -63.8120
  25   2.0000      -2.310109       -62.8612
  26   2.0000      -2.308248       -62.8106
  27   2.0000      -1.364417       -37.1277
  28   2.0000      -1.184417       -32.2296
  29   2.0000      -1.175438       -31.9853
  30   2.0000      -1.169166       -31.8146
  31   2.0000      -1.103890       -30.0384
  32   2.0000      -1.010157       -27.4878
  33   2.0000      -0.989148       -26.9161
  34   2.0000      -0.974334       -26.5130
  35   2.0000      -0.962944       -26.2030
  36   2.0000      -0.947231       -25.7755
  37   2.0000      -0.919700       -25.0263
  38   2.0000      -0.888402       -24.1747
  39   2.0000      -0.864962       -23.5368
  40   2.0000      -0.795560       -21.6483
  41   2.0000      -0.789882       -21.4938
  42   2.0000      -0.787862       -21.4388
  43   2.0000      -0.774712       -21.0810
  44   2.0000      -0.762760       -20.7558
  45   2.0000      -0.758144       -20.6302
  46   2.0000      -0.720981       -19.6189
  47   2.0000      -0.705315       -19.1926
  48   2.0000      -0.680131       -18.5073
  49   2.0000      -0.673845       -18.3362
  50   2.0000      -0.663452       -18.0535
  51   2.0000      -0.652311       -17.7503
  52   2.0000      -0.649066       -17.6620
  53   2.0000      -0.645851       -17.5745
  54   2.0000      -0.642297       -17.4778
  55   2.0000      -0.631137       -17.1741
  56   2.0000      -0.615306       -16.7433
  57   2.0000      -0.608641       -16.5620
  58   2.0000      -0.606630       -16.5072
  59   2.0000      -0.603276       -16.4160
  60   2.0000      -0.599256       -16.3066
  61   2.0000      -0.586983       -15.9726
  62   2.0000      -0.571391       -15.5483
  63   2.0000      -0.566309       -15.4101
  64   2.0000      -0.554891       -15.0994
  65   2.0000      -0.546668       -14.8756
  66   2.0000      -0.544362       -14.8128
  67   2.0000      -0.538223       -14.6458
  68   2.0000      -0.530183       -14.4270
  69   2.0000      -0.528000       -14.3676
  70   2.0000      -0.521654       -14.1949
  71   2.0000      -0.512131       -13.9358
  72   2.0000      -0.510036       -13.8788
  73   2.0000      -0.495699       -13.4887
  74   2.0000      -0.484522       -13.1845
  75   2.0000      -0.474321       -12.9069
  76   2.0000      -0.467572       -12.7233
  77   2.0000      -0.447470       -12.1763
  78   2.0000      -0.434333       -11.8188
  79   2.0000      -0.420555       -11.4439
  80   2.0000      -0.415794       -11.3143
  81   2.0000      -0.390309       -10.6208
  82   0.0000      -0.217184        -5.9099
  83   0.0000      -0.188601        -5.1321
  84   0.0000      -0.142592        -3.8801
  85   0.0000      -0.081983        -2.2309
  86   0.0000      -0.077753        -2.1158

MULLIKEN ATOMIC CHARGES
-----------------------
   0 Ir:    0.614324
   1 C :   -0.259688
   2 C :   -0.195538
   3 C :   -0.263706
   4 C :   -0.185831
   5 C :   -0.205191
   6 N :   -0.479513
   7 C :   -0.126232
   8 C :   -0.636211
   9 H :    0.241310
  10 H :    0.223475
  11 H :    0.274612
  12 C :   -0.668139
  13 H :    0.269979
  14 H :    0.257897
  15 H :    0.229950
  16 H :    0.247075
  17 C :    0.099356
  18 C :   -0.297797
  19 H :    0.270218
  20 C :   -0.234197
  21 C :   -0.173694
  22 S :    0.318213
  23 C :   -0.389990
  24 H :    0.363713
  25 H :    0.259341
  26 H :    0.297432
  27 H :    0.287521
  28 H :    0.299709
  29 H :    0.291834
  30 O :   -0.322030
  31 O :   -0.585025
  32 C :    0.568979
  33 C :   -0.754897
  34 H :    0.253765
  35 H :    0.263799
  36 H :    0.274707
  37 H :    0.286095
  38 H :    0.284376
Sum of atomic charges:    1.0000000

LOEWDIN ATOMIC CHARGES
----------------------
   0 Ir:   -0.156563
   1 C :   -0.018664
   2 C :   -0.025984
   3 C :   -0.038512
   4 C :   -0.058744
   5 C :   -0.062022
   6 N :   -0.047230
   7 C :   -0.053489
   8 C :   -0.352841
   9 H :    0.147228
  10 H :    0.133291
  11 H :    0.151225
  12 C :   -0.359964
  13 H :    0.149034
  14 H :    0.153743
  15 H :    0.133741
  16 H :    0.137453
  17 C :    0.018810
  18 C :   -0.204315
  19 H :    0.152004
  20 C :   -0.120311
  21 C :   -0.156489
  22 S :    0.465368
  23 C :   -0.255409
  24 H :    0.175160
  25 H :    0.155606
  26 H :    0.171292
  27 H :    0.183943
  28 H :    0.191874
  29 H :    0.183264
  30 O :   -0.086751
  31 O :   -0.303055
  32 C :    0.139331
  33 C :   -0.383666
  34 H :    0.157178
  35 H :    0.164560
  36 H :    0.155353
  37 H :    0.182354
  38 H :    0.182197

  Mayer bond orders larger than 0.100000
B(  0-Ir,  1-C ) :   0.5852 B(  0-Ir,  2-C ) :   0.3955 B(  0-Ir,  3-C ) :   0.4709
B(  0-Ir,  4-C ) :   0.3659 B(  0-Ir,  5-C ) :   0.4769 B(  0-Ir,  6-N ) :   0.4970
B(  0-Ir, 30-O ) :   0.1974 B(  0-Ir, 31-O ) :   0.6889 B(  1-C ,  2-C ) :   1.1378
B(  1-C ,  4-C ) :   1.1179 B(  1-C , 27-H ) :   0.9197 B(  2-C ,  5-C ) :   1.2484
B(  2-C , 28-H ) :   0.9053 B(  3-C ,  4-C ) :   1.2658 B(  3-C ,  5-C ) :   1.0835
B(  3-C , 37-H ) :   0.9168 B(  4-C , 38-H ) :   0.9155 B(  5-C , 29-H ) :   0.9093
B(  6-N ,  7-C ) :   0.8627 B(  6-N , 17-C ) :   1.6249 B(  7-C ,  8-C ) :   0.9849
B(  7-C , 12-C ) :   0.9863 B(  7-C , 13-H ) :   0.8905 B(  8-C ,  9-H ) :   0.9095
B(  8-C , 10-H ) :   0.9171 B(  8-C , 11-H ) :   0.8973 B( 12-C , 14-H ) :   0.9082
B( 12-C , 15-H ) :   0.9132 B( 12-C , 16-H ) :   0.9154 B( 17-C , 18-C ) :   1.1288
B( 17-C , 19-H ) :   0.8809 B( 18-C , 20-C ) :   1.3706 B( 18-C , 22-S ) :   1.2015
B( 20-C , 21-C ) :   1.3083 B( 20-C , 22-S ) :   0.1031 B( 20-C , 24-H ) :   0.8028
B( 21-C , 23-C ) :   1.5267 B( 21-C , 25-H ) :   0.9032 B( 22-S , 23-C ) :   1.2140
B( 23-C , 26-H ) :   0.8923 B( 30-O , 32-C ) :   1.8837 B( 31-O , 32-C ) :   1.0971
B( 32-C , 33-C ) :   0.9320 B( 33-C , 34-H ) :   0.9068 B( 33-C , 35-H ) :   0.9023
B( 33-C , 36-H ) :   0.9036

Dispersion correction           -0.029382195
FINAL SINGLE POINT ENERGY     -1288.292363406475
Dispersion correction            ... done

DIPOLE MOMENT
-------------
                                X             Y             Z
Electronic contribution:     25.12907     -66.65860     117.38676
Nuclear contribution   :    -25.11204      65.48540    -118.05852
                        -----------------------------------------
Total Dipole Moment    :      0.01703      -1.17321      -0.67176
                        -----------------------------------------
Magnitude (a.u.)       :      1.35202
Magnitude (Debye)      :      3.43657

Rotational constants in cm-1:     0.010882     0.007662     0.007014
Rotational constants in MHz :   326.230327   229.709667   210.285558

                             ****ORCA TERMINATED NORMALLY****
TOTAL RUN TIME: 0 days 0 hours 15 minutes 33 seconds 573 msec
