                         Program Version 5.0.3 -  RELEASE  -
|  1> ! EnGrad PBEh-3c
|  2> %output
|  3> xyzfile=True
|  4> end
|  5> %scf
|  6> maxiter 250
|  7> end
|  8> %output
|  9> Print[P_Hirshfeld] = 1
| 10> end
| 11> % maxcore
| 12> 4000
| 13> *xyz 1 1
| 14> Ir   0.44566701  -0.70062448   0.92149892
| 15> C   -0.07612477  -2.69933857   1.72782156
| 16> C    0.88618715  -2.09033566   2.58464127
| 17> C    1.80688290  -2.30989370   0.49596862
| 18> C    0.51851660  -2.84659716   0.44185637
| 19> C    2.04298424  -1.85233546   1.84575531
| 20> N   -0.96328375   0.01336091  -0.41862514
| 21> C   -2.39675635   0.09640255   0.00946132
| 22> C   -2.86533849   1.51560632   0.26493018
| 23> H   -3.89707408   1.51423832   0.63624260
| 24> H   -2.83380901   2.11203020  -0.63873642
| 25> H   -2.27292078   2.00738652   1.02277027
| 26> C   -3.36175520  -0.60742384  -0.94096594
| 27> H   -2.44321072  -0.41736120   0.95353700
| 28> H   -4.35011907  -0.67738072  -0.46956221
| 29> H   -3.50212284  -0.06981946  -1.87634846
| 30> H   -3.04381909  -1.61693568  -1.16999489
| 31> C   -0.68352215   0.27741001  -1.64660569
| 32> C    0.59775304   0.20795033  -2.27383363
| 33> H   -1.49902696   0.55054217  -2.29505947
| 34> C    1.89188055   0.19732867  -1.66505248
| 35> C    2.90166922   0.05966006  -2.64798499
| 36> S    0.75206450   0.06056766  -3.98717939
| 37> C    2.44956408  -0.04310693  -3.91653559
| 38> H    2.24291263   0.97399538  -0.81817537
| 39> H    3.96333029   0.05684950  -2.40941774
| 40> H    3.04398452  -0.17580424  -4.80630332
| 41> H   -0.94813756  -3.23321249   2.05483722
| 42> H    0.74322341  -1.96035167   3.65258158
| 43> H    2.96476641  -1.45032488   2.19006522
| 44> O    1.61943610   1.65490940   0.81668621
| 45> O   -0.04017475   1.00987157   2.02298811
| 46> C    0.78379132   1.94781021   1.62823432
| 47> C    0.70060198   3.33312330   2.21763651
| 48> H    0.80802765   4.06907860   1.41928640
| 49> H    1.54152166   3.49561159   2.89645061
| 50> H   -0.21338864   3.50036226   2.75660104
| 51> H    2.58736311  -2.47422860  -0.22180725
| 52> H    0.09824188  -3.42832809  -0.35731492
| 53> *
| 54>
| 55>                          ****END OF INPUT****

CARTESIAN COORDINATES (ANGSTROEM)
---------------------------------
  Ir     0.445667   -0.700624    0.921499
  C     -0.076125   -2.699339    1.727822
  C      0.886187   -2.090336    2.584641
  C      1.806883   -2.309894    0.495969
  C      0.518517   -2.846597    0.441856
  C      2.042984   -1.852335    1.845755
  N     -0.963284    0.013361   -0.418625
  C     -2.396756    0.096403    0.009461
  C     -2.865338    1.515606    0.264930
  H     -3.897074    1.514238    0.636243
  H     -2.833809    2.112030   -0.638736
  H     -2.272921    2.007387    1.022770
  C     -3.361755   -0.607424   -0.940966
  H     -2.443211   -0.417361    0.953537
  H     -4.350119   -0.677381   -0.469562
  H     -3.502123   -0.069819   -1.876348
  H     -3.043819   -1.616936   -1.169995
  C     -0.683522    0.277410   -1.646606
  C      0.597753    0.207950   -2.273834
  H     -1.499027    0.550542   -2.295059
  C      1.891881    0.197329   -1.665052
  C      2.901669    0.059660   -2.647985
  S      0.752065    0.060568   -3.987179
  C      2.449564   -0.043107   -3.916536
  H      2.242913    0.973995   -0.818175
  H      3.963330    0.056849   -2.409418
  H      3.043985   -0.175804   -4.806303
  H     -0.948138   -3.233212    2.054837
  H      0.743223   -1.960352    3.652582
  H      2.964766   -1.450325    2.190065
  O      1.619436    1.654909    0.816686
  O     -0.040175    1.009872    2.022988
  C      0.783791    1.947810    1.628234
  C      0.700602    3.333123    2.217637
  H      0.808028    4.069079    1.419286
  H      1.541522    3.495612    2.896451
  H     -0.213389    3.500362    2.756601
  H      2.587363   -2.474229   -0.221807
  H      0.098242   -3.428328   -0.357315

 Total Charge           Charge          ....    1
 Multiplicity           Mult            ....    1
 Number of Electrons    NEL             ....  164
 Basis Dimension        Dim             ....  358

ORBITAL ENERGIES
----------------

  NO   OCC          E(Eh)            E(eV)
   0   2.0000     -89.752074     -2442.2781
   1   2.0000     -19.613073      -533.6988
   2   2.0000     -19.596823      -533.2567
   3   2.0000     -14.828897      -403.5148
   4   2.0000     -10.677021      -290.5365
   5   2.0000     -10.652117      -289.8588
   6   2.0000     -10.640978      -289.5557
   7   2.0000     -10.636465      -289.4329
   8   2.0000     -10.630287      -289.2648
   9   2.0000     -10.628137      -289.2063
  10   2.0000     -10.622472      -289.0522
  11   2.0000     -10.619172      -288.9624
  12   2.0000     -10.607364      -288.6411
  13   2.0000     -10.601892      -288.4921
  14   2.0000     -10.588164      -288.1186
  15   2.0000     -10.571715      -287.6710
  16   2.0000     -10.547823      -287.0208
  17   2.0000     -10.537575      -286.7420
  18   2.0000     -10.535788      -286.6934
  19   2.0000      -8.391318      -228.3394
  20   2.0000      -6.281338      -170.9239
  21   2.0000      -6.277874      -170.8296
  22   2.0000      -6.276003      -170.7787
  23   2.0000      -4.031029      -109.6899
  24   2.0000      -2.350453       -63.9591
  25   2.0000      -2.314024       -62.9678
  26   2.0000      -2.313018       -62.9404
  27   2.0000      -1.315425       -35.7945
  28   2.0000      -1.197382       -32.5824
  29   2.0000      -1.191725       -32.4285
  30   2.0000      -1.176903       -32.0252
  31   2.0000      -1.113618       -30.3031
  32   2.0000      -1.011849       -27.5338
  33   2.0000      -0.987489       -26.8710
  34   2.0000      -0.979544       -26.6548
  35   2.0000      -0.961815       -26.1723
  36   2.0000      -0.944891       -25.7118
  37   2.0000      -0.929224       -25.2855
  38   2.0000      -0.889251       -24.1977
  39   2.0000      -0.864861       -23.5341
  40   2.0000      -0.792782       -21.5727
  41   2.0000      -0.788869       -21.4662
  42   2.0000      -0.787514       -21.4293
  43   2.0000      -0.778391       -21.1811
  44   2.0000      -0.767460       -20.8837
  45   2.0000      -0.734087       -19.9755
  46   2.0000      -0.727896       -19.8071
  47   2.0000      -0.703771       -19.1506
  48   2.0000      -0.682306       -18.5665
  49   2.0000      -0.664452       -18.0806
  50   2.0000      -0.657326       -17.8867
  51   2.0000      -0.651812       -17.7367
  52   2.0000      -0.643610       -17.5135
  53   2.0000      -0.641781       -17.4637
  54   2.0000      -0.638421       -17.3723
  55   2.0000      -0.631846       -17.1934
  56   2.0000      -0.618134       -16.8203
  57   2.0000      -0.610607       -16.6155
  58   2.0000      -0.608357       -16.5542
  59   2.0000      -0.604487       -16.4489
  60   2.0000      -0.590360       -16.0645
  61   2.0000      -0.583593       -15.8804
  62   2.0000      -0.563271       -15.3274
  63   2.0000      -0.561975       -15.2921
  64   2.0000      -0.556951       -15.1554
  65   2.0000      -0.548165       -14.9163
  66   2.0000      -0.546515       -14.8714
  67   2.0000      -0.541106       -14.7242
  68   2.0000      -0.532078       -14.4786
  69   2.0000      -0.522600       -14.2207
  70   2.0000      -0.515965       -14.0401
  71   2.0000      -0.511782       -13.9263
  72   2.0000      -0.504687       -13.7332
  73   2.0000      -0.503454       -13.6997
  74   2.0000      -0.480967       -13.0878
  75   2.0000      -0.474552       -12.9132
  76   2.0000      -0.465822       -12.6757
  77   2.0000      -0.453209       -12.3324
  78   2.0000      -0.439840       -11.9687
  79   2.0000      -0.420707       -11.4480
  80   2.0000      -0.414083       -11.2678
  81   2.0000      -0.395575       -10.7641
  82   0.0000      -0.215551        -5.8654
  83   0.0000      -0.182590        -4.9685
  84   0.0000      -0.146921        -3.9979
  85   0.0000      -0.079662        -2.1677
  86   0.0000      -0.078500        -2.1361

MULLIKEN ATOMIC CHARGES
-----------------------
   0 Ir:    0.638658
   1 C :   -0.271139
   2 C :   -0.190225
   3 C :   -0.271247
   4 C :   -0.189978
   5 C :   -0.189151
   6 N :   -0.489270
   7 C :   -0.137656
   8 C :   -0.631959
   9 H :    0.247504
  10 H :    0.220514
  11 H :    0.267019
  12 C :   -0.662214
  13 H :    0.266473
  14 H :    0.262814
  15 H :    0.227609
  16 H :    0.243204
  17 C :    0.104729
  18 C :   -0.243540
  19 H :    0.269663
  20 C :   -0.270080
  21 C :   -0.153056
  22 S :    0.316051
  23 C :   -0.405928
  24 H :    0.340672
  25 H :    0.265761
  26 H :    0.296261
  27 H :    0.288907
  28 H :    0.298637
  29 H :    0.296250
  30 O :   -0.444874
  31 O :   -0.541679
  32 C :    0.624345
  33 C :   -0.760001
  34 H :    0.265832
  35 H :    0.272837
  36 H :    0.263885
  37 H :    0.288454
  38 H :    0.285915
Sum of atomic charges:    1.0000000

LOEWDIN ATOMIC CHARGES
----------------------
   0 Ir:   -0.143046
   1 C :   -0.028682
   2 C :   -0.020060
   3 C :   -0.036769
   4 C :   -0.057937
   5 C :   -0.058494
   6 N :   -0.040347
   7 C :   -0.061004
   8 C :   -0.352016
   9 H :    0.148475
  10 H :    0.132394
  11 H :    0.147189
  12 C :   -0.357920
  13 H :    0.148986
  14 H :    0.154808
  15 H :    0.132948
  16 H :    0.136559
  17 C :    0.033353
  18 C :   -0.224958
  19 H :    0.153427
  20 C :   -0.156091
  21 C :   -0.165638
  22 S :    0.470322
  23 C :   -0.256500
  24 H :    0.232257
  25 H :    0.157543
  26 H :    0.169424
  27 H :    0.184618
  28 H :    0.191657
  29 H :    0.186506
  30 O :   -0.211469
  31 O :   -0.235496
  32 C :    0.147674
  33 C :   -0.378764
  34 H :    0.163882
  35 H :    0.169978
  36 H :    0.154331
  37 H :    0.185616
  38 H :    0.183243

  Mayer bond orders larger than 0.100000
B(  0-Ir,  1-C ) :   0.5624 B(  0-Ir,  2-C ) :   0.4012 B(  0-Ir,  3-C ) :   0.5056
B(  0-Ir,  4-C ) :   0.4003 B(  0-Ir,  5-C ) :   0.4551 B(  0-Ir,  6-N ) :   0.4980
B(  0-Ir, 30-O ) :   0.2565 B(  0-Ir, 31-O ) :   0.5994 B(  1-C ,  2-C ) :   1.1349
B(  1-C ,  4-C ) :   1.1302 B(  1-C , 27-H ) :   0.9179 B(  2-C ,  5-C ) :   1.2446
B(  2-C , 28-H ) :   0.9080 B(  3-C ,  4-C ) :   1.2250 B(  3-C ,  5-C ) :   1.0901
B(  3-C , 37-H ) :   0.9174 B(  4-C , 38-H ) :   0.9148 B(  5-C , 29-H ) :   0.9061
B(  6-N ,  7-C ) :   0.8770 B(  6-N , 17-C ) :   1.6173 B(  7-C ,  8-C ) :   0.9813
B(  7-C , 12-C ) :   0.9851 B(  7-C , 13-H ) :   0.8905 B(  8-C ,  9-H ) :   0.9085
B(  8-C , 10-H ) :   0.9179 B(  8-C , 11-H ) :   0.9020 B( 12-C , 14-H ) :   0.9065
B( 12-C , 15-H ) :   0.9135 B( 12-C , 16-H ) :   0.9169 B( 17-C , 18-C ) :   1.1257
B( 17-C , 19-H ) :   0.8813 B( 18-C , 20-C ) :   1.3628 B( 18-C , 22-S ) :   1.1810
B( 20-C , 21-C ) :   1.3088 B( 20-C , 24-H ) :   0.8054 B( 21-C , 23-C ) :   1.4962
B( 21-C , 25-H ) :   0.9021 B( 22-S , 23-C ) :   1.2511 B( 23-C , 26-H ) :   0.8917
B( 30-O , 32-C ) :   1.6831 B( 31-O , 32-C ) :   1.2582 B( 32-C , 33-C ) :   0.9454
B( 33-C , 34-H ) :   0.9033 B( 33-C , 35-H ) :   0.8977 B( 33-C , 36-H ) :   0.9058

Dispersion correction           -0.029373997
FINAL SINGLE POINT ENERGY     -1288.360909665433
Dispersion correction            ... done

DIPOLE MOMENT
-------------
                                X             Y             Z
Electronic contribution:     23.50061     -67.90084     115.38045
Nuclear contribution   :    -23.59683      66.68303    -115.79688
                        -----------------------------------------
Total Dipole Moment    :     -0.09622      -1.21782      -0.41644
                        -----------------------------------------
Magnitude (a.u.)       :      1.29064
Magnitude (Debye)      :      3.28054

Rotational constants in cm-1:     0.010941     0.007705     0.007043
Rotational constants in MHz :   328.003477   231.002613   211.155674

                             ****ORCA TERMINATED NORMALLY****
TOTAL RUN TIME: 0 days 0 hours 15 minutes 17 seconds 250 msec
