                         Program Version 5.0.3 -  RELEASE  -
|  1> ! EnGrad PBEh-3c
|  2> %output
|  3> xyzfile=True
|  4> end
|  5> %scf
|  6> maxiter 250
|  7> end
|  8> %output
|  9> Print[P_Hirshfeld] = 1
| 10> end
| 11> % maxcore
| 12> 4000
| 13> *xyz 1 1
| 14> Ir   0.46358305  -0.68355220   0.95776533
| 15> C   -0.08487703  -2.70953831   1.66554681
| 16> C    0.82865602  -2.10731659   2.57651107
| 17> C    1.85912153  -2.33529509   0.55598500
| 18> C    0.59886031  -2.86373138   0.41242094
| 19> C    2.02089227  -1.83217467   1.91919732
| 20> N   -0.98291043  -0.00670218  -0.44716325
| 21> C   -2.43466714   0.07970979   0.03471235
| 22> C   -2.85752265   1.49985513   0.31344686
| 23> H   -3.89688599   1.47142928   0.67646803
| 24> H   -2.83360487   2.11829000  -0.57038851
| 25> H   -2.26802691   1.94393066   1.10245414
| 26> C   -3.36985555  -0.59695270  -0.96084550
| 27> H   -2.44579982  -0.48086227   0.94481657
| 28> H   -4.35821106  -0.66649458  -0.47763600
| 29> H   -3.52822426  -0.02070643  -1.86982951
| 30> H   -3.06950766  -1.60034361  -1.21952516
| 31> C   -0.70437633   0.29117972  -1.67274413
| 32> C    0.63148425   0.18681952  -2.25453722
| 33> H   -1.52720578   0.55243531  -2.30393256
| 34> C    1.96165365   0.37408882  -1.55381263
| 35> C    2.88649070  -0.00736969  -2.63263981
| 36> S    0.72636542   0.06876321  -4.01425597
| 37> C    2.43605096  -0.03709692  -3.91813995
| 38> H    2.14895277   0.83574512  -0.90895561
| 39> H    3.93512961   0.03503257  -2.37951484
| 40> H    3.04030522  -0.15558767  -4.79827690
| 41> H   -0.96853574  -3.25634907   1.95042719
| 42> H    0.61469881  -1.94806207   3.62743740
| 43> H    2.91087971  -1.42715235   2.31582418
| 44> O    1.69116730   1.67786511   0.73962650
| 45> O   -0.04076170   1.01544342   2.00028792
| 46> C    0.83526196   1.94788218   1.57097291
| 47> C    0.71357920   3.35459260   2.18835186
| 48> H    0.81328389   4.09167752   1.38972568
| 49> H    1.57103912   3.51250767   2.85288947
| 50> H   -0.19365604   3.51351542   2.73969603
| 51> H    2.66875185  -2.40940548  -0.14074087
| 52> H    0.20754933  -3.42325183  -0.41021866
| 53> *
| 54>
| 55>                          ****END OF INPUT****

CARTESIAN COORDINATES (ANGSTROEM)
---------------------------------
  Ir     0.463583   -0.683552    0.957765
  C     -0.084877   -2.709538    1.665547
  C      0.828656   -2.107317    2.576511
  C      1.859122   -2.335295    0.555985
  C      0.598860   -2.863731    0.412421
  C      2.020892   -1.832175    1.919197
  N     -0.982910   -0.006702   -0.447163
  C     -2.434667    0.079710    0.034712
  C     -2.857523    1.499855    0.313447
  H     -3.896886    1.471429    0.676468
  H     -2.833605    2.118290   -0.570389
  H     -2.268027    1.943931    1.102454
  C     -3.369856   -0.596953   -0.960845
  H     -2.445800   -0.480862    0.944817
  H     -4.358211   -0.666495   -0.477636
  H     -3.528224   -0.020706   -1.869830
  H     -3.069508   -1.600344   -1.219525
  C     -0.704376    0.291180   -1.672744
  C      0.631484    0.186820   -2.254537
  H     -1.527206    0.552435   -2.303933
  C      1.961654    0.374089   -1.553813
  C      2.886491   -0.007370   -2.632640
  S      0.726365    0.068763   -4.014256
  C      2.436051   -0.037097   -3.918140
  H      2.148953    0.835745   -0.908956
  H      3.935130    0.035033   -2.379515
  H      3.040305   -0.155588   -4.798277
  H     -0.968536   -3.256349    1.950427
  H      0.614699   -1.948062    3.627437
  H      2.910880   -1.427152    2.315824
  O      1.691167    1.677865    0.739626
  O     -0.040762    1.015443    2.000288
  C      0.835262    1.947882    1.570973
  C      0.713579    3.354593    2.188352
  H      0.813284    4.091678    1.389726
  H      1.571039    3.512508    2.852889
  H     -0.193656    3.513515    2.739696
  H      2.668752   -2.409405   -0.140741
  H      0.207549   -3.423252   -0.410219

 Total Charge           Charge          ....    1
 Multiplicity           Mult            ....    1
 Number of Electrons    NEL             ....  164
 Basis Dimension        Dim             ....  358

ORBITAL ENERGIES
----------------

  NO   OCC          E(Eh)            E(eV)
   0   2.0000     -89.755067     -2442.3595
   1   2.0000     -19.624180      -534.0011
   2   2.0000     -19.606301      -533.5146
   3   2.0000     -14.824455      -403.3939
   4   2.0000     -10.689955      -290.8885
   5   2.0000     -10.649996      -289.8011
   6   2.0000     -10.643671      -289.6290
   7   2.0000     -10.635567      -289.4085
   8   2.0000     -10.633638      -289.3560
   9   2.0000     -10.630507      -289.2708
  10   2.0000     -10.629933      -289.2552
  11   2.0000     -10.623131      -289.0701
  12   2.0000     -10.608756      -288.6789
  13   2.0000     -10.603780      -288.5435
  14   2.0000     -10.584183      -288.0103
  15   2.0000     -10.577118      -287.8180
  16   2.0000     -10.547937      -287.0240
  17   2.0000     -10.541313      -286.8437
  18   2.0000     -10.536421      -286.7106
  19   2.0000      -8.393183      -228.3901
  20   2.0000      -6.283362      -170.9790
  21   2.0000      -6.279912      -170.8851
  22   2.0000      -6.277592      -170.8219
  23   2.0000      -4.030393      -109.6726
  24   2.0000      -2.349348       -63.9290
  25   2.0000      -2.313310       -62.9484
  26   2.0000      -2.312643       -62.9302
  27   2.0000      -1.301848       -35.4251
  28   2.0000      -1.197410       -32.5832
  29   2.0000      -1.182051       -32.1653
  30   2.0000      -1.175843       -31.9963
  31   2.0000      -1.096577       -29.8394
  32   2.0000      -1.008856       -27.4524
  33   2.0000      -0.991974       -26.9930
  34   2.0000      -0.977666       -26.6036
  35   2.0000      -0.961194       -26.1554
  36   2.0000      -0.946388       -25.7525
  37   2.0000      -0.923863       -25.1396
  38   2.0000      -0.890545       -24.2330
  39   2.0000      -0.861171       -23.4337
  40   2.0000      -0.799234       -21.7483
  41   2.0000      -0.791404       -21.5352
  42   2.0000      -0.788963       -21.4688
  43   2.0000      -0.779330       -21.2067
  44   2.0000      -0.765650       -20.8344
  45   2.0000      -0.759664       -20.6715
  46   2.0000      -0.728742       -19.8301
  47   2.0000      -0.709497       -19.3064
  48   2.0000      -0.679747       -18.4968
  49   2.0000      -0.662831       -18.0366
  50   2.0000      -0.657078       -17.8800
  51   2.0000      -0.650754       -17.7079
  52   2.0000      -0.642669       -17.4879
  53   2.0000      -0.640141       -17.4191
  54   2.0000      -0.632351       -17.2072
  55   2.0000      -0.630844       -17.1661
  56   2.0000      -0.614502       -16.7214
  57   2.0000      -0.610955       -16.6249
  58   2.0000      -0.610113       -16.6020
  59   2.0000      -0.608626       -16.5616
  60   2.0000      -0.593570       -16.1519
  61   2.0000      -0.584911       -15.9162
  62   2.0000      -0.570915       -15.5354
  63   2.0000      -0.561945       -15.2913
  64   2.0000      -0.554665       -15.0932
  65   2.0000      -0.546725       -14.8772
  66   2.0000      -0.544962       -14.8292
  67   2.0000      -0.539615       -14.6837
  68   2.0000      -0.530970       -14.4484
  69   2.0000      -0.528812       -14.3897
  70   2.0000      -0.521604       -14.1936
  71   2.0000      -0.513218       -13.9654
  72   2.0000      -0.507795       -13.8178
  73   2.0000      -0.502402       -13.6711
  74   2.0000      -0.484032       -13.1712
  75   2.0000      -0.476861       -12.9760
  76   2.0000      -0.470050       -12.7907
  77   2.0000      -0.453087       -12.3291
  78   2.0000      -0.439978       -11.9724
  79   2.0000      -0.422132       -11.4868
  80   2.0000      -0.413686       -11.2570
  81   2.0000      -0.388825       -10.5805
  82   0.0000      -0.217162        -5.9093
  83   0.0000      -0.181315        -4.9338
  84   0.0000      -0.149454        -4.0669
  85   0.0000      -0.086537        -2.3548
  86   0.0000      -0.080224        -2.1830

MULLIKEN ATOMIC CHARGES
-----------------------
   0 Ir:    0.620524
   1 C :   -0.282231
   2 C :   -0.185727
   3 C :   -0.242012
   4 C :   -0.177401
   5 C :   -0.228495
   6 N :   -0.467083
   7 C :   -0.127463
   8 C :   -0.632610
   9 H :    0.243678
  10 H :    0.225045
  11 H :    0.270448
  12 C :   -0.668308
  13 H :    0.265301
  14 H :    0.259453
  15 H :    0.229829
  16 H :    0.247169
  17 C :    0.085271
  18 C :   -0.317491
  19 H :    0.271069
  20 C :   -0.217607
  21 C :   -0.196156
  22 S :    0.309507
  23 C :   -0.386959
  24 H :    0.404541
  25 H :    0.255879
  26 H :    0.296266
  27 H :    0.289493
  28 H :    0.302110
  29 H :    0.296427
  30 O :   -0.442031
  31 O :   -0.551634
  32 C :    0.621167
  33 C :   -0.752516
  34 H :    0.266375
  35 H :    0.270292
  36 H :    0.266268
  37 H :    0.291982
  38 H :    0.287630
Sum of atomic charges:    1.0000000

LOEWDIN ATOMIC CHARGES
----------------------
   0 Ir:   -0.139124
   1 C :   -0.028718
   2 C :   -0.023604
   3 C :   -0.027959
   4 C :   -0.055826
   5 C :   -0.066328
   6 N :   -0.052556
   7 C :   -0.052823
   8 C :   -0.351920
   9 H :    0.147761
  10 H :    0.135035
  11 H :    0.150120
  12 C :   -0.360530
  13 H :    0.147203
  14 H :    0.153507
  15 H :    0.134079
  16 H :    0.138413
  17 C :    0.022258
  18 C :   -0.198628
  19 H :    0.151870
  20 C :   -0.091692
  21 C :   -0.154959
  22 S :    0.452273
  23 C :   -0.257747
  24 H :    0.138309
  25 H :    0.152555
  26 H :    0.169360
  27 H :    0.185408
  28 H :    0.191475
  29 H :    0.186984
  30 O :   -0.210937
  31 O :   -0.246317
  32 C :    0.188726
  33 C :   -0.380256
  34 H :    0.163067
  35 H :    0.168435
  36 H :    0.154431
  37 H :    0.184667
  38 H :    0.183988

  Mayer bond orders larger than 0.100000
B(  0-Ir,  1-C ) :   0.5751 B(  0-Ir,  2-C ) :   0.4117 B(  0-Ir,  3-C ) :   0.4645
B(  0-Ir,  4-C ) :   0.3667 B(  0-Ir,  5-C ) :   0.4782 B(  0-Ir,  6-N ) :   0.4895
B(  0-Ir, 30-O ) :   0.2415 B(  0-Ir, 31-O ) :   0.6340 B(  1-C ,  2-C ) :   1.1352
B(  1-C ,  4-C ) :   1.1195 B(  1-C , 27-H ) :   0.9179 B(  2-C ,  5-C ) :   1.2370
B(  2-C , 28-H ) :   0.9037 B(  3-C ,  4-C ) :   1.2647 B(  3-C ,  5-C ) :   1.0926
B(  3-C , 37-H ) :   0.9114 B(  4-C , 38-H ) :   0.9142 B(  5-C , 29-H ) :   0.9080
B(  6-N ,  7-C ) :   0.8585 B(  6-N , 17-C ) :   1.6536 B(  7-C ,  8-C ) :   0.9850
B(  7-C , 12-C ) :   0.9868 B(  7-C , 13-H ) :   0.8914 B(  8-C ,  9-H ) :   0.9077
B(  8-C , 10-H ) :   0.9171 B(  8-C , 11-H ) :   0.8996 B( 12-C , 14-H ) :   0.9068
B( 12-C , 15-H ) :   0.9129 B( 12-C , 16-H ) :   0.9158 B( 17-C , 18-C ) :   1.1018
B( 17-C , 19-H ) :   0.8791 B( 18-C , 20-C ) :   1.4291 B( 18-C , 22-S ) :   1.1831
B( 20-C , 21-C ) :   1.3036 B( 20-C , 24-H ) :   0.7731 B( 21-C , 23-C ) :   1.5280
B( 21-C , 25-H ) :   0.9063 B( 22-S , 23-C ) :   1.2146 B( 23-C , 26-H ) :   0.8926
B( 30-O , 32-C ) :   1.7058 B( 31-O , 32-C ) :   1.2064 B( 32-C , 33-C ) :   0.9419
B( 33-C , 34-H ) :   0.9021 B( 33-C , 35-H ) :   0.8981 B( 33-C , 36-H ) :   0.9046

Dispersion correction           -0.029363831
FINAL SINGLE POINT ENERGY     -1288.259045428155
Dispersion correction            ... done

DIPOLE MOMENT
-------------
                                X             Y             Z
Electronic contribution:     24.82674     -66.53750     119.26727
Nuclear contribution   :    -25.08273      65.26187    -119.66140
                        -----------------------------------------
Total Dipole Moment    :     -0.25599      -1.27563      -0.39413
                        -----------------------------------------
Magnitude (a.u.)       :      1.35945
Magnitude (Debye)      :      3.45544

Rotational constants in cm-1:     0.010839     0.007646     0.007010
Rotational constants in MHz :   324.942638   229.222702   210.152985

                             ****ORCA TERMINATED NORMALLY****
TOTAL RUN TIME: 0 days 0 hours 15 minutes 24 seconds 903 msec
