                         Program Version 5.0.3 -  RELEASE  -
|  1> ! EnGrad PBEh-3c
|  2> %output
|  3> xyzfile=True
|  4> end
|  5> %scf
|  6> maxiter 250
|  7> end
|  8> %output
|  9> Print[P_Hirshfeld] = 1
| 10> end
| 11> % maxcore
| 12> 4000
| 13> *xyz 1 1
| 14> Ir   0.45155849  -0.69501047   0.93342469
| 15> C   -0.07900285  -2.70269263   1.70734327
| 16> C    0.86726874  -2.09591963   2.58196775
| 17> C    1.82406094  -2.31824663   0.51570427
| 18> C    0.54493665  -2.85223154   0.43217689
| 19> C    2.03571957  -1.84570583   1.86990582
| 20> N   -0.96973775   0.00676341  -0.42800955
| 21> C   -2.40922285   0.09091334   0.01776481
| 22> C   -2.86276835   1.51042673   0.28088430
| 23> H   -3.89701223   1.50016109   0.64947024
| 24> H   -2.83374188   2.11408866  -0.61626104
| 25> H   -2.27131149   1.98651983   1.04897334
| 26> C   -3.36441890  -0.60398053  -0.94750309
| 27> H   -2.44406211  -0.43824276   0.95066940
| 28> H   -4.35278002  -0.67380095  -0.47221718
| 29> H   -3.51070598  -0.05366924  -1.87420478
| 30> H   -3.05226646  -1.61147958  -1.18628231
| 31> C   -0.69037979   0.28193801  -1.65520100
| 32> C    0.60884514   0.20100172  -2.26748824
| 33> H   -1.50829322   0.55116471  -2.29797728
| 34> C    1.91482458   0.25545409  -1.62847261
| 35> C    2.89667795   0.03761814  -2.64293891
| 36> S    0.74361367   0.06326267  -3.99608320
| 37> C    2.44512046  -0.04113061  -3.91706316
| 38> H    2.21201508   0.92853347  -0.84802734
| 39> H    3.95405684   0.04967527  -2.39958454
| 40> H    3.04277463  -0.16915627  -4.80366393
| 41> H   -0.95484525  -3.24082067   2.02050325
| 42> H    0.70095966  -1.95631039   3.64431323
| 43> H    2.94704642  -1.44270488   2.23141952
| 44> O    1.64302403   1.66245811   0.79134606
| 45> O   -0.04036776   1.01170381   2.01552343
| 46> C    0.80071681   1.94783387   1.60940460
| 47> C    0.70486938   3.34018322   2.20800661
| 48> H    0.80975611   4.07650998   1.40956572
| 49> H    1.55122812   3.50116766   2.88212606
| 50> H   -0.20689982   3.50468752   2.75104203
| 51> H    2.61412681  -2.45291230  -0.19514956
| 52> H    0.13418631  -3.42665883  -0.37471167
| 53> *
| 54>
| 55>                          ****END OF INPUT****

CARTESIAN COORDINATES (ANGSTROEM)
---------------------------------
  Ir     0.451558   -0.695010    0.933425
  C     -0.079003   -2.702693    1.707343
  C      0.867269   -2.095920    2.581968
  C      1.824061   -2.318247    0.515704
  C      0.544937   -2.852232    0.432177
  C      2.035720   -1.845706    1.869906
  N     -0.969738    0.006763   -0.428010
  C     -2.409223    0.090913    0.017765
  C     -2.862768    1.510427    0.280884
  H     -3.897012    1.500161    0.649470
  H     -2.833742    2.114089   -0.616261
  H     -2.271311    1.986520    1.048973
  C     -3.364419   -0.603981   -0.947503
  H     -2.444062   -0.438243    0.950669
  H     -4.352780   -0.673801   -0.472217
  H     -3.510706   -0.053669   -1.874205
  H     -3.052266   -1.611480   -1.186282
  C     -0.690380    0.281938   -1.655201
  C      0.608845    0.201002   -2.267488
  H     -1.508293    0.551165   -2.297977
  C      1.914825    0.255454   -1.628473
  C      2.896678    0.037618   -2.642939
  S      0.743614    0.063263   -3.996083
  C      2.445120   -0.041131   -3.917063
  H      2.212015    0.928533   -0.848027
  H      3.954057    0.049675   -2.399585
  H      3.042775   -0.169156   -4.803664
  H     -0.954845   -3.240821    2.020503
  H      0.700960   -1.956310    3.644313
  H      2.947046   -1.442705    2.231420
  O      1.643024    1.662458    0.791346
  O     -0.040368    1.011704    2.015523
  C      0.800717    1.947834    1.609405
  C      0.704869    3.340183    2.208007
  H      0.809756    4.076510    1.409566
  H      1.551228    3.501168    2.882126
  H     -0.206900    3.504688    2.751042
  H      2.614127   -2.452912   -0.195150
  H      0.134186   -3.426659   -0.374712

 Total Charge           Charge          ....    1
 Multiplicity           Mult            ....    1
 Number of Electrons    NEL             ....  164
 Basis Dimension        Dim             ....  358

ORBITAL ENERGIES
----------------

  NO   OCC          E(Eh)            E(eV)
   0   2.0000     -89.752871     -2442.2998
   1   2.0000     -19.616943      -533.8041
   2   2.0000     -19.600076      -533.3452
   3   2.0000     -14.827374      -403.4734
   4   2.0000     -10.681356      -290.6545
   5   2.0000     -10.651369      -289.8385
   6   2.0000     -10.641793      -289.5779
   7   2.0000     -10.636108      -289.4232
   8   2.0000     -10.631438      -289.2961
   9   2.0000     -10.628776      -289.2237
  10   2.0000     -10.622653      -289.0571
  11   2.0000     -10.622175      -289.0441
  12   2.0000     -10.607694      -288.6500
  13   2.0000     -10.602146      -288.4991
  14   2.0000     -10.584548      -288.0202
  15   2.0000     -10.572145      -287.6827
  16   2.0000     -10.547769      -287.0194
  17   2.0000     -10.538802      -286.7754
  18   2.0000     -10.535858      -286.6953
  19   2.0000      -8.391721      -228.3503
  20   2.0000      -6.281803      -170.9366
  21   2.0000      -6.278324      -170.8419
  22   2.0000      -6.276328      -170.7876
  23   2.0000      -4.030963      -109.6881
  24   2.0000      -2.350197       -63.9521
  25   2.0000      -2.313905       -62.9645
  26   2.0000      -2.313059       -62.9415
  27   2.0000      -1.310912       -35.6717
  28   2.0000      -1.197328       -32.5810
  29   2.0000      -1.188413       -32.3383
  30   2.0000      -1.177378       -32.0381
  31   2.0000      -1.107611       -30.1396
  32   2.0000      -1.010668       -27.5017
  33   2.0000      -0.989270       -26.9194
  34   2.0000      -0.979202       -26.6454
  35   2.0000      -0.958599       -26.0848
  36   2.0000      -0.946513       -25.7559
  37   2.0000      -0.927460       -25.2375
  38   2.0000      -0.889637       -24.2083
  39   2.0000      -0.862295       -23.4642
  40   2.0000      -0.791791       -21.5457
  41   2.0000      -0.789750       -21.4902
  42   2.0000      -0.787929       -21.4406
  43   2.0000      -0.779034       -21.1986
  44   2.0000      -0.765181       -20.8216
  45   2.0000      -0.741454       -20.1760
  46   2.0000      -0.727239       -19.7892
  47   2.0000      -0.708333       -19.2747
  48   2.0000      -0.681768       -18.5518
  49   2.0000      -0.664048       -18.0697
  50   2.0000      -0.657293       -17.8858
  51   2.0000      -0.650495       -17.7009
  52   2.0000      -0.643484       -17.5101
  53   2.0000      -0.641369       -17.4525
  54   2.0000      -0.636371       -17.3165
  55   2.0000      -0.631895       -17.1947
  56   2.0000      -0.615105       -16.7379
  57   2.0000      -0.610807       -16.6209
  58   2.0000      -0.609335       -16.5809
  59   2.0000      -0.601396       -16.3648
  60   2.0000      -0.588996       -16.0274
  61   2.0000      -0.587877       -15.9970
  62   2.0000      -0.566574       -15.4173
  63   2.0000      -0.560919       -15.2634
  64   2.0000      -0.556270       -15.1369
  65   2.0000      -0.551593       -15.0096
  66   2.0000      -0.547047       -14.8859
  67   2.0000      -0.541226       -14.7275
  68   2.0000      -0.531396       -14.4600
  69   2.0000      -0.523712       -14.2509
  70   2.0000      -0.521897       -14.2015
  71   2.0000      -0.512968       -13.9586
  72   2.0000      -0.506349       -13.7785
  73   2.0000      -0.503428       -13.6990
  74   2.0000      -0.482698       -13.1349
  75   2.0000      -0.475527       -12.9397
  76   2.0000      -0.467706       -12.7269
  77   2.0000      -0.453398       -12.3376
  78   2.0000      -0.440044       -11.9742
  79   2.0000      -0.421577       -11.4717
  80   2.0000      -0.414257       -11.2725
  81   2.0000      -0.393301       -10.7023
  82   0.0000      -0.216183        -5.8827
  83   0.0000      -0.181490        -4.9386
  84   0.0000      -0.147793        -4.0217
  85   0.0000      -0.080176        -2.1817
  86   0.0000      -0.079623        -2.1666

MULLIKEN ATOMIC CHARGES
-----------------------
   0 Ir:    0.635138
   1 C :   -0.275208
   2 C :   -0.188451
   3 C :   -0.262081
   4 C :   -0.184697
   5 C :   -0.201868
   6 N :   -0.482767
   7 C :   -0.133923
   8 C :   -0.632096
   9 H :    0.246177
  10 H :    0.221917
  11 H :    0.268135
  12 C :   -0.664265
  13 H :    0.265902
  14 H :    0.261710
  15 H :    0.228377
  16 H :    0.244469
  17 C :    0.099366
  18 C :   -0.273212
  19 H :    0.270404
  20 C :   -0.250260
  21 C :   -0.168332
  22 S :    0.313989
  23 C :   -0.399048
  24 H :    0.360780
  25 H :    0.262958
  26 H :    0.295561
  27 H :    0.289047
  28 H :    0.299736
  29 H :    0.296375
  30 O :   -0.444108
  31 O :   -0.545568
  32 C :    0.624586
  33 C :   -0.757593
  34 H :    0.266041
  35 H :    0.271993
  36 H :    0.264737
  37 H :    0.289548
  38 H :    0.286531
Sum of atomic charges:    1.0000000

LOEWDIN ATOMIC CHARGES
----------------------
   0 Ir:   -0.140864
   1 C :   -0.028840
   2 C :   -0.021104
   3 C :   -0.033722
   4 C :   -0.056983
   5 C :   -0.061163
   6 N :   -0.044734
   7 C :   -0.058296
   8 C :   -0.351984
   9 H :    0.148184
  10 H :    0.133239
  11 H :    0.148111
  12 C :   -0.358755
  13 H :    0.148298
  14 H :    0.154386
  15 H :    0.133321
  16 H :    0.137147
  17 C :    0.029886
  18 C :   -0.216968
  19 H :    0.152911
  20 C :   -0.141457
  21 C :   -0.162143
  22 S :    0.464470
  23 C :   -0.256837
  24 H :    0.209079
  25 H :    0.155771
  26 H :    0.169337
  27 H :    0.184866
  28 H :    0.191541
  29 H :    0.186646
  30 O :   -0.212462
  31 O :   -0.239309
  32 C :    0.161550
  33 C :   -0.379356
  34 H :    0.163632
  35 H :    0.169468
  36 H :    0.154367
  37 H :    0.185258
  38 H :    0.183510

  Mayer bond orders larger than 0.100000
B(  0-Ir,  1-C ) :   0.5668 B(  0-Ir,  2-C ) :   0.4047 B(  0-Ir,  3-C ) :   0.4923
B(  0-Ir,  4-C ) :   0.3889 B(  0-Ir,  5-C ) :   0.4625 B(  0-Ir,  6-N ) :   0.4954
B(  0-Ir, 30-O ) :   0.2516 B(  0-Ir, 31-O ) :   0.6111 B(  1-C ,  2-C ) :   1.1350
B(  1-C ,  4-C ) :   1.1269 B(  1-C , 27-H ) :   0.9180 B(  2-C ,  5-C ) :   1.2426
B(  2-C , 28-H ) :   0.9067 B(  3-C ,  4-C ) :   1.2379 B(  3-C ,  5-C ) :   1.0913
B(  3-C , 37-H ) :   0.9158 B(  4-C , 38-H ) :   0.9146 B(  5-C , 29-H ) :   0.9067
B(  6-N ,  7-C ) :   0.8709 B(  6-N , 17-C ) :   1.6283 B(  7-C ,  8-C ) :   0.9827
B(  7-C , 12-C ) :   0.9858 B(  7-C , 13-H ) :   0.8909 B(  8-C ,  9-H ) :   0.9083
B(  8-C , 10-H ) :   0.9177 B(  8-C , 11-H ) :   0.9012 B( 12-C , 14-H ) :   0.9066
B( 12-C , 15-H ) :   0.9133 B( 12-C , 16-H ) :   0.9166 B( 17-C , 18-C ) :   1.1196
B( 17-C , 19-H ) :   0.8806 B( 18-C , 20-C ) :   1.3848 B( 18-C , 22-S ) :   1.1837
B( 20-C , 21-C ) :   1.3092 B( 20-C , 24-H ) :   0.8009 B( 21-C , 23-C ) :   1.5072
B( 21-C , 25-H ) :   0.9036 B( 22-S , 23-C ) :   1.2389 B( 23-C , 26-H ) :   0.8927
B( 30-O , 32-C ) :   1.6903 B( 31-O , 32-C ) :   1.2406 B( 32-C , 33-C ) :   0.9444
B( 33-C , 34-H ) :   0.9029 B( 33-C , 35-H ) :   0.8978 B( 33-C , 36-H ) :   0.9054

Dispersion correction           -0.029370114
FINAL SINGLE POINT ENERGY     -1288.368866545091
Dispersion correction            ... done

DIPOLE MOMENT
-------------
                                X             Y             Z
Electronic contribution:     23.93735     -67.45745     116.66535
Nuclear contribution   :    -24.08545      66.21570    -117.06768
                        -----------------------------------------
Total Dipole Moment    :     -0.14810      -1.24176      -0.40233
                        -----------------------------------------
Magnitude (a.u.)       :      1.31368
Magnitude (Debye)      :      3.33912

Rotational constants in cm-1:     0.010909     0.007687     0.007033
Rotational constants in MHz :   327.035401   230.449055   210.847806

                             ****ORCA TERMINATED NORMALLY****
TOTAL RUN TIME: 0 days 0 hours 15 minutes 6 seconds 861 msec
