                         Program Version 5.0.3 -  RELEASE  -
|  1> ! EnGrad PBEh-3c
|  2> %output
|  3> xyzfile=True
|  4> end
|  5> %scf
|  6> maxiter 250
|  7> end
|  8> %output
|  9> Print[P_Hirshfeld] = 1
| 10> end
| 11> % maxcore
| 12> 4000
| 13> *xyz 1 1
| 14> Ir   0.45653444  -0.68230858   0.97546957
| 15> C   -0.08653995  -2.69991012   1.67617733
| 16> C    0.84794293  -2.10702937   2.58709722
| 17> C    1.86027431  -2.34442834   0.54690300
| 18> C    0.58078248  -2.86847557   0.41985426
| 19> C    2.03206839  -1.83721712   1.90008697
| 20> N   -0.98228779  -0.00391261  -0.44572026
| 21> C   -2.42649863   0.08542170   0.02643800
| 22> C   -2.86002528   1.50926784   0.30417303
| 23> H   -3.89262406   1.47971748   0.66142692
| 24> H   -2.83499399   2.12217642  -0.59332736
| 25> H   -2.26227111   1.96369457   1.08625792
| 26> C   -3.36876664  -0.60025413  -0.95409565
| 27> H   -2.44268311  -0.47389589   0.95710372
| 28> H   -4.34912427  -0.66762803  -0.47715778
| 29> H   -3.52232138  -0.03211166  -1.87324341
| 30> H   -3.06032988  -1.61129680  -1.20957675
| 31> C   -0.68632935   0.28993023  -1.66898934
| 32> C    0.65221491   0.20008426  -2.22949859
| 33> H   -1.52848363   0.55495157  -2.30954017
| 34> C    1.93965315   0.35122380  -1.66785279
| 35> C    2.88970186   0.00973790  -2.62353778
| 36> S    0.72920501   0.05484145  -3.99843368
| 37> C    2.43146587  -0.04491462  -3.91287248
| 38> H    2.15453990   0.84384758  -0.85623231
| 39> H    3.94250079   0.04271273  -2.38746515
| 40> H    3.03799112  -0.16009834  -4.80559975
| 41> H   -0.97863620  -3.23065374   1.97380503
| 42> H    0.64684651  -1.93747220   3.63290777
| 43> H    2.93681019  -1.42370591   2.29294354
| 44> O    1.66030066   1.65715065   0.76836863
| 45> O   -0.04582305   1.02017760   2.01319292
| 46> C    0.82991803   1.92990764   1.57880495
| 47> C    0.71016083   3.34006208   2.19330138
| 48> H    0.80971945   4.08316796   1.39723984
| 49> H    1.56154887   3.50402946   2.86287173
| 50> H   -0.20571688   3.51316967   2.74853495
| 51> H    2.64786653  -2.40842520  -0.17638633
| 52> H    0.17413289  -3.41748078  -0.41130774
| 53> *
| 54>
| 55>                          ****END OF INPUT****

CARTESIAN COORDINATES (ANGSTROEM)
---------------------------------
  Ir     0.456534   -0.682309    0.975470
  C     -0.086540   -2.699910    1.676177
  C      0.847943   -2.107029    2.587097
  C      1.860274   -2.344428    0.546903
  C      0.580782   -2.868476    0.419854
  C      2.032068   -1.837217    1.900087
  N     -0.982288   -0.003913   -0.445720
  C     -2.426499    0.085422    0.026438
  C     -2.860025    1.509268    0.304173
  H     -3.892624    1.479717    0.661427
  H     -2.834994    2.122176   -0.593327
  H     -2.262271    1.963695    1.086258
  C     -3.368767   -0.600254   -0.954096
  H     -2.442683   -0.473896    0.957104
  H     -4.349124   -0.667628   -0.477158
  H     -3.522321   -0.032112   -1.873243
  H     -3.060330   -1.611297   -1.209577
  C     -0.686329    0.289930   -1.668989
  C      0.652215    0.200084   -2.229499
  H     -1.528484    0.554952   -2.309540
  C      1.939653    0.351224   -1.667853
  C      2.889702    0.009738   -2.623538
  S      0.729205    0.054841   -3.998434
  C      2.431466   -0.044915   -3.912872
  H      2.154540    0.843848   -0.856232
  H      3.942501    0.042713   -2.387465
  H      3.037991   -0.160098   -4.805600
  H     -0.978636   -3.230654    1.973805
  H      0.646847   -1.937472    3.632908
  H      2.936810   -1.423706    2.292944
  O      1.660301    1.657151    0.768369
  O     -0.045823    1.020178    2.013193
  C      0.829918    1.929908    1.578805
  C      0.710161    3.340062    2.193301
  H      0.809719    4.083168    1.397240
  H      1.561549    3.504029    2.862872
  H     -0.205717    3.513170    2.748535
  H      2.647867   -2.408425   -0.176386
  H      0.174133   -3.417481   -0.411308

 Total Charge           Charge          ....    1
 Multiplicity           Mult            ....    1
 Number of Electrons    NEL             ....  164
 Basis Dimension        Dim             ....  358

ORBITAL ENERGIES
----------------

  NO   OCC          E(Eh)            E(eV)
   0   2.0000     -89.748277     -2442.1748
   1   2.0000     -19.622674      -533.9601
   2   2.0000     -19.610213      -533.6210
   3   2.0000     -14.824388      -403.3921
   4   2.0000     -10.687170      -290.8127
   5   2.0000     -10.653329      -289.8918
   6   2.0000     -10.644619      -289.6548
   7   2.0000     -10.637100      -289.4502
   8   2.0000     -10.636786      -289.4417
   9   2.0000     -10.633485      -289.3518
  10   2.0000     -10.627240      -289.1819
  11   2.0000     -10.617603      -288.9197
  12   2.0000     -10.609760      -288.7063
  13   2.0000     -10.603386      -288.5328
  14   2.0000     -10.573010      -287.7062
  15   2.0000     -10.568164      -287.5744
  16   2.0000     -10.548007      -287.0259
  17   2.0000     -10.540939      -286.8335
  18   2.0000     -10.537212      -286.7321
  19   2.0000      -8.386790      -228.2162
  20   2.0000      -6.276914      -170.8035
  21   2.0000      -6.273505      -170.7107
  22   2.0000      -6.271240      -170.6491
  23   2.0000      -4.031480      -109.7022
  24   2.0000      -2.350405       -63.9578
  25   2.0000      -2.314521       -62.9813
  26   2.0000      -2.313523       -62.9542
  27   2.0000      -1.321505       -35.9600
  28   2.0000      -1.205903       -32.8143
  29   2.0000      -1.182669       -32.1821
  30   2.0000      -1.175478       -31.9864
  31   2.0000      -1.107099       -30.1257
  32   2.0000      -1.008638       -27.4464
  33   2.0000      -0.990476       -26.9522
  34   2.0000      -0.978666       -26.6309
  35   2.0000      -0.959075       -26.0978
  36   2.0000      -0.947839       -25.7920
  37   2.0000      -0.922019       -25.0894
  38   2.0000      -0.889634       -24.2082
  39   2.0000      -0.857622       -23.3371
  40   2.0000      -0.791644       -21.5417
  41   2.0000      -0.789885       -21.4939
  42   2.0000      -0.786392       -21.3988
  43   2.0000      -0.778672       -21.1887
  44   2.0000      -0.764288       -20.7973
  45   2.0000      -0.750716       -20.4280
  46   2.0000      -0.728291       -19.8178
  47   2.0000      -0.714703       -19.4481
  48   2.0000      -0.678756       -18.4699
  49   2.0000      -0.666603       -18.1392
  50   2.0000      -0.661356       -17.9964
  51   2.0000      -0.651198       -17.7200
  52   2.0000      -0.642642       -17.4872
  53   2.0000      -0.641881       -17.4665
  54   2.0000      -0.638096       -17.3635
  55   2.0000      -0.631141       -17.1742
  56   2.0000      -0.612770       -16.6743
  57   2.0000      -0.611963       -16.6524
  58   2.0000      -0.610953       -16.6249
  59   2.0000      -0.598710       -16.2917
  60   2.0000      -0.594367       -16.1736
  61   2.0000      -0.584820       -15.9138
  62   2.0000      -0.569602       -15.4997
  63   2.0000      -0.561735       -15.2856
  64   2.0000      -0.557990       -15.1837
  65   2.0000      -0.554647       -15.0927
  66   2.0000      -0.547090       -14.8871
  67   2.0000      -0.540185       -14.6992
  68   2.0000      -0.531732       -14.4692
  69   2.0000      -0.526839       -14.3360
  70   2.0000      -0.520222       -14.1559
  71   2.0000      -0.515576       -14.0295
  72   2.0000      -0.508208       -13.8290
  73   2.0000      -0.503745       -13.7076
  74   2.0000      -0.487807       -13.2739
  75   2.0000      -0.478044       -13.0082
  76   2.0000      -0.470414       -12.8006
  77   2.0000      -0.453879       -12.3507
  78   2.0000      -0.441701       -12.0193
  79   2.0000      -0.423611       -11.5270
  80   2.0000      -0.416247       -11.3267
  81   2.0000      -0.391880       -10.6636
  82   0.0000      -0.216142        -5.8815
  83   0.0000      -0.175266        -4.7692
  84   0.0000      -0.150899        -4.1062
  85   0.0000      -0.086742        -2.3604
  86   0.0000      -0.081439        -2.2161

MULLIKEN ATOMIC CHARGES
-----------------------
   0 Ir:    0.617738
   1 C :   -0.288487
   2 C :   -0.180233
   3 C :   -0.232122
   4 C :   -0.178270
   5 C :   -0.238374
   6 N :   -0.465561
   7 C :   -0.130005
   8 C :   -0.629814
   9 H :    0.246064
  10 H :    0.221864
  11 H :    0.269251
  12 C :   -0.664849
  13 H :    0.261830
  14 H :    0.262224
  15 H :    0.227848
  16 H :    0.244121
  17 C :    0.065429
  18 C :   -0.281663
  19 H :    0.271738
  20 C :   -0.208916
  21 C :   -0.175466
  22 S :    0.295765
  23 C :   -0.404439
  24 H :    0.375040
  25 H :    0.260036
  26 H :    0.295083
  27 H :    0.290205
  28 H :    0.303335
  29 H :    0.298470
  30 O :   -0.417478
  31 O :   -0.548431
  32 C :    0.615007
  33 C :   -0.757976
  34 H :    0.264055
  35 H :    0.269090
  36 H :    0.264585
  37 H :    0.293692
  38 H :    0.289615
Sum of atomic charges:    1.0000000

LOEWDIN ATOMIC CHARGES
----------------------
   0 Ir:   -0.138719
   1 C :   -0.031574
   2 C :   -0.023676
   3 C :   -0.027434
   4 C :   -0.053463
   5 C :   -0.065027
   6 N :   -0.055123
   7 C :   -0.055427
   8 C :   -0.351489
   9 H :    0.147789
  10 H :    0.134235
  11 H :    0.149947
  12 C :   -0.360154
  13 H :    0.147082
  14 H :    0.153562
  15 H :    0.133437
  16 H :    0.138043
  17 C :    0.027405
  18 C :   -0.208955
  19 H :    0.154508
  20 C :   -0.117778
  21 C :   -0.168079
  22 S :    0.441709
  23 C :   -0.248092
  24 H :    0.178996
  25 H :    0.155046
  26 H :    0.168435
  27 H :    0.185859
  28 H :    0.191664
  29 H :    0.188900
  30 O :   -0.185772
  31 O :   -0.239538
  32 C :    0.163135
  33 C :   -0.382559
  34 H :    0.161295
  35 H :    0.166877
  36 H :    0.154575
  37 H :    0.185189
  38 H :    0.185173

  Mayer bond orders larger than 0.100000
B(  0-Ir,  1-C ) :   0.5838 B(  0-Ir,  2-C ) :   0.4160 B(  0-Ir,  3-C ) :   0.4583
B(  0-Ir,  4-C ) :   0.3648 B(  0-Ir,  5-C ) :   0.4777 B(  0-Ir,  6-N ) :   0.4904
B(  0-Ir, 30-O ) :   0.2442 B(  0-Ir, 31-O ) :   0.6359 B(  1-C ,  2-C ) :   1.1293
B(  1-C ,  4-C ) :   1.1157 B(  1-C , 27-H ) :   0.9175 B(  2-C ,  5-C ) :   1.2368
B(  2-C , 28-H ) :   0.9030 B(  3-C ,  4-C ) :   1.2687 B(  3-C ,  5-C ) :   1.0928
B(  3-C , 37-H ) :   0.9092 B(  4-C , 38-H ) :   0.9124 B(  5-C , 29-H ) :   0.9062
B(  6-N ,  7-C ) :   0.8631 B(  6-N , 17-C ) :   1.6533 B(  7-C ,  8-C ) :   0.9820
B(  7-C , 12-C ) :   0.9846 B(  7-C , 13-H ) :   0.8917 B(  8-C ,  9-H ) :   0.9069
B(  8-C , 10-H ) :   0.9179 B(  8-C , 11-H ) :   0.9003 B( 12-C , 14-H ) :   0.9056
B( 12-C , 15-H ) :   0.9132 B( 12-C , 16-H ) :   0.9173 B( 17-C , 18-C ) :   1.1045
B( 17-C , 19-H ) :   0.8788 B( 18-C , 20-C ) :   1.4269 B( 18-C , 22-S ) :   1.1607
B( 20-C , 21-C ) :   1.3251 B( 20-C , 24-H ) :   0.7921 B( 21-C , 23-C ) :   1.4877
B( 21-C , 25-H ) :   0.9056 B( 22-S , 23-C ) :   1.2522 B( 23-C , 26-H ) :   0.8929
B( 30-O , 32-C ) :   1.7272 B( 31-O , 32-C ) :   1.2110 B( 32-C , 33-C ) :   0.9370
B( 33-C , 34-H ) :   0.9033 B( 33-C , 35-H ) :   0.8989 B( 33-C , 36-H ) :   0.9065

Dispersion correction           -0.029312332
FINAL SINGLE POINT ENERGY     -1288.364886344660
Dispersion correction            ... done

DIPOLE MOMENT
-------------
                                X             Y             Z
Electronic contribution:     24.28149     -66.19983     120.93101
Nuclear contribution   :    -24.44131      64.92377    -121.25706
                        -----------------------------------------
Total Dipole Moment    :     -0.15982      -1.27606      -0.32605
                        -----------------------------------------
Magnitude (a.u.)       :      1.32672
Magnitude (Debye)      :      3.37225

Rotational constants in cm-1:     0.010881     0.007646     0.006996
Rotational constants in MHz :   326.214218   229.210256   209.744167

                             ****ORCA TERMINATED NORMALLY****
TOTAL RUN TIME: 0 days 0 hours 15 minutes 0 seconds 966 msec
