                         Program Version 5.0.3 -  RELEASE  -
|  1> ! EnGrad PBEh-3c
|  2> %output
|  3> xyzfile=True
|  4> end
|  5> %scf
|  6> maxiter 250
|  7> end
|  8> %output
|  9> Print[P_Hirshfeld] = 1
| 10> end
| 11> % maxcore
| 12> 4000
| 13> *xyz 1 1
| 14> Ir   0.45324064  -0.69071651   0.94763825
| 15> C   -0.08155081  -2.70175198   1.69680741
| 16> C    0.86073552  -2.09967536   2.58370181
| 17> C    1.83630311  -2.32709754   0.52625122
| 18> C    0.55705458  -2.85772295   0.42801114
| 19> C    2.03448526  -1.84283616   1.88010877
| 20> N   -0.97398038   0.00315431  -0.43399677
| 21> C   -2.41506305   0.08905685   0.02069684
| 22> C   -2.86184104   1.51003496   0.28875721
| 23> H   -3.89552878   1.49324999   0.65351228
| 24> H   -2.83416516   2.11682278  -0.60850815
| 25> H   -2.26825533   1.97880360   1.06157764
| 26> C   -3.36588868  -0.60272080  -0.94973175
| 27> H   -2.44359593  -0.45029554   0.95284456
| 28> H   -4.35154417  -0.67171415  -0.47388738
| 29> H   -3.51463264  -0.04638155  -1.87387978
| 30> H   -3.05499236  -1.61141779  -1.19415716
| 31> C   -0.68901051   0.28463984  -1.65986224
| 32> C    0.62350659   0.20069157  -2.25464558
| 33> H   -1.51511873   0.55244488  -2.30188619
| 34> C    1.92321805   0.28782969  -1.64178535
| 35> C    2.89431963   0.02819304  -2.63638023
| 36> S    0.73874273   0.06041582  -3.99687779
| 37> C    2.44050443  -0.04240982  -3.91564648
| 38> H    2.19258520   0.89990482  -0.85080109
| 39> H    3.95015024   0.04732153  -2.39548750
| 40> H    3.04115753  -0.16609417  -4.80431835
| 41> H   -0.96288794  -3.23738367   2.00471660
| 42> H    0.68266634  -1.94994201   3.64045753
| 43> H    2.94358599  -1.43628215   2.25221814
| 44> O    1.64886451   1.66066388   0.78357838
| 45> O   -0.04221196   1.01456843   2.01473559
| 46> C    0.81058848   1.94177379   1.59906018
| 47> C    0.70665819   3.34014227   2.20303540
| 48> H    0.80974371   4.07876076   1.40539887
| 49> H    1.55471712   3.50213511   2.87561700
| 50> H   -0.20649992   3.50755497   2.75019450
| 51> H    2.62553275  -2.43787314  -0.18880652
| 52> H    0.14769052  -3.42355613  -0.38708322
| 53> *
| 54>
| 55>                          ****END OF INPUT****

CARTESIAN COORDINATES (ANGSTROEM)
---------------------------------
  Ir     0.453241   -0.690717    0.947638
  C     -0.081551   -2.701752    1.696807
  C      0.860736   -2.099675    2.583702
  C      1.836303   -2.327098    0.526251
  C      0.557055   -2.857723    0.428011
  C      2.034485   -1.842836    1.880109
  N     -0.973980    0.003154   -0.433997
  C     -2.415063    0.089057    0.020697
  C     -2.861841    1.510035    0.288757
  H     -3.895529    1.493250    0.653512
  H     -2.834165    2.116823   -0.608508
  H     -2.268255    1.978804    1.061578
  C     -3.365889   -0.602721   -0.949732
  H     -2.443596   -0.450296    0.952845
  H     -4.351544   -0.671714   -0.473887
  H     -3.514633   -0.046382   -1.873880
  H     -3.054992   -1.611418   -1.194157
  C     -0.689011    0.284640   -1.659862
  C      0.623507    0.200692   -2.254646
  H     -1.515119    0.552445   -2.301886
  C      1.923218    0.287830   -1.641785
  C      2.894320    0.028193   -2.636380
  S      0.738743    0.060416   -3.996878
  C      2.440504   -0.042410   -3.915646
  H      2.192585    0.899905   -0.850801
  H      3.950150    0.047322   -2.395488
  H      3.041158   -0.166094   -4.804318
  H     -0.962888   -3.237384    2.004717
  H      0.682666   -1.949942    3.640458
  H      2.943586   -1.436282    2.252218
  O      1.648865    1.660664    0.783578
  O     -0.042212    1.014568    2.014736
  C      0.810588    1.941774    1.599060
  C      0.706658    3.340142    2.203035
  H      0.809744    4.078761    1.405399
  H      1.554717    3.502135    2.875617
  H     -0.206500    3.507555    2.750195
  H      2.625533   -2.437873   -0.188807
  H      0.147691   -3.423556   -0.387083

 Total Charge           Charge          ....    1
 Multiplicity           Mult            ....    1
 Number of Electrons    NEL             ....  164
 Basis Dimension        Dim             ....  358

ORBITAL ENERGIES
----------------

  NO   OCC          E(Eh)            E(eV)
   0   2.0000     -89.751196     -2442.2542
   1   2.0000     -19.618951      -533.8588
   2   2.0000     -19.603589      -533.4408
   3   2.0000     -14.826285      -403.4437
   4   2.0000     -10.683352      -290.7088
   5   2.0000     -10.651948      -289.8542
   6   2.0000     -10.642754      -289.6041
   7   2.0000     -10.636458      -289.4327
   8   2.0000     -10.633270      -289.3460
   9   2.0000     -10.630419      -289.2684
  10   2.0000     -10.624243      -289.1004
  11   2.0000     -10.620397      -288.9957
  12   2.0000     -10.608345      -288.6677
  13   2.0000     -10.602524      -288.5094
  14   2.0000     -10.580327      -287.9053
  15   2.0000     -10.570583      -287.6402
  16   2.0000     -10.547814      -287.0206
  17   2.0000     -10.539559      -286.7960
  18   2.0000     -10.536268      -286.7064
  19   2.0000      -8.389928      -228.3015
  20   2.0000      -6.280031      -170.8883
  21   2.0000      -6.276570      -170.7942
  22   2.0000      -6.274475      -170.7371
  23   2.0000      -4.031195      -109.6944
  24   2.0000      -2.350291       -63.9547
  25   2.0000      -2.314164       -62.9716
  26   2.0000      -2.313277       -62.9475
  27   2.0000      -1.314403       -35.7667
  28   2.0000      -1.200325       -32.6625
  29   2.0000      -1.186495       -32.2862
  30   2.0000      -1.176963       -32.0268
  31   2.0000      -1.107304       -30.1313
  32   2.0000      -1.009932       -27.4817
  33   2.0000      -0.989781       -26.9333
  34   2.0000      -0.979133       -26.6436
  35   2.0000      -0.957613       -26.0580
  36   2.0000      -0.948226       -25.8025
  37   2.0000      -0.925637       -25.1879
  38   2.0000      -0.889607       -24.2074
  39   2.0000      -0.860702       -23.4209
  40   2.0000      -0.791268       -21.5315
  41   2.0000      -0.789824       -21.4922
  42   2.0000      -0.787817       -21.4376
  43   2.0000      -0.779098       -21.2003
  44   2.0000      -0.764921       -20.8146
  45   2.0000      -0.744481       -20.2584
  46   2.0000      -0.727539       -19.7973
  47   2.0000      -0.710883       -19.3441
  48   2.0000      -0.680757       -18.5244
  49   2.0000      -0.664816       -18.0906
  50   2.0000      -0.658561       -17.9204
  51   2.0000      -0.650615       -17.7041
  52   2.0000      -0.643366       -17.5069
  53   2.0000      -0.641644       -17.4600
  54   2.0000      -0.636899       -17.3309
  55   2.0000      -0.631809       -17.1924
  56   2.0000      -0.614222       -16.7138
  57   2.0000      -0.611355       -16.6358
  58   2.0000      -0.610108       -16.6019
  59   2.0000      -0.600316       -16.3354
  60   2.0000      -0.590579       -16.0705
  61   2.0000      -0.587253       -15.9800
  62   2.0000      -0.567658       -15.4468
  63   2.0000      -0.561228       -15.2718
  64   2.0000      -0.557388       -15.1673
  65   2.0000      -0.552880       -15.0446
  66   2.0000      -0.547072       -14.8866
  67   2.0000      -0.540973       -14.7206
  68   2.0000      -0.531489       -14.4625
  69   2.0000      -0.525065       -14.2877
  70   2.0000      -0.521590       -14.1932
  71   2.0000      -0.513808       -13.9814
  72   2.0000      -0.506913       -13.7938
  73   2.0000      -0.503668       -13.7055
  74   2.0000      -0.484580       -13.1861
  75   2.0000      -0.476514       -12.9666
  76   2.0000      -0.468834       -12.7576
  77   2.0000      -0.453560       -12.3420
  78   2.0000      -0.440750       -11.9934
  79   2.0000      -0.422505       -11.4969
  80   2.0000      -0.414771       -11.2865
  81   2.0000      -0.393098       -10.6967
  82   0.0000      -0.216086        -5.8800
  83   0.0000      -0.179197        -4.8762
  84   0.0000      -0.148798        -4.0490
  85   0.0000      -0.082161        -2.2357
  86   0.0000      -0.080199        -2.1823

MULLIKEN ATOMIC CHARGES
-----------------------
   0 Ir:    0.629408
   1 C :   -0.280168
   2 C :   -0.185483
   3 C :   -0.252406
   4 C :   -0.181671
   5 C :   -0.213749
   6 N :   -0.477695
   7 C :   -0.132530
   8 C :   -0.631260
   9 H :    0.246107
  10 H :    0.221862
  11 H :    0.268479
  12 C :   -0.664500
  13 H :    0.264467
  14 H :    0.261870
  15 H :    0.228221
  16 H :    0.244318
  17 C :    0.088842
  18 C :   -0.278025
  19 H :    0.271187
  20 C :   -0.235835
  21 C :   -0.170748
  22 S :    0.307399
  23 C :   -0.401165
  24 H :    0.366822
  25 H :    0.262158
  26 H :    0.295149
  27 H :    0.289428
  28 H :    0.300919
  29 H :    0.297047
  30 O :   -0.435522
  31 O :   -0.546641
  32 C :    0.621910
  33 C :   -0.757752
  34 H :    0.265400
  35 H :    0.271011
  36 H :    0.264752
  37 H :    0.290847
  38 H :    0.287543
Sum of atomic charges:    1.0000000

LOEWDIN ATOMIC CHARGES
----------------------
   0 Ir:   -0.139710
   1 C :   -0.029826
   2 C :   -0.021932
   3 C :   -0.031558
   4 C :   -0.055656
   5 C :   -0.062418
   6 N :   -0.048473
   7 C :   -0.057312
   8 C :   -0.351809
   9 H :    0.148022
  10 H :    0.133566
  11 H :    0.148706
  12 C :   -0.359224
  13 H :    0.147850
  14 H :    0.154097
  15 H :    0.133362
  16 H :    0.137432
  17 C :    0.029312
  18 C :   -0.214940
  19 H :    0.153405
  20 C :   -0.132816
  21 C :   -0.164218
  22 S :    0.456564
  23 C :   -0.253728
  24 H :    0.198508
  25 H :    0.155545
  26 H :    0.169039
  27 H :    0.185210
  28 H :    0.191560
  29 H :    0.187401
  30 O :   -0.203506
  31 O :   -0.239318
  32 C :    0.162081
  33 C :   -0.380381
  34 H :    0.162851
  35 H :    0.168593
  36 H :    0.154446
  37 H :    0.185188
  38 H :    0.184088

  Mayer bond orders larger than 0.100000
B(  0-Ir,  1-C ) :   0.5727 B(  0-Ir,  2-C ) :   0.4085 B(  0-Ir,  3-C ) :   0.4810
B(  0-Ir,  4-C ) :   0.3806 B(  0-Ir,  5-C ) :   0.4675 B(  0-Ir,  6-N ) :   0.4937
B(  0-Ir, 30-O ) :   0.2493 B(  0-Ir, 31-O ) :   0.6194 B(  1-C ,  2-C ) :   1.1332
B(  1-C ,  4-C ) :   1.1231 B(  1-C , 27-H ) :   0.9179 B(  2-C ,  5-C ) :   1.2409
B(  2-C , 28-H ) :   0.9055 B(  3-C ,  4-C ) :   1.2482 B(  3-C ,  5-C ) :   1.0921
B(  3-C , 37-H ) :   0.9138 B(  4-C , 38-H ) :   0.9139 B(  5-C , 29-H ) :   0.9066
B(  6-N ,  7-C ) :   0.8684 B(  6-N , 17-C ) :   1.6366 B(  7-C ,  8-C ) :   0.9825
B(  7-C , 12-C ) :   0.9855 B(  7-C , 13-H ) :   0.8912 B(  8-C ,  9-H ) :   0.9079
B(  8-C , 10-H ) :   0.9178 B(  8-C , 11-H ) :   0.9009 B( 12-C , 14-H ) :   0.9063
B( 12-C , 15-H ) :   0.9132 B( 12-C , 16-H ) :   0.9168 B( 17-C , 18-C ) :   1.1144
B( 17-C , 19-H ) :   0.8798 B( 18-C , 20-C ) :   1.4028 B( 18-C , 22-S ) :   1.1750
B( 20-C , 21-C ) :   1.3164 B( 20-C , 24-H ) :   0.7980 B( 21-C , 23-C ) :   1.5006
B( 21-C , 25-H ) :   0.9042 B( 22-S , 23-C ) :   1.2438 B( 23-C , 26-H ) :   0.8931
B( 30-O , 32-C ) :   1.7022 B( 31-O , 32-C ) :   1.2307 B( 32-C , 33-C ) :   0.9419
B( 33-C , 34-H ) :   0.9030 B( 33-C , 35-H ) :   0.8982 B( 33-C , 36-H ) :   0.9058

Dispersion correction           -0.029351750
FINAL SINGLE POINT ENERGY     -1288.372285936434
Dispersion correction            ... done

DIPOLE MOMENT
-------------
                                X             Y             Z
Electronic contribution:     24.05478     -67.03520     118.11154
Nuclear contribution   :    -24.20575      65.77895    -118.48393
                        -----------------------------------------
Total Dipole Moment    :     -0.15097      -1.25624      -0.37238
                        -----------------------------------------
Magnitude (a.u.)       :      1.31894
Magnitude (Debye)      :      3.35249

Rotational constants in cm-1:     0.010900     0.007673     0.007021
Rotational constants in MHz :   326.770273   230.040619   210.482925

                             ****ORCA TERMINATED NORMALLY****
TOTAL RUN TIME: 0 days 0 hours 15 minutes 22 seconds 626 msec
