                         Program Version 5.0.3 -  RELEASE  -
|  1> ! EnGrad PBEh-3c
|  2> %output
|  3> xyzfile=True
|  4> end
|  5> %scf
|  6> maxiter 250
|  7> end
|  8> %output
|  9> Print[P_Hirshfeld] = 1
| 10> end
| 11> % maxcore
| 12> 4000
| 13> *xyz 1 1
| 14> Ir   0.45351808  -0.68617697   1.00232335
| 15> C   -0.09055459  -2.69594236   1.64751826
| 16> C    0.82210958  -2.11582114   2.58536113
| 17> C    1.89479134  -2.36216336   0.58426533
| 18> C    0.62175825  -2.88180034   0.41133039
| 19> C    2.03164832  -1.83031109   1.93392547
| 20> N   -0.99080069  -0.01094703  -0.45507069
| 21> C   -2.43034858   0.07193475   0.03131292
| 22> C   -2.85555123   1.50454375   0.32903626
| 23> H   -3.89053991   1.45994202   0.67706510
| 24> H   -2.83502095   2.12956596  -0.56375352
| 25> H   -2.25396229   1.93834566   1.12493642
| 26> C   -3.37490591  -0.59579319  -0.96315255
| 27> H   -2.44207510  -0.50811514   0.95660655
| 28> H   -4.34988128  -0.66247932  -0.48211124
| 29> H   -3.53401928  -0.00956677  -1.87007333
| 30> H   -3.06972452  -1.60642108  -1.23435718
| 31> C   -0.68088618   0.29498216  -1.66814388
| 32> C    0.65744438   0.21620478  -2.22390225
| 33> H   -1.53535991   0.55604414  -2.32123182
| 34> C    1.91695476   0.36927224  -1.76363089
| 35> C    2.90165403   0.00024047  -2.64297860
| 36> S    0.72461543   0.04520326  -3.97902534
| 37> C    2.42440010  -0.05718445  -3.90520416
| 38> H    2.12493164   0.81264965  -0.77990156
| 39> H    3.93498246   0.03254881  -2.37425096
| 40> H    3.02837966  -0.15156085  -4.80073692
| 41> H   -1.00379573  -3.21389529   1.91820333
| 42> H    0.58606618  -1.91744092   3.62559506
| 43> H    2.91994906  -1.40518715   2.35946148
| 44> O    1.69664442   1.63481048   0.72642622
| 45> O   -0.03219839   1.03173002   2.00072389
| 46> C    0.81813626   1.93898008   1.58688979
| 47> C    0.71754701   3.33238784   2.17291531
| 48> H    0.80918963   4.08848549   1.38439311
| 49> H    1.57151895   3.50661931   2.84067546
| 50> H   -0.19769591   3.51759398   2.74045979
| 51> H    2.68761309  -2.35943304  -0.15625779
| 52> H    0.22101361  -3.40449165  -0.45164749
| 53> *
| 54>
| 55>                          ****END OF INPUT****

CARTESIAN COORDINATES (ANGSTROEM)
---------------------------------
  Ir     0.453518   -0.686177    1.002323
  C     -0.090555   -2.695942    1.647518
  C      0.822110   -2.115821    2.585361
  C      1.894791   -2.362163    0.584265
  C      0.621758   -2.881800    0.411330
  C      2.031648   -1.830311    1.933925
  N     -0.990801   -0.010947   -0.455071
  C     -2.430349    0.071935    0.031313
  C     -2.855551    1.504544    0.329036
  H     -3.890540    1.459942    0.677065
  H     -2.835021    2.129566   -0.563754
  H     -2.253962    1.938346    1.124936
  C     -3.374906   -0.595793   -0.963153
  H     -2.442075   -0.508115    0.956607
  H     -4.349881   -0.662479   -0.482111
  H     -3.534019   -0.009567   -1.870073
  H     -3.069725   -1.606421   -1.234357
  C     -0.680886    0.294982   -1.668144
  C      0.657444    0.216205   -2.223902
  H     -1.535360    0.556044   -2.321232
  C      1.916955    0.369272   -1.763631
  C      2.901654    0.000240   -2.642979
  S      0.724615    0.045203   -3.979025
  C      2.424400   -0.057184   -3.905204
  H      2.124932    0.812650   -0.779902
  H      3.934982    0.032549   -2.374251
  H      3.028380   -0.151561   -4.800737
  H     -1.003796   -3.213895    1.918203
  H      0.586066   -1.917441    3.625595
  H      2.919949   -1.405187    2.359461
  O      1.696644    1.634810    0.726426
  O     -0.032198    1.031730    2.000724
  C      0.818136    1.938980    1.586890
  C      0.717547    3.332388    2.172915
  H      0.809190    4.088485    1.384393
  H      1.571519    3.506619    2.840675
  H     -0.197696    3.517594    2.740460
  H      2.687613   -2.359433   -0.156258
  H      0.221014   -3.404492   -0.451647

 Total Charge           Charge          ....    1
 Multiplicity           Mult            ....    1
 Number of Electrons    NEL             ....  164
 Basis Dimension        Dim             ....  358

ORBITAL ENERGIES
----------------

  NO   OCC          E(Eh)            E(eV)
   0   2.0000     -89.737225     -2441.8740
   1   2.0000     -19.636506      -534.3365
   2   2.0000     -19.606899      -533.5308
   3   2.0000     -14.823482      -403.3675
   4   2.0000     -10.697386      -291.0907
   5   2.0000     -10.654906      -289.9347
   6   2.0000     -10.645423      -289.6767
   7   2.0000     -10.643224      -289.6168
   8   2.0000     -10.639214      -289.5077
   9   2.0000     -10.637819      -289.4698
  10   2.0000     -10.631334      -289.2933
  11   2.0000     -10.612593      -288.7833
  12   2.0000     -10.604406      -288.5606
  13   2.0000     -10.596159      -288.3362
  14   2.0000     -10.565370      -287.4983
  15   2.0000     -10.558439      -287.3097
  16   2.0000     -10.548715      -287.0451
  17   2.0000     -10.548091      -287.0282
  18   2.0000     -10.540621      -286.8249
  19   2.0000      -8.376492      -227.9359
  20   2.0000      -6.266637      -170.5239
  21   2.0000      -6.263260      -170.4320
  22   2.0000      -6.260810      -170.3653
  23   2.0000      -4.033758      -109.7641
  24   2.0000      -2.352814       -64.0233
  25   2.0000      -2.316369       -63.0316
  26   2.0000      -2.315928       -63.0196
  27   2.0000      -1.304522       -35.4978
  28   2.0000      -1.201536       -32.6954
  29   2.0000      -1.182901       -32.1884
  30   2.0000      -1.176390       -32.0112
  31   2.0000      -1.113234       -30.2926
  32   2.0000      -1.008700       -27.4481
  33   2.0000      -0.991763       -26.9872
  34   2.0000      -0.979763       -26.6607
  35   2.0000      -0.954086       -25.9620
  36   2.0000      -0.945744       -25.7350
  37   2.0000      -0.933283       -25.3959
  38   2.0000      -0.890073       -24.2201
  39   2.0000      -0.857666       -23.3383
  40   2.0000      -0.792274       -21.5589
  41   2.0000      -0.790184       -21.5020
  42   2.0000      -0.783676       -21.3249
  43   2.0000      -0.777833       -21.1659
  44   2.0000      -0.763239       -20.7688
  45   2.0000      -0.747609       -20.3435
  46   2.0000      -0.725737       -19.7483
  47   2.0000      -0.713962       -19.4279
  48   2.0000      -0.678976       -18.4759
  49   2.0000      -0.664096       -18.0710
  50   2.0000      -0.661225       -17.9929
  51   2.0000      -0.653035       -17.7700
  52   2.0000      -0.642912       -17.4945
  53   2.0000      -0.642087       -17.4721
  54   2.0000      -0.636256       -17.3134
  55   2.0000      -0.629853       -17.1392
  56   2.0000      -0.614780       -16.7290
  57   2.0000      -0.611834       -16.6489
  58   2.0000      -0.611511       -16.6401
  59   2.0000      -0.603035       -16.4094
  60   2.0000      -0.584441       -15.9035
  61   2.0000      -0.580747       -15.8029
  62   2.0000      -0.568477       -15.4690
  63   2.0000      -0.561217       -15.2715
  64   2.0000      -0.557026       -15.1574
  65   2.0000      -0.552703       -15.0398
  66   2.0000      -0.550987       -14.9931
  67   2.0000      -0.540077       -14.6962
  68   2.0000      -0.533350       -14.5132
  69   2.0000      -0.525732       -14.3059
  70   2.0000      -0.517977       -14.0949
  71   2.0000      -0.514066       -13.9884
  72   2.0000      -0.507732       -13.8161
  73   2.0000      -0.503036       -13.6883
  74   2.0000      -0.484674       -13.1887
  75   2.0000      -0.478673       -13.0253
  76   2.0000      -0.471365       -12.8265
  77   2.0000      -0.456448       -12.4206
  78   2.0000      -0.443227       -12.0608
  79   2.0000      -0.425394       -11.5755
  80   2.0000      -0.411714       -11.2033
  81   2.0000      -0.393307       -10.7024
  82   0.0000      -0.215322        -5.8592
  83   0.0000      -0.167143        -4.5482
  84   0.0000      -0.154446        -4.2027
  85   0.0000      -0.083855        -2.2818
  86   0.0000      -0.082192        -2.2366

MULLIKEN ATOMIC CHARGES
-----------------------
   0 Ir:    0.618838
   1 C :   -0.302781
   2 C :   -0.179357
   3 C :   -0.206006
   4 C :   -0.179260
   5 C :   -0.257459
   6 N :   -0.455549
   7 C :   -0.130456
   8 C :   -0.627924
   9 H :    0.246008
  10 H :    0.224690
  11 H :    0.265141
  12 C :   -0.665040
  13 H :    0.259156
  14 H :    0.262060
  15 H :    0.229529
  16 H :    0.244186
  17 C :    0.047111
  18 C :   -0.224702
  19 H :    0.269460
  20 C :   -0.246016
  21 C :   -0.141213
  22 S :    0.279016
  23 C :   -0.426940
  24 H :    0.363916
  25 H :    0.262078
  26 H :    0.291659
  27 H :    0.291331
  28 H :    0.306367
  29 H :    0.301344
  30 O :   -0.483498
  31 O :   -0.528164
  32 C :    0.647184
  33 C :   -0.763502
  34 H :    0.273568
  35 H :    0.275995
  36 H :    0.265511
  37 H :    0.299614
  38 H :    0.294105
Sum of atomic charges:    1.0000000

LOEWDIN ATOMIC CHARGES
----------------------
   0 Ir:   -0.132783
   1 C :   -0.039983
   2 C :   -0.025688
   3 C :   -0.017083
   4 C :   -0.052138
   5 C :   -0.065793
   6 N :   -0.058470
   7 C :   -0.054872
   8 C :   -0.350940
   9 H :    0.147429
  10 H :    0.135776
  11 H :    0.148816
  12 C :   -0.361117
  13 H :    0.146115
  14 H :    0.153007
  15 H :    0.134355
  16 H :    0.138704
  17 C :    0.032257
  18 C :   -0.222538
  19 H :    0.155051
  20 C :   -0.128741
  21 C :   -0.177714
  22 S :    0.427175
  23 C :   -0.240753
  24 H :    0.199166
  25 H :    0.156443
  26 H :    0.165554
  27 H :    0.186631
  28 H :    0.192697
  29 H :    0.191326
  30 O :   -0.262801
  31 O :   -0.208859
  32 C :    0.197204
  33 C :   -0.379564
  34 H :    0.167195
  35 H :    0.172114
  36 H :    0.157005
  37 H :    0.187855
  38 H :    0.187958

  Mayer bond orders larger than 0.100000
B(  0-Ir,  1-C ) :   0.5906 B(  0-Ir,  2-C ) :   0.4327 B(  0-Ir,  3-C ) :   0.4361
B(  0-Ir,  4-C ) :   0.3612 B(  0-Ir,  5-C ) :   0.4847 B(  0-Ir,  6-N ) :   0.4868
B(  0-Ir, 30-O ) :   0.2630 B(  0-Ir, 31-O ) :   0.6094 B(  1-C ,  2-C ) :   1.1230
B(  1-C ,  4-C ) :   1.1076 B(  1-C , 27-H ) :   0.9161 B(  2-C ,  5-C ) :   1.2259
B(  2-C , 28-H ) :   0.8991 B(  3-C ,  4-C ) :   1.2814 B(  3-C ,  5-C ) :   1.0964
B(  3-C , 37-H ) :   0.9011 B(  4-C , 38-H ) :   0.9085 B(  5-C , 29-H ) :   0.9055
B(  6-N ,  7-C ) :   0.8632 B(  6-N , 17-C ) :   1.6682 B(  7-C ,  8-C ) :   0.9796
B(  7-C , 12-C ) :   0.9842 B(  7-C , 13-H ) :   0.8924 B(  8-C ,  9-H ) :   0.9065
B(  8-C , 10-H ) :   0.9173 B(  8-C , 11-H ) :   0.9020 B( 12-C , 14-H ) :   0.9052
B( 12-C , 15-H ) :   0.9128 B( 12-C , 16-H ) :   0.9175 B( 17-C , 18-C ) :   1.0938
B( 17-C , 19-H ) :   0.8788 B( 18-C , 20-C ) :   1.4389 B( 18-C , 22-S ) :   1.1346
B( 20-C , 21-C ) :   1.3060 B( 20-C , 24-H ) :   0.7852 B( 21-C , 23-C ) :   1.4768
B( 21-C , 25-H ) :   0.9055 B( 22-S , 23-C ) :   1.2666 B( 23-C , 26-H ) :   0.8945
B( 30-O , 32-C ) :   1.6167 B( 31-O , 32-C ) :   1.2722 B( 32-C , 33-C ) :   0.9476
B( 33-C , 34-H ) :   0.8983 B( 33-C , 35-H ) :   0.8933 B( 33-C , 36-H ) :   0.9046

Dispersion correction           -0.029178152
FINAL SINGLE POINT ENERGY     -1288.376522697554
Dispersion correction            ... done

DIPOLE MOMENT
-------------
                                X             Y             Z
Electronic contribution:     23.71074     -66.32196     124.03487
Nuclear contribution   :    -23.98551      65.12195    -124.03522
                        -----------------------------------------
Total Dipole Moment    :     -0.27477      -1.20002      -0.00035
                        -----------------------------------------
Magnitude (a.u.)       :      1.23107
Magnitude (Debye)      :      3.12914

Rotational constants in cm-1:     0.010868     0.007621     0.006969
Rotational constants in MHz :   325.825513   228.482861   208.911927

                             ****ORCA TERMINATED NORMALLY****
TOTAL RUN TIME: 0 days 0 hours 15 minutes 11 seconds 385 msec
