                         Program Version 5.0.3 -  RELEASE  -
|  1> ! EnGrad PBEh-3c
|  2> %output
|  3> xyzfile=True
|  4> end
|  5> %scf
|  6> maxiter 250
|  7> end
|  8> %output
|  9> Print[P_Hirshfeld] = 1
| 10> end
| 11> % maxcore
| 12> 4000
| 13> *xyz 1 1
| 14> Ir   0.45333098  -0.68923832   0.96544504
| 15> C   -0.08448266  -2.69986023   1.68075767
| 16> C    0.84815798  -2.10493281   2.58424212
| 17> C    1.85534830  -2.33851582   0.54514202
| 18> C    0.57812366  -2.86556313   0.42257949
| 19> C    2.03356148  -1.83875769   1.89763279
| 20> N   -0.97945748  -0.00143743  -0.44085895
| 21> C   -2.42004039   0.08348148   0.02415369
| 22> C   -2.85979292   1.50824689   0.30187305
| 23> H   -3.89390428   1.48240411   0.66118165
| 24> H   -2.83444383   2.12097227  -0.59393496
| 25> H   -2.26360117   1.96562951   1.08220880
| 26> C   -3.36882491  -0.60046500  -0.95410189
| 27> H   -2.44310071  -0.46912300   0.95406956
| 28> H   -4.35100269  -0.66870706  -0.47656527
| 29> H   -3.52094540  -0.03439377  -1.87264031
| 30> H   -3.05978950  -1.60979074  -1.20724726
| 31> C   -0.68636503   0.28800755  -1.66255894
| 32> C    0.63455755   0.20574304  -2.24463481
| 33> H   -1.52170974   0.55361689  -2.30818559
| 34> C    1.92117857   0.31434936  -1.68146121
| 35> C    2.89670789   0.01909100  -2.63852882
| 36> S    0.73414254   0.05546224  -3.99106460
| 37> C    2.43526047  -0.04722080  -3.91224620
| 38> H    2.17055556   0.87149243  -0.82771449
| 39> H    3.94521124   0.04251118  -2.38857237
| 40> H    3.03699675  -0.16136177  -4.80315215
| 41> H   -0.97620851  -3.22973528   1.97654578
| 42> H    0.65121099  -1.93935887   3.63561795
| 43> H    2.93588924  -1.42615686   2.28713917
| 44> O    1.66442281   1.65224539   0.76496825
| 45> O   -0.03895129   1.02015666   2.01017304
| 46> C    0.81304622   1.94086409   1.59509721
| 47> C    0.71020385   3.33761724   2.19322757
| 48> H    0.80956329   4.08192737   1.39855889
| 49> H    1.56018820   3.50359527   2.86423919
| 50> H   -0.20363312   3.51082392   2.74702464
| 51> H    2.64574761  -2.41233114  -0.17820786
| 52> H    0.17156630  -3.41734827  -0.40810691
| 53> *
| 54>
| 55>                          ****END OF INPUT****

CARTESIAN COORDINATES (ANGSTROEM)
---------------------------------
  Ir     0.453331   -0.689238    0.965445
  C     -0.084483   -2.699860    1.680758
  C      0.848158   -2.104933    2.584242
  C      1.855348   -2.338516    0.545142
  C      0.578124   -2.865563    0.422579
  C      2.033561   -1.838758    1.897633
  N     -0.979457   -0.001437   -0.440859
  C     -2.420040    0.083481    0.024154
  C     -2.859793    1.508247    0.301873
  H     -3.893904    1.482404    0.661182
  H     -2.834444    2.120972   -0.593935
  H     -2.263601    1.965630    1.082209
  C     -3.368825   -0.600465   -0.954102
  H     -2.443101   -0.469123    0.954070
  H     -4.351003   -0.668707   -0.476565
  H     -3.520945   -0.034394   -1.872640
  H     -3.059789   -1.609791   -1.207247
  C     -0.686365    0.288008   -1.662559
  C      0.634558    0.205743   -2.244635
  H     -1.521710    0.553617   -2.308186
  C      1.921179    0.314349   -1.681461
  C      2.896708    0.019091   -2.638529
  S      0.734143    0.055462   -3.991065
  C      2.435260   -0.047221   -3.912246
  H      2.170556    0.871492   -0.827714
  H      3.945211    0.042511   -2.388572
  H      3.036997   -0.161362   -4.803152
  H     -0.976209   -3.229735    1.976546
  H      0.651211   -1.939359    3.635618
  H      2.935889   -1.426157    2.287139
  O      1.664423    1.652245    0.764968
  O     -0.038951    1.020157    2.010173
  C      0.813046    1.940864    1.595097
  C      0.710204    3.337617    2.193228
  H      0.809563    4.081927    1.398559
  H      1.560188    3.503595    2.864239
  H     -0.203633    3.510824    2.747025
  H      2.645748   -2.412331   -0.178208
  H      0.171566   -3.417348   -0.408107

 Total Charge           Charge          ....    1
 Multiplicity           Mult            ....    1
 Number of Electrons    NEL             ....  164
 Basis Dimension        Dim             ....  358

ORBITAL ENERGIES
----------------

  NO   OCC          E(Eh)            E(eV)
   0   2.0000     -89.746488     -2442.1261
   1   2.0000     -19.624767      -534.0171
   2   2.0000     -19.604868      -533.4756
   3   2.0000     -14.825165      -403.4132
   4   2.0000     -10.688113      -290.8383
   5   2.0000     -10.652755      -289.8762
   6   2.0000     -10.643510      -289.6246
   7   2.0000     -10.637302      -289.4557
   8   2.0000     -10.636440      -289.4323
   9   2.0000     -10.632786      -289.3328
  10   2.0000     -10.626546      -289.1630
  11   2.0000     -10.614749      -288.8420
  12   2.0000     -10.609599      -288.7019
  13   2.0000     -10.600428      -288.4523
  14   2.0000     -10.575139      -287.7642
  15   2.0000     -10.566273      -287.5229
  16   2.0000     -10.548008      -287.0259
  17   2.0000     -10.542424      -286.8739
  18   2.0000     -10.537558      -286.7415
  19   2.0000      -8.385387      -228.1780
  20   2.0000      -6.275512      -170.7654
  21   2.0000      -6.272074      -170.6718
  22   2.0000      -6.269853      -170.6114
  23   2.0000      -4.032067      -109.7181
  24   2.0000      -2.351105       -63.9768
  25   2.0000      -2.314900       -62.9916
  26   2.0000      -2.314192       -62.9724
  27   2.0000      -1.309610       -35.6363
  28   2.0000      -1.202022       -32.7087
  29   2.0000      -1.185243       -32.2521
  30   2.0000      -1.177122       -32.0311
  31   2.0000      -1.108968       -30.1766
  32   2.0000      -1.009438       -27.4682
  33   2.0000      -0.990621       -26.9562
  34   2.0000      -0.979521       -26.6541
  35   2.0000      -0.956385       -26.0246
  36   2.0000      -0.947692       -25.7880
  37   2.0000      -0.928183       -25.2571
  38   2.0000      -0.889699       -24.2099
  39   2.0000      -0.859496       -23.3881
  40   2.0000      -0.791638       -21.5416
  41   2.0000      -0.789864       -21.4933
  42   2.0000      -0.786773       -21.4092
  43   2.0000      -0.779004       -21.1978
  44   2.0000      -0.764408       -20.8006
  45   2.0000      -0.744365       -20.2552
  46   2.0000      -0.728510       -19.8238
  47   2.0000      -0.712683       -19.3931
  48   2.0000      -0.680080       -18.5059
  49   2.0000      -0.664520       -18.0825
  50   2.0000      -0.659223       -17.9384
  51   2.0000      -0.651446       -17.7268
  52   2.0000      -0.642989       -17.4966
  53   2.0000      -0.641987       -17.4694
  54   2.0000      -0.636432       -17.3182
  55   2.0000      -0.631477       -17.1834
  56   2.0000      -0.613731       -16.7005
  57   2.0000      -0.611816       -16.6484
  58   2.0000      -0.611096       -16.6288
  59   2.0000      -0.600817       -16.3491
  60   2.0000      -0.587950       -15.9989
  61   2.0000      -0.585682       -15.9372
  62   2.0000      -0.568000       -15.4561
  63   2.0000      -0.561659       -15.2835
  64   2.0000      -0.557416       -15.1681
  65   2.0000      -0.553619       -15.0647
  66   2.0000      -0.548271       -14.9192
  67   2.0000      -0.540780       -14.7154
  68   2.0000      -0.532025       -14.4771
  69   2.0000      -0.525089       -14.2884
  70   2.0000      -0.520179       -14.1548
  71   2.0000      -0.515175       -14.0186
  72   2.0000      -0.506149       -13.7730
  73   2.0000      -0.505069       -13.7436
  74   2.0000      -0.484846       -13.1933
  75   2.0000      -0.477412       -12.9910
  76   2.0000      -0.470324       -12.7982
  77   2.0000      -0.454548       -12.3689
  78   2.0000      -0.441893       -12.0245
  79   2.0000      -0.423697       -11.5294
  80   2.0000      -0.414058       -11.2671
  81   2.0000      -0.393238       -10.7005
  82   0.0000      -0.215504        -5.8642
  83   0.0000      -0.174789        -4.7563
  84   0.0000      -0.150447        -4.0939
  85   0.0000      -0.082383        -2.2418
  86   0.0000      -0.080618        -2.1937

MULLIKEN ATOMIC CHARGES
-----------------------
   0 Ir:    0.626112
   1 C :   -0.288309
   2 C :   -0.183103
   3 C :   -0.237540
   4 C :   -0.179753
   5 C :   -0.227286
   6 N :   -0.471545
   7 C :   -0.131875
   8 C :   -0.630081
   9 H :    0.246000
  10 H :    0.222721
  11 H :    0.267345
  12 C :   -0.664716
  13 H :    0.262607
  14 H :    0.261893
  15 H :    0.228678
  16 H :    0.244217
  17 C :    0.074016
  18 C :   -0.268101
  19 H :    0.270945
  20 C :   -0.234554
  21 C :   -0.160153
  22 S :    0.298347
  23 C :   -0.411534
  24 H :    0.371230
  25 H :    0.262201
  26 H :    0.293727
  27 H :    0.289971
  28 H :    0.302672
  29 H :    0.298347
  30 O :   -0.452653
  31 O :   -0.540811
  32 C :    0.631430
  33 C :   -0.759420
  34 H :    0.268135
  35 H :    0.272645
  36 H :    0.265070
  37 H :    0.293599
  38 H :    0.289523
Sum of atomic charges:    1.0000000

LOEWDIN ATOMIC CHARGES
----------------------
   0 Ir:   -0.136396
   1 C :   -0.033362
   2 C :   -0.023026
   3 C :   -0.026698
   4 C :   -0.054314
   5 C :   -0.063418
   6 N :   -0.052199
   7 C :   -0.056506
   8 C :   -0.351516
   9 H :    0.147764
  10 H :    0.134263
  11 H :    0.148697
  12 C :   -0.359834
  13 H :    0.147209
  14 H :    0.153719
  15 H :    0.133681
  16 H :    0.137813
  17 C :    0.030604
  18 C :   -0.218763
  19 H :    0.153881
  20 C :   -0.129271
  21 C :   -0.169368
  22 S :    0.446835
  23 C :   -0.249073
  24 H :    0.197546
  25 H :    0.155868
  26 H :    0.167943
  27 H :    0.185657
  28 H :    0.191855
  29 H :    0.188634
  30 O :   -0.223647
  31 O :   -0.229335
  32 C :    0.174262
  33 C :   -0.380038
  34 H :    0.164288
  35 H :    0.169740
  36 H :    0.155316
  37 H :    0.185876
  38 H :    0.185314

  Mayer bond orders larger than 0.100000
B(  0-Ir,  1-C ) :   0.5790 B(  0-Ir,  2-C ) :   0.4163 B(  0-Ir,  3-C ) :   0.4667
B(  0-Ir,  4-C ) :   0.3741 B(  0-Ir,  5-C ) :   0.4729 B(  0-Ir,  6-N ) :   0.4913
B(  0-Ir, 30-O ) :   0.2550 B(  0-Ir, 31-O ) :   0.6158 B(  1-C ,  2-C ) :   1.1300
B(  1-C ,  4-C ) :   1.1178 B(  1-C , 27-H ) :   0.9175 B(  2-C ,  5-C ) :   1.2364
B(  2-C , 28-H ) :   0.9035 B(  3-C ,  4-C ) :   1.2593 B(  3-C ,  5-C ) :   1.0942
B(  3-C , 37-H ) :   0.9100 B(  4-C , 38-H ) :   0.9124 B(  5-C , 29-H ) :   0.9064
B(  6-N ,  7-C ) :   0.8669 B(  6-N , 17-C ) :   1.6473 B(  7-C ,  8-C ) :   0.9817
B(  7-C , 12-C ) :   0.9852 B(  7-C , 13-H ) :   0.8917 B(  8-C ,  9-H ) :   0.9075
B(  8-C , 10-H ) :   0.9176 B(  8-C , 11-H ) :   0.9013 B( 12-C , 14-H ) :   0.9060
B( 12-C , 15-H ) :   0.9131 B( 12-C , 16-H ) :   0.9171 B( 17-C , 18-C ) :   1.1084
B( 17-C , 19-H ) :   0.8793 B( 18-C , 20-C ) :   1.4201 B( 18-C , 22-S ) :   1.1613
B( 20-C , 21-C ) :   1.3173 B( 20-C , 24-H ) :   0.7898 B( 21-C , 23-C ) :   1.4918
B( 21-C , 25-H ) :   0.9046 B( 22-S , 23-C ) :   1.2522 B( 23-C , 26-H ) :   0.8943
B( 30-O , 32-C ) :   1.6721 B( 31-O , 32-C ) :   1.2444 B( 32-C , 33-C ) :   0.9439
B( 33-C , 34-H ) :   0.9015 B( 33-C , 35-H ) :   0.8966 B( 33-C , 36-H ) :   0.9054

Dispersion correction           -0.029306792
FINAL SINGLE POINT ENERGY     -1288.380979026495
Dispersion correction            ... done

DIPOLE MOMENT
-------------
                                X             Y             Z
Electronic contribution:     23.94645     -66.80487     120.04607
Nuclear contribution   :    -24.13404      65.56502    -120.29156
                        -----------------------------------------
Total Dipole Moment    :     -0.18758      -1.23986      -0.24549
                        -----------------------------------------
Magnitude (a.u.)       :      1.27777
Magnitude (Debye)      :      3.24784

Rotational constants in cm-1:     0.010890     0.007657     0.007005
Rotational constants in MHz :   326.478557   229.553607   209.990502

                             ****ORCA TERMINATED NORMALLY****
TOTAL RUN TIME: 0 days 0 hours 15 minutes 9 seconds 991 msec
