                         Program Version 5.0.3 -  RELEASE  -
|  1> ! EnGrad PBEh-3c
|  2> %output
|  3> xyzfile=True
|  4> end
|  5> %scf
|  6> maxiter 250
|  7> end
|  8> %output
|  9> Print[P_Hirshfeld] = 1
| 10> end
| 11> % maxcore
| 12> 4000
| 13> *xyz 1 1
| 14> Ir   0.45275089  -0.69766155   1.01552508
| 15> C   -0.09052536  -2.69497400   1.59883064
| 16> C    0.78091865  -2.11999686   2.59808648
| 17> C    1.95563345  -2.36905746   0.63800355
| 18> C    0.66808861  -2.90016010   0.40146682
| 19> C    2.01561769  -1.82857682   1.97306363
| 20> N   -0.99661513  -0.02134107  -0.45639762
| 21> C   -2.42927853   0.05547870   0.02608451
| 22> C   -2.85329499   1.48704525   0.36957636
| 23> H   -3.88644845   1.43309542   0.70275132
| 24> H   -2.83255763   2.13851861  -0.51691021
| 25> H   -2.24529416   1.89924503   1.17965112
| 26> C   -3.38790153  -0.58621657  -0.97078455
| 27> H   -2.44286484  -0.55591222   0.95325262
| 28> H   -4.35353641  -0.65654649  -0.49025418
| 29> H   -3.55018251   0.02447737  -1.86578598
| 30> H   -3.08443982  -1.59679824  -1.27133169
| 31> C   -0.68828538   0.30121605  -1.66318773
| 32> C    0.64936384   0.23578570  -2.24084883
| 33> H   -1.53684889   0.55581414  -2.33310370
| 34> C    1.91114202   0.44503831  -1.75677403
| 35> C    2.92102188  -0.00481831  -2.65734614
| 36> S    0.71892305   0.03410914  -3.96417260
| 37> C    2.41143560  -0.07682774  -3.92596427
| 38> H    2.06521327   0.71685758  -0.75955987
| 39> H    3.92982928   0.01519647  -2.35672927
| 40> H    3.01477509  -0.14107623  -4.79459583
| 41> H   -1.03648776  -3.19621814   1.83521589
| 42> H    0.49551016  -1.89587869   3.60758222
| 43> H    2.89428849  -1.37907497   2.45785659
| 44> O    1.68992965   1.63009212   0.72853547
| 45> O    0.00309938   1.06209575   1.97609660
| 46> C    0.84655281   1.91898461   1.54383700
| 47> C    0.73265801   3.33134514   2.14338747
| 48> H    0.80921298   4.09493508   1.36584465
| 49> H    1.58570651   3.51130172   2.80623883
| 50> H   -0.18287575   3.52104936   2.72595541
| 51> H    2.74327687  -2.29397190  -0.11463663
| 52> H    0.29827987  -3.38473288  -0.50225403
| 53> *
| 54>
| 55>                          ****END OF INPUT****

CARTESIAN COORDINATES (ANGSTROEM)
---------------------------------
  Ir     0.452751   -0.697662    1.015525
  C     -0.090525   -2.694974    1.598831
  C      0.780919   -2.119997    2.598086
  C      1.955633   -2.369057    0.638004
  C      0.668089   -2.900160    0.401467
  C      2.015618   -1.828577    1.973064
  N     -0.996615   -0.021341   -0.456398
  C     -2.429279    0.055479    0.026085
  C     -2.853295    1.487045    0.369576
  H     -3.886448    1.433095    0.702751
  H     -2.832558    2.138519   -0.516910
  H     -2.245294    1.899245    1.179651
  C     -3.387902   -0.586217   -0.970785
  H     -2.442865   -0.555912    0.953253
  H     -4.353536   -0.656546   -0.490254
  H     -3.550183    0.024477   -1.865786
  H     -3.084440   -1.596798   -1.271332
  C     -0.688285    0.301216   -1.663188
  C      0.649364    0.235786   -2.240849
  H     -1.536849    0.555814   -2.333104
  C      1.911142    0.445038   -1.756774
  C      2.921022   -0.004818   -2.657346
  S      0.718923    0.034109   -3.964173
  C      2.411436   -0.076828   -3.925964
  H      2.065213    0.716858   -0.759560
  H      3.929829    0.015196   -2.356729
  H      3.014775   -0.141076   -4.794596
  H     -1.036488   -3.196218    1.835216
  H      0.495510   -1.895879    3.607582
  H      2.894288   -1.379075    2.457857
  O      1.689930    1.630092    0.728535
  O      0.003099    1.062096    1.976097
  C      0.846553    1.918985    1.543837
  C      0.732658    3.331345    2.143387
  H      0.809213    4.094935    1.365845
  H      1.585707    3.511302    2.806239
  H     -0.182876    3.521049    2.725955
  H      2.743277   -2.293972   -0.114637
  H      0.298280   -3.384733   -0.502254

 Total Charge           Charge          ....    1
 Multiplicity           Mult            ....    1
 Number of Electrons    NEL             ....  164
 Basis Dimension        Dim             ....  358

ORBITAL ENERGIES
----------------

  NO   OCC          E(Eh)            E(eV)
   0   2.0000     -89.738758     -2441.9158
   1   2.0000     -19.631186      -534.1917
   2   2.0000     -19.603246      -533.4315
   3   2.0000     -14.826778      -403.4571
   4   2.0000     -10.685176      -290.7584
   5   2.0000     -10.657608      -290.0083
   6   2.0000     -10.653167      -289.8874
   7   2.0000     -10.649569      -289.7895
   8   2.0000     -10.643724      -289.6305
   9   2.0000     -10.643617      -289.6275
  10   2.0000     -10.637477      -289.4605
  11   2.0000     -10.615821      -288.8712
  12   2.0000     -10.605795      -288.5983
  13   2.0000     -10.595308      -288.3130
  14   2.0000     -10.567986      -287.5695
  15   2.0000     -10.564973      -287.4875
  16   2.0000     -10.550147      -287.0841
  17   2.0000     -10.542584      -286.8783
  18   2.0000     -10.540595      -286.8242
  19   2.0000      -8.378435      -227.9888
  20   2.0000      -6.268593      -170.5771
  21   2.0000      -6.265124      -170.4827
  22   2.0000      -6.262841      -170.4206
  23   2.0000      -4.036770      -109.8461
  24   2.0000      -2.356180       -64.1149
  25   2.0000      -2.319342       -63.1125
  26   2.0000      -2.318721       -63.0956
  27   2.0000      -1.327988       -36.1364
  28   2.0000      -1.219665       -33.1888
  29   2.0000      -1.185523       -32.2597
  30   2.0000      -1.177905       -32.0524
  31   2.0000      -1.109968       -30.2038
  32   2.0000      -1.008043       -27.4302
  33   2.0000      -0.991862       -26.9899
  34   2.0000      -0.983615       -26.7655
  35   2.0000      -0.952959       -25.9313
  36   2.0000      -0.945830       -25.7373
  37   2.0000      -0.921106       -25.0646
  38   2.0000      -0.889936       -24.2164
  39   2.0000      -0.858916       -23.3723
  40   2.0000      -0.794347       -21.6153
  41   2.0000      -0.793091       -21.5811
  42   2.0000      -0.785780       -21.3822
  43   2.0000      -0.777127       -21.1467
  44   2.0000      -0.763160       -20.7666
  45   2.0000      -0.746014       -20.3001
  46   2.0000      -0.730729       -19.8841
  47   2.0000      -0.714989       -19.4558
  48   2.0000      -0.679476       -18.4895
  49   2.0000      -0.667212       -18.1558
  50   2.0000      -0.665040       -18.0967
  51   2.0000      -0.655243       -17.8301
  52   2.0000      -0.645981       -17.5780
  53   2.0000      -0.643060       -17.4986
  54   2.0000      -0.640694       -17.4342
  55   2.0000      -0.629856       -17.1392
  56   2.0000      -0.618484       -16.8298
  57   2.0000      -0.614151       -16.7119
  58   2.0000      -0.612857       -16.6767
  59   2.0000      -0.602816       -16.4034
  60   2.0000      -0.586734       -15.9658
  61   2.0000      -0.575409       -15.6577
  62   2.0000      -0.570531       -15.5249
  63   2.0000      -0.561730       -15.2855
  64   2.0000      -0.556266       -15.1368
  65   2.0000      -0.553592       -15.0640
  66   2.0000      -0.548180       -14.9167
  67   2.0000      -0.541244       -14.7280
  68   2.0000      -0.533723       -14.5234
  69   2.0000      -0.524893       -14.2831
  70   2.0000      -0.522646       -14.2219
  71   2.0000      -0.515722       -14.0335
  72   2.0000      -0.509697       -13.8696
  73   2.0000      -0.504679       -13.7330
  74   2.0000      -0.488099       -13.2818
  75   2.0000      -0.480833       -13.0841
  76   2.0000      -0.469131       -12.7657
  77   2.0000      -0.459821       -12.5124
  78   2.0000      -0.444817       -12.1041
  79   2.0000      -0.427991       -11.6462
  80   2.0000      -0.410178       -11.1615
  81   2.0000      -0.394949       -10.7471
  82   0.0000      -0.219768        -5.9802
  83   0.0000      -0.167949        -4.5701
  84   0.0000      -0.158381        -4.3098
  85   0.0000      -0.087991        -2.3944
  86   0.0000      -0.085199        -2.3184

MULLIKEN ATOMIC CHARGES
-----------------------
   0 Ir:    0.595241
   1 C :   -0.315926
   2 C :   -0.167074
   3 C :   -0.179028
   4 C :   -0.181744
   5 C :   -0.284711
   6 N :   -0.446215
   7 C :   -0.131183
   8 C :   -0.627484
   9 H :    0.247565
  10 H :    0.223120
  11 H :    0.268378
  12 C :   -0.663945
  13 H :    0.252880
  14 H :    0.265190
  15 H :    0.229037
  16 H :    0.242163
  17 C :    0.056257
  18 C :   -0.233910
  19 H :    0.268487
  20 C :   -0.219420
  21 C :   -0.165709
  22 S :    0.298369
  23 C :   -0.416718
  24 H :    0.328155
  25 H :    0.262476
  26 H :    0.292597
  27 H :    0.293951
  28 H :    0.311129
  29 H :    0.306134
  30 O :   -0.442842
  31 O :   -0.517291
  32 C :    0.618249
  33 C :   -0.766873
  34 H :    0.267186
  35 H :    0.269335
  36 H :    0.258952
  37 H :    0.306236
  38 H :    0.298984
Sum of atomic charges:    1.0000000

LOEWDIN ATOMIC CHARGES
----------------------
   0 Ir:   -0.132526
   1 C :   -0.041843
   2 C :   -0.021167
   3 C :   -0.003625
   4 C :   -0.053584
   5 C :   -0.071532
   6 N :   -0.056501
   7 C :   -0.055977
   8 C :   -0.350883
   9 H :    0.147053
  10 H :    0.135891
  11 H :    0.151048
  12 C :   -0.361463
  13 H :    0.144511
  14 H :    0.153438
  15 H :    0.134522
  16 H :    0.138751
  17 C :    0.034063
  18 C :   -0.233502
  19 H :    0.154391
  20 C :   -0.118992
  21 C :   -0.173449
  22 S :    0.442463
  23 C :   -0.250707
  24 H :    0.181366
  25 H :    0.154247
  26 H :    0.164749
  27 H :    0.188221
  28 H :    0.194076
  29 H :    0.195430
  30 O :   -0.213074
  31 O :   -0.193975
  32 C :    0.141332
  33 C :   -0.384720
  34 H :    0.161225
  35 H :    0.166331
  36 H :    0.153208
  37 H :    0.191039
  38 H :    0.190161

  Mayer bond orders larger than 0.100000
B(  0-Ir,  1-C ) :   0.5977 B(  0-Ir,  2-C ) :   0.4564 B(  0-Ir,  3-C ) :   0.4277
B(  0-Ir,  4-C ) :   0.3595 B(  0-Ir,  5-C ) :   0.4852 B(  0-Ir,  6-N ) :   0.4804
B(  0-Ir, 30-O ) :   0.2478 B(  0-Ir, 31-O ) :   0.6169 B(  1-C ,  2-C ) :   1.1086
B(  1-C ,  4-C ) :   1.1107 B(  1-C , 27-H ) :   0.9125 B(  2-C ,  5-C ) :   1.2140
B(  2-C , 28-H ) :   0.8956 B(  3-C ,  4-C ) :   1.2759 B(  3-C ,  5-C ) :   1.1013
B(  3-C , 37-H ) :   0.8924 B(  4-C , 38-H ) :   0.9039 B(  5-C , 29-H ) :   0.9014
B(  6-N ,  7-C ) :   0.8659 B(  6-N , 17-C ) :   1.6804 B(  7-C ,  8-C ) :   0.9757
B(  7-C , 12-C ) :   0.9826 B(  7-C , 13-H ) :   0.8936 B(  8-C ,  9-H ) :   0.9051
B(  8-C , 10-H ) :   0.9178 B(  8-C , 11-H ) :   0.9001 B( 12-C , 14-H ) :   0.9036
B( 12-C , 15-H ) :   0.9129 B( 12-C , 16-H ) :   0.9185 B( 17-C , 18-C ) :   1.0811
B( 17-C , 19-H ) :   0.8780 B( 18-C , 20-C ) :   1.4333 B( 18-C , 22-S ) :   1.1422
B( 20-C , 21-C ) :   1.2877 B( 20-C , 24-H ) :   0.8218 B( 21-C , 23-C ) :   1.4947
B( 21-C , 25-H ) :   0.9061 B( 22-S , 23-C ) :   1.2583 B( 23-C , 26-H ) :   0.8957
B( 30-O , 32-C ) :   1.6890 B( 31-O , 32-C ) :   1.2758 B( 32-C , 33-C ) :   0.9337
B( 33-C , 34-H ) :   0.9023 B( 33-C , 35-H ) :   0.8983 B( 33-C , 36-H ) :   0.9092

Dispersion correction           -0.029221290
FINAL SINGLE POINT ENERGY     -1288.372653907880
Dispersion correction            ... done

DIPOLE MOMENT
-------------
                                X             Y             Z
Electronic contribution:     23.43739     -67.60645     125.29882
Nuclear contribution   :    -23.73184      66.21852    -125.35367
                        -----------------------------------------
Total Dipole Moment    :     -0.29445      -1.38793      -0.05485
                        -----------------------------------------
Magnitude (a.u.)       :      1.41988
Magnitude (Debye)      :      3.60905

Rotational constants in cm-1:     0.010837     0.007607     0.006959
Rotational constants in MHz :   324.898837   228.048778   208.616552

                             ****ORCA TERMINATED NORMALLY****
TOTAL RUN TIME: 0 days 0 hours 14 minutes 13 seconds 416 msec
