                         Program Version 5.0.3 -  RELEASE  -
|  1> ! EnGrad PBEh-3c
|  2> %output
|  3> xyzfile=True
|  4> end
|  5> %scf
|  6> maxiter 250
|  7> end
|  8> %output
|  9> Print[P_Hirshfeld] = 1
| 10> end
| 11> % maxcore
| 12> 4000
| 13> *xyz -1 1
| 14> Pt  -0.62170302  -0.71890371   0.37156582
| 15> Cl  -0.01478511  -0.11192510   2.55483068
| 16> Cl  -2.54833582  -1.81607009   1.09322676
| 17> Cl  -1.06229810  -1.29203915  -1.86174405
| 18> C    0.68695757   0.95206258  -0.45497776
| 19> H    1.36739829   1.41885428   0.25564440
| 20> H    1.10682799  -0.84430909   0.09621184
| 21> H    1.21124494   0.75910203  -1.38983763
| 22> H   -0.12530674   1.65322722  -0.66490213
| 23> *
| 24>
| 25>                          ****END OF INPUT****

CARTESIAN COORDINATES (ANGSTROEM)
---------------------------------
  Pt    -0.621703   -0.718904    0.371566
  Cl    -0.014785   -0.111925    2.554831
  Cl    -2.548336   -1.816070    1.093227
  Cl    -1.062298   -1.292039   -1.861744
  C      0.686958    0.952063   -0.454978
  H      1.367398    1.418854    0.255644
  H      1.106828   -0.844309    0.096212
  H      1.211245    0.759102   -1.389838
  H     -0.125307    1.653227   -0.664902

 Total Charge           Charge          ....   -1
 Multiplicity           Mult            ....    1
 Number of Electrons    NEL             ....   80
 Basis Dimension        Dim             ....  109

ORBITAL ENERGIES
----------------

  NO   OCC          E(Eh)            E(eV)
   0   2.0000    -102.094911     -2778.1438
   1   2.0000    -102.094302     -2778.1272
   2   2.0000    -102.090001     -2778.0101
   3   2.0000     -10.341648      -281.4105
   4   2.0000      -9.558854      -260.1096
   5   2.0000      -9.558121      -260.0897
   6   2.0000      -9.554326      -259.9864
   7   2.0000      -7.245182      -197.1514
   8   2.0000      -7.244400      -197.1302
   9   2.0000      -7.240185      -197.0154
  10   2.0000      -7.239717      -197.0027
  11   2.0000      -7.239348      -196.9927
  12   2.0000      -7.239035      -196.9842
  13   2.0000      -7.238671      -196.9743
  14   2.0000      -7.235728      -196.8942
  15   2.0000      -7.234650      -196.8648
  16   2.0000      -3.986521      -108.4787
  17   2.0000      -2.196559       -59.7714
  18   2.0000      -2.189735       -59.5857
  19   2.0000      -2.168715       -59.0137
  20   2.0000      -0.697739       -18.9864
  21   2.0000      -0.680977       -18.5303
  22   2.0000      -0.680201       -18.5092
  23   2.0000      -0.644926       -17.5493
  24   2.0000      -0.359603        -9.7853
  25   2.0000      -0.346311        -9.4236
  26   2.0000      -0.321640        -8.7523
  27   2.0000      -0.295843        -8.0503
  28   2.0000      -0.272701        -7.4206
  29   2.0000      -0.252971        -6.8837
  30   2.0000      -0.247760        -6.7419
  31   2.0000      -0.224116        -6.0985
  32   2.0000      -0.202027        -5.4974
  33   2.0000      -0.192346        -5.2340
  34   2.0000      -0.182188        -4.9576
  35   2.0000      -0.160386        -4.3643
  36   2.0000      -0.153831        -4.1860
  37   2.0000      -0.151178        -4.1138
  38   2.0000      -0.141213        -3.8426
  39   2.0000      -0.135645        -3.6911
  40   0.0000       0.094221         2.5639
  41   0.0000       0.102963         2.8018
  42   0.0000       0.214033         5.8241
  43   0.0000       0.247513         6.7352
  44   0.0000       0.269150         7.3239

MULLIKEN ATOMIC CHARGES
-----------------------
   0 Pt:    0.121134
   1 Cl:   -0.404351
   2 Cl:   -0.392738
   3 Cl:   -0.409059
   4 C :   -0.811328
   5 H :    0.242640
   6 H :    0.159741
   7 H :    0.240820
   8 H :    0.253142
Sum of atomic charges:   -1.0000000

LOEWDIN ATOMIC CHARGES
----------------------
   0 Pt:   -0.860287
   1 Cl:   -0.127352
   2 Cl:   -0.126013
   3 Cl:   -0.129427
   4 C :   -0.394961
   5 H :    0.140014
   6 H :    0.198238
   7 H :    0.138610
   8 H :    0.161177

  Mayer bond orders larger than 0.100000
B(  0-Pt,  1-Cl) :   0.7876 B(  0-Pt,  2-Cl) :   0.7822 B(  0-Pt,  3-Cl) :   0.7757
B(  0-Pt,  4-C ) :   0.6604 B(  0-Pt,  6-H ) :   0.6350 B(  1-Cl,  3-Cl) :   0.1341
B(  2-Cl,  4-C ) :   0.1188 B(  4-C ,  5-H ) :   0.8937 B(  4-C ,  6-H ) :   0.2345
B(  4-C ,  7-H ) :   0.8990 B(  4-C ,  8-H ) :   0.8963

Dispersion correction           -0.005233852
FINAL SINGLE POINT ENERGY     -1539.004389272945
Dispersion correction            ... done

DIPOLE MOMENT
-------------
                                X             Y             Z
Electronic contribution:     12.33848      -0.49081      -1.66975
Nuclear contribution   :    -11.19733       1.37512       1.16117
                        -----------------------------------------
Total Dipole Moment    :      1.14115       0.88431      -0.50858
                        -----------------------------------------
Magnitude (a.u.)       :      1.53065
Magnitude (Debye)      :      3.89060

Rotational constants in cm-1:     0.061220     0.041969     0.025662
Rotational constants in MHz :  1835.321681  1258.189419   769.333831

                             ****ORCA TERMINATED NORMALLY****
TOTAL RUN TIME: 0 days 0 hours 0 minutes 36 seconds 728 msec
