                         Program Version 5.0.3 -  RELEASE  -
|  1> ! EnGrad PBEh-3c
|  2> %output
|  3> xyzfile=True
|  4> end
|  5> %scf
|  6> maxiter 250
|  7> end
|  8> %output
|  9> Print[P_Hirshfeld] = 1
| 10> end
| 11> % maxcore
| 12> 4000
| 13> *xyz -1 1
| 14> Pt  -0.42510272  -0.68461222   0.33020789
| 15> Cl  -0.05945727  -0.16428882   2.56740208
| 16> Cl  -2.55659241  -1.86709979   1.10141690
| 17> Cl  -1.13402589  -1.26048414  -1.82482869
| 18> C    0.68840662   0.92014378  -0.45199552
| 19> H    1.37031396   1.44933001   0.24252655
| 20> H    0.96541532  -0.74133026   0.13499841
| 21> H    1.25812201   0.73773268  -1.38846418
| 22> H   -0.10854126   1.60946326  -0.70858350
| 23> *
| 24>
| 25>                          ****END OF INPUT****

CARTESIAN COORDINATES (ANGSTROEM)
---------------------------------
  Pt    -0.425103   -0.684612    0.330208
  Cl    -0.059457   -0.164289    2.567402
  Cl    -2.556592   -1.867100    1.101417
  Cl    -1.134026   -1.260484   -1.824829
  C      0.688407    0.920144   -0.451996
  H      1.370314    1.449330    0.242527
  H      0.965415   -0.741330    0.134998
  H      1.258122    0.737733   -1.388464
  H     -0.108541    1.609463   -0.708583

 Total Charge           Charge          ....   -1
 Multiplicity           Mult            ....    1
 Number of Electrons    NEL             ....   80
 Basis Dimension        Dim             ....  109

ORBITAL ENERGIES
----------------

  NO   OCC          E(Eh)            E(eV)
   0   2.0000    -102.102783     -2778.3580
   1   2.0000    -102.099455     -2778.2674
   2   2.0000    -102.064906     -2777.3273
   3   2.0000     -10.343743      -281.4675
   4   2.0000      -9.566897      -260.3285
   5   2.0000      -9.563500      -260.2361
   6   2.0000      -9.527963      -259.2690
   7   2.0000      -7.253245      -197.3708
   8   2.0000      -7.249869      -197.2790
   9   2.0000      -7.247705      -197.2201
  10   2.0000      -7.247319      -197.2096
  11   2.0000      -7.244357      -197.1290
  12   2.0000      -7.243860      -197.1154
  13   2.0000      -7.213501      -196.2893
  14   2.0000      -7.209615      -196.1836
  15   2.0000      -7.208772      -196.1607
  16   2.0000      -4.002971      -108.9264
  17   2.0000      -2.219355       -60.3917
  18   2.0000      -2.204110       -59.9769
  19   2.0000      -2.187326       -59.5202
  20   2.0000      -0.703071       -19.1315
  21   2.0000      -0.687334       -18.7033
  22   2.0000      -0.657394       -17.8886
  23   2.0000      -0.648544       -17.6478
  24   2.0000      -0.408951       -11.1281
  25   2.0000      -0.352950        -9.6043
  26   2.0000      -0.337993        -9.1973
  27   2.0000      -0.307614        -8.3706
  28   2.0000      -0.285513        -7.7692
  29   2.0000      -0.273217        -7.4346
  30   2.0000      -0.258159        -7.0249
  31   2.0000      -0.218261        -5.9392
  32   2.0000      -0.202804        -5.5186
  33   2.0000      -0.196357        -5.3431
  34   2.0000      -0.191166        -5.2019
  35   2.0000      -0.156669        -4.2632
  36   2.0000      -0.154733        -4.2105
  37   2.0000      -0.145560        -3.9609
  38   2.0000      -0.143622        -3.9081
  39   2.0000      -0.133490        -3.6325
  40   0.0000       0.094121         2.5612
  41   0.0000       0.129295         3.5183
  42   0.0000       0.213217         5.8019
  43   0.0000       0.248485         6.7616
  44   0.0000       0.263079         7.1587

MULLIKEN ATOMIC CHARGES
-----------------------
   0 Pt:    0.182639
   1 Cl:   -0.383398
   2 Cl:   -0.438720
   3 Cl:   -0.398635
   4 C :   -0.858619
   5 H :    0.239577
   6 H :    0.159315
   7 H :    0.238481
   8 H :    0.259359
Sum of atomic charges:   -1.0000000

LOEWDIN ATOMIC CHARGES
----------------------
   0 Pt:   -0.745722
   1 Cl:   -0.100600
   2 Cl:   -0.270019
   3 Cl:   -0.115334
   4 C :   -0.383705
   5 H :    0.142044
   6 H :    0.168969
   7 H :    0.141954
   8 H :    0.162412

  Mayer bond orders larger than 0.100000
B(  0-Pt,  1-Cl) :   0.8016 B(  0-Pt,  2-Cl) :   0.7041 B(  0-Pt,  3-Cl) :   0.7767
B(  0-Pt,  4-C ) :   0.7356 B(  0-Pt,  6-H ) :   0.7171 B(  1-Cl,  3-Cl) :   0.1401
B(  2-Cl,  4-C ) :   0.1139 B(  4-C ,  5-H ) :   0.8918 B(  4-C ,  6-H ) :   0.1676
B(  4-C ,  7-H ) :   0.8962 B(  4-C ,  8-H ) :   0.8946

Dispersion correction           -0.005239173
FINAL SINGLE POINT ENERGY     -1539.010566493405
Dispersion correction            ... done

DIPOLE MOMENT
-------------
                                X             Y             Z
Electronic contribution:     26.22681       2.90561      -5.08110
Nuclear contribution   :    -24.56909      -1.79930       4.43309
                        -----------------------------------------
Total Dipole Moment    :      1.65772       1.10631      -0.64800
                        -----------------------------------------
Magnitude (a.u.)       :      2.09568
Magnitude (Debye)      :      5.32680

Rotational constants in cm-1:     0.057657     0.042542     0.025264
Rotational constants in MHz :  1728.506470  1275.381432   757.387210

                             ****ORCA TERMINATED NORMALLY****
TOTAL RUN TIME: 0 days 0 hours 0 minutes 31 seconds 257 msec
