                         Program Version 5.0.3 -  RELEASE  -
|  1> ! EnGrad PBEh-3c
|  2> %output
|  3> xyzfile=True
|  4> end
|  5> %scf
|  6> maxiter 250
|  7> end
|  8> %output
|  9> Print[P_Hirshfeld] = 1
| 10> end
| 11> % maxcore
| 12> 4000
| 13> *xyz -1 1
| 14> Pt  -0.54268707  -0.70512156   0.35494359
| 15> Cl  -0.03273937  -0.13297069   2.55988328
| 16> Cl  -2.55165424  -1.83657952   1.09651847
| 17> Cl  -1.09112633  -1.27935682  -1.84690734
| 18> C    0.68753996   0.93923404  -0.45377916
| 19> H    1.36857013   1.43110283   0.25037218
| 20> H    1.04999259  -0.80292069   0.11180061
| 21> H    1.23008538   0.75051343  -1.38928562
| 22> H   -0.11856850   1.63563797  -0.68245818
| 23> *
| 24>
| 25>                          ****END OF INPUT****

CARTESIAN COORDINATES (ANGSTROEM)
---------------------------------
  Pt    -0.542687   -0.705122    0.354944
  Cl    -0.032739   -0.132971    2.559883
  Cl    -2.551654   -1.836580    1.096518
  Cl    -1.091126   -1.279357   -1.846907
  C      0.687540    0.939234   -0.453779
  H      1.368570    1.431103    0.250372
  H      1.049993   -0.802921    0.111801
  H      1.230085    0.750513   -1.389286
  H     -0.118568    1.635638   -0.682458

 Total Charge           Charge          ....   -1
 Multiplicity           Mult            ....    1
 Number of Electrons    NEL             ....   80
 Basis Dimension        Dim             ....  109

ORBITAL ENERGIES
----------------

  NO   OCC          E(Eh)            E(eV)
   0   2.0000    -102.097918     -2778.2256
   1   2.0000    -102.096314     -2778.1819
   2   2.0000    -102.080509     -2777.7519
   3   2.0000     -10.342764      -281.4409
   4   2.0000      -9.561962      -260.1942
   5   2.0000      -9.560263      -260.1480
   6   2.0000      -9.544137      -259.7092
   7   2.0000      -7.248285      -197.2359
   8   2.0000      -7.246569      -197.1892
   9   2.0000      -7.242807      -197.0868
  10   2.0000      -7.242440      -197.0768
  11   2.0000      -7.241155      -197.0419
  12   2.0000      -7.240742      -197.0306
  13   2.0000      -7.229884      -196.7352
  14   2.0000      -7.225651      -196.6200
  15   2.0000      -7.224670      -196.5933
  16   2.0000      -3.992740      -108.6480
  17   2.0000      -2.203632       -59.9639
  18   2.0000      -2.195378       -59.7393
  19   2.0000      -2.175765       -59.2056
  20   2.0000      -0.699386       -19.0313
  21   2.0000      -0.683462       -18.5979
  22   2.0000      -0.669060       -18.2060
  23   2.0000      -0.648686       -17.6516
  24   2.0000      -0.374264       -10.1842
  25   2.0000      -0.348288        -9.4774
  26   2.0000      -0.328443        -8.9374
  27   2.0000      -0.301256        -8.1976
  28   2.0000      -0.273823        -7.4511
  29   2.0000      -0.258923        -7.0456
  30   2.0000      -0.252557        -6.8724
  31   2.0000      -0.221243        -6.0203
  32   2.0000      -0.202325        -5.5055
  33   2.0000      -0.193535        -5.2664
  34   2.0000      -0.186364        -5.0712
  35   2.0000      -0.161244        -4.3877
  36   2.0000      -0.153410        -4.1745
  37   2.0000      -0.146949        -3.9987
  38   2.0000      -0.144835        -3.9412
  39   2.0000      -0.138386        -3.7657
  40   0.0000       0.100535         2.7357
  41   0.0000       0.108870         2.9625
  42   0.0000       0.214090         5.8257
  43   0.0000       0.248818         6.7707
  44   0.0000       0.265384         7.2215

MULLIKEN ATOMIC CHARGES
-----------------------
   0 Pt:    0.144410
   1 Cl:   -0.394692
   2 Cl:   -0.408673
   3 Cl:   -0.403443
   4 C :   -0.830979
   5 H :    0.242085
   6 H :    0.155075
   7 H :    0.240504
   8 H :    0.255711
Sum of atomic charges:   -1.0000000

LOEWDIN ATOMIC CHARGES
----------------------
   0 Pt:   -0.817556
   1 Cl:   -0.114905
   2 Cl:   -0.185876
   3 Cl:   -0.121444
   4 C :   -0.391077
   5 H :    0.141132
   6 H :    0.187974
   7 H :    0.140153
   8 H :    0.161599

  Mayer bond orders larger than 0.100000
B(  0-Pt,  1-Cl) :   0.7972 B(  0-Pt,  2-Cl) :   0.7488 B(  0-Pt,  3-Cl) :   0.7799
B(  0-Pt,  4-C ) :   0.6908 B(  0-Pt,  6-H ) :   0.6690 B(  1-Cl,  3-Cl) :   0.1369
B(  2-Cl,  4-C ) :   0.1180 B(  4-C ,  5-H ) :   0.8928 B(  4-C ,  6-H ) :   0.2061
B(  4-C ,  7-H ) :   0.8978 B(  4-C ,  8-H ) :   0.8954

Dispersion correction           -0.005227928
FINAL SINGLE POINT ENERGY     -1539.018543441890
Dispersion correction            ... done

DIPOLE MOMENT
-------------
                                X             Y             Z
Electronic contribution:     17.91297       0.87509      -3.04092
Nuclear contribution   :    -16.57160       0.09928       2.47619
                        -----------------------------------------
Total Dipole Moment    :      1.34137       0.97438      -0.56472
                        -----------------------------------------
Magnitude (a.u.)       :      1.75146
Magnitude (Debye)      :      4.45186

Rotational constants in cm-1:     0.059978     0.042220     0.025540
Rotational constants in MHz :  1798.101721  1265.717773   765.659978

                             ****ORCA TERMINATED NORMALLY****
TOTAL RUN TIME: 0 days 0 hours 0 minutes 35 seconds 369 msec
