                         Program Version 5.0.3 -  RELEASE  -
|  1> ! EnGrad PBEh-3c
|  2> %output
|  3> xyzfile=True
|  4> end
|  5> %scf
|  6> maxiter 250
|  7> end
|  8> %output
|  9> Print[P_Hirshfeld] = 1
| 10> end
| 11> % maxcore
| 12> 4000
| 13> *xyz -1 1
| 14> Pt  -0.47593212  -0.69340572   0.34243641
| 15> Cl  -0.05226613  -0.15938938   2.56661014
| 16> Cl  -2.54242282  -1.85711941   1.09626235
| 17> Cl  -1.12525122  -1.26177029  -1.82951750
| 18> C    0.69485636   0.92597884  -0.45475827
| 19> H    1.36728303   1.44467722   0.24158847
| 20> H    0.99096497  -0.75273176   0.12965633
| 21> H    1.25249410   0.73849125  -1.38401276
| 22> H   -0.11100853   1.61428874  -0.70647073
| 23> *
| 24>
| 25>                          ****END OF INPUT****

CARTESIAN COORDINATES (ANGSTROEM)
---------------------------------
  Pt    -0.475932   -0.693406    0.342436
  Cl    -0.052266   -0.159389    2.566610
  Cl    -2.542423   -1.857119    1.096262
  Cl    -1.125251   -1.261770   -1.829517
  C      0.694856    0.925979   -0.454758
  H      1.367283    1.444677    0.241588
  H      0.990965   -0.752732    0.129656
  H      1.252494    0.738491   -1.384013
  H     -0.111009    1.614289   -0.706471

 Total Charge           Charge          ....   -1
 Multiplicity           Mult            ....    1
 Number of Electrons    NEL             ....   80
 Basis Dimension        Dim             ....  109

ORBITAL ENERGIES
----------------

  NO   OCC          E(Eh)            E(eV)
   0   2.0000    -102.100125     -2778.2856
   1   2.0000    -102.097536     -2778.2152
   2   2.0000    -102.072277     -2777.5279
   3   2.0000     -10.342713      -281.4395
   4   2.0000      -9.564244      -260.2563
   5   2.0000      -9.561589      -260.1841
   6   2.0000      -9.535604      -259.4770
   7   2.0000      -7.250567      -197.2979
   8   2.0000      -7.247924      -197.2260
   9   2.0000      -7.245071      -197.1484
  10   2.0000      -7.244700      -197.1383
  11   2.0000      -7.242464      -197.0775
  12   2.0000      -7.241997      -197.0648
  13   2.0000      -7.221258      -196.5004
  14   2.0000      -7.217179      -196.3894
  15   2.0000      -7.216275      -196.3648
  16   2.0000      -3.997440      -108.7759
  17   2.0000      -2.211306       -60.1727
  18   2.0000      -2.199462       -59.8504
  19   2.0000      -2.181017       -59.3485
  20   2.0000      -0.701365       -19.0851
  21   2.0000      -0.685350       -18.6493
  22   2.0000      -0.660647       -17.9771
  23   2.0000      -0.652070       -17.7437
  24   2.0000      -0.393829       -10.7166
  25   2.0000      -0.351752        -9.5717
  26   2.0000      -0.335334        -9.1249
  27   2.0000      -0.304958        -8.2983
  28   2.0000      -0.278400        -7.5756
  29   2.0000      -0.266399        -7.2491
  30   2.0000      -0.255850        -6.9620
  31   2.0000      -0.218957        -5.9581
  32   2.0000      -0.202307        -5.5050
  33   2.0000      -0.194488        -5.2923
  34   2.0000      -0.189014        -5.1433
  35   2.0000      -0.159717        -4.3461
  36   2.0000      -0.151971        -4.1353
  37   2.0000      -0.149287        -4.0623
  38   2.0000      -0.140499        -3.8232
  39   2.0000      -0.138363        -3.7650
  40   0.0000       0.098117         2.6699
  41   0.0000       0.123852         3.3702
  42   0.0000       0.214068         5.8251
  43   0.0000       0.250458         6.8153
  44   0.0000       0.263689         7.1753

MULLIKEN ATOMIC CHARGES
-----------------------
   0 Pt:    0.162170
   1 Cl:   -0.388242
   2 Cl:   -0.421157
   3 Cl:   -0.401445
   4 C :   -0.849556
   5 H :    0.242107
   6 H :    0.157110
   7 H :    0.241405
   8 H :    0.257609
Sum of atomic charges:   -1.0000000

LOEWDIN ATOMIC CHARGES
----------------------
   0 Pt:   -0.782511
   1 Cl:   -0.105967
   2 Cl:   -0.229064
   3 Cl:   -0.117230
   4 C :   -0.387989
   5 H :    0.141830
   6 H :    0.176738
   7 H :    0.141464
   8 H :    0.162729

  Mayer bond orders larger than 0.100000
B(  0-Pt,  1-Cl) :   0.8014 B(  0-Pt,  2-Cl) :   0.7266 B(  0-Pt,  3-Cl) :   0.7784
B(  0-Pt,  4-C ) :   0.7108 B(  0-Pt,  6-H ) :   0.6930 B(  1-Cl,  3-Cl) :   0.1384
B(  2-Cl,  4-C ) :   0.1170 B(  4-C ,  5-H ) :   0.8918 B(  4-C ,  6-H ) :   0.1875
B(  4-C ,  7-H ) :   0.8962 B(  4-C ,  8-H ) :   0.8955

Dispersion correction           -0.005240016
FINAL SINGLE POINT ENERGY     -1539.019649003081
Dispersion correction            ... done

DIPOLE MOMENT
-------------
                                X             Y             Z
Electronic contribution:     22.62052       2.11114      -4.15700
Nuclear contribution   :    -21.11243      -1.06328       3.54760
                        -----------------------------------------
Total Dipole Moment    :      1.50809       1.04786      -0.60940
                        -----------------------------------------
Magnitude (a.u.)       :      1.93486
Magnitude (Debye)      :      4.91803

Rotational constants in cm-1:     0.059037     0.042523     0.025473
Rotational constants in MHz :  1769.893595  1274.812465   763.674492

                             ****ORCA TERMINATED NORMALLY****
TOTAL RUN TIME: 0 days 0 hours 0 minutes 34 seconds 4 msec
