                         Program Version 5.0.3 -  RELEASE  -
|  1> ! EnGrad PBEh-3c
|  2> %output
|  3> xyzfile=True
|  4> end
|  5> %scf
|  6> maxiter 250
|  7> end
|  8> %output
|  9> Print[P_Hirshfeld] = 1
| 10> end
| 11> % maxcore
| 12> 4000
| 13> *xyz -1 1
| 14> Pt  -0.46384611  -0.68146762   0.33976004
| 15> Cl  -0.07158457  -0.18983289   2.57381317
| 16> Cl  -2.51939006  -1.87638052   1.09258381
| 17> Cl  -1.16001413  -1.23923318  -1.81004618
| 18> C    0.70290488   0.91666024  -0.45807625
| 19> H    1.36417349   1.45738364   0.23211487
| 20> H    0.96831827  -0.69736829   0.14314127
| 21> H    1.27854068   0.72057149  -1.37561623
| 22> H   -0.10101747   1.58760202  -0.73549353
| 23> *
| 24>
| 25>                          ****END OF INPUT****

CARTESIAN COORDINATES (ANGSTROEM)
---------------------------------
  Pt    -0.463846   -0.681468    0.339760
  Cl    -0.071585   -0.189833    2.573813
  Cl    -2.519390   -1.876381    1.092584
  Cl    -1.160014   -1.239233   -1.810046
  C      0.702905    0.916660   -0.458076
  H      1.364173    1.457384    0.232115
  H      0.968318   -0.697368    0.143141
  H      1.278541    0.720571   -1.375616
  H     -0.101017    1.587602   -0.735494

 Total Charge           Charge          ....   -1
 Multiplicity           Mult            ....    1
 Number of Electrons    NEL             ....   80
 Basis Dimension        Dim             ....  109

ORBITAL ENERGIES
----------------

  NO   OCC          E(Eh)            E(eV)
   0   2.0000    -102.099475     -2778.2680
   1   2.0000    -102.097074     -2778.2026
   2   2.0000    -102.070377     -2777.4762
   3   2.0000     -10.342074      -281.4221
   4   2.0000      -9.563673      -260.2408
   5   2.0000      -9.561283      -260.1757
   6   2.0000      -9.533735      -259.4261
   7   2.0000      -7.249988      -197.2822
   8   2.0000      -7.247618      -197.2177
   9   2.0000      -7.244495      -197.1327
  10   2.0000      -7.244122      -197.1226
  11   2.0000      -7.242149      -197.0689
  12   2.0000      -7.241656      -197.0555
  13   2.0000      -7.219419      -196.4504
  14   2.0000      -7.215276      -196.3376
  15   2.0000      -7.214402      -196.3138
  16   2.0000      -3.996753      -108.7572
  17   2.0000      -2.212644       -60.2091
  18   2.0000      -2.199029       -59.8386
  19   2.0000      -2.179899       -59.3181
  20   2.0000      -0.701895       -19.0995
  21   2.0000      -0.685405       -18.6508
  22   2.0000      -0.660761       -17.9802
  23   2.0000      -0.653512       -17.7830
  24   2.0000      -0.403694       -10.9851
  25   2.0000      -0.353097        -9.6083
  26   2.0000      -0.339388        -9.2352
  27   2.0000      -0.305865        -8.3230
  28   2.0000      -0.280187        -7.6243
  29   2.0000      -0.265973        -7.2375
  30   2.0000      -0.255831        -6.9615
  31   2.0000      -0.218110        -5.9351
  32   2.0000      -0.201566        -5.4849
  33   2.0000      -0.194156        -5.2833
  34   2.0000      -0.188699        -5.1348
  35   2.0000      -0.159035        -4.3276
  36   2.0000      -0.152640        -4.1536
  37   2.0000      -0.147966        -4.0264
  38   2.0000      -0.139397        -3.7932
  39   2.0000      -0.135455        -3.6859
  40   0.0000       0.099433         2.7057
  41   0.0000       0.131905         3.5893
  42   0.0000       0.213904         5.8206
  43   0.0000       0.252836         6.8800
  44   0.0000       0.263533         7.1711

MULLIKEN ATOMIC CHARGES
-----------------------
   0 Pt:    0.159102
   1 Cl:   -0.386753
   2 Cl:   -0.419155
   3 Cl:   -0.402444
   4 C :   -0.862650
   5 H :    0.242777
   6 H :    0.164718
   7 H :    0.242210
   8 H :    0.262195
Sum of atomic charges:   -1.0000000

LOEWDIN ATOMIC CHARGES
----------------------
   0 Pt:   -0.785167
   1 Cl:   -0.103630
   2 Cl:   -0.232541
   3 Cl:   -0.113728
   4 C :   -0.390141
   5 H :    0.141898
   6 H :    0.176739
   7 H :    0.141803
   8 H :    0.164769

  Mayer bond orders larger than 0.100000
B(  0-Pt,  1-Cl) :   0.8035 B(  0-Pt,  2-Cl) :   0.7269 B(  0-Pt,  3-Cl) :   0.7779
B(  0-Pt,  4-C ) :   0.7041 B(  0-Pt,  6-H ) :   0.6860 B(  1-Cl,  3-Cl) :   0.1380
B(  2-Cl,  4-C ) :   0.1166 B(  4-C ,  5-H ) :   0.8913 B(  4-C ,  6-H ) :   0.1941
B(  4-C ,  7-H ) :   0.8957 B(  4-C ,  8-H ) :   0.8936

Dispersion correction           -0.005253201
FINAL SINGLE POINT ENERGY     -1539.015936542437
Dispersion correction            ... done

DIPOLE MOMENT
-------------
                                X             Y             Z
Electronic contribution:     23.76820       3.27147      -4.64539
Nuclear contribution   :    -22.22951      -2.19201       4.01507
                        -----------------------------------------
Total Dipole Moment    :      1.53869       1.07945      -0.63032
                        -----------------------------------------
Magnitude (a.u.)       :      1.98245
Magnitude (Debye)      :      5.03898

Rotational constants in cm-1:     0.059228     0.042971     0.025602
Rotational constants in MHz :  1775.599710  1288.235768   767.522624

                             ****ORCA TERMINATED NORMALLY****
TOTAL RUN TIME: 0 days 0 hours 0 minutes 36 seconds 686 msec
