                         Program Version 5.0.3 -  RELEASE  -
|  1> ! EnGrad PBEh-3c
|  2> %output
|  3> xyzfile=True
|  4> end
|  5> %scf
|  6> maxiter 250
|  7> end
|  8> %output
|  9> Print[P_Hirshfeld] = 1
| 10> end
| 11> % maxcore
| 12> 4000
| 13> *xyz -1 1
| 14> Pt  -0.52006707  -0.68354409   0.35305969
| 15> Cl  -0.07804455  -0.20533888   2.57924432
| 16> Cl  -2.49470004  -1.88138369   1.08706798
| 17> Cl  -1.17471528  -1.22548734  -1.80350278
| 18> C    0.71471769   0.91413304  -0.46243996
| 19> H    1.36083891   1.46189062   0.22714092
| 20> H    0.99471920  -0.66476821   0.14235641
| 21> H    1.29242212   0.70808887  -1.36809991
| 22> H   -0.09725396   1.57324464  -0.75285180
| 23> *
| 24>
| 25>                          ****END OF INPUT****

CARTESIAN COORDINATES (ANGSTROEM)
---------------------------------
  Pt    -0.520067   -0.683544    0.353060
  Cl    -0.078045   -0.205339    2.579244
  Cl    -2.494700   -1.881384    1.087068
  Cl    -1.174715   -1.225487   -1.803503
  C      0.714718    0.914133   -0.462440
  H      1.360839    1.461891    0.227141
  H      0.994719   -0.664768    0.142356
  H      1.292422    0.708089   -1.368100
  H     -0.097254    1.573245   -0.752852

 Total Charge           Charge          ....   -1
 Multiplicity           Mult            ....    1
 Number of Electrons    NEL             ....   80
 Basis Dimension        Dim             ....  109

ORBITAL ENERGIES
----------------

  NO   OCC          E(Eh)            E(eV)
   0   2.0000    -102.095900     -2778.1707
   1   2.0000    -102.094615     -2778.1357
   2   2.0000    -102.077157     -2777.6607
   3   2.0000     -10.342378      -281.4304
   4   2.0000      -9.560142      -260.1447
   5   2.0000      -9.558924      -260.1115
   6   2.0000      -9.540902      -259.6212
   7   2.0000      -7.246419      -197.1851
   8   2.0000      -7.245215      -197.1523
   9   2.0000      -7.240984      -197.0372
  10   2.0000      -7.240631      -197.0276
  11   2.0000      -7.239804      -197.0051
  12   2.0000      -7.239340      -196.9925
  13   2.0000      -7.226763      -196.6502
  14   2.0000      -7.222298      -196.5287
  15   2.0000      -7.221401      -196.5043
  16   2.0000      -3.989181      -108.5511
  17   2.0000      -2.203608       -59.9632
  18   2.0000      -2.192857       -59.6707
  19   2.0000      -2.171176       -59.0807
  20   2.0000      -0.700503       -19.0617
  21   2.0000      -0.683012       -18.5857
  22   2.0000      -0.666804       -18.1446
  23   2.0000      -0.655890       -17.8477
  24   2.0000      -0.392896       -10.6912
  25   2.0000      -0.352387        -9.5889
  26   2.0000      -0.338898        -9.2219
  27   2.0000      -0.302936        -8.2433
  28   2.0000      -0.276189        -7.5155
  29   2.0000      -0.257911        -7.0181
  30   2.0000      -0.250180        -6.8077
  31   2.0000      -0.220340        -5.9958
  32   2.0000      -0.200609        -5.4589
  33   2.0000      -0.191722        -5.2170
  34   2.0000      -0.184544        -5.0217
  35   2.0000      -0.161112        -4.3841
  36   2.0000      -0.151257        -4.1159
  37   2.0000      -0.147771        -4.0210
  38   2.0000      -0.138250        -3.7620
  39   2.0000      -0.134808        -3.6683
  40   0.0000       0.104939         2.8555
  41   0.0000       0.129892         3.5345
  42   0.0000       0.214006         5.8234
  43   0.0000       0.254850         6.9348
  44   0.0000       0.264156         7.1881

MULLIKEN ATOMIC CHARGES
-----------------------
   0 Pt:    0.130842
   1 Cl:   -0.392090
   2 Cl:   -0.398611
   3 Cl:   -0.406577
   4 C :   -0.861925
   5 H :    0.245553
   6 H :    0.172316
   7 H :    0.245364
   8 H :    0.265128
Sum of atomic charges:   -1.0000000

LOEWDIN ATOMIC CHARGES
----------------------
   0 Pt:   -0.833300
   1 Cl:   -0.109600
   2 Cl:   -0.186386
   3 Cl:   -0.113985
   4 C :   -0.397831
   5 H :    0.141614
   6 H :    0.190548
   7 H :    0.141293
   8 H :    0.167648

  Mayer bond orders larger than 0.100000
B(  0-Pt,  1-Cl) :   0.8039 B(  0-Pt,  2-Cl) :   0.7569 B(  0-Pt,  3-Cl) :   0.7795
B(  0-Pt,  4-C ) :   0.6623 B(  0-Pt,  6-H ) :   0.6406 B(  1-Cl,  3-Cl) :   0.1356
B(  2-Cl,  4-C ) :   0.1164 B(  4-C ,  5-H ) :   0.8909 B(  4-C ,  6-H ) :   0.2343
B(  4-C ,  7-H ) :   0.8954 B(  4-C ,  8-H ) :   0.8919

Dispersion correction           -0.005255488
FINAL SINGLE POINT ENERGY     -1539.020188665533
Dispersion correction            ... done

DIPOLE MOMENT
-------------
                                X             Y             Z
Electronic contribution:     20.21168       3.21798      -3.90913
Nuclear contribution   :    -18.80513      -2.17654       3.30033
                        -----------------------------------------
Total Dipole Moment    :      1.40656       1.04145      -0.60880
                        -----------------------------------------
Magnitude (a.u.)       :      1.85301
Magnitude (Debye)      :      4.70998

Rotational constants in cm-1:     0.060779     0.043206     0.025873
Rotational constants in MHz :  1822.102677  1295.269108   775.649871

                             ****ORCA TERMINATED NORMALLY****
TOTAL RUN TIME: 0 days 0 hours 0 minutes 34 seconds 76 msec
