                         Program Version 5.0.3 -  RELEASE  -
|  1> ! EnGrad PBEh-3c
|  2> %output
|  3> xyzfile=True
|  4> end
|  5> %scf
|  6> maxiter 250
|  7> end
|  8> %output
|  9> Print[P_Hirshfeld] = 1
| 10> end
| 11> % maxcore
| 12> 4000
| 13> *xyz -1 1
| 14> Pt  -0.53874427  -0.68692205   0.36019649
| 15> Cl  -0.07997829  -0.21139270   2.58319921
| 16> Cl  -2.48119262  -1.88178656   1.08402830
| 17> Cl  -1.18062522  -1.21944765  -1.80348208
| 18> C    0.71983757   0.91004739  -0.46322596
| 19> H    1.35977252   1.46304811   0.22637861
| 20> H    0.99498590  -0.64355510   0.13989699
| 21> H    1.29935914   0.70102104  -1.36521250
| 22> H   -0.09563296   1.56512841  -0.76007281
| 23> *
| 24>
| 25>                          ****END OF INPUT****

CARTESIAN COORDINATES (ANGSTROEM)
---------------------------------
  Pt    -0.538744   -0.686922    0.360196
  Cl    -0.079978   -0.211393    2.583199
  Cl    -2.481193   -1.881787    1.084028
  Cl    -1.180625   -1.219448   -1.803482
  C      0.719838    0.910047   -0.463226
  H      1.359773    1.463048    0.226379
  H      0.994986   -0.643555    0.139897
  H      1.299359    0.701021   -1.365212
  H     -0.095633    1.565128   -0.760073

 Total Charge           Charge          ....   -1
 Multiplicity           Mult            ....    1
 Number of Electrons    NEL             ....   80
 Basis Dimension        Dim             ....  109

ORBITAL ENERGIES
----------------

  NO   OCC          E(Eh)            E(eV)
   0   2.0000    -102.094698     -2778.1380
   1   2.0000    -102.093425     -2778.1033
   2   2.0000    -102.079642     -2777.7283
   3   2.0000     -10.342992      -281.4471
   4   2.0000      -9.558947      -260.1122
   5   2.0000      -9.557716      -260.0787
   6   2.0000      -9.543626      -259.6953
   7   2.0000      -7.245213      -197.1523
   8   2.0000      -7.243988      -197.1189
   9   2.0000      -7.239794      -197.0048
  10   2.0000      -7.239453      -196.9955
  11   2.0000      -7.238605      -196.9725
  12   2.0000      -7.238161      -196.9604
  13   2.0000      -7.229556      -196.7262
  14   2.0000      -7.224954      -196.6010
  15   2.0000      -7.224050      -196.5764
  16   2.0000      -3.986059      -108.4662
  17   2.0000      -2.200629       -59.8822
  18   2.0000      -2.190194       -59.5982
  19   2.0000      -2.167584       -58.9830
  20   2.0000      -0.699937       -19.0463
  21   2.0000      -0.681942       -18.5566
  22   2.0000      -0.669881       -18.2284
  23   2.0000      -0.656566       -17.8661
  24   2.0000      -0.391388       -10.6502
  25   2.0000      -0.352362        -9.5883
  26   2.0000      -0.339309        -9.2331
  27   2.0000      -0.301361        -8.2004
  28   2.0000      -0.275469        -7.4959
  29   2.0000      -0.255657        -6.9568
  30   2.0000      -0.247500        -6.7348
  31   2.0000      -0.221766        -6.0346
  32   2.0000      -0.200147        -5.4463
  33   2.0000      -0.190520        -5.1843
  34   2.0000      -0.182665        -4.9706
  35   2.0000      -0.161792        -4.4026
  36   2.0000      -0.151163        -4.1134
  37   2.0000      -0.146836        -3.9956
  38   2.0000      -0.139007        -3.7826
  39   2.0000      -0.133115        -3.6222
  40   0.0000       0.106901         2.9089
  41   0.0000       0.131402         3.5756
  42   0.0000       0.214122         5.8265
  43   0.0000       0.255452         6.9512
  44   0.0000       0.264951         7.2097

MULLIKEN ATOMIC CHARGES
-----------------------
   0 Pt:    0.118763
   1 Cl:   -0.394700
   2 Cl:   -0.390251
   3 Cl:   -0.409071
   4 C :   -0.862594
   5 H :    0.246495
   6 H :    0.177992
   7 H :    0.246667
   8 H :    0.266699
Sum of atomic charges:   -1.0000000

LOEWDIN ATOMIC CHARGES
----------------------
   0 Pt:   -0.851506
   1 Cl:   -0.111845
   2 Cl:   -0.166494
   3 Cl:   -0.116805
   4 C :   -0.400376
   5 H :    0.141559
   6 H :    0.194997
   7 H :    0.141269
   8 H :    0.169201

  Mayer bond orders larger than 0.100000
B(  0-Pt,  1-Cl) :   0.8034 B(  0-Pt,  2-Cl) :   0.7714 B(  0-Pt,  3-Cl) :   0.7779
B(  0-Pt,  4-C ) :   0.6429 B(  0-Pt,  6-H ) :   0.6194 B(  1-Cl,  3-Cl) :   0.1344
B(  2-Cl,  4-C ) :   0.1155 B(  4-C ,  5-H ) :   0.8906 B(  4-C ,  6-H ) :   0.2531
B(  4-C ,  7-H ) :   0.8950 B(  4-C ,  8-H ) :   0.8911

Dispersion correction           -0.005257760
FINAL SINGLE POINT ENERGY     -1539.020585779337
Dispersion correction            ... done

DIPOLE MOMENT
-------------
                                X             Y             Z
Electronic contribution:     18.96032       3.02759      -3.48241
Nuclear contribution   :    -17.59945      -2.00109       2.88770
                        -----------------------------------------
Total Dipole Moment    :      1.36087       1.02650      -0.59471
                        -----------------------------------------
Magnitude (a.u.)       :      1.80537
Magnitude (Debye)      :      4.58887

Rotational constants in cm-1:     0.061529     0.043214     0.025976
Rotational constants in MHz :  1844.579986  1295.511567   778.734371

                             ****ORCA TERMINATED NORMALLY****
TOTAL RUN TIME: 0 days 0 hours 0 minutes 33 seconds 879 msec
