                         Program Version 5.0.3 -  RELEASE  -
|  1> ! EnGrad PBEh-3c
|  2> %output
|  3> xyzfile=True
|  4> end
|  5> %scf
|  6> maxiter 250
|  7> end
|  8> %output
|  9> Print[P_Hirshfeld] = 1
| 10> end
| 11> % maxcore
| 12> 4000
| 13> *xyz -1 1
| 14> Pt  -0.56135606  -0.68606791   0.36936933
| 15> Cl  -0.07765710  -0.21514999   2.58865238
| 16> Cl  -2.44990191  -1.87528529   1.07711815
| 17> Cl  -1.18187816  -1.20975272  -1.80892692
| 18> C    0.71951466   0.89908869  -0.46105876
| 19> H    1.35424217   1.45495881   0.23216196
| 20> H    0.98609485  -0.61130669   0.13177158
| 21> H    1.30455483   0.68254628  -1.35776969
| 22> H   -0.09637847   1.55496065  -0.77014434
| 23> *
| 24>
| 25>                          ****END OF INPUT****

CARTESIAN COORDINATES (ANGSTROEM)
---------------------------------
  Pt    -0.561356   -0.686068    0.369369
  Cl    -0.077657   -0.215150    2.588652
  Cl    -2.449902   -1.875285    1.077118
  Cl    -1.181878   -1.209753   -1.808927
  C      0.719515    0.899089   -0.461059
  H      1.354242    1.454959    0.232162
  H      0.986095   -0.611307    0.131772
  H      1.304555    0.682546   -1.357770
  H     -0.096378    1.554961   -0.770144

 Total Charge           Charge          ....   -1
 Multiplicity           Mult            ....    1
 Number of Electrons    NEL             ....   80
 Basis Dimension        Dim             ....  109

ORBITAL ENERGIES
----------------

  NO   OCC          E(Eh)            E(eV)
   0   2.0000    -102.093351     -2778.1013
   1   2.0000    -102.091780     -2778.0586
   2   2.0000    -102.082787     -2777.8139
   3   2.0000     -10.342884      -281.4442
   4   2.0000      -9.557596      -260.0754
   5   2.0000      -9.555992      -260.0318
   6   2.0000      -9.547304      -259.7954
   7   2.0000      -7.243849      -197.1152
   8   2.0000      -7.242238      -197.0713
   9   2.0000      -7.238445      -196.9681
  10   2.0000      -7.238124      -196.9594
  11   2.0000      -7.236895      -196.9259
  12   2.0000      -7.236488      -196.9148
  13   2.0000      -7.233304      -196.8282
  14   2.0000      -7.228538      -196.6985
  15   2.0000      -7.227612      -196.6733
  16   2.0000      -3.982147      -108.3597
  17   2.0000      -2.197480       -59.7965
  18   2.0000      -2.186709       -59.5034
  19   2.0000      -2.163142       -58.8621
  20   2.0000      -0.699635       -19.0380
  21   2.0000      -0.680546       -18.5186
  22   2.0000      -0.674658       -18.3584
  23   2.0000      -0.656941       -17.8763
  24   2.0000      -0.391968       -10.6660
  25   2.0000      -0.352173        -9.5831
  26   2.0000      -0.339779        -9.2459
  27   2.0000      -0.298995        -8.1361
  28   2.0000      -0.275144        -7.4870
  29   2.0000      -0.253576        -6.9001
  30   2.0000      -0.245156        -6.6710
  31   2.0000      -0.224476        -6.1083
  32   2.0000      -0.199522        -5.4293
  33   2.0000      -0.189214        -5.1488
  34   2.0000      -0.180014        -4.8984
  35   2.0000      -0.162655        -4.4261
  36   2.0000      -0.150679        -4.1002
  37   2.0000      -0.145329        -3.9546
  38   2.0000      -0.140005        -3.8097
  39   2.0000      -0.131230        -3.5710
  40   0.0000       0.110812         3.0154
  41   0.0000       0.135724         3.6932
  42   0.0000       0.214357         5.8329
  43   0.0000       0.256586         6.9821
  44   0.0000       0.266830         7.2608

MULLIKEN ATOMIC CHARGES
-----------------------
   0 Pt:    0.103326
   1 Cl:   -0.398457
   2 Cl:   -0.378571
   3 Cl:   -0.412663
   4 C :   -0.866277
   5 H :    0.247688
   6 H :    0.188638
   7 H :    0.248130
   8 H :    0.268187
Sum of atomic charges:   -1.0000000

LOEWDIN ATOMIC CHARGES
----------------------
   0 Pt:   -0.876418
   1 Cl:   -0.114980
   2 Cl:   -0.135341
   3 Cl:   -0.122895
   4 C :   -0.404961
   5 H :    0.141573
   6 H :    0.200484
   7 H :    0.141287
   8 H :    0.171251

  Mayer bond orders larger than 0.100000
B(  0-Pt,  1-Cl) :   0.8015 B(  0-Pt,  2-Cl) :   0.7945 B(  0-Pt,  3-Cl) :   0.7733
B(  0-Pt,  4-C ) :   0.6200 B(  0-Pt,  6-H ) :   0.5918 B(  1-Cl,  3-Cl) :   0.1328
B(  2-Cl,  4-C ) :   0.1143 B(  4-C ,  5-H ) :   0.8896 B(  4-C ,  6-H ) :   0.2764
B(  4-C ,  7-H ) :   0.8942 B(  4-C ,  8-H ) :   0.8898

Dispersion correction           -0.005271735
FINAL SINGLE POINT ENERGY     -1539.021788902208
Dispersion correction            ... done

DIPOLE MOMENT
-------------
                                X             Y             Z
Electronic contribution:     17.09870       2.92434      -2.82214
Nuclear contribution   :    -15.81019      -1.92685       2.25689
                        -----------------------------------------
Total Dipole Moment    :      1.28851       0.99749      -0.56525
                        -----------------------------------------
Magnitude (a.u.)       :      1.72474
Magnitude (Debye)      :      4.38395

Rotational constants in cm-1:     0.063147     0.043129     0.026176
Rotational constants in MHz :  1893.087336  1292.984657   784.723158

                             ****ORCA TERMINATED NORMALLY****
TOTAL RUN TIME: 0 days 0 hours 0 minutes 33 seconds 754 msec
