                         Program Version 5.0.3 -  RELEASE  -
|  1> ! EnGrad PBEh-3c
|  2> %output
|  3> xyzfile=True
|  4> end
|  5> %scf
|  6> maxiter 250
|  7> end
|  8> %output
|  9> Print[P_Hirshfeld] = 1
| 10> end
| 11> % maxcore
| 12> 4000
| 13> *xyz 1 1
| 14> Sc   1.63024602  -1.23630589  -1.54596745
| 15> C    0.34340986  -0.57670460   0.20831803
| 16> N   -0.46991939  -1.36520994   0.92992560
| 17> C   -0.78329084  -0.77281553   2.11759424
| 18> C   -0.12282942   0.40470333   2.15037063
| 19> N    0.57277226   0.50167647   0.98268263
| 20> C    1.42282325   1.62332831   0.64706212
| 21> H    1.50964124   2.37561291   1.42788826
| 22> H    1.00551552   2.13587681  -0.21506588
| 23> H    2.43845847   1.30966127   0.41816671
| 24> C   -0.97931512  -2.67063850   0.54998837
| 25> H   -0.59856861  -2.94865536  -0.42901770
| 26> H   -2.06606865  -2.64114353   0.50634190
| 27> H   -0.66756072  -3.42281446   1.27070923
| 28> H   -1.43390738  -1.22335313   2.84766344
| 29> H   -0.12698483   1.15244114   2.92440924
| 30> C   -0.23657384   1.70069897  -2.86383959
| 31> H   -0.90005471   1.70395029  -3.74126539
| 32> H    0.26258320   2.67308475  -2.92841275
| 33> H   -0.86985726   1.71390342  -1.97487230
| 34> H    0.06950513  -0.43728508  -3.28268516
| 35> *
| 36>
| 37>                          ****END OF INPUT****

CARTESIAN COORDINATES (ANGSTROEM)
---------------------------------
  Sc     1.630246   -1.236306   -1.545967
  C      0.343410   -0.576705    0.208318
  N     -0.469919   -1.365210    0.929926
  C     -0.783291   -0.772816    2.117594
  C     -0.122829    0.404703    2.150371
  N      0.572772    0.501676    0.982683
  C      1.422823    1.623328    0.647062
  H      1.509641    2.375613    1.427888
  H      1.005516    2.135877   -0.215066
  H      2.438458    1.309661    0.418167
  C     -0.979315   -2.670638    0.549988
  H     -0.598569   -2.948655   -0.429018
  H     -2.066069   -2.641144    0.506342
  H     -0.667561   -3.422814    1.270709
  H     -1.433907   -1.223353    2.847663
  H     -0.126985    1.152441    2.924409
  C     -0.236574    1.700699   -2.863840
  H     -0.900055    1.703950   -3.741265
  H      0.262583    2.673085   -2.928413
  H     -0.869857    1.713903   -1.974872
  H      0.069505   -0.437285   -3.282685

 Total Charge           Charge          ....    1
 Multiplicity           Mult            ....    1
 Number of Electrons    NEL             ....   82
 Basis Dimension        Dim             ....  175

ORBITAL ENERGIES
----------------

  NO   OCC          E(Eh)            E(eV)
   0   2.0000    -162.901825     -4432.7840
   1   2.0000     -18.207811      -495.4597
   2   2.0000     -15.049911      -409.5289
   3   2.0000     -15.043561      -409.3561
   4   2.0000     -15.035986      -409.1500
   5   2.0000     -14.864282      -404.4777
   6   2.0000     -14.864132      -404.4736
   7   2.0000     -10.645160      -289.6695
   8   2.0000     -10.626755      -289.1687
   9   2.0000     -10.624105      -289.0966
  10   2.0000     -10.623839      -289.0893
  11   2.0000     -10.621739      -289.0322
  12   2.0000     -10.567440      -287.5547
  13   2.0000      -2.418630       -65.8143
  14   2.0000      -1.572142       -42.7802
  15   2.0000      -1.555363       -42.3236
  16   2.0000      -1.552820       -42.2544
  17   2.0000      -1.314323       -35.7645
  18   2.0000      -1.191996       -32.4359
  19   2.0000      -1.026276       -27.9264
  20   2.0000      -0.983319       -26.7575
  21   2.0000      -0.929965       -25.3056
  22   2.0000      -0.855921       -23.2908
  23   2.0000      -0.845094       -22.9962
  24   2.0000      -0.807197       -21.9649
  25   2.0000      -0.754222       -20.5234
  26   2.0000      -0.705995       -19.2111
  27   2.0000      -0.677098       -18.4248
  28   2.0000      -0.662261       -18.0210
  29   2.0000      -0.659618       -17.9491
  30   2.0000      -0.651143       -17.7185
  31   2.0000      -0.605050       -16.4642
  32   2.0000      -0.598171       -16.2770
  33   2.0000      -0.592518       -16.1232
  34   2.0000      -0.555439       -15.1143
  35   2.0000      -0.543580       -14.7916
  36   2.0000      -0.515493       -14.0273
  37   2.0000      -0.488785       -13.3005
  38   2.0000      -0.437578       -11.9071
  39   2.0000      -0.431542       -11.7428
  40   2.0000      -0.315269        -8.5789
  41   0.0000      -0.207751        -5.6532
  42   0.0000      -0.192904        -5.2492
  43   0.0000      -0.182896        -4.9769
  44   0.0000      -0.175393        -4.7727
  45   0.0000      -0.161395        -4.3918

MULLIKEN ATOMIC CHARGES
-----------------------
   0 Sc:    0.612488
   1 C :    0.232665
   2 N :   -0.414442
   3 C :   -0.070179
   4 C :   -0.065399
   5 N :   -0.418601
   6 C :   -0.544207
   7 H :    0.288353
   8 H :    0.285412
   9 H :    0.252705
  10 C :   -0.515243
  11 H :    0.242075
  12 H :    0.287953
  13 H :    0.273860
  14 H :    0.302807
  15 H :    0.303989
  16 C :   -0.804611
  17 H :    0.260899
  18 H :    0.241055
  19 H :    0.221831
  20 H :    0.026590
Sum of atomic charges:    1.0000000

LOEWDIN ATOMIC CHARGES
----------------------
   0 Sc:    0.430610
   1 C :   -0.031544
   2 N :    0.004697
   3 C :   -0.087759
   4 C :   -0.078136
   5 N :    0.004517
   6 C :   -0.244565
   7 H :    0.162222
   8 H :    0.155731
   9 H :    0.145067
  10 C :   -0.234409
  11 H :    0.144691
  12 H :    0.159745
  13 H :    0.152479
  14 H :    0.168002
  15 H :    0.168131
  16 C :   -0.499420
  17 H :    0.146175
  18 H :    0.141479
  19 H :    0.127271
  20 H :    0.065016

  Mayer bond orders larger than 0.100000
B(  0-Sc,  1-C ) :   0.7216 B(  0-Sc, 16-C ) :   0.4929 B(  0-Sc, 20-H ) :   0.5445
B(  1-C ,  2-N ) :   1.2238 B(  1-C ,  5-N ) :   1.2161 B(  2-N ,  3-C ) :   1.1519
B(  2-N , 10-C ) :   0.9138 B(  3-C ,  4-C ) :   1.6360 B(  3-C , 14-H ) :   0.8783
B(  4-C ,  5-N ) :   1.1488 B(  4-C , 15-H ) :   0.8778 B(  5-N ,  6-C ) :   0.9137
B(  6-C ,  7-H ) :   0.9010 B(  6-C ,  8-H ) :   0.8837 B(  6-C ,  9-H ) :   0.8965
B( 10-C , 11-H ) :   0.9012 B( 10-C , 12-H ) :   0.8922 B( 10-C , 13-H ) :   0.8947
B( 16-C , 17-H ) :   0.9127 B( 16-C , 18-H ) :   0.9103 B( 16-C , 19-H ) :   0.9146
B( 16-C , 20-H ) :   0.4432

Dispersion correction           -0.011181737
FINAL SINGLE POINT ENERGY     -1104.288095586653
Dispersion correction            ... done

DIPOLE MOMENT
-------------
                                X             Y             Z
Electronic contribution:     10.48625     -10.16636      -1.56732
Nuclear contribution   :     -9.52905       9.37318       1.95374
                        -----------------------------------------
Total Dipole Moment    :      0.95720      -0.79318       0.38642
                        -----------------------------------------
Magnitude (a.u.)       :      1.30180
Magnitude (Debye)      :      3.30892

Rotational constants in cm-1:     0.042253     0.029474     0.022650
Rotational constants in MHz :  1266.725670   883.607530   679.038924

                             ****ORCA TERMINATED NORMALLY****
TOTAL RUN TIME: 0 days 0 hours 4 minutes 26 seconds 462 msec
