                         Program Version 5.0.3 -  RELEASE  -
|  1> ! EnGrad PBEh-3c
|  2> %output
|  3> xyzfile=True
|  4> end
|  5> %scf
|  6> maxiter 250
|  7> end
|  8> %output
|  9> Print[P_Hirshfeld] = 1
| 10> end
| 11> % maxcore
| 12> 4000
| 13> *xyz 1 1
| 14> Sc   1.24347102  -0.62066435  -1.91018887
| 15> C    0.39200494  -0.60421349   0.22776427
| 16> N   -0.45100043  -1.36687499   0.94854048
| 17> C   -0.78676138  -0.76538559   2.13264914
| 18> C   -0.13003025   0.41208159   2.16871424
| 19> N    0.58747578   0.48606389   1.00576033
| 20> C    1.41428992   1.60742477   0.62333760
| 21> H    1.45185429   2.32614105   1.44506887
| 22> H    1.00856124   2.11755227  -0.24699822
| 23> H    2.43770210   1.28772456   0.41734896
| 24> C   -0.96847668  -2.65526416   0.55100181
| 25> H   -0.59972211  -2.92199979  -0.43446229
| 26> H   -2.05577431  -2.63073707   0.50472431
| 27> H   -0.65481286  -3.42513960   1.25570849
| 28> H   -1.45649450  -1.21695963   2.84846648
| 29> H   -0.11018642   1.18392414   2.92642454
| 30> C   -0.19555058   1.37852676  -2.81847796
| 31> H   -0.82379038   1.48564276  -3.68577436
| 32> H    0.47449798   2.24887474  -2.89763604
| 33> H   -0.86956716   1.60384929  -1.99303467
| 34> H    0.10028648   0.08018698  -3.07175611
| 35> *
| 36>
| 37>                          ****END OF INPUT****

CARTESIAN COORDINATES (ANGSTROEM)
---------------------------------
  Sc     1.243471   -0.620664   -1.910189
  C      0.392005   -0.604213    0.227764
  N     -0.451000   -1.366875    0.948540
  C     -0.786761   -0.765386    2.132649
  C     -0.130030    0.412082    2.168714
  N      0.587476    0.486064    1.005760
  C      1.414290    1.607425    0.623338
  H      1.451854    2.326141    1.445069
  H      1.008561    2.117552   -0.246998
  H      2.437702    1.287725    0.417349
  C     -0.968477   -2.655264    0.551002
  H     -0.599722   -2.922000   -0.434462
  H     -2.055774   -2.630737    0.504724
  H     -0.654813   -3.425140    1.255708
  H     -1.456495   -1.216960    2.848466
  H     -0.110186    1.183924    2.926425
  C     -0.195551    1.378527   -2.818478
  H     -0.823790    1.485643   -3.685774
  H      0.474498    2.248875   -2.897636
  H     -0.869567    1.603849   -1.993035
  H      0.100286    0.080187   -3.071756

 Total Charge           Charge          ....    1
 Multiplicity           Mult            ....    1
 Number of Electrons    NEL             ....   82
 Basis Dimension        Dim             ....  175

ORBITAL ENERGIES
----------------

  NO   OCC          E(Eh)            E(eV)
   0   2.0000    -162.807000     -4430.2037
   1   2.0000     -18.109522      -492.7851
   2   2.0000     -14.952738      -406.8847
   3   2.0000     -14.942624      -406.6095
   4   2.0000     -14.940067      -406.5399
   5   2.0000     -14.854613      -404.2146
   6   2.0000     -14.853355      -404.1803
   7   2.0000     -10.632958      -289.3375
   8   2.0000     -10.621866      -289.0357
   9   2.0000     -10.620929      -289.0102
  10   2.0000     -10.617960      -288.9294
  11   2.0000     -10.617122      -288.9066
  12   2.0000     -10.561668      -287.3976
  13   2.0000      -2.343016       -63.7567
  14   2.0000      -1.503570       -40.9142
  15   2.0000      -1.491710       -40.5915
  16   2.0000      -1.476537       -40.1786
  17   2.0000      -1.303564       -35.4718
  18   2.0000      -1.182510       -32.1777
  19   2.0000      -1.021234       -27.7892
  20   2.0000      -0.975382       -26.5415
  21   2.0000      -0.922587       -25.1049
  22   2.0000      -0.898330       -24.4448
  23   2.0000      -0.835849       -22.7446
  24   2.0000      -0.799490       -21.7552
  25   2.0000      -0.745693       -20.2913
  26   2.0000      -0.698321       -19.0023
  27   2.0000      -0.670318       -18.2403
  28   2.0000      -0.655406       -17.8345
  29   2.0000      -0.651746       -17.7349
  30   2.0000      -0.645789       -17.5728
  31   2.0000      -0.600513       -16.3408
  32   2.0000      -0.596473       -16.2309
  33   2.0000      -0.593136       -16.1400
  34   2.0000      -0.586471       -15.9587
  35   2.0000      -0.571850       -15.5608
  36   2.0000      -0.550802       -14.9881
  37   2.0000      -0.503569       -13.7028
  38   2.0000      -0.480132       -13.0651
  39   2.0000      -0.428249       -11.6533
  40   2.0000      -0.292298        -7.9538
  41   0.0000      -0.175378        -4.7723
  42   0.0000      -0.151068        -4.1108
  43   0.0000      -0.134531        -3.6608
  44   0.0000      -0.124665        -3.3923
  45   0.0000      -0.116532        -3.1710

MULLIKEN ATOMIC CHARGES
-----------------------
   0 Sc:    0.610100
   1 C :    0.195952
   2 N :   -0.420546
   3 C :   -0.071653
   4 C :   -0.066884
   5 N :   -0.409775
   6 C :   -0.542593
   7 H :    0.283669
   8 H :    0.267443
   9 H :    0.260351
  10 C :   -0.511973
  11 H :    0.234075
  12 H :    0.276242
  13 H :    0.274647
  14 H :    0.298852
  15 H :    0.299108
  16 C :   -0.957311
  17 H :    0.298586
  18 H :    0.250752
  19 H :    0.263045
  20 H :    0.167912
Sum of atomic charges:    1.0000000

LOEWDIN ATOMIC CHARGES
----------------------
   0 Sc:    0.318081
   1 C :   -0.030314
   2 N :   -0.003166
   3 C :   -0.090529
   4 C :   -0.081509
   5 N :   -0.004651
   6 C :   -0.241112
   7 H :    0.160103
   8 H :    0.147515
   9 H :    0.149227
  10 C :   -0.234273
  11 H :    0.140185
  12 H :    0.153436
  13 H :    0.152506
  14 H :    0.167007
  15 H :    0.166760
  16 C :   -0.518164
  17 H :    0.159373
  18 H :    0.152127
  19 H :    0.153374
  20 H :    0.184025

  Mayer bond orders larger than 0.100000
B(  0-Sc,  1-C ) :   0.6544 B(  0-Sc, 16-C ) :   0.4669 B(  0-Sc, 20-H ) :   0.4867
B(  1-C ,  2-N ) :   1.2266 B(  1-C ,  5-N ) :   1.2162 B(  2-N ,  3-C ) :   1.1425
B(  2-N , 10-C ) :   0.9243 B(  3-C ,  4-C ) :   1.6478 B(  3-C , 14-H ) :   0.8801
B(  4-C ,  5-N ) :   1.1363 B(  4-C , 15-H ) :   0.8795 B(  5-N ,  6-C ) :   0.9189
B(  6-C ,  7-H ) :   0.9045 B(  6-C ,  8-H ) :   0.8867 B(  6-C ,  9-H ) :   0.8908
B( 10-C , 11-H ) :   0.9182 B( 10-C , 12-H ) :   0.8962 B( 10-C , 13-H ) :   0.8957
B( 16-C , 17-H ) :   0.8825 B( 16-C , 18-H ) :   0.8923 B( 16-C , 19-H ) :   0.8967
B( 16-C , 20-H ) :   0.4679

Dispersion correction           -0.011143935
FINAL SINGLE POINT ENERGY     -1104.401544360657
Dispersion correction            ... done

DIPOLE MOMENT
-------------
                                X             Y             Z
Electronic contribution:      8.12372      -6.59966      -4.26523
Nuclear contribution   :     -7.35139       6.18443       3.98046
                        -----------------------------------------
Total Dipole Moment    :      0.77233      -0.41523      -0.28477
                        -----------------------------------------
Magnitude (a.u.)       :      0.92195
Magnitude (Debye)      :      2.34342

Rotational constants in cm-1:     0.053816     0.029228     0.022578
Rotational constants in MHz :  1613.349967   876.229380   676.873796

                             ****ORCA TERMINATED NORMALLY****
TOTAL RUN TIME: 0 days 0 hours 4 minutes 2 seconds 883 msec
