                         Program Version 5.0.3 -  RELEASE  -
|  1> ! EnGrad PBEh-3c
|  2> %output
|  3> xyzfile=True
|  4> end
|  5> %scf
|  6> maxiter 250
|  7> end
|  8> %output
|  9> Print[P_Hirshfeld] = 1
| 10> end
| 11> % maxcore
| 12> 4000
| 13> *xyz 1 1
| 14> Sc   1.52833491  -1.13968816  -1.63810396
| 15> C    0.39745145  -0.59373880   0.19694972
| 16> N   -0.47993492  -1.35636345   0.93042382
| 17> C   -0.78282404  -0.77511917   2.13818179
| 18> C   -0.13222854   0.39487757   2.18160432
| 19> N    0.56220807   0.51456504   1.01129413
| 20> C    1.42075700   1.64866602   0.61262763
| 21> H    1.47158170   2.36970889   1.44517747
| 22> H    1.01546064   2.13073240  -0.23013941
| 23> H    2.44372147   1.30624440   0.44215990
| 24> C   -0.97687737  -2.66057411   0.54787244
| 25> H   -0.60882714  -2.93661132  -0.44116306
| 26> H   -2.06204847  -2.64640956   0.51151333
| 27> H   -0.65407038  -3.42405382   1.26300838
| 28> H   -1.42766276  -1.23027040   2.85149216
| 29> H   -0.11095567   1.14930981   2.93315505
| 30> C   -0.32491059   1.69080002  -2.89749944
| 31> H   -0.85112840   1.66398457  -3.73162057
| 32> H    0.36263353   2.62078606  -2.92575990
| 33> H   -0.84820750   1.69924199  -1.98488529
| 34> H    0.05810410  -0.42496280  -3.21653351
| 35> *
| 36>
| 37>                          ****END OF INPUT****

CARTESIAN COORDINATES (ANGSTROEM)
---------------------------------
  Sc     1.528335   -1.139688   -1.638104
  C      0.397451   -0.593739    0.196950
  N     -0.479935   -1.356363    0.930424
  C     -0.782824   -0.775119    2.138182
  C     -0.132229    0.394878    2.181604
  N      0.562208    0.514565    1.011294
  C      1.420757    1.648666    0.612628
  H      1.471582    2.369709    1.445177
  H      1.015461    2.130732   -0.230139
  H      2.443721    1.306244    0.442160
  C     -0.976877   -2.660574    0.547872
  H     -0.608827   -2.936611   -0.441163
  H     -2.062048   -2.646410    0.511513
  H     -0.654070   -3.424054    1.263008
  H     -1.427663   -1.230270    2.851492
  H     -0.110956    1.149310    2.933155
  C     -0.324911    1.690800   -2.897499
  H     -0.851128    1.663985   -3.731621
  H      0.362634    2.620786   -2.925760
  H     -0.848208    1.699242   -1.984885
  H      0.058104   -0.424963   -3.216534

 Total Charge           Charge          ....    1
 Multiplicity           Mult            ....    1
 Number of Electrons    NEL             ....   82
 Basis Dimension        Dim             ....  175

ORBITAL ENERGIES
----------------

  NO   OCC          E(Eh)            E(eV)
   0   2.0000    -162.884268     -4432.3063
   1   2.0000     -18.189540      -494.9625
   2   2.0000     -15.031882      -409.0383
   3   2.0000     -15.024646      -408.8414
   4   2.0000     -15.018410      -408.6717
   5   2.0000     -14.861111      -404.3914
   6   2.0000     -14.859153      -404.3381
   7   2.0000     -10.647336      -289.7288
   8   2.0000     -10.625143      -289.1248
   9   2.0000     -10.622410      -289.0505
  10   2.0000     -10.621891      -289.0364
  11   2.0000     -10.621335      -289.0212
  12   2.0000     -10.560694      -287.3711
  13   2.0000      -2.404506       -65.4299
  14   2.0000      -1.560083       -42.4520
  15   2.0000      -1.542872       -41.9837
  16   2.0000      -1.538876       -41.8749
  17   2.0000      -1.297515       -35.3072
  18   2.0000      -1.178431       -32.0667
  19   2.0000      -1.023619       -27.8541
  20   2.0000      -0.973913       -26.5015
  21   2.0000      -0.926381       -25.2081
  22   2.0000      -0.865370       -23.5479
  23   2.0000      -0.833684       -22.6857
  24   2.0000      -0.804747       -21.8983
  25   2.0000      -0.749633       -20.3986
  26   2.0000      -0.697628       -18.9834
  27   2.0000      -0.670834       -18.2543
  28   2.0000      -0.659104       -17.9351
  29   2.0000      -0.653933       -17.7944
  30   2.0000      -0.647612       -17.6224
  31   2.0000      -0.603929       -16.4337
  32   2.0000      -0.595225       -16.1969
  33   2.0000      -0.591991       -16.1089
  34   2.0000      -0.588147       -16.0043
  35   2.0000      -0.546279       -14.8650
  36   2.0000      -0.525348       -14.2954
  37   2.0000      -0.483923       -13.1682
  38   2.0000      -0.439205       -11.9514
  39   2.0000      -0.432209       -11.7610
  40   2.0000      -0.307835        -8.3766
  41   0.0000      -0.197709        -5.3799
  42   0.0000      -0.190039        -5.1712
  43   0.0000      -0.176836        -4.8120
  44   0.0000      -0.170090        -4.6284
  45   0.0000      -0.154002        -4.1906

MULLIKEN ATOMIC CHARGES
-----------------------
   0 Sc:    0.652627
   1 C :    0.211411
   2 N :   -0.430581
   3 C :   -0.058769
   4 C :   -0.053907
   5 N :   -0.445885
   6 C :   -0.526830
   7 H :    0.276819
   8 H :    0.288327
   9 H :    0.249636
  10 C :   -0.514334
  11 H :    0.233157
  12 H :    0.286951
  13 H :    0.270816
  14 H :    0.302643
  15 H :    0.300799
  16 C :   -0.785183
  17 H :    0.286436
  18 H :    0.209771
  19 H :    0.233257
  20 H :    0.012837
Sum of atomic charges:    1.0000000

LOEWDIN ATOMIC CHARGES
----------------------
   0 Sc:    0.434283
   1 C :   -0.017268
   2 N :   -0.005596
   3 C :   -0.086345
   4 C :   -0.073920
   5 N :   -0.012601
   6 C :   -0.235285
   7 H :    0.159276
   8 H :    0.152315
   9 H :    0.145262
  10 C :   -0.236342
  11 H :    0.140796
  12 H :    0.158236
  13 H :    0.150912
  14 H :    0.167074
  15 H :    0.165851
  16 C :   -0.465772
  17 H :    0.140218
  18 H :    0.137317
  19 H :    0.130188
  20 H :    0.051401

  Mayer bond orders larger than 0.100000
B(  0-Sc,  1-C ) :   0.7192 B(  0-Sc, 16-C ) :   0.5669 B(  0-Sc, 20-H ) :   0.6298
B(  1-C ,  2-N ) :   1.2072 B(  1-C ,  5-N ) :   1.1959 B(  2-N ,  3-C ) :   1.1379
B(  2-N , 10-C ) :   0.9221 B(  3-C ,  4-C ) :   1.6317 B(  3-C , 14-H ) :   0.8785
B(  4-C ,  5-N ) :   1.1478 B(  4-C , 15-H ) :   0.8797 B(  5-N ,  6-C ) :   0.9081
B(  6-C ,  7-H ) :   0.9083 B(  6-C ,  8-H ) :   0.8812 B(  6-C ,  9-H ) :   0.8980
B( 10-C , 11-H ) :   0.9061 B( 10-C , 12-H ) :   0.8921 B( 10-C , 13-H ) :   0.8949
B( 16-C , 17-H ) :   0.9002 B( 16-C , 18-H ) :   0.9307 B( 16-C , 19-H ) :   0.9152
B( 16-C , 20-H ) :   0.3625

Dispersion correction           -0.011209477
FINAL SINGLE POINT ENERGY     -1104.298348072251
Dispersion correction            ... done

DIPOLE MOMENT
-------------
                                X             Y             Z
Electronic contribution:      9.93861      -9.57929      -2.25329
Nuclear contribution   :     -8.80985       8.75709       2.51142
                        -----------------------------------------
Total Dipole Moment    :      1.12876      -0.82221       0.25813
                        -----------------------------------------
Magnitude (a.u.)       :      1.42013
Magnitude (Debye)      :      3.60967

Rotational constants in cm-1:     0.043545     0.029089     0.022464
Rotational constants in MHz :  1305.436404   872.073128   673.454836

                             ****ORCA TERMINATED NORMALLY****
TOTAL RUN TIME: 0 days 0 hours 4 minutes 14 seconds 529 msec
