                         Program Version 5.0.3 -  RELEASE  -
|  1> ! EnGrad PBEh-3c
|  2> %output
|  3> xyzfile=True
|  4> end
|  5> %scf
|  6> maxiter 250
|  7> end
|  8> %output
|  9> Print[P_Hirshfeld] = 1
| 10> end
| 11> % maxcore
| 12> 4000
| 13> *xyz 1 1
| 14> Sc   1.48255421  -1.09559258  -1.68451201
| 15> C    0.40630215  -0.59311022   0.22115967
| 16> N   -0.47393808  -1.34887992   0.92512413
| 17> C   -0.78302135  -0.78013012   2.13688848
| 18> C   -0.13120322   0.39631968   2.18634527
| 19> N    0.56673400   0.51278138   1.00412942
| 20> C    1.42105110   1.64775761   0.62409869
| 21> H    1.45830393   2.36244631   1.44678581
| 22> H    1.01345039   2.13634465  -0.24909923
| 23> H    2.44416052   1.30358321   0.44708436
| 24> C   -0.97546262  -2.65957596   0.54852980
| 25> H   -0.61297679  -2.93205102  -0.44422934
| 26> H   -2.06158774  -2.64882484   0.51182404
| 27> H   -0.65078092  -3.42244747   1.25978201
| 28> H   -1.43000744  -1.23481252   2.85619945
| 29> H   -0.10596609   1.15251727   2.93937957
| 30> C   -0.30911173   1.69933124  -2.87448850
| 31> H   -0.86686713   1.64235968  -3.77209465
| 32> H    0.39279404   2.57592717  -2.92482892
| 33> H   -0.85088978   1.68715078  -1.97745764
| 34> H    0.06744143  -0.39935655  -3.18065943
| 35> *
| 36>
| 37>                          ****END OF INPUT****

CARTESIAN COORDINATES (ANGSTROEM)
---------------------------------
  Sc     1.482554   -1.095593   -1.684512
  C      0.406302   -0.593110    0.221160
  N     -0.473938   -1.348880    0.925124
  C     -0.783021   -0.780130    2.136888
  C     -0.131203    0.396320    2.186345
  N      0.566734    0.512781    1.004129
  C      1.421051    1.647758    0.624099
  H      1.458304    2.362446    1.446786
  H      1.013450    2.136345   -0.249099
  H      2.444161    1.303583    0.447084
  C     -0.975463   -2.659576    0.548530
  H     -0.612977   -2.932051   -0.444229
  H     -2.061588   -2.648825    0.511824
  H     -0.650781   -3.422447    1.259782
  H     -1.430007   -1.234813    2.856199
  H     -0.105966    1.152517    2.939380
  C     -0.309112    1.699331   -2.874489
  H     -0.866867    1.642360   -3.772095
  H      0.392794    2.575927   -2.924829
  H     -0.850890    1.687151   -1.977458
  H      0.067441   -0.399357   -3.180659

 Total Charge           Charge          ....    1
 Multiplicity           Mult            ....    1
 Number of Electrons    NEL             ....   82
 Basis Dimension        Dim             ....  175

ORBITAL ENERGIES
----------------

  NO   OCC          E(Eh)            E(eV)
   0   2.0000    -162.873167     -4432.0042
   1   2.0000     -18.177224      -494.6274
   2   2.0000     -15.019783      -408.7091
   3   2.0000     -15.010955      -408.4689
   4   2.0000     -15.007608      -408.3778
   5   2.0000     -14.860157      -404.3654
   6   2.0000     -14.857440      -404.2915
   7   2.0000     -10.643348      -289.6202
   8   2.0000     -10.625238      -289.1274
   9   2.0000     -10.624967      -289.1201
  10   2.0000     -10.621945      -289.0378
  11   2.0000     -10.621527      -289.0264
  12   2.0000     -10.554862      -287.2124
  13   2.0000      -2.394801       -65.1658
  14   2.0000      -1.552118       -42.2353
  15   2.0000      -1.535285       -41.7772
  16   2.0000      -1.527647       -41.5694
  17   2.0000      -1.300858       -35.3982
  18   2.0000      -1.179322       -32.0910
  19   2.0000      -1.021763       -27.8036
  20   2.0000      -0.976797       -26.5800
  21   2.0000      -0.924528       -25.1577
  22   2.0000      -0.851760       -23.1776
  23   2.0000      -0.837021       -22.7765
  24   2.0000      -0.802251       -21.8304
  25   2.0000      -0.748798       -20.3758
  26   2.0000      -0.697933       -18.9917
  27   2.0000      -0.672176       -18.2908
  28   2.0000      -0.656928       -17.8759
  29   2.0000      -0.652948       -17.7676
  30   2.0000      -0.648319       -17.6417
  31   2.0000      -0.603782       -16.4297
  32   2.0000      -0.597218       -16.2511
  33   2.0000      -0.591363       -16.0918
  34   2.0000      -0.571304       -15.5460
  35   2.0000      -0.548035       -14.9128
  36   2.0000      -0.520085       -14.1522
  37   2.0000      -0.483159       -13.1474
  38   2.0000      -0.436865       -11.8877
  39   2.0000      -0.431749       -11.7485
  40   2.0000      -0.303102        -8.2478
  41   0.0000      -0.193225        -5.2579
  42   0.0000      -0.182391        -4.9631
  43   0.0000      -0.171222        -4.6592
  44   0.0000      -0.164838        -4.4855
  45   0.0000      -0.149634        -4.0718

MULLIKEN ATOMIC CHARGES
-----------------------
   0 Sc:    0.672196
   1 C :    0.217098
   2 N :   -0.429165
   3 C :   -0.062881
   4 C :   -0.062159
   5 N :   -0.439230
   6 C :   -0.526151
   7 H :    0.278779
   8 H :    0.285551
   9 H :    0.246397
  10 C :   -0.512591
  11 H :    0.227885
  12 H :    0.288530
  13 H :    0.272893
  14 H :    0.302423
  15 H :    0.300344
  16 C :   -0.796214
  17 H :    0.269026
  18 H :    0.215240
  19 H :    0.233274
  20 H :    0.018755
Sum of atomic charges:    1.0000000

LOEWDIN ATOMIC CHARGES
----------------------
   0 Sc:    0.455834
   1 C :   -0.022143
   2 N :   -0.006069
   3 C :   -0.087898
   4 C :   -0.074178
   5 N :   -0.010827
   6 C :   -0.235533
   7 H :    0.158480
   8 H :    0.155226
   9 H :    0.143297
  10 C :   -0.233013
  11 H :    0.138137
  12 H :    0.159085
  13 H :    0.151434
  14 H :    0.167664
  15 H :    0.165710
  16 C :   -0.488016
  17 H :    0.146566
  18 H :    0.134522
  19 H :    0.128360
  20 H :    0.053361

  Mayer bond orders larger than 0.100000
B(  0-Sc,  1-C ) :   0.7055 B(  0-Sc, 16-C ) :   0.6248 B(  0-Sc, 20-H ) :   0.6884
B(  1-C ,  2-N ) :   1.2113 B(  1-C ,  5-N ) :   1.2116 B(  2-N ,  3-C ) :   1.1330
B(  2-N , 10-C ) :   0.9214 B(  3-C ,  4-C ) :   1.6469 B(  3-C , 14-H ) :   0.8782
B(  4-C ,  5-N ) :   1.1379 B(  4-C , 15-H ) :   0.8797 B(  5-N ,  6-C ) :   0.9083
B(  6-C ,  7-H ) :   0.9060 B(  6-C ,  8-H ) :   0.8819 B(  6-C ,  9-H ) :   0.8995
B( 10-C , 11-H ) :   0.9107 B( 10-C , 12-H ) :   0.8918 B( 10-C , 13-H ) :   0.8939
B( 16-C , 17-H ) :   0.9096 B( 16-C , 18-H ) :   0.9250 B( 16-C , 19-H ) :   0.9141
B( 16-C , 20-H ) :   0.3033

Dispersion correction           -0.011137776
FINAL SINGLE POINT ENERGY     -1104.320405811320
Dispersion correction            ... done

DIPOLE MOMENT
-------------
                                X             Y             Z
Electronic contribution:      9.85302      -9.51502      -2.45139
Nuclear contribution   :     -8.59023       8.47163       2.71767
                        -----------------------------------------
Total Dipole Moment    :      1.26279      -1.04339       0.26628
                        -----------------------------------------
Magnitude (a.u.)       :      1.65958
Magnitude (Debye)      :      4.21831

Rotational constants in cm-1:     0.044365     0.029107     0.022408
Rotational constants in MHz :  1330.034136   872.611994   671.783641

                             ****ORCA TERMINATED NORMALLY****
TOTAL RUN TIME: 0 days 0 hours 4 minutes 39 seconds 943 msec
