                         Program Version 5.0.3 -  RELEASE  -
|  1> ! EnGrad PBEh-3c
|  2> %output
|  3> xyzfile=True
|  4> end
|  5> %scf
|  6> maxiter 250
|  7> end
|  8> %output
|  9> Print[P_Hirshfeld] = 1
| 10> end
| 11> % maxcore
| 12> 4000
| 13> *xyz 1 1
| 14> Sc   1.45113216  -1.06289835  -1.71898421
| 15> C    0.40391268  -0.58765902   0.24443832
| 16> N   -0.46750611  -1.34955076   0.92429329
| 17> C   -0.78239429  -0.77960936   2.13093616
| 18> C   -0.12703617   0.39823744   2.17828607
| 19> N    0.57438016   0.50905694   0.99758194
| 20> C    1.41816480   1.63969551   0.63472552
| 21> H    1.45329689   2.35671886   1.44658330
| 22> H    1.01230747   2.14048698  -0.25977603
| 23> H    2.44240033   1.30164684   0.44619700
| 24> C   -0.97307927  -2.65905537   0.54793432
| 25> H   -0.61529300  -2.93021956  -0.44391473
| 26> H   -2.06192692  -2.64980105   0.51065364
| 27> H   -0.65041537  -3.41992714   1.25852008
| 28> H   -1.43459449  -1.23834615   2.85943180
| 29> H   -0.10472465   1.15784300   2.94450171
| 30> C   -0.27983211   1.70108640  -2.87169664
| 31> H   -0.88274258   1.62762760  -3.79518713
| 32> H    0.40370217   2.53670530  -2.92299321
| 33> H   -0.86426315   1.67663211  -1.95984936
| 34> H    0.08595808  -0.36633856  -3.15167483
| 35> *
| 36>
| 37>                          ****END OF INPUT****

CARTESIAN COORDINATES (ANGSTROEM)
---------------------------------
  Sc     1.451132   -1.062898   -1.718984
  C      0.403913   -0.587659    0.244438
  N     -0.467506   -1.349551    0.924293
  C     -0.782394   -0.779609    2.130936
  C     -0.127036    0.398237    2.178286
  N      0.574380    0.509057    0.997582
  C      1.418165    1.639696    0.634726
  H      1.453297    2.356719    1.446583
  H      1.012307    2.140487   -0.259776
  H      2.442400    1.301647    0.446197
  C     -0.973079   -2.659055    0.547934
  H     -0.615293   -2.930220   -0.443915
  H     -2.061927   -2.649801    0.510654
  H     -0.650415   -3.419927    1.258520
  H     -1.434594   -1.238346    2.859432
  H     -0.104725    1.157843    2.944502
  C     -0.279832    1.701086   -2.871697
  H     -0.882743    1.627628   -3.795187
  H      0.403702    2.536705   -2.922993
  H     -0.864263    1.676632   -1.959849
  H      0.085958   -0.366339   -3.151675

 Total Charge           Charge          ....    1
 Multiplicity           Mult            ....    1
 Number of Electrons    NEL             ....   82
 Basis Dimension        Dim             ....  175

ORBITAL ENERGIES
----------------

  NO   OCC          E(Eh)            E(eV)
   0   2.0000    -162.863719     -4431.7471
   1   2.0000     -18.166826      -494.3445
   2   2.0000     -15.009446      -408.4278
   3   2.0000     -14.999392      -408.1542
   4   2.0000     -14.998560      -408.1316
   5   2.0000     -14.860055      -404.3626
   6   2.0000     -14.857494      -404.2930
   7   2.0000     -10.639688      -289.5206
   8   2.0000     -10.627543      -289.1901
   9   2.0000     -10.624944      -289.1194
  10   2.0000     -10.622211      -289.0450
  11   2.0000     -10.622004      -289.0394
  12   2.0000     -10.550255      -287.0870
  13   2.0000      -2.386518       -64.9405
  14   2.0000      -1.544663       -42.0324
  15   2.0000      -1.529167       -41.6107
  16   2.0000      -1.518135       -41.3105
  17   2.0000      -1.307889       -35.5895
  18   2.0000      -1.184848       -32.2413
  19   2.0000      -1.022523       -27.8243
  20   2.0000      -0.980036       -26.6681
  21   2.0000      -0.925444       -25.1826
  22   2.0000      -0.841240       -22.8913
  23   2.0000      -0.840630       -22.8747
  24   2.0000      -0.802000       -21.8235
  25   2.0000      -0.749088       -20.3837
  26   2.0000      -0.701015       -19.0756
  27   2.0000      -0.674005       -18.3406
  28   2.0000      -0.656873       -17.8744
  29   2.0000      -0.654189       -17.8014
  30   2.0000      -0.650034       -17.6883
  31   2.0000      -0.605178       -16.4677
  32   2.0000      -0.598674       -16.2907
  33   2.0000      -0.590736       -16.0747
  34   2.0000      -0.554922       -15.1002
  35   2.0000      -0.545950       -14.8561
  36   2.0000      -0.513166       -13.9640
  37   2.0000      -0.484152       -13.1745
  38   2.0000      -0.436186       -11.8692
  39   2.0000      -0.431856       -11.7514
  40   2.0000      -0.299687        -8.1549
  41   0.0000      -0.191611        -5.2140
  42   0.0000      -0.172879        -4.7043
  43   0.0000      -0.165822        -4.5123
  44   0.0000      -0.159880        -4.3506
  45   0.0000      -0.145377        -3.9559

MULLIKEN ATOMIC CHARGES
-----------------------
   0 Sc:    0.680851
   1 C :    0.221605
   2 N :   -0.424122
   3 C :   -0.068349
   4 C :   -0.071030
   5 N :   -0.423778
   6 C :   -0.530084
   7 H :    0.281095
   8 H :    0.284573
   9 H :    0.244856
  10 C :   -0.512119
  11 H :    0.226007
  12 H :    0.289162
  13 H :    0.274913
  14 H :    0.301597
  15 H :    0.300082
  16 C :   -0.806003
  17 H :    0.255565
  18 H :    0.225037
  19 H :    0.220902
  20 H :    0.029240
Sum of atomic charges:    1.0000000

LOEWDIN ATOMIC CHARGES
----------------------
   0 Sc:    0.472269
   1 C :   -0.029022
   2 N :   -0.004458
   3 C :   -0.089599
   4 C :   -0.077319
   5 N :   -0.003401
   6 C :   -0.237374
   7 H :    0.158522
   8 H :    0.157888
   9 H :    0.142106
  10 C :   -0.230942
  11 H :    0.136882
  12 H :    0.159865
  13 H :    0.152197
  14 H :    0.168565
  15 H :    0.166798
  16 C :   -0.508353
  17 H :    0.147213
  18 H :    0.131770
  19 H :    0.127205
  20 H :    0.059189

  Mayer bond orders larger than 0.100000
B(  0-Sc,  1-C ) :   0.6909 B(  0-Sc, 16-C ) :   0.6600 B(  0-Sc, 20-H ) :   0.7211
B(  1-C ,  2-N ) :   1.2158 B(  1-C ,  5-N ) :   1.2293 B(  2-N ,  3-C ) :   1.1335
B(  2-N , 10-C ) :   0.9212 B(  3-C ,  4-C ) :   1.6563 B(  3-C , 14-H ) :   0.8785
B(  4-C ,  5-N ) :   1.1351 B(  4-C , 15-H ) :   0.8795 B(  5-N ,  6-C ) :   0.9103
B(  6-C ,  7-H ) :   0.9037 B(  6-C ,  8-H ) :   0.8818 B(  6-C ,  9-H ) :   0.9005
B( 10-C , 11-H ) :   0.9135 B( 10-C , 12-H ) :   0.8916 B( 10-C , 13-H ) :   0.8933
B( 16-C , 17-H ) :   0.9155 B( 16-C , 18-H ) :   0.9173 B( 16-C , 19-H ) :   0.9194
B( 16-C , 20-H ) :   0.2689

Dispersion correction           -0.011077238
FINAL SINGLE POINT ENERGY     -1104.330910228773
Dispersion correction            ... done

DIPOLE MOMENT
-------------
                                X             Y             Z
Electronic contribution:      9.81373      -9.50110      -2.60457
Nuclear contribution   :     -8.46975       8.27745       2.90537
                        -----------------------------------------
Total Dipole Moment    :      1.34397      -1.22366       0.30080
                        -----------------------------------------
Magnitude (a.u.)       :      1.84231
Magnitude (Debye)      :      4.68277

Rotational constants in cm-1:     0.045096     0.029116     0.022368
Rotational constants in MHz :  1351.952508   872.889833   670.579834

                             ****ORCA TERMINATED NORMALLY****
TOTAL RUN TIME: 0 days 0 hours 4 minutes 3 seconds 658 msec
