                         Program Version 5.0.3 -  RELEASE  -
|  1> ! EnGrad PBEh-3c
|  2> %output
|  3> xyzfile=True
|  4> end
|  5> %scf
|  6> maxiter 250
|  7> end
|  8> %output
|  9> Print[P_Hirshfeld] = 1
| 10> end
| 11> % maxcore
| 12> 4000
| 13> *xyz 1 1
| 14> Sc   1.39971006  -1.00775614  -1.77207597
| 15> C    0.41255722  -0.58937871   0.25364355
| 16> N   -0.46445583  -1.35263607   0.92910872
| 17> C   -0.78481400  -0.77793970   2.13139534
| 18> C   -0.12490670   0.40271387   2.17686055
| 19> N    0.58009084   0.50938699   1.00348019
| 20> C    1.41441600   1.63596194   0.63044094
| 21> H    1.44377407   2.34926758   1.45063324
| 22> H    1.01487895   2.14113600  -0.26668268
| 23> H    2.43977273   1.29873674   0.44705623
| 24> C   -0.97084034  -2.65623959   0.54634917
| 25> H   -0.61848361  -2.92756254  -0.44519647
| 26> H   -2.06079722  -2.65092570   0.50952716
| 27> H   -0.64864503  -3.41719111   1.25686461
| 28> H   -1.43715841  -1.24084505   2.85996973
| 29> H   -0.10192685   1.16108161   2.94716436
| 30> C   -0.28036864   1.68010281  -2.87319360
| 31> H   -0.88793339   1.60686717  -3.80696569
| 32> H    0.43676929   2.49153332  -2.92105669
| 33> H   -0.87038165   1.66213958  -1.95153482
| 34> H    0.11096967  -0.31517116  -3.10604824
| 35> *
| 36>
| 37>                          ****END OF INPUT****

CARTESIAN COORDINATES (ANGSTROEM)
---------------------------------
  Sc     1.399710   -1.007756   -1.772076
  C      0.412557   -0.589379    0.253644
  N     -0.464456   -1.352636    0.929109
  C     -0.784814   -0.777940    2.131395
  C     -0.124907    0.402714    2.176861
  N      0.580091    0.509387    1.003480
  C      1.414416    1.635962    0.630441
  H      1.443774    2.349268    1.450633
  H      1.014879    2.141136   -0.266683
  H      2.439773    1.298737    0.447056
  C     -0.970840   -2.656240    0.546349
  H     -0.618484   -2.927563   -0.445196
  H     -2.060797   -2.650926    0.509527
  H     -0.648645   -3.417191    1.256865
  H     -1.437158   -1.240845    2.859970
  H     -0.101927    1.161082    2.947164
  C     -0.280369    1.680103   -2.873194
  H     -0.887933    1.606867   -3.806966
  H      0.436769    2.491533   -2.921057
  H     -0.870382    1.662140   -1.951535
  H      0.110970   -0.315171   -3.106048

 Total Charge           Charge          ....    1
 Multiplicity           Mult            ....    1
 Number of Electrons    NEL             ....   82
 Basis Dimension        Dim             ....  175

ORBITAL ENERGIES
----------------

  NO   OCC          E(Eh)            E(eV)
   0   2.0000    -162.849403     -4431.3575
   1   2.0000     -18.151782      -493.9351
   2   2.0000     -14.994519      -408.0216
   3   2.0000     -14.984860      -407.7588
   4   2.0000     -14.983064      -407.7099
   5   2.0000     -14.859047      -404.3352
   6   2.0000     -14.856276      -404.2598
   7   2.0000     -10.637824      -289.4699
   8   2.0000     -10.627428      -289.1870
   9   2.0000     -10.624208      -289.0994
  10   2.0000     -10.621389      -289.0227
  11   2.0000     -10.621283      -289.0198
  12   2.0000     -10.546810      -286.9933
  13   2.0000      -2.374920       -64.6249
  14   2.0000      -1.534115       -41.7454
  15   2.0000      -1.519724       -41.3538
  16   2.0000      -1.506077       -40.9825
  17   2.0000      -1.307148       -35.5693
  18   2.0000      -1.185748       -32.2658
  19   2.0000      -1.021954       -27.8088
  20   2.0000      -0.978457       -26.6252
  21   2.0000      -0.925432       -25.1823
  22   2.0000      -0.840277       -22.8651
  23   2.0000      -0.833786       -22.6885
  24   2.0000      -0.801079       -21.7985
  25   2.0000      -0.747785       -20.3483
  26   2.0000      -0.700478       -19.0610
  27   2.0000      -0.674025       -18.3412
  28   2.0000      -0.656392       -17.8613
  29   2.0000      -0.654702       -17.8153
  30   2.0000      -0.648384       -17.6434
  31   2.0000      -0.604869       -16.4593
  32   2.0000      -0.597110       -16.2482
  33   2.0000      -0.589390       -16.0381
  34   2.0000      -0.549702       -14.9581
  35   2.0000      -0.541007       -14.7216
  36   2.0000      -0.509712       -13.8700
  37   2.0000      -0.483575       -13.1587
  38   2.0000      -0.440924       -11.9982
  39   2.0000      -0.430381       -11.7113
  40   2.0000      -0.296216        -8.0604
  41   0.0000      -0.189792        -5.1645
  42   0.0000      -0.163524        -4.4497
  43   0.0000      -0.158352        -4.3090
  44   0.0000      -0.152397        -4.1469
  45   0.0000      -0.138589        -3.7712

MULLIKEN ATOMIC CHARGES
-----------------------
   0 Sc:    0.689517
   1 C :    0.217339
   2 N :   -0.422690
   3 C :   -0.070994
   4 C :   -0.072319
   5 N :   -0.418059
   6 C :   -0.530154
   7 H :    0.278787
   8 H :    0.285947
   9 H :    0.243548
  10 C :   -0.511702
  11 H :    0.223599
  12 H :    0.288091
  13 H :    0.275461
  14 H :    0.300729
  15 H :    0.299577
  16 C :   -0.811916
  17 H :    0.251829
  18 H :    0.221495
  19 H :    0.217289
  20 H :    0.044625
Sum of atomic charges:    1.0000000

LOEWDIN ATOMIC CHARGES
----------------------
   0 Sc:    0.484526
   1 C :   -0.030202
   2 N :   -0.005413
   3 C :   -0.090782
   4 C :   -0.078958
   5 N :   -0.001989
   6 C :   -0.237786
   7 H :    0.158007
   8 H :    0.158946
   9 H :    0.141203
  10 C :   -0.230899
  11 H :    0.135464
  12 H :    0.159353
  13 H :    0.152392
  14 H :    0.168249
  15 H :    0.166702
  16 C :   -0.518814
  17 H :    0.146701
  18 H :    0.129739
  19 H :    0.126562
  20 H :    0.067000

  Mayer bond orders larger than 0.100000
B(  0-Sc,  1-C ) :   0.6804 B(  0-Sc, 16-C ) :   0.6844 B(  0-Sc, 20-H ) :   0.7453
B(  1-C ,  2-N ) :   1.2134 B(  1-C ,  5-N ) :   1.2309 B(  2-N ,  3-C ) :   1.1354
B(  2-N , 10-C ) :   0.9234 B(  3-C ,  4-C ) :   1.6536 B(  3-C , 14-H ) :   0.8789
B(  4-C ,  5-N ) :   1.1385 B(  4-C , 15-H ) :   0.8796 B(  5-N ,  6-C ) :   0.9122
B(  6-C ,  7-H ) :   0.9044 B(  6-C ,  8-H ) :   0.8802 B(  6-C ,  9-H ) :   0.9017
B( 10-C , 11-H ) :   0.9164 B( 10-C , 12-H ) :   0.8917 B( 10-C , 13-H ) :   0.8934
B( 16-C , 17-H ) :   0.9155 B( 16-C , 18-H ) :   0.9179 B( 16-C , 19-H ) :   0.9202
B( 16-C , 20-H ) :   0.2412

Dispersion correction           -0.011079193
FINAL SINGLE POINT ENERGY     -1104.342701819799
Dispersion correction            ... done

DIPOLE MOMENT
-------------
                                X             Y             Z
Electronic contribution:      9.60823      -9.32875      -2.98269
Nuclear contribution   :     -8.18060       7.97452       3.20889
                        -----------------------------------------
Total Dipole Moment    :      1.42763      -1.35423       0.22620
                        -----------------------------------------
Magnitude (a.u.)       :      1.98072
Magnitude (Debye)      :      5.03458

Rotational constants in cm-1:     0.046143     0.029022     0.022293
Rotational constants in MHz :  1383.320076   870.044996   668.326260

                             ****ORCA TERMINATED NORMALLY****
TOTAL RUN TIME: 0 days 0 hours 4 minutes 30 seconds 998 msec
