                         Program Version 5.0.3 -  RELEASE  -
|  1> ! EnGrad PBEh-3c
|  2> %output
|  3> xyzfile=True
|  4> end
|  5> %scf
|  6> maxiter 250
|  7> end
|  8> %output
|  9> Print[P_Hirshfeld] = 1
| 10> end
| 11> % maxcore
| 12> 4000
| 13> *xyz 1 1
| 14> Sc   1.33962046  -0.92566132  -1.83750217
| 15> C    0.41005130  -0.59679334   0.25117535
| 16> N   -0.45297653  -1.35895979   0.94456084
| 17> C   -0.79054190  -0.76660792   2.13243870
| 18> C   -0.12545193   0.41379801   2.17432068
| 19> N    0.59108012   0.50133267   1.01072285
| 20> C    1.41102210   1.62931300   0.62611649
| 21> H    1.44081035   2.33655049   1.44933255
| 22> H    1.01926209   2.13746423  -0.26278947
| 23> H    2.43036231   1.29504505   0.43939176
| 24> C   -0.97102735  -2.65574589   0.54583788
| 25> H   -0.61816187  -2.92761064  -0.44512813
| 26> H   -2.05764278  -2.64930802   0.50609975
| 27> H   -0.64989092  -3.41225151   1.25578728
| 28> H   -1.44071322  -1.23847567   2.85392485
| 29> H   -0.10287397   1.16394023   2.94281230
| 30> C   -0.27391680   1.60410166  -2.86623150
| 31> H   -0.90215963   1.58520949  -3.80694473
| 32> H    0.46876559   2.41730743  -2.92056157
| 33> H   -0.87828414   1.64015041  -1.95549713
| 34> H    0.15663083  -0.18787732  -3.03939707
| 35> *
| 36>
| 37>                          ****END OF INPUT****

CARTESIAN COORDINATES (ANGSTROEM)
---------------------------------
  Sc     1.339620   -0.925661   -1.837502
  C      0.410051   -0.596793    0.251175
  N     -0.452977   -1.358960    0.944561
  C     -0.790542   -0.766608    2.132439
  C     -0.125452    0.413798    2.174321
  N      0.591080    0.501333    1.010723
  C      1.411022    1.629313    0.626116
  H      1.440810    2.336550    1.449333
  H      1.019262    2.137464   -0.262789
  H      2.430362    1.295045    0.439392
  C     -0.971027   -2.655746    0.545838
  H     -0.618162   -2.927611   -0.445128
  H     -2.057643   -2.649308    0.506100
  H     -0.649891   -3.412252    1.255787
  H     -1.440713   -1.238476    2.853925
  H     -0.102874    1.163940    2.942812
  C     -0.273917    1.604102   -2.866232
  H     -0.902160    1.585209   -3.806945
  H      0.468766    2.417307   -2.920562
  H     -0.878284    1.640150   -1.955497
  H      0.156631   -0.187877   -3.039397

 Total Charge           Charge          ....    1
 Multiplicity           Mult            ....    1
 Number of Electrons    NEL             ....   82
 Basis Dimension        Dim             ....  175

ORBITAL ENERGIES
----------------

  NO   OCC          E(Eh)            E(eV)
   0   2.0000    -162.833557     -4430.9264
   1   2.0000     -18.135803      -493.5003
   2   2.0000     -14.978628      -407.5892
   3   2.0000     -14.969606      -407.3437
   4   2.0000     -14.966222      -407.2516
   5   2.0000     -14.856777      -404.2734
   6   2.0000     -14.853677      -404.1891
   7   2.0000     -10.635624      -289.4100
   8   2.0000     -10.625076      -289.1230
   9   2.0000     -10.621964      -289.0383
  10   2.0000     -10.619213      -288.9635
  11   2.0000     -10.618087      -288.9328
  12   2.0000     -10.549611      -287.0695
  13   2.0000      -2.363486       -64.3137
  14   2.0000      -1.523486       -41.4562
  15   2.0000      -1.510204       -41.0947
  16   2.0000      -1.495070       -40.6829
  17   2.0000      -1.304486       -35.4969
  18   2.0000      -1.183693       -32.2099
  19   2.0000      -1.020521       -27.7698
  20   2.0000      -0.976401       -26.5692
  21   2.0000      -0.924906       -25.1680
  22   2.0000      -0.838289       -22.8110
  23   2.0000      -0.835988       -22.7484
  24   2.0000      -0.799673       -21.7602
  25   2.0000      -0.746534       -20.3142
  26   2.0000      -0.698664       -19.0116
  27   2.0000      -0.672649       -18.3037
  28   2.0000      -0.655782       -17.8447
  29   2.0000      -0.653746       -17.7893
  30   2.0000      -0.646448       -17.5908
  31   2.0000      -0.603964       -16.4347
  32   2.0000      -0.595800       -16.2125
  33   2.0000      -0.588202       -16.0058
  34   2.0000      -0.549003       -14.9391
  35   2.0000      -0.538731       -14.6596
  36   2.0000      -0.507111       -13.7992
  37   2.0000      -0.482013       -13.1163
  38   2.0000      -0.465888       -12.6775
  39   2.0000      -0.427952       -11.6452
  40   2.0000      -0.295924        -8.0525
  41   0.0000      -0.186838        -5.0841
  42   0.0000      -0.156936        -4.2704
  43   0.0000      -0.150518        -4.0958
  44   0.0000      -0.140344        -3.8190
  45   0.0000      -0.131900        -3.5892

MULLIKEN ATOMIC CHARGES
-----------------------
   0 Sc:    0.679925
   1 C :    0.214908
   2 N :   -0.421428
   3 C :   -0.075100
   4 C :   -0.068690
   5 N :   -0.419157
   6 C :   -0.531699
   7 H :    0.278097
   8 H :    0.283639
   9 H :    0.245805
  10 C :   -0.509395
  11 H :    0.221938
  12 H :    0.285643
  13 H :    0.276428
  14 H :    0.298764
  15 H :    0.299744
  16 C :   -0.836182
  17 H :    0.252433
  18 H :    0.219339
  19 H :    0.223749
  20 H :    0.081239
Sum of atomic charges:    1.0000000

LOEWDIN ATOMIC CHARGES
----------------------
   0 Sc:    0.474175
   1 C :   -0.030200
   2 N :   -0.005643
   3 C :   -0.091899
   4 C :   -0.079723
   5 N :   -0.003572
   6 C :   -0.238692
   7 H :    0.157787
   8 H :    0.156689
   9 H :    0.141460
  10 C :   -0.230410
  11 H :    0.134847
  12 H :    0.157673
  13 H :    0.152681
  14 H :    0.166838
  15 H :    0.166009
  16 C :   -0.531099
  17 H :    0.147693
  18 H :    0.130372
  19 H :    0.128170
  20 H :    0.096846

  Mayer bond orders larger than 0.100000
B(  0-Sc,  1-C ) :   0.6746 B(  0-Sc, 16-C ) :   0.6431 B(  0-Sc, 20-H ) :   0.7013
B(  1-C ,  2-N ) :   1.2173 B(  1-C ,  5-N ) :   1.2235 B(  2-N ,  3-C ) :   1.1395
B(  2-N , 10-C ) :   0.9233 B(  3-C ,  4-C ) :   1.6503 B(  3-C , 14-H ) :   0.8800
B(  4-C ,  5-N ) :   1.1399 B(  4-C , 15-H ) :   0.8796 B(  5-N ,  6-C ) :   0.9157
B(  6-C ,  7-H ) :   0.9055 B(  6-C ,  8-H ) :   0.8811 B(  6-C ,  9-H ) :   0.9014
B( 10-C , 11-H ) :   0.9188 B( 10-C , 12-H ) :   0.8925 B( 10-C , 13-H ) :   0.8943
B( 16-C , 17-H ) :   0.9124 B( 16-C , 18-H ) :   0.9166 B( 16-C , 19-H ) :   0.9150
B( 16-C , 20-H ) :   0.2734

Dispersion correction           -0.011144326
FINAL SINGLE POINT ENERGY     -1104.359144946331
Dispersion correction            ... done

DIPOLE MOMENT
-------------
                                X             Y             Z
Electronic contribution:      9.16778      -8.89426      -3.57906
Nuclear contribution   :     -7.84163       7.60366       3.57102
                        -----------------------------------------
Total Dipole Moment    :      1.32615      -1.29059      -0.00804
                        -----------------------------------------
Magnitude (a.u.)       :      1.85051
Magnitude (Debye)      :      4.70361

Rotational constants in cm-1:     0.047875     0.028944     0.022262
Rotational constants in MHz :  1435.251648   867.728066   667.390759

                             ****ORCA TERMINATED NORMALLY****
TOTAL RUN TIME: 0 days 0 hours 4 minutes 12 seconds 783 msec
