                         Program Version 5.0.3 -  RELEASE  -
|  1> ! EnGrad PBEh-3c
|  2> %output
|  3> xyzfile=True
|  4> end
|  5> %scf
|  6> maxiter 250
|  7> end
|  8> %output
|  9> Print[P_Hirshfeld] = 1
| 10> end
| 11> % maxcore
| 12> 4000
| 13> *xyz 1 1
| 14> Sc   1.26556118  -0.81351826  -1.91286499
| 15> C    0.40699760  -0.60166546   0.24777953
| 16> N   -0.44236023  -1.36365798   0.95504086
| 17> C   -0.79168554  -0.75298222   2.13739427
| 18> C   -0.13145332   0.41297720   2.17319426
| 19> N    0.59799702   0.48760790   1.01056393
| 20> C    1.40969172   1.62422970   0.62745267
| 21> H    1.43652095   2.32638938   1.44627249
| 22> H    1.02124410   2.13122525  -0.25986602
| 23> H    2.42467036   1.29228342   0.43378709
| 24> C   -0.96912284  -2.65247377   0.54833560
| 25> H   -0.61626771  -2.92561559  -0.44641758
| 26> H   -2.05570091  -2.64573854   0.50441450
| 27> H   -0.64924427  -3.41113898   1.25348084
| 28> H   -1.44382002  -1.23420085   2.84850572
| 29> H   -0.10257667   1.17076591   2.94210210
| 30> C   -0.25417335   1.51380446  -2.86686981
| 31> H   -0.89748180   1.55587616  -3.78452246
| 32> H    0.49490249   2.32126583  -2.91864577
| 33> H   -0.88487513   1.61986464  -1.96642058
| 34> H    0.18712502  -0.04836033  -2.97565405
| 35> *
| 36>
| 37>                          ****END OF INPUT****

CARTESIAN COORDINATES (ANGSTROEM)
---------------------------------
  Sc     1.265561   -0.813518   -1.912865
  C      0.406998   -0.601665    0.247780
  N     -0.442360   -1.363658    0.955041
  C     -0.791686   -0.752982    2.137394
  C     -0.131453    0.412977    2.173194
  N      0.597997    0.487608    1.010564
  C      1.409692    1.624230    0.627453
  H      1.436521    2.326389    1.446272
  H      1.021244    2.131225   -0.259866
  H      2.424670    1.292283    0.433787
  C     -0.969123   -2.652474    0.548336
  H     -0.616268   -2.925616   -0.446418
  H     -2.055701   -2.645739    0.504414
  H     -0.649244   -3.411139    1.253481
  H     -1.443820   -1.234201    2.848506
  H     -0.102577    1.170766    2.942102
  C     -0.254173    1.513804   -2.866870
  H     -0.897482    1.555876   -3.784522
  H      0.494902    2.321266   -2.918646
  H     -0.884875    1.619865   -1.966421
  H      0.187125   -0.048360   -2.975654

 Total Charge           Charge          ....    1
 Multiplicity           Mult            ....    1
 Number of Electrons    NEL             ....   82
 Basis Dimension        Dim             ....  175

ORBITAL ENERGIES
----------------

  NO   OCC          E(Eh)            E(eV)
   0   2.0000    -162.806078     -4430.1786
   1   2.0000     -18.107536      -492.7311
   2   2.0000     -14.950760      -406.8309
   3   2.0000     -14.942139      -406.5963
   4   2.0000     -14.936756      -406.4498
   5   2.0000     -14.850655      -404.1069
   6   2.0000     -14.848223      -404.0407
   7   2.0000     -10.631067      -289.2860
   8   2.0000     -10.620716      -289.0044
   9   2.0000     -10.617503      -288.9170
  10   2.0000     -10.614736      -288.8416
  11   2.0000     -10.614372      -288.8317
  12   2.0000     -10.551496      -287.1208
  13   2.0000      -2.343333       -63.7653
  14   2.0000      -1.504797       -40.9476
  15   2.0000      -1.492629       -40.6165
  16   2.0000      -1.476766       -40.1849
  17   2.0000      -1.300468       -35.3875
  18   2.0000      -1.177720       -32.0474
  19   2.0000      -1.018551       -27.7162
  20   2.0000      -0.973671       -26.4949
  21   2.0000      -0.920438       -25.0464
  22   2.0000      -0.848644       -23.0928
  23   2.0000      -0.833819       -22.6894
  24   2.0000      -0.796433       -21.6720
  25   2.0000      -0.743065       -20.2198
  26   2.0000      -0.694961       -18.9109
  27   2.0000      -0.668450       -18.1895
  28   2.0000      -0.652540       -17.7565
  29   2.0000      -0.647178       -17.6106
  30   2.0000      -0.645112       -17.5544
  31   2.0000      -0.600365       -16.3368
  32   2.0000      -0.594264       -16.1707
  33   2.0000      -0.585139       -15.9224
  34   2.0000      -0.552359       -15.0305
  35   2.0000      -0.544493       -14.8164
  36   2.0000      -0.510729       -13.8976
  37   2.0000      -0.492062       -13.3897
  38   2.0000      -0.476555       -12.9677
  39   2.0000      -0.427132       -11.6228
  40   2.0000      -0.292189        -7.9509
  41   0.0000      -0.182253        -4.9593
  42   0.0000      -0.147214        -4.0059
  43   0.0000      -0.138544        -3.7700
  44   0.0000      -0.123150        -3.3511
  45   0.0000      -0.120762        -3.2861

MULLIKEN ATOMIC CHARGES
-----------------------
   0 Sc:    0.688310
   1 C :    0.215767
   2 N :   -0.423653
   3 C :   -0.072831
   4 C :   -0.068402
   5 N :   -0.420325
   6 C :   -0.530929
   7 H :    0.278713
   8 H :    0.277046
   9 H :    0.247868
  10 C :   -0.508086
  11 H :    0.219881
  12 H :    0.280429
  13 H :    0.276054
  14 H :    0.295650
  15 H :    0.297082
  16 C :   -0.867963
  17 H :    0.261351
  18 H :    0.225312
  19 H :    0.230665
  20 H :    0.098060
Sum of atomic charges:    1.0000000

LOEWDIN ATOMIC CHARGES
----------------------
   0 Sc:    0.455198
   1 C :   -0.028645
   2 N :   -0.010675
   3 C :   -0.091209
   4 C :   -0.081840
   5 N :   -0.007830
   6 C :   -0.238417
   7 H :    0.157241
   8 H :    0.153206
   9 H :    0.141713
  10 C :   -0.231805
  11 H :    0.134138
  12 H :    0.154659
  13 H :    0.152011
  14 H :    0.165566
  15 H :    0.165944
  16 C :   -0.530517
  17 H :    0.149534
  18 H :    0.132829
  19 H :    0.133479
  20 H :    0.125419

  Mayer bond orders larger than 0.100000
B(  0-Sc,  1-C ) :   0.6667 B(  0-Sc, 16-C ) :   0.5769 B(  0-Sc, 20-H ) :   0.6271
B(  1-C ,  2-N ) :   1.2178 B(  1-C ,  5-N ) :   1.2262 B(  2-N ,  3-C ) :   1.1285
B(  2-N , 10-C ) :   0.9262 B(  3-C ,  4-C ) :   1.6672 B(  3-C , 14-H ) :   0.8815
B(  4-C ,  5-N ) :   1.1248 B(  4-C , 15-H ) :   0.8807 B(  5-N ,  6-C ) :   0.9177
B(  6-C ,  7-H ) :   0.9058 B(  6-C ,  8-H ) :   0.8841 B(  6-C ,  9-H ) :   0.9013
B( 10-C , 11-H ) :   0.9213 B( 10-C , 12-H ) :   0.8942 B( 10-C , 13-H ) :   0.8953
B( 16-C , 17-H ) :   0.9069 B( 16-C , 18-H ) :   0.9110 B( 16-C , 19-H ) :   0.9114
B( 16-C , 20-H ) :   0.3306

Dispersion correction           -0.011173006
FINAL SINGLE POINT ENERGY     -1104.373525551331
Dispersion correction            ... done

DIPOLE MOMENT
-------------
                                X             Y             Z
Electronic contribution:      8.62622      -8.21341      -4.35597
Nuclear contribution   :     -7.43406       7.08327       4.00527
                        -----------------------------------------
Total Dipole Moment    :      1.19216      -1.13013      -0.35070
                        -----------------------------------------
Magnitude (a.u.)       :      1.67971
Magnitude (Debye)      :      4.26949

Rotational constants in cm-1:     0.050262     0.028827     0.022199
Rotational constants in MHz :  1506.823917   864.221287   665.518036

                             ****ORCA TERMINATED NORMALLY****
TOTAL RUN TIME: 0 days 0 hours 4 minutes 14 seconds 847 msec
