                         Program Version 5.0.3 -  RELEASE  -
|  1> ! EnGrad PBEh-3c
|  2> %output
|  3> xyzfile=True
|  4> end
|  5> %scf
|  6> maxiter 250
|  7> end
|  8> %output
|  9> Print[P_Hirshfeld] = 1
| 10> end
| 11> % maxcore
| 12> 4000
| 13> *xyz 1 1
| 14> Sc   1.24899233  -0.74401805  -1.91985313
| 15> C    0.40274168  -0.60506404   0.23525550
| 16> N   -0.44491369  -1.36672506   0.95570326
| 17> C   -0.79710810  -0.76669353   2.13696987
| 18> C   -0.12640247   0.42450518   2.17366611
| 19> N    0.59615564   0.48787382   1.00996978
| 20> C    1.40942147   1.61349763   0.62440412
| 21> H    1.44155998   2.32788181   1.44773962
| 22> H    1.01766630   2.12574398  -0.25411587
| 23> H    2.42847839   1.29142258   0.42764073
| 24> C   -0.96713395  -2.65068686   0.54889524
| 25> H   -0.61091370  -2.92434387  -0.44193943
| 26> H   -2.05642133  -2.64018127   0.50445758
| 27> H   -0.65059098  -3.41641011   1.25457460
| 28> H   -1.44644969  -1.22636653   2.84636840
| 29> H   -0.10548721   1.17391157   2.93569065
| 30> C   -0.23232669   1.46136772  -2.85286193
| 31> H   -0.87228214   1.53231390  -3.74577597
| 32> H    0.48588012   2.28648439  -2.91283889
| 33> H   -0.88040422   1.61416662  -1.98026878
| 34> H    0.16637134   0.00963474  -2.99670281
| 35> *
| 36>
| 37>                          ****END OF INPUT****

CARTESIAN COORDINATES (ANGSTROEM)
---------------------------------
  Sc     1.248992   -0.744018   -1.919853
  C      0.402742   -0.605064    0.235255
  N     -0.444914   -1.366725    0.955703
  C     -0.797108   -0.766694    2.136970
  C     -0.126402    0.424505    2.173666
  N      0.596156    0.487874    1.009970
  C      1.409421    1.613498    0.624404
  H      1.441560    2.327882    1.447740
  H      1.017666    2.125744   -0.254116
  H      2.428478    1.291423    0.427641
  C     -0.967134   -2.650687    0.548895
  H     -0.610914   -2.924344   -0.441939
  H     -2.056421   -2.640181    0.504458
  H     -0.650591   -3.416410    1.254575
  H     -1.446450   -1.226367    2.846368
  H     -0.105487    1.173912    2.935691
  C     -0.232327    1.461368   -2.852862
  H     -0.872282    1.532314   -3.745776
  H      0.485880    2.286484   -2.912839
  H     -0.880404    1.614167   -1.980269
  H      0.166371    0.009635   -2.996703

 Total Charge           Charge          ....    1
 Multiplicity           Mult            ....    1
 Number of Electrons    NEL             ....   82
 Basis Dimension        Dim             ....  175

ORBITAL ENERGIES
----------------

  NO   OCC          E(Eh)            E(eV)
   0   2.0000    -162.802925     -4430.0928
   1   2.0000     -18.104530      -492.6493
   2   2.0000     -14.947887      -406.7527
   3   2.0000     -14.938642      -406.5011
   4   2.0000     -14.934075      -406.3768
   5   2.0000     -14.852138      -404.1472
   6   2.0000     -14.850032      -404.0899
   7   2.0000     -10.631592      -289.3003
   8   2.0000     -10.619987      -288.9845
   9   2.0000     -10.618800      -288.9522
  10   2.0000     -10.616188      -288.8812
  11   2.0000     -10.616027      -288.8768
  12   2.0000     -10.553684      -287.1803
  13   2.0000      -2.340729       -63.6945
  14   2.0000      -1.502409       -40.8826
  15   2.0000      -1.489952       -40.5437
  16   2.0000      -1.474438       -40.1215
  17   2.0000      -1.298580       -35.3362
  18   2.0000      -1.180004       -32.1096
  19   2.0000      -1.016367       -27.6568
  20   2.0000      -0.972678       -26.4679
  21   2.0000      -0.920661       -25.0525
  22   2.0000      -0.866477       -23.5780
  23   2.0000      -0.834580       -22.7101
  24   2.0000      -0.795739       -21.6532
  25   2.0000      -0.743945       -20.2438
  26   2.0000      -0.694687       -18.9034
  27   2.0000      -0.671059       -18.2605
  28   2.0000      -0.653802       -17.7909
  29   2.0000      -0.650714       -17.7068
  30   2.0000      -0.642857       -17.4930
  31   2.0000      -0.597653       -16.2630
  32   2.0000      -0.592300       -16.1173
  33   2.0000      -0.583605       -15.8807
  34   2.0000      -0.562577       -15.3085
  35   2.0000      -0.554908       -15.0998
  36   2.0000      -0.528964       -14.3938
  37   2.0000      -0.498099       -13.5540
  38   2.0000      -0.477531       -12.9943
  39   2.0000      -0.423153       -11.5146
  40   2.0000      -0.291921        -7.9436
  41   0.0000      -0.179604        -4.8873
  42   0.0000      -0.147587        -4.0160
  43   0.0000      -0.136416        -3.7121
  44   0.0000      -0.121975        -3.3191
  45   0.0000      -0.118137        -3.2147

MULLIKEN ATOMIC CHARGES
-----------------------
   0 Sc:    0.674467
   1 C :    0.207861
   2 N :   -0.420269
   3 C :   -0.076149
   4 C :   -0.069194
   5 N :   -0.415416
   6 C :   -0.537193
   7 H :    0.279226
   8 H :    0.273559
   9 H :    0.251671
  10 C :   -0.510573
  11 H :    0.224118
  12 H :    0.278146
  13 H :    0.275090
  14 H :    0.298458
  15 H :    0.299782
  16 C :   -0.896817
  17 H :    0.273989
  18 H :    0.234193
  19 H :    0.241824
  20 H :    0.113227
Sum of atomic charges:    1.0000000

LOEWDIN ATOMIC CHARGES
----------------------
   0 Sc:    0.413353
   1 C :   -0.028990
   2 N :   -0.007026
   3 C :   -0.091522
   4 C :   -0.081024
   5 N :   -0.006138
   6 C :   -0.241220
   7 H :    0.158469
   8 H :    0.150703
   9 H :    0.143531
  10 C :   -0.233869
  11 H :    0.135568
  12 H :    0.153952
  13 H :    0.152112
  14 H :    0.164717
  15 H :    0.165211
  16 C :   -0.524441
  17 H :    0.151837
  18 H :    0.137964
  19 H :    0.139836
  20 H :    0.146978

  Mayer bond orders larger than 0.100000
B(  0-Sc,  1-C ) :   0.6676 B(  0-Sc, 16-C ) :   0.5270 B(  0-Sc, 20-H ) :   0.5685
B(  1-C ,  2-N ) :   1.2136 B(  1-C ,  5-N ) :   1.2140 B(  2-N ,  3-C ) :   1.1425
B(  2-N , 10-C ) :   0.9274 B(  3-C ,  4-C ) :   1.6465 B(  3-C , 14-H ) :   0.8801
B(  4-C ,  5-N ) :   1.1372 B(  4-C , 15-H ) :   0.8791 B(  5-N ,  6-C ) :   0.9218
B(  6-C ,  7-H ) :   0.9064 B(  6-C ,  8-H ) :   0.8842 B(  6-C ,  9-H ) :   0.8974
B( 10-C , 11-H ) :   0.9206 B( 10-C , 12-H ) :   0.8950 B( 10-C , 13-H ) :   0.8956
B( 16-C , 17-H ) :   0.9000 B( 16-C , 18-H ) :   0.9053 B( 16-C , 19-H ) :   0.9072
B( 16-C , 20-H ) :   0.3862

Dispersion correction           -0.011125760
FINAL SINGLE POINT ENERGY     -1104.384496200229
Dispersion correction            ... done

DIPOLE MOMENT
-------------
                                X             Y             Z
Electronic contribution:      8.41574      -7.64792      -4.45046
Nuclear contribution   :     -7.35446       6.76948       4.04902
                        -----------------------------------------
Total Dipole Moment    :      1.06128      -0.87844      -0.40144
                        -----------------------------------------
Magnitude (a.u.)       :      1.43497
Magnitude (Debye)      :      3.64739

Rotational constants in cm-1:     0.051594     0.028943     0.022309
Rotational constants in MHz :  1546.734484   867.701682   668.810731

                             ****ORCA TERMINATED NORMALLY****
TOTAL RUN TIME: 0 days 0 hours 4 minutes 20 seconds 838 msec
