                         Program Version 5.0.3 -  RELEASE  -
|  1> ! EnGrad PBEh-3c
|  2> %output
|  3> xyzfile=True
|  4> end
|  5> %scf
|  6> maxiter 250
|  7> end
|  8> %output
|  9> Print[P_Hirshfeld] = 1
| 10> end
| 11> % maxcore
| 12> 4000
| 13> *xyz 1 1
| 14> Sc   1.24639977  -0.68221283  -1.91328934
| 15> C    0.39732990  -0.60504375   0.22981800
| 16> N   -0.44866813  -1.36684215   0.95232501
| 17> C   -0.78865700  -0.76301315   2.13294555
| 18> C   -0.12973403   0.41398517   2.16952230
| 19> N    0.59089630   0.48719059   1.00833394
| 20> C    1.41190873   1.60992967   0.62359791
| 21> H    1.44716024   2.32762824   1.44664047
| 22> H    1.01283088   2.12114037  -0.25000043
| 23> H    2.43378433   1.28977510   0.42219229
| 24> C   -0.96766098  -2.65284041   0.54996526
| 25> H   -0.60500071  -2.92308561  -0.43777577
| 26> H   -2.05617995  -2.63499578   0.50474923
| 27> H   -0.65264848  -3.42134094   1.25520777
| 28> H   -1.45274090  -1.22212806   2.84871465
| 29> H   -0.10784515   1.18049055   2.93205230
| 30> C   -0.21357490   1.41783429  -2.83491443
| 31> H   -0.84547017   1.50836453  -3.71176370
| 32> H    0.47785749   2.26756643  -2.90539561
| 33> H   -0.87392762   1.60972100  -1.98930054
| 34> H    0.13137165   0.04744679  -3.03650061
| 35> *
| 36>
| 37>                          ****END OF INPUT****

CARTESIAN COORDINATES (ANGSTROEM)
---------------------------------
  Sc     1.246400   -0.682213   -1.913289
  C      0.397330   -0.605044    0.229818
  N     -0.448668   -1.366842    0.952325
  C     -0.788657   -0.763013    2.132946
  C     -0.129734    0.413985    2.169522
  N      0.590896    0.487191    1.008334
  C      1.411909    1.609930    0.623598
  H      1.447160    2.327628    1.446640
  H      1.012831    2.121140   -0.250000
  H      2.433784    1.289775    0.422192
  C     -0.967661   -2.652840    0.549965
  H     -0.605001   -2.923086   -0.437776
  H     -2.056180   -2.634996    0.504749
  H     -0.652648   -3.421341    1.255208
  H     -1.452741   -1.222128    2.848715
  H     -0.107845    1.180491    2.932052
  C     -0.213575    1.417834   -2.834914
  H     -0.845470    1.508365   -3.711764
  H      0.477857    2.267566   -2.905396
  H     -0.873928    1.609721   -1.989301
  H      0.131372    0.047447   -3.036501

 Total Charge           Charge          ....    1
 Multiplicity           Mult            ....    1
 Number of Electrons    NEL             ....   82
 Basis Dimension        Dim             ....  175

ORBITAL ENERGIES
----------------

  NO   OCC          E(Eh)            E(eV)
   0   2.0000    -162.805867     -4430.1729
   1   2.0000     -18.107946      -492.7423
   2   2.0000     -14.951268      -406.8447
   3   2.0000     -14.941419      -406.5767
   4   2.0000     -14.938095      -406.4862
   5   2.0000     -14.852915      -404.1684
   6   2.0000     -14.851182      -404.1212
   7   2.0000     -10.632388      -289.3220
   8   2.0000     -10.620239      -288.9914
   9   2.0000     -10.618621      -288.9474
  10   2.0000     -10.617791      -288.9248
  11   2.0000     -10.616371      -288.8861
  12   2.0000     -10.557690      -287.2894
  13   2.0000      -2.342519       -63.7432
  14   2.0000      -1.503728       -40.9185
  15   2.0000      -1.491242       -40.5788
  16   2.0000      -1.476079       -40.1661
  17   2.0000      -1.301334       -35.4111
  18   2.0000      -1.180939       -32.1350
  19   2.0000      -1.019781       -27.7496
  20   2.0000      -0.973523       -26.4909
  21   2.0000      -0.921560       -25.0769
  22   2.0000      -0.883663       -24.0457
  23   2.0000      -0.833975       -22.6936
  24   2.0000      -0.798265       -21.7219
  25   2.0000      -0.744317       -20.2539
  26   2.0000      -0.696493       -18.9525
  27   2.0000      -0.669276       -18.2119
  28   2.0000      -0.654139       -17.8000
  29   2.0000      -0.650462       -17.7000
  30   2.0000      -0.644318       -17.5328
  31   2.0000      -0.598945       -16.2981
  32   2.0000      -0.592925       -16.1343
  33   2.0000      -0.586258       -15.9529
  34   2.0000      -0.576634       -15.6910
  35   2.0000      -0.565409       -15.3856
  36   2.0000      -0.542114       -14.7517
  37   2.0000      -0.501459       -13.6454
  38   2.0000      -0.478565       -13.0224
  39   2.0000      -0.426427       -11.6037
  40   2.0000      -0.292554        -7.9608
  41   0.0000      -0.177597        -4.8327
  42   0.0000      -0.149735        -4.0745
  43   0.0000      -0.135963        -3.6998
  44   0.0000      -0.123862        -3.3705
  45   0.0000      -0.117534        -3.1983

MULLIKEN ATOMIC CHARGES
-----------------------
   0 Sc:    0.642141
   1 C :    0.201497
   2 N :   -0.420486
   3 C :   -0.072543
   4 C :   -0.066965
   5 N :   -0.412978
   6 C :   -0.540165
   7 H :    0.281432
   8 H :    0.270155
   9 H :    0.255947
  10 C :   -0.511264
  11 H :    0.229206
  12 H :    0.276993
  13 H :    0.274606
  14 H :    0.297902
  15 H :    0.298551
  16 C :   -0.927039
  17 H :    0.287258
  18 H :    0.242317
  19 H :    0.253590
  20 H :    0.139846
Sum of atomic charges:    1.0000000

LOEWDIN ATOMIC CHARGES
----------------------
   0 Sc:    0.364335
   1 C :   -0.028324
   2 N :   -0.005493
   3 C :   -0.091742
   4 C :   -0.081847
   5 N :   -0.006023
   6 C :   -0.241308
   7 H :    0.159399
   8 H :    0.148768
   9 H :    0.146359
  10 C :   -0.234165
  11 H :    0.137909
  12 H :    0.153598
  13 H :    0.152204
  14 H :    0.166415
  15 H :    0.166500
  16 C :   -0.520303
  17 H :    0.155227
  18 H :    0.144862
  19 H :    0.146569
  20 H :    0.167059

  Mayer bond orders larger than 0.100000
B(  0-Sc,  1-C ) :   0.6642 B(  0-Sc, 16-C ) :   0.4917 B(  0-Sc, 20-H ) :   0.5224
B(  1-C ,  2-N ) :   1.2201 B(  1-C ,  5-N ) :   1.2147 B(  2-N ,  3-C ) :   1.1408
B(  2-N , 10-C ) :   0.9261 B(  3-C ,  4-C ) :   1.6490 B(  3-C , 14-H ) :   0.8805
B(  4-C ,  5-N ) :   1.1351 B(  4-C , 15-H ) :   0.8798 B(  5-N ,  6-C ) :   0.9208
B(  6-C ,  7-H ) :   0.9057 B(  6-C ,  8-H ) :   0.8854 B(  6-C ,  9-H ) :   0.8938
B( 10-C , 11-H ) :   0.9193 B( 10-C , 12-H ) :   0.8957 B( 10-C , 13-H ) :   0.8957
B( 16-C , 17-H ) :   0.8911 B( 16-C , 18-H ) :   0.8994 B( 16-C , 19-H ) :   0.9019
B( 16-C , 20-H ) :   0.4326

Dispersion correction           -0.011119121
FINAL SINGLE POINT ENERGY     -1104.394720481389
Dispersion correction            ... done

DIPOLE MOMENT
-------------
                                X             Y             Z
Electronic contribution:      8.27142      -7.10603      -4.36310
Nuclear contribution   :     -7.35475       6.48235       4.01040
                        -----------------------------------------
Total Dipole Moment    :      0.91668      -0.62368      -0.35269
                        -----------------------------------------
Magnitude (a.u.)       :      1.16347
Magnitude (Debye)      :      2.95731

Rotational constants in cm-1:     0.052746     0.029114     0.022471
Rotational constants in MHz :  1581.291205   872.827189   673.656572

                             ****ORCA TERMINATED NORMALLY****
TOTAL RUN TIME: 0 days 0 hours 4 minutes 17 seconds 898 msec
