                         Program Version 5.0.3 -  RELEASE  -
|  1> ! EnGrad PBEh-3c
|  2> %output
|  3> xyzfile=True
|  4> end
|  5> %scf
|  6> maxiter 250
|  7> end
|  8> %output
|  9> Print[P_Hirshfeld] = 1
| 10> end
| 11> % maxcore
| 12> 4000
| 13> *xyz 1 1
| 14> Sc   1.23643552  -0.47281101  -1.90274083
| 15> C    0.37921319  -0.60221901   0.22283076
| 16> N   -0.45660314  -1.36695387   0.93944918
| 17> C   -0.78220767  -0.77108472   2.13193710
| 18> C   -0.13074184   0.40750877   2.16677310
| 19> N    0.57925891   0.48335728   0.99957796
| 20> C    1.42001009   1.60140743   0.62271226
| 21> H    1.46313047   2.32256848   1.44129353
| 22> H    0.99830462   2.10893286  -0.23978624
| 23> H    2.44711349   1.28279872   0.40571416
| 24> C   -0.97043619  -2.66108654   0.55349184
| 25> H   -0.58704173  -2.91939141  -0.42650254
| 26> H   -2.05479987  -2.62050669   0.50466447
| 27> H   -0.66001218  -3.43426486   1.25691135
| 28> H   -1.46551150  -1.20454391   2.84787031
| 29> H   -0.11581066   1.19217242   2.91290539
| 30> C   -0.15225209   1.28410120  -2.77899386
| 31> H   -0.77171061   1.43105995  -3.62334209
| 32> H    0.46642770   2.20397307  -2.87899580
| 33> H   -0.85909234   1.58974413  -2.00200489
| 34> H    0.02561287   0.15883631  -3.15644779
| 35> *
| 36>
| 37>                          ****END OF INPUT****

CARTESIAN COORDINATES (ANGSTROEM)
---------------------------------
  Sc     1.236436   -0.472811   -1.902741
  C      0.379213   -0.602219    0.222831
  N     -0.456603   -1.366954    0.939449
  C     -0.782208   -0.771085    2.131937
  C     -0.130742    0.407509    2.166773
  N      0.579259    0.483357    0.999578
  C      1.420010    1.601407    0.622712
  H      1.463130    2.322568    1.441294
  H      0.998305    2.108933   -0.239786
  H      2.447113    1.282799    0.405714
  C     -0.970436   -2.661087    0.553492
  H     -0.587042   -2.919391   -0.426503
  H     -2.054800   -2.620507    0.504664
  H     -0.660012   -3.434265    1.256911
  H     -1.465512   -1.204544    2.847870
  H     -0.115811    1.192172    2.912905
  C     -0.152252    1.284101   -2.778994
  H     -0.771711    1.431060   -3.623342
  H      0.466428    2.203973   -2.878996
  H     -0.859092    1.589744   -2.002005
  H      0.025613    0.158836   -3.156448

 Total Charge           Charge          ....    1
 Multiplicity           Mult            ....    1
 Number of Electrons    NEL             ....   82
 Basis Dimension        Dim             ....  175

ORBITAL ENERGIES
----------------

  NO   OCC          E(Eh)            E(eV)
   0   2.0000    -162.809699     -4430.2771
   1   2.0000     -18.113918      -492.9048
   2   2.0000     -14.956676      -406.9918
   3   2.0000     -14.946234      -406.7077
   4   2.0000     -14.945370      -406.6842
   5   2.0000     -14.859596      -404.3502
   6   2.0000     -14.859396      -404.3447
   7   2.0000     -10.635009      -289.3933
   8   2.0000     -10.626376      -289.1584
   9   2.0000     -10.626314      -289.1567
  10   2.0000     -10.622617      -289.0561
  11   2.0000     -10.616315      -288.8846
  12   2.0000     -10.571297      -287.6596
  13   2.0000      -2.345008       -63.8109
  14   2.0000      -1.503549       -40.9137
  15   2.0000      -1.493940       -40.6522
  16   2.0000      -1.478551       -40.2334
  17   2.0000      -1.309695       -35.6386
  18   2.0000      -1.187007       -32.3001
  19   2.0000      -1.025376       -27.9019
  20   2.0000      -0.980447       -26.6793
  21   2.0000      -0.938190       -25.5294
  22   2.0000      -0.925205       -25.1761
  23   2.0000      -0.841005       -22.8849
  24   2.0000      -0.802955       -21.8495
  25   2.0000      -0.749440       -20.3933
  26   2.0000      -0.703502       -19.1433
  27   2.0000      -0.673453       -18.3256
  28   2.0000      -0.659945       -17.9580
  29   2.0000      -0.655066       -17.8252
  30   2.0000      -0.649816       -17.6824
  31   2.0000      -0.646046       -17.5798
  32   2.0000      -0.602450       -16.3935
  33   2.0000      -0.596539       -16.2326
  34   2.0000      -0.591534       -16.0965
  35   2.0000      -0.585899       -15.9431
  36   2.0000      -0.568558       -15.4712
  37   2.0000      -0.508075       -13.8254
  38   2.0000      -0.484475       -13.1832
  39   2.0000      -0.433211       -11.7883
  40   2.0000      -0.290432        -7.9031
  41   0.0000      -0.168441        -4.5835
  42   0.0000      -0.154747        -4.2109
  43   0.0000      -0.130676        -3.5559
  44   0.0000      -0.126315        -3.4372
  45   0.0000      -0.114907        -3.1268

MULLIKEN ATOMIC CHARGES
-----------------------
   0 Sc:    0.539024
   1 C :    0.182415
   2 N :   -0.420692
   3 C :   -0.069048
   4 C :   -0.066738
   5 N :   -0.402615
   6 C :   -0.547155
   7 H :    0.287543
   8 H :    0.261744
   9 H :    0.272134
  10 C :   -0.513711
  11 H :    0.245923
  12 H :    0.274540
  13 H :    0.275376
  14 H :    0.301158
  15 H :    0.300771
  16 C :   -1.053162
  17 H :    0.330894
  18 H :    0.276671
  19 H :    0.288506
  20 H :    0.236421
Sum of atomic charges:    1.0000000

LOEWDIN ATOMIC CHARGES
----------------------
   0 Sc:    0.203140
   1 C :   -0.034769
   2 N :    0.002874
   3 C :   -0.087006
   4 C :   -0.080914
   5 N :   -0.001741
   6 C :   -0.240443
   7 H :    0.160911
   8 H :    0.145235
   9 H :    0.156427
  10 C :   -0.234277
  11 H :    0.145869
  12 H :    0.153175
  13 H :    0.153628
  14 H :    0.168605
  15 H :    0.167588
  16 C :   -0.521100
  17 H :    0.175897
  18 H :    0.174279
  19 H :    0.173833
  20 H :    0.218787

  Mayer bond orders larger than 0.100000
B(  0-Sc,  1-C ) :   0.6232 B(  0-Sc, 16-C ) :   0.4115 B(  0-Sc, 20-H ) :   0.4016
B(  1-C ,  2-N ) :   1.2440 B(  1-C ,  5-N ) :   1.2198 B(  2-N ,  3-C ) :   1.1472
B(  2-N , 10-C ) :   0.9193 B(  3-C ,  4-C ) :   1.6442 B(  3-C , 14-H ) :   0.8791
B(  4-C ,  5-N ) :   1.1392 B(  4-C , 15-H ) :   0.8786 B(  5-N ,  6-C ) :   0.9120
B(  6-C ,  7-H ) :   0.9000 B(  6-C ,  8-H ) :   0.8902 B(  6-C ,  9-H ) :   0.8857
B( 10-C , 11-H ) :   0.9150 B( 10-C , 12-H ) :   0.8974 B( 10-C , 13-H ) :   0.8956
B( 16-C , 17-H ) :   0.8570 B( 16-C , 18-H ) :   0.8681 B( 16-C , 19-H ) :   0.8808
B( 16-C , 20-H ) :   0.5488

Dispersion correction           -0.011202946
FINAL SINGLE POINT ENERGY     -1104.405293693839
Dispersion correction            ... done

DIPOLE MOMENT
-------------
                                X             Y             Z
Electronic contribution:      7.68436      -5.42368      -3.99058
Nuclear contribution   :     -7.34333       5.46877       3.90852
                        -----------------------------------------
Total Dipole Moment    :      0.34103       0.04509      -0.08206
                        -----------------------------------------
Magnitude (a.u.)       :      0.35365
Magnitude (Debye)      :      0.89890

Rotational constants in cm-1:     0.056391     0.029485     0.022794
Rotational constants in MHz :  1690.545593   883.923849   683.332406

                             ****ORCA TERMINATED NORMALLY****
TOTAL RUN TIME: 0 days 0 hours 4 minutes 15 seconds 56 msec
