                         Program Version 5.0.3 -  RELEASE  -
|  1> ! EnGrad PBEh-3c
|  2> %output
|  3> xyzfile=True
|  4> end
|  5> %scf
|  6> maxiter 250
|  7> end
|  8> %output
|  9> Print[P_Hirshfeld] = 1
| 10> end
| 11> % maxcore
| 12> 4000
| 13> *xyz 0 1
| 14> C   -1.74741906   0.17737071  -0.26873472
| 15> C   -1.75964777  -0.73178186  -1.31140215
| 16> C   -1.17926152  -1.97481948  -1.14193417
| 17> C   -0.49206647  -2.26496577   0.02159666
| 18> C   -1.17400042  -0.18277660   0.93399056
| 19> C   -0.46011419  -1.35494823   1.06093414
| 20> H   -2.29217666   1.09937793  -0.45205186
| 21> H   -2.31316993  -0.52329665  -2.22045567
| 22> H   -1.29041128  -2.72796321  -1.90918031
| 23> H    0.10403834  -1.63567369   1.94607118
| 24> H   -0.03739628  -3.24330269   0.13913838
| 25> Pd   1.40423778   1.17269975  -0.00562450
| 26> O    2.71053203   0.93591242  -1.57718910
| 27> O    2.63115676  -0.47252218   0.04489909
| 28> O    0.34183880   2.89648739   0.00242329
| 29> C    0.11727952   3.00684267   1.21936352
| 30> O    0.63012782   2.15750528   2.01401176
| 31> H   -1.57898122   0.80591506   2.52806730
| 32> C    3.07794811  -0.15630454  -1.08592215
| 33> H    3.85806034  -0.76949364  -1.54602090
| 34> H   -0.55057113   3.78572732   1.60802679
| 35> *
| 36>
| 37>                          ****END OF INPUT****

CARTESIAN COORDINATES (ANGSTROEM)
---------------------------------
  C     -1.747419    0.177371   -0.268735
  C     -1.759648   -0.731782   -1.311402
  C     -1.179262   -1.974819   -1.141934
  C     -0.492066   -2.264966    0.021597
  C     -1.174000   -0.182777    0.933991
  C     -0.460114   -1.354948    1.060934
  H     -2.292177    1.099378   -0.452052
  H     -2.313170   -0.523297   -2.220456
  H     -1.290411   -2.727963   -1.909180
  H      0.104038   -1.635674    1.946071
  H     -0.037396   -3.243303    0.139138
  Pd     1.404238    1.172700   -0.005625
  O      2.710532    0.935912   -1.577189
  O      2.631157   -0.472522    0.044899
  O      0.341839    2.896487    0.002423
  C      0.117280    3.006843    1.219364
  O      0.630128    2.157505    2.014012
  H     -1.578981    0.805915    2.528067
  C      3.077948   -0.156305   -1.085922
  H      3.858060   -0.769494   -1.546021
  H     -0.550571    3.785727    1.608027

 Total Charge           Charge          ....    0
 Multiplicity           Mult            ....    1
 Number of Electrons    NEL             ....  106
 Basis Dimension        Dim             ....  227

ORBITAL ENERGIES
----------------

  NO   OCC          E(Eh)            E(eV)
   0   2.0000     -19.542045      -531.7661
   1   2.0000     -19.541160      -531.7420
   2   2.0000     -19.526754      -531.3500
   3   2.0000     -19.495578      -530.5016
   4   2.0000     -10.599730      -288.4333
   5   2.0000     -10.574537      -287.7478
   6   2.0000     -10.508803      -285.9591
   7   2.0000     -10.465917      -284.7921
   8   2.0000     -10.463977      -284.7393
   9   2.0000     -10.461339      -284.6675
  10   2.0000     -10.460300      -284.6392
  11   2.0000     -10.457095      -284.5520
  12   2.0000      -3.697490      -100.6138
  13   2.0000      -2.351694       -63.9928
  14   2.0000      -2.336637       -63.5831
  15   2.0000      -2.305645       -62.7398
  16   2.0000      -1.246967       -33.9317
  17   2.0000      -1.214716       -33.0541
  18   2.0000      -1.128095       -30.6970
  19   2.0000      -1.090804       -29.6823
  20   2.0000      -0.975727       -26.5509
  21   2.0000      -0.855762       -23.2865
  22   2.0000      -0.845112       -22.9967
  23   2.0000      -0.708891       -19.2899
  24   2.0000      -0.692206       -18.8359
  25   2.0000      -0.683891       -18.6096
  26   2.0000      -0.682634       -18.5754
  27   2.0000      -0.601899       -16.3785
  28   2.0000      -0.593626       -16.1534
  29   2.0000      -0.578677       -15.7466
  30   2.0000      -0.570904       -15.5351
  31   2.0000      -0.544314       -14.8115
  32   2.0000      -0.536608       -14.6018
  33   2.0000      -0.529487       -14.4081
  34   2.0000      -0.522316       -14.2129
  35   2.0000      -0.516017       -14.0415
  36   2.0000      -0.495420       -13.4811
  37   2.0000      -0.454449       -12.3662
  38   2.0000      -0.446698       -12.1553
  39   2.0000      -0.446182       -12.1412
  40   2.0000      -0.422665       -11.5013
  41   2.0000      -0.414898       -11.2900
  42   2.0000      -0.411841       -11.2068
  43   2.0000      -0.398525       -10.8444
  44   2.0000      -0.391108       -10.6426
  45   2.0000      -0.368489       -10.0271
  46   2.0000      -0.367740       -10.0067
  47   2.0000      -0.346207        -9.4208
  48   2.0000      -0.340028        -9.2526
  49   2.0000      -0.333669        -9.0796
  50   2.0000      -0.322019        -8.7626
  51   2.0000      -0.308377        -8.3914
  52   2.0000      -0.297105        -8.0846
  53   0.0000      -0.107352        -2.9212
  54   0.0000      -0.038140        -1.0378
  55   0.0000       0.005657         0.1539
  56   0.0000       0.009350         0.2544
  57   0.0000       0.015441         0.4202

MULLIKEN ATOMIC CHARGES
-----------------------
   0 C :   -0.249421
   1 C :   -0.214363
   2 C :   -0.227701
   3 C :   -0.213023
   4 C :   -0.102928
   5 C :   -0.248413
   6 H :    0.247100
   7 H :    0.234307
   8 H :    0.228778
   9 H :    0.256724
  10 H :    0.231988
  11 Pd:    0.557951
  12 O :   -0.450155
  13 O :   -0.451108
  14 O :   -0.456051
  15 C :    0.385999
  16 O :   -0.460527
  17 H :    0.090515
  18 C :    0.427635
  19 H :    0.213612
  20 H :    0.199079
Sum of atomic charges:    0.0000000

LOEWDIN ATOMIC CHARGES
----------------------
   0 C :   -0.129242
   1 C :   -0.124350
   2 C :   -0.132543
   3 C :   -0.122195
   4 C :   -0.041696
   5 C :   -0.124042
   6 H :    0.155676
   7 H :    0.143751
   8 H :    0.139397
   9 H :    0.159814
  10 H :    0.143295
  11 Pd:   -0.101667
  12 O :   -0.130676
  13 O :   -0.133469
  14 O :   -0.131348
  15 C :    0.140230
  16 O :   -0.218771
  17 H :    0.092838
  18 C :    0.171147
  19 H :    0.127013
  20 H :    0.116838

  Mayer bond orders larger than 0.100000
B(  0-C ,  1-C ) :   1.4120 B(  0-C ,  4-C ) :   1.4108 B(  0-C ,  6-H ) :   0.9083
B(  1-C ,  2-C ) :   1.4294 B(  1-C ,  7-H ) :   0.9123 B(  2-C ,  3-C ) :   1.4285
B(  2-C ,  8-H ) :   0.9168 B(  3-C ,  5-C ) :   1.4119 B(  3-C , 10-H ) :   0.9136
B(  4-C ,  5-C ) :   1.4295 B(  4-C , 17-H ) :   0.8679 B(  5-C ,  9-H ) :   0.9041
B( 11-Pd, 12-O ) :   0.5703 B( 11-Pd, 13-O ) :   0.5839 B( 11-Pd, 14-O ) :   0.6025
B( 11-Pd, 16-O ) :   0.4085 B( 12-O , 13-O ) :   0.1130 B( 12-O , 18-C ) :   1.4768
B( 13-O , 18-C ) :   1.4454 B( 14-O , 15-C ) :   1.4177 B( 14-O , 16-O ) :   0.1071
B( 15-C , 16-O ) :   1.5871 B( 15-C , 20-H ) :   0.8836 B( 18-C , 19-H ) :   0.8873

Dispersion correction           -0.013651262
FINAL SINGLE POINT ENERGY      -736.990114830241
Dispersion correction            ... done

DIPOLE MOMENT
-------------
                                X             Y             Z
Electronic contribution:     53.28859      44.06131      -1.13073
Nuclear contribution   :    -53.54361     -44.80877       0.54794
                        -----------------------------------------
Total Dipole Moment    :     -0.25501      -0.74746      -0.58279
                        -----------------------------------------
Magnitude (a.u.)       :      0.98152
Magnitude (Debye)      :      2.49483

Rotational constants in cm-1:     0.027880     0.019234     0.014307
Rotational constants in MHz :   835.811705   576.632609   428.903903

                             ****ORCA TERMINATED NORMALLY****
TOTAL RUN TIME: 0 days 0 hours 3 minutes 53 seconds 772 msec
