                         Program Version 5.0.3 -  RELEASE  -
|  1> ! EnGrad PBEh-3c
|  2> %output
|  3> xyzfile=True
|  4> end
|  5> %scf
|  6> maxiter 250
|  7> end
|  8> %output
|  9> Print[P_Hirshfeld] = 1
| 10> end
| 11> % maxcore
| 12> 4000
| 13> *xyz 0 1
| 14> C   -1.64624432   0.21418613  -0.34808352
| 15> C   -2.05553037  -0.83244144  -1.16838900
| 16> C   -1.71017645  -2.16716242  -0.93662065
| 17> C   -0.79544417  -2.36019535   0.09727227
| 18> C   -0.90309007  -0.07502688   0.77785382
| 19> C   -0.38221464  -1.33869341   0.93536845
| 20> H   -1.88017532   1.22491078  -0.66799130
| 21> H   -2.69741423  -0.64768453  -2.02255085
| 22> H   -2.13480592  -3.02434093  -1.53771072
| 23> H    0.36717651  -1.56359658   1.67859889
| 24> H   -0.44591666  -3.37201359   0.25801094
| 25> Pd   1.41417379   1.10539880   0.02762172
| 26> O    3.21311933   1.32663091  -1.29061706
| 27> O    2.59060030  -0.45925009  -0.19546166
| 28> O    0.43495508   2.77768604   0.09584931
| 29> C    0.04725420   2.93351843   1.32566460
| 30> O    0.43647915   2.16640276   2.20148971
| 31> H   -0.87302902   0.58542561   1.61069444
| 32> C    3.38482004   0.12938258  -0.99534787
| 33> H    4.28371644  -0.38989019  -1.35962940
| 34> H   -0.65816496   3.75871272   1.51097238
| 35> *
| 36>
| 37>                          ****END OF INPUT****

CARTESIAN COORDINATES (ANGSTROEM)
---------------------------------
  C     -1.646244    0.214186   -0.348084
  C     -2.055530   -0.832441   -1.168389
  C     -1.710176   -2.167162   -0.936621
  C     -0.795444   -2.360195    0.097272
  C     -0.903090   -0.075027    0.777854
  C     -0.382215   -1.338693    0.935368
  H     -1.880175    1.224911   -0.667991
  H     -2.697414   -0.647685   -2.022551
  H     -2.134806   -3.024341   -1.537711
  H      0.367177   -1.563597    1.678599
  H     -0.445917   -3.372014    0.258011
  Pd     1.414174    1.105399    0.027622
  O      3.213119    1.326631   -1.290617
  O      2.590600   -0.459250   -0.195462
  O      0.434955    2.777686    0.095849
  C      0.047254    2.933518    1.325665
  O      0.436479    2.166403    2.201490
  H     -0.873029    0.585426    1.610694
  C      3.384820    0.129383   -0.995348
  H      4.283716   -0.389890   -1.359629
  H     -0.658165    3.758713    1.510972

 Total Charge           Charge          ....    0
 Multiplicity           Mult            ....    1
 Number of Electrons    NEL             ....  106
 Basis Dimension        Dim             ....  227

ORBITAL ENERGIES
----------------

  NO   OCC          E(Eh)            E(eV)
   0   2.0000     -19.534723      -531.5668
   1   2.0000     -19.524742      -531.2952
   2   2.0000     -19.520389      -531.1768
   3   2.0000     -19.486855      -530.2643
   4   2.0000     -10.590624      -288.1855
   5   2.0000     -10.570494      -287.6378
   6   2.0000     -10.475800      -285.0610
   7   2.0000     -10.471235      -284.9368
   8   2.0000     -10.467557      -284.8367
   9   2.0000     -10.465431      -284.7789
  10   2.0000     -10.464288      -284.7478
  11   2.0000     -10.463111      -284.7157
  12   2.0000      -3.694877      -100.5427
  13   2.0000      -2.353231       -64.0347
  14   2.0000      -2.327291       -63.3288
  15   2.0000      -2.308803       -62.8257
  16   2.0000      -1.229732       -33.4627
  17   2.0000      -1.199119       -32.6297
  18   2.0000      -1.118860       -30.4457
  19   2.0000      -1.093448       -29.7542
  20   2.0000      -0.978999       -26.6399
  21   2.0000      -0.861502       -23.4427
  22   2.0000      -0.854488       -23.2518
  23   2.0000      -0.700794       -19.0696
  24   2.0000      -0.698773       -19.0146
  25   2.0000      -0.696757       -18.9597
  26   2.0000      -0.679780       -18.4977
  27   2.0000      -0.611988       -16.6530
  28   2.0000      -0.594108       -16.1665
  29   2.0000      -0.571200       -15.5432
  30   2.0000      -0.562063       -15.2945
  31   2.0000      -0.544366       -14.8130
  32   2.0000      -0.534090       -14.5333
  33   2.0000      -0.531254       -14.4561
  34   2.0000      -0.528528       -14.3820
  35   2.0000      -0.516961       -14.0672
  36   2.0000      -0.496110       -13.4998
  37   2.0000      -0.491236       -13.3672
  38   2.0000      -0.459176       -12.4948
  39   2.0000      -0.445031       -12.1099
  40   2.0000      -0.420123       -11.4321
  41   2.0000      -0.410248       -11.1634
  42   2.0000      -0.408777       -11.1234
  43   2.0000      -0.401881       -10.9357
  44   2.0000      -0.392793       -10.6884
  45   2.0000      -0.380484       -10.3535
  46   2.0000      -0.373667       -10.1680
  47   2.0000      -0.359447        -9.7811
  48   2.0000      -0.346075        -9.4172
  49   2.0000      -0.335061        -9.1175
  50   2.0000      -0.331582        -9.0228
  51   2.0000      -0.308464        -8.3937
  52   2.0000      -0.305680        -8.3180
  53   0.0000      -0.114200        -3.1075
  54   0.0000      -0.007855        -0.2137
  55   0.0000       0.002324         0.0632
  56   0.0000       0.022800         0.6204
  57   0.0000       0.040213         1.0942

MULLIKEN ATOMIC CHARGES
-----------------------
   0 C :   -0.182814
   1 C :   -0.238252
   2 C :   -0.200203
   3 C :   -0.235178
   4 C :   -0.421842
   5 C :   -0.172325
   6 H :    0.255694
   7 H :    0.229322
   8 H :    0.235398
   9 H :    0.259582
  10 H :    0.229050
  11 Pd:    0.625180
  12 O :   -0.429937
  13 O :   -0.489743
  14 O :   -0.510277
  15 C :    0.350627
  16 O :   -0.436970
  17 H :    0.331710
  18 C :    0.404142
  19 H :    0.204818
  20 H :    0.192018
Sum of atomic charges:    0.0000000

LOEWDIN ATOMIC CHARGES
----------------------
   0 C :   -0.103047
   1 C :   -0.127423
   2 C :   -0.113460
   3 C :   -0.123903
   4 C :   -0.134353
   5 C :   -0.096176
   6 H :    0.160015
   7 H :    0.139213
   8 H :    0.146881
   9 H :    0.160855
  10 H :    0.139629
  11 Pd:   -0.054970
  12 O :   -0.156865
  13 O :   -0.149963
  14 O :   -0.165990
  15 C :    0.125956
  16 O :   -0.226696
  17 H :    0.185560
  18 C :    0.161146
  19 H :    0.120969
  20 H :    0.112622

  Mayer bond orders larger than 0.100000
B(  0-C ,  1-C ) :   1.4393 B(  0-C ,  4-C ) :   1.3402 B(  0-C ,  6-H ) :   0.9039
B(  1-C ,  2-C ) :   1.4068 B(  1-C ,  7-H ) :   0.9163 B(  2-C ,  3-C ) :   1.4121
B(  2-C ,  8-H ) :   0.9148 B(  3-C ,  5-C ) :   1.4375 B(  3-C , 10-H ) :   0.9159
B(  4-C ,  5-C ) :   1.3696 B(  4-C , 11-Pd) :   0.1344 B(  4-C , 17-H ) :   0.8333
B(  5-C ,  9-H ) :   0.9035 B( 11-Pd, 12-O ) :   0.4652 B( 11-Pd, 13-O ) :   0.6003
B( 11-Pd, 14-O ) :   0.6632 B( 11-Pd, 16-O ) :   0.1939 B( 12-O , 13-O ) :   0.1141
B( 12-O , 18-C ) :   1.5952 B( 13-O , 18-C ) :   1.3776 B( 14-O , 15-C ) :   1.2820
B( 14-O , 16-O ) :   0.1031 B( 15-C , 16-O ) :   1.7782 B( 15-C , 20-H ) :   0.8786
B( 18-C , 19-H ) :   0.8849

Dispersion correction           -0.013455782
FINAL SINGLE POINT ENERGY      -737.113303293365
Dispersion correction            ... done

DIPOLE MOMENT
-------------
                                X             Y             Z
Electronic contribution:     53.19978      40.14939      -0.67621
Nuclear contribution   :    -53.80173     -41.15279       0.17452
                        -----------------------------------------
Total Dipole Moment    :     -0.60196      -1.00341      -0.50169
                        -----------------------------------------
Magnitude (a.u.)       :      1.27313
Magnitude (Debye)      :      3.23605

Rotational constants in cm-1:     0.029487     0.017469     0.013171
Rotational constants in MHz :   884.008786   523.704234   394.843904

                             ****ORCA TERMINATED NORMALLY****
TOTAL RUN TIME: 0 days 0 hours 4 minutes 29 seconds 417 msec
