                         Program Version 5.0.3 -  RELEASE  -
|  1> ! EnGrad PBEh-3c
|  2> %output
|  3> xyzfile=True
|  4> end
|  5> %scf
|  6> maxiter 250
|  7> end
|  8> %output
|  9> Print[P_Hirshfeld] = 1
| 10> end
| 11> % maxcore
| 12> 4000
| 13> *xyz 0 1
| 14> C   -1.65155651   0.20884052  -0.38843694
| 15> C   -2.09495370  -0.84690185  -1.16451060
| 16> C   -1.76410308  -2.17223193  -0.90199785
| 17> C   -0.82980194  -2.38796374   0.10179113
| 18> C   -0.87156709  -0.09395969   0.72427009
| 19> C   -0.37166434  -1.37324384   0.91571394
| 20> H   -1.84553011   1.23204120  -0.67217167
| 21> H   -2.72846444  -0.64998250  -1.99425230
| 22> H   -2.20105662  -3.01955299  -1.47831061
| 23> H    0.38302963  -1.55150494   1.66247510
| 24> H   -0.48125880  -3.37278775   0.27495246
| 25> Pd   1.41605358   1.09733235   0.00846829
| 26> O    3.24905692   1.36086192  -1.24555373
| 27> O    2.60021432  -0.45819122  -0.22627485
| 28> O    0.43769152   2.77093795   0.10772413
| 29> C    0.05073613   2.92212242   1.33955820
| 30> O    0.42109219   2.18154829   2.22413070
| 31> H   -0.79814163   0.57888546   1.52995176
| 32> C    3.41759486   0.15942887  -0.98608242
| 33> H    4.31897685  -0.35362622  -1.33476317
| 34> H   -0.66737699   3.75817677   1.49948731
| 35> *
| 36>
| 37>                          ****END OF INPUT****

CARTESIAN COORDINATES (ANGSTROEM)
---------------------------------
  C     -1.651557    0.208841   -0.388437
  C     -2.094954   -0.846902   -1.164511
  C     -1.764103   -2.172232   -0.901998
  C     -0.829802   -2.387964    0.101791
  C     -0.871567   -0.093960    0.724270
  C     -0.371664   -1.373244    0.915714
  H     -1.845530    1.232041   -0.672172
  H     -2.728464   -0.649982   -1.994252
  H     -2.201057   -3.019553   -1.478311
  H      0.383030   -1.551505    1.662475
  H     -0.481259   -3.372788    0.274952
  Pd     1.416054    1.097332    0.008468
  O      3.249057    1.360862   -1.245554
  O      2.600214   -0.458191   -0.226275
  O      0.437692    2.770938    0.107724
  C      0.050736    2.922122    1.339558
  O      0.421092    2.181548    2.224131
  H     -0.798142    0.578885    1.529952
  C      3.417595    0.159429   -0.986082
  H      4.318977   -0.353626   -1.334763
  H     -0.667377    3.758177    1.499487

 Total Charge           Charge          ....    0
 Multiplicity           Mult            ....    1
 Number of Electrons    NEL             ....  106
 Basis Dimension        Dim             ....  227

ORBITAL ENERGIES
----------------

  NO   OCC          E(Eh)            E(eV)
   0   2.0000     -19.533853      -531.5431
   1   2.0000     -19.525900      -531.3268
   2   2.0000     -19.516779      -531.0785
   3   2.0000     -19.484049      -530.1879
   4   2.0000     -10.590408      -288.1797
   5   2.0000     -10.566733      -287.5354
   6   2.0000     -10.476111      -285.0695
   7   2.0000     -10.472793      -284.9792
   8   2.0000     -10.469689      -284.8947
   9   2.0000     -10.464847      -284.7630
  10   2.0000     -10.464227      -284.7461
  11   2.0000     -10.462144      -284.6894
  12   2.0000      -3.694414      -100.5301
  13   2.0000      -2.352410       -64.0123
  14   2.0000      -2.327274       -63.3284
  15   2.0000      -2.308322       -62.8126
  16   2.0000      -1.230402       -33.4809
  17   2.0000      -1.199363       -32.6363
  18   2.0000      -1.119424       -30.4611
  19   2.0000      -1.095734       -29.8164
  20   2.0000      -0.981007       -26.6946
  21   2.0000      -0.862199       -23.4616
  22   2.0000      -0.860355       -23.4115
  23   2.0000      -0.704638       -19.1742
  24   2.0000      -0.701809       -19.0972
  25   2.0000      -0.699155       -19.0250
  26   2.0000      -0.674073       -18.3425
  27   2.0000      -0.616898       -16.7866
  28   2.0000      -0.594233       -16.1699
  29   2.0000      -0.569486       -15.4965
  30   2.0000      -0.561863       -15.2891
  31   2.0000      -0.549553       -14.9541
  32   2.0000      -0.534935       -14.5563
  33   2.0000      -0.531951       -14.4751
  34   2.0000      -0.528415       -14.3789
  35   2.0000      -0.518195       -14.1008
  36   2.0000      -0.503412       -13.6985
  37   2.0000      -0.491312       -13.3693
  38   2.0000      -0.459966       -12.5163
  39   2.0000      -0.444399       -12.0927
  40   2.0000      -0.421120       -11.4592
  41   2.0000      -0.416126       -11.3234
  42   2.0000      -0.410793       -11.1782
  43   2.0000      -0.402674       -10.9573
  44   2.0000      -0.393142       -10.6979
  45   2.0000      -0.377780       -10.2799
  46   2.0000      -0.372894       -10.1470
  47   2.0000      -0.358802        -9.7635
  48   2.0000      -0.346224        -9.4212
  49   2.0000      -0.334906        -9.1132
  50   2.0000      -0.330065        -8.9815
  51   2.0000      -0.312724        -8.5096
  52   2.0000      -0.306954        -8.3526
  53   0.0000      -0.114689        -3.1209
  54   0.0000      -0.009117        -0.2481
  55   0.0000       0.001050         0.0286
  56   0.0000       0.022762         0.6194
  57   0.0000       0.045939         1.2501

MULLIKEN ATOMIC CHARGES
-----------------------
   0 C :   -0.179938
   1 C :   -0.238154
   2 C :   -0.195377
   3 C :   -0.235369
   4 C :   -0.441303
   5 C :   -0.166508
   6 H :    0.259202
   7 H :    0.231925
   8 H :    0.234859
   9 H :    0.260748
  10 H :    0.232148
  11 Pd:    0.620168
  12 O :   -0.426719
  13 O :   -0.493750
  14 O :   -0.514559
  15 C :    0.342178
  16 O :   -0.423971
  17 H :    0.342324
  18 C :    0.403933
  19 H :    0.205226
  20 H :    0.182936
Sum of atomic charges:    0.0000000

LOEWDIN ATOMIC CHARGES
----------------------
   0 C :   -0.097804
   1 C :   -0.127427
   2 C :   -0.107317
   3 C :   -0.124316
   4 C :   -0.135973
   5 C :   -0.090825
   6 H :    0.161377
   7 H :    0.139752
   8 H :    0.146567
   9 H :    0.161484
  10 H :    0.140224
  11 Pd:   -0.058482
  12 O :   -0.151765
  13 O :   -0.153993
  14 O :   -0.171775
  15 C :    0.113469
  16 O :   -0.218881
  17 H :    0.186063
  18 C :    0.161185
  19 H :    0.120850
  20 H :    0.107585

  Mayer bond orders larger than 0.100000
B(  0-C ,  1-C ) :   1.4410 B(  0-C ,  4-C ) :   1.3394 B(  0-C ,  6-H ) :   0.9019
B(  1-C ,  2-C ) :   1.4068 B(  1-C ,  7-H ) :   0.9158 B(  2-C ,  3-C ) :   1.4128
B(  2-C ,  8-H ) :   0.9162 B(  3-C ,  5-C ) :   1.4386 B(  3-C , 10-H ) :   0.9150
B(  4-C ,  5-C ) :   1.3676 B(  4-C , 11-Pd) :   0.1497 B(  4-C , 17-H ) :   0.8187
B(  5-C ,  9-H ) :   0.9032 B( 11-Pd, 12-O ) :   0.4616 B( 11-Pd, 13-O ) :   0.6020
B( 11-Pd, 14-O ) :   0.6654 B( 11-Pd, 16-O ) :   0.1703 B( 12-O , 13-O ) :   0.1141
B( 12-O , 18-C ) :   1.6022 B( 13-O , 18-C ) :   1.3725 B( 14-O , 15-C ) :   1.2714
B( 14-O , 16-O ) :   0.1024 B( 15-C , 16-O ) :   1.8102 B( 15-C , 20-H ) :   0.8774
B( 18-C , 19-H ) :   0.8852

Dispersion correction           -0.013424022
FINAL SINGLE POINT ENERGY      -737.116035135947
Dispersion correction            ... done

DIPOLE MOMENT
-------------
                                X             Y             Z
Electronic contribution:     53.28920      39.69956      -1.64076
Nuclear contribution   :    -53.88952     -40.81788       1.07539
                        -----------------------------------------
Total Dipole Moment    :     -0.60032      -1.11832      -0.56537
                        -----------------------------------------
Magnitude (a.u.)       :      1.38948
Magnitude (Debye)      :      3.53179

Rotational constants in cm-1:     0.029613     0.017200     0.013015
Rotational constants in MHz :   887.775906   515.631332   390.190736

                             ****ORCA TERMINATED NORMALLY****
TOTAL RUN TIME: 0 days 0 hours 3 minutes 55 seconds 387 msec
