                         Program Version 5.0.3 -  RELEASE  -
|  1> ! EnGrad PBEh-3c
|  2> %output
|  3> xyzfile=True
|  4> end
|  5> %scf
|  6> maxiter 250
|  7> end
|  8> %output
|  9> Print[P_Hirshfeld] = 1
| 10> end
| 11> % maxcore
| 12> 4000
| 13> *xyz 0 1
| 14> C   -1.64972406   0.19769062  -0.42384777
| 15> C   -2.13508590  -0.86308929  -1.16290294
| 16> C   -1.81784997  -2.17930902  -0.86852242
| 17> C   -0.86492180  -2.41595578   0.10533870
| 18> C   -0.83627644  -0.11036953   0.66999066
| 19> C   -0.36437897  -1.40039527   0.89197357
| 20> H   -1.81404229   1.23996545  -0.67732534
| 21> H   -2.76950277  -0.65085992  -1.97741259
| 22> H   -2.26577231  -3.00966396  -1.41600697
| 23> H    0.39851223  -1.54266667   1.64789838
| 24> H   -0.51358668  -3.39014558   0.29309062
| 25> Pd   1.41584833   1.09164153  -0.00858045
| 26> O    3.27976910   1.39781188  -1.20038632
| 27> O    2.61086326  -0.45886295  -0.26353186
| 28> O    0.43588244   2.76479582   0.11764165
| 29> C    0.05303702   2.91593165   1.34929459
| 30> O    0.40389949   2.19556251   2.25404549
| 31> H   -0.71741812   0.58326728   1.45712191
| 32> C    3.45470551   0.18751194  -0.96742195
| 33> H    4.35593057  -0.31967410  -1.31272299
| 34> H   -0.67174717   3.75432923   1.48719947
| 35> *
| 36>
| 37>                          ****END OF INPUT****

CARTESIAN COORDINATES (ANGSTROEM)
---------------------------------
  C     -1.649724    0.197691   -0.423848
  C     -2.135086   -0.863089   -1.162903
  C     -1.817850   -2.179309   -0.868522
  C     -0.864922   -2.415956    0.105339
  C     -0.836276   -0.110370    0.669991
  C     -0.364379   -1.400395    0.891974
  H     -1.814042    1.239965   -0.677325
  H     -2.769503   -0.650860   -1.977413
  H     -2.265772   -3.009664   -1.416007
  H      0.398512   -1.542667    1.647898
  H     -0.513587   -3.390146    0.293091
  Pd     1.415848    1.091642   -0.008580
  O      3.279769    1.397812   -1.200386
  O      2.610863   -0.458863   -0.263532
  O      0.435882    2.764796    0.117642
  C      0.053037    2.915932    1.349295
  O      0.403899    2.195563    2.254045
  H     -0.717418    0.583267    1.457122
  C      3.454706    0.187512   -0.967422
  H      4.355931   -0.319674   -1.312723
  H     -0.671747    3.754329    1.487199

 Total Charge           Charge          ....    0
 Multiplicity           Mult            ....    1
 Number of Electrons    NEL             ....  106
 Basis Dimension        Dim             ....  227

ORBITAL ENERGIES
----------------

  NO   OCC          E(Eh)            E(eV)
   0   2.0000     -19.534334      -531.5563
   1   2.0000     -19.526391      -531.3401
   2   2.0000     -19.516443      -531.0694
   3   2.0000     -19.481450      -530.1172
   4   2.0000     -10.591042      -288.1969
   5   2.0000     -10.564499      -287.4746
   6   2.0000     -10.475826      -285.0617
   7   2.0000     -10.475289      -285.0471
   8   2.0000     -10.472529      -284.9720
   9   2.0000     -10.466045      -284.7956
  10   2.0000     -10.465128      -284.7706
  11   2.0000     -10.463427      -284.7243
  12   2.0000      -3.694777      -100.5400
  13   2.0000      -2.352348       -64.0106
  14   2.0000      -2.328168       -63.3527
  15   2.0000      -2.308432       -62.8156
  16   2.0000      -1.229692       -33.4616
  17   2.0000      -1.197245       -32.5787
  18   2.0000      -1.118605       -30.4388
  19   2.0000      -1.096990       -29.8506
  20   2.0000      -0.983171       -26.7534
  21   2.0000      -0.863892       -23.5077
  22   2.0000      -0.863610       -23.5000
  23   2.0000      -0.707230       -19.2447
  24   2.0000      -0.704691       -19.1756
  25   2.0000      -0.700576       -19.0636
  26   2.0000      -0.671412       -18.2701
  27   2.0000      -0.619832       -16.8665
  28   2.0000      -0.593878       -16.1602
  29   2.0000      -0.568646       -15.4736
  30   2.0000      -0.561293       -15.2736
  31   2.0000      -0.551801       -15.0153
  32   2.0000      -0.536756       -14.6059
  33   2.0000      -0.531747       -14.4696
  34   2.0000      -0.527387       -14.3509
  35   2.0000      -0.518928       -14.1208
  36   2.0000      -0.507292       -13.8041
  37   2.0000      -0.490772       -13.3546
  38   2.0000      -0.460810       -12.5393
  39   2.0000      -0.443432       -12.0664
  40   2.0000      -0.421636       -11.4733
  41   2.0000      -0.419596       -11.4178
  42   2.0000      -0.412055       -11.2126
  43   2.0000      -0.403051       -10.9676
  44   2.0000      -0.393915       -10.7190
  45   2.0000      -0.376284       -10.2392
  46   2.0000      -0.373042       -10.1510
  47   2.0000      -0.358107        -9.7446
  48   2.0000      -0.346028        -9.4159
  49   2.0000      -0.335459        -9.1283
  50   2.0000      -0.329179        -8.9574
  51   2.0000      -0.315645        -8.5891
  52   2.0000      -0.309004        -8.4084
  53   0.0000      -0.115692        -3.1481
  54   0.0000      -0.009659        -0.2628
  55   0.0000      -0.000928        -0.0253
  56   0.0000       0.021936         0.5969
  57   0.0000       0.048590         1.3222

MULLIKEN ATOMIC CHARGES
-----------------------
   0 C :   -0.179845
   1 C :   -0.237971
   2 C :   -0.190342
   3 C :   -0.235864
   4 C :   -0.453539
   5 C :   -0.163130
   6 H :    0.261082
   7 H :    0.233836
   8 H :    0.235325
   9 H :    0.260966
  10 H :    0.233995
  11 Pd:    0.614370
  12 O :   -0.429778
  13 O :   -0.492362
  14 O :   -0.514481
  15 C :    0.337950
  16 O :   -0.421340
  17 H :    0.352356
  18 C :    0.404514
  19 H :    0.206774
  20 H :    0.177484
Sum of atomic charges:    0.0000000

LOEWDIN ATOMIC CHARGES
----------------------
   0 C :   -0.092999
   1 C :   -0.127597
   2 C :   -0.102774
   3 C :   -0.124736
   4 C :   -0.139626
   5 C :   -0.085988
   6 H :    0.162983
   7 H :    0.140861
   8 H :    0.146003
   9 H :    0.162454
  10 H :    0.141379
  11 Pd:   -0.063506
  12 O :   -0.154326
  13 O :   -0.154188
  14 O :   -0.172554
  15 C :    0.107847
  16 O :   -0.222694
  17 H :    0.190238
  18 C :    0.163554
  19 H :    0.121392
  20 H :    0.104276

  Mayer bond orders larger than 0.100000
B(  0-C ,  1-C ) :   1.4396 B(  0-C ,  4-C ) :   1.3378 B(  0-C ,  6-H ) :   0.9003
B(  1-C ,  2-C ) :   1.4080 B(  1-C ,  7-H ) :   0.9158 B(  2-C ,  3-C ) :   1.4137
B(  2-C ,  8-H ) :   0.9168 B(  3-C ,  5-C ) :   1.4367 B(  3-C , 10-H ) :   0.9149
B(  4-C ,  5-C ) :   1.3645 B(  4-C , 11-Pd) :   0.1657 B(  4-C , 17-H ) :   0.8016
B(  5-C ,  9-H ) :   0.9032 B( 11-Pd, 12-O ) :   0.4650 B( 11-Pd, 13-O ) :   0.5981
B( 11-Pd, 14-O ) :   0.6644 B( 11-Pd, 16-O ) :   0.1517 B( 12-O , 13-O ) :   0.1144
B( 12-O , 18-C ) :   1.5949 B( 13-O , 18-C ) :   1.3792 B( 14-O , 15-C ) :   1.2704
B( 14-O , 16-O ) :   0.1033 B( 15-C , 16-O ) :   1.8253 B( 15-C , 20-H ) :   0.8770
B( 18-C , 19-H ) :   0.8847

Dispersion correction           -0.013378861
FINAL SINGLE POINT ENERGY      -737.117376619788
Dispersion correction            ... done

DIPOLE MOMENT
-------------
                                X             Y             Z
Electronic contribution:     53.29512      39.36657      -2.51014
Nuclear contribution   :    -53.89426     -40.58456       1.88064
                        -----------------------------------------
Total Dipole Moment    :     -0.59914      -1.21799      -0.62950
                        -----------------------------------------
Magnitude (a.u.)       :      1.49624
Magnitude (Debye)      :      3.80315

Rotational constants in cm-1:     0.029696     0.016934     0.012856
Rotational constants in MHz :   890.261984   507.657480   385.417658

                             ****ORCA TERMINATED NORMALLY****
TOTAL RUN TIME: 0 days 0 hours 3 minutes 51 seconds 587 msec
