                         Program Version 5.0.3 -  RELEASE  -
|  1> ! EnGrad PBEh-3c
|  2> %output
|  3> xyzfile=True
|  4> end
|  5> %scf
|  6> maxiter 250
|  7> end
|  8> %output
|  9> Print[P_Hirshfeld] = 1
| 10> end
| 11> % maxcore
| 12> 4000
| 13> *xyz 0 1
| 14> C   -1.63770907   0.18069555  -0.46754337
| 15> C   -2.19190980  -0.88066380  -1.15886983
| 16> C   -1.89228522  -2.18864802  -0.82120926
| 17> C   -0.91182657  -2.45262410   0.11699103
| 18> C   -0.78211098  -0.13010591   0.59328265
| 19> C   -0.35459157  -1.42964084   0.85570127
| 20> H   -1.77304191   1.24539240  -0.68666482
| 21> H   -2.84153480  -0.65258115  -1.96647939
| 22> H   -2.36299377  -2.99963117  -1.32938892
| 23> H    0.41623729  -1.53528577   1.62386352
| 24> H   -0.55933682  -3.43368250   0.31937392
| 25> Pd   1.41624619   1.08547015  -0.03404614
| 26> O    3.32036154   1.44660803  -1.13180246
| 27> O    2.62767626  -0.46072189  -0.32030337
| 28> O    0.43044233   2.75482326   0.13468832
| 29> C    0.05634777   2.90871336   1.36079596
| 30> O    0.37822850   2.21997578   2.29603967
| 31> H   -0.59755888   0.59679262   1.35843314
| 32> C    3.50719146   0.23261896  -0.93706702
| 33> H    4.41338777  -0.27212365  -1.28318082
| 34> H   -0.67417136   3.74741309   1.46993297
| 35> *
| 36>
| 37>                          ****END OF INPUT****

CARTESIAN COORDINATES (ANGSTROEM)
---------------------------------
  C     -1.637709    0.180696   -0.467543
  C     -2.191910   -0.880664   -1.158870
  C     -1.892285   -2.188648   -0.821209
  C     -0.911827   -2.452624    0.116991
  C     -0.782111   -0.130106    0.593283
  C     -0.354592   -1.429641    0.855701
  H     -1.773042    1.245392   -0.686665
  H     -2.841535   -0.652581   -1.966479
  H     -2.362994   -2.999631   -1.329389
  H      0.416237   -1.535286    1.623864
  H     -0.559337   -3.433683    0.319374
  Pd     1.416246    1.085470   -0.034046
  O      3.320362    1.446608   -1.131802
  O      2.627676   -0.460722   -0.320303
  O      0.430442    2.754823    0.134688
  C      0.056348    2.908713    1.360796
  O      0.378228    2.219976    2.296040
  H     -0.597559    0.596793    1.358433
  C      3.507191    0.232619   -0.937067
  H      4.413388   -0.272124   -1.283181
  H     -0.674171    3.747413    1.469933

 Total Charge           Charge          ....    0
 Multiplicity           Mult            ....    1
 Number of Electrons    NEL             ....  106
 Basis Dimension        Dim             ....  227

ORBITAL ENERGIES
----------------

  NO   OCC          E(Eh)            E(eV)
   0   2.0000     -19.534013      -531.5475
   1   2.0000     -19.528535      -531.3984
   2   2.0000     -19.516987      -531.0842
   3   2.0000     -19.477603      -530.0125
   4   2.0000     -10.592435      -288.2348
   5   2.0000     -10.561029      -287.3802
   6   2.0000     -10.479040      -285.1492
   7   2.0000     -10.477043      -285.0948
   8   2.0000     -10.476267      -285.0737
   9   2.0000     -10.469293      -284.8839
  10   2.0000     -10.469055      -284.8775
  11   2.0000     -10.467838      -284.8444
  12   2.0000      -3.695958      -100.5721
  13   2.0000      -2.352775       -64.0223
  14   2.0000      -2.330306       -63.4108
  15   2.0000      -2.309164       -62.8355
  16   2.0000      -1.229600       -33.4591
  17   2.0000      -1.195998       -32.5448
  18   2.0000      -1.118598       -30.4386
  19   2.0000      -1.099962       -29.9315
  20   2.0000      -0.985554       -26.8183
  21   2.0000      -0.866295       -23.5731
  22   2.0000      -0.866041       -23.5662
  23   2.0000      -0.709410       -19.3040
  24   2.0000      -0.707326       -19.2473
  25   2.0000      -0.700385       -19.0585
  26   2.0000      -0.668888       -18.2014
  27   2.0000      -0.621645       -16.9158
  28   2.0000      -0.593197       -16.1417
  29   2.0000      -0.569002       -15.4833
  30   2.0000      -0.561062       -15.2673
  31   2.0000      -0.552091       -15.0232
  32   2.0000      -0.539866       -14.6905
  33   2.0000      -0.531452       -14.4616
  34   2.0000      -0.526107       -14.3161
  35   2.0000      -0.520199       -14.1553
  36   2.0000      -0.510103       -13.8806
  37   2.0000      -0.490523       -13.3478
  38   2.0000      -0.461763       -12.5652
  39   2.0000      -0.442222       -12.0335
  40   2.0000      -0.423152       -11.5146
  41   2.0000      -0.421893       -11.4803
  42   2.0000      -0.413658       -11.2562
  43   2.0000      -0.403728       -10.9860
  44   2.0000      -0.395487       -10.7618
  45   2.0000      -0.375697       -10.2232
  46   2.0000      -0.373352       -10.1594
  47   2.0000      -0.357611        -9.7311
  48   2.0000      -0.345335        -9.3970
  49   2.0000      -0.337088        -9.1726
  50   2.0000      -0.327763        -8.9189
  51   2.0000      -0.318678        -8.6717
  52   2.0000      -0.312251        -8.4968
  53   0.0000      -0.117060        -3.1854
  54   0.0000      -0.010554        -0.2872
  55   0.0000      -0.004049        -0.1102
  56   0.0000       0.021070         0.5734
  57   0.0000       0.051441         1.3998

MULLIKEN ATOMIC CHARGES
-----------------------
   0 C :   -0.179492
   1 C :   -0.238662
   2 C :   -0.187087
   3 C :   -0.237401
   4 C :   -0.462075
   5 C :   -0.157102
   6 H :    0.262999
   7 H :    0.235478
   8 H :    0.236943
   9 H :    0.260637
  10 H :    0.235620
  11 Pd:    0.602779
  12 O :   -0.428140
  13 O :   -0.492263
  14 O :   -0.510832
  15 C :    0.332424
  16 O :   -0.419347
  17 H :    0.363913
  18 C :    0.404148
  19 H :    0.207611
  20 H :    0.169847
Sum of atomic charges:    0.0000000

LOEWDIN ATOMIC CHARGES
----------------------
   0 C :   -0.087473
   1 C :   -0.127954
   2 C :   -0.098164
   3 C :   -0.125168
   4 C :   -0.143864
   5 C :   -0.080443
   6 H :    0.165228
   7 H :    0.143120
   8 H :    0.145289
   9 H :    0.163762
  10 H :    0.143723
  11 Pd:   -0.073933
  12 O :   -0.151050
  13 O :   -0.158809
  14 O :   -0.169361
  15 C :    0.098026
  16 O :   -0.228859
  17 H :    0.199434
  18 C :    0.165048
  19 H :    0.121879
  20 H :    0.099567

  Mayer bond orders larger than 0.100000
B(  0-C ,  1-C ) :   1.4322 B(  0-C ,  4-C ) :   1.3377 B(  0-C ,  6-H ) :   0.8985
B(  1-C ,  2-C ) :   1.4113 B(  1-C ,  7-H ) :   0.9163 B(  2-C ,  3-C ) :   1.4110
B(  2-C ,  8-H ) :   0.9167 B(  3-C ,  5-C ) :   1.4343 B(  3-C , 10-H ) :   0.9153
B(  4-C ,  5-C ) :   1.3578 B(  4-C , 11-Pd) :   0.1913 B(  4-C , 17-H ) :   0.7766
B(  5-C ,  9-H ) :   0.9033 B( 11-Pd, 12-O ) :   0.4658 B( 11-Pd, 13-O ) :   0.5965
B( 11-Pd, 14-O ) :   0.6602 B( 11-Pd, 16-O ) :   0.1296 B( 12-O , 13-O ) :   0.1144
B( 12-O , 18-C ) :   1.5933 B( 13-O , 18-C ) :   1.3808 B( 14-O , 15-C ) :   1.2765
B( 14-O , 16-O ) :   0.1048 B( 15-C , 16-O ) :   1.8415 B( 15-C , 20-H ) :   0.8770
B( 18-C , 19-H ) :   0.8833

Dispersion correction           -0.013296510
FINAL SINGLE POINT ENERGY      -737.117720878864
Dispersion correction            ... done

DIPOLE MOMENT
-------------
                                X             Y             Z
Electronic contribution:     53.32417      38.97761      -3.83370
Nuclear contribution   :    -53.91903     -40.30338       3.10663
                        -----------------------------------------
Total Dipole Moment    :     -0.59486      -1.32577      -0.72707
                        -----------------------------------------
Magnitude (a.u.)       :      1.62486
Magnitude (Debye)      :      4.13006

Rotational constants in cm-1:     0.029792     0.016585     0.012638
Rotational constants in MHz :   893.137841   497.191305   378.873736

                             ****ORCA TERMINATED NORMALLY****
TOTAL RUN TIME: 0 days 0 hours 3 minutes 52 seconds 346 msec
