                         Program Version 5.0.3 -  RELEASE  -
|  1> ! EnGrad PBEh-3c
|  2> %output
|  3> xyzfile=True
|  4> end
|  5> %scf
|  6> maxiter 250
|  7> end
|  8> %output
|  9> Print[P_Hirshfeld] = 1
| 10> end
| 11> % maxcore
| 12> 4000
| 13> *xyz 0 1
| 14> C   -1.75415732   0.21380448  -0.30842630
| 15> C   -1.80593484  -0.78108952  -1.31929734
| 16> C   -1.25914616  -2.01944688  -1.13303508
| 17> C   -0.53354343  -2.31365075   0.00197345
| 18> C   -1.14315580  -0.07183149   1.02718174
| 19> C   -0.42099079  -1.36905142   1.06424400
| 20> H   -2.22402140   1.11250457  -0.48319634
| 21> H   -2.37657211  -0.54476701  -2.19804253
| 22> H   -1.42112966  -2.77903393  -1.85804241
| 23> H    0.14041533  -1.62243228   1.89649097
| 24> H   -0.10147580  -3.27019431   0.15437713
| 25> Pd   1.40754652   1.19210449   0.07654485
| 26> O    2.77517720   0.98935668  -1.56918427
| 27> O    2.59184441  -0.47307870   0.00797249
| 28> O    0.36127478   2.89482230  -0.08591707
| 29> C    0.14661418   2.90551561   1.35798429
| 30> O    0.57086070   2.20090524   1.97338148
| 31> H   -1.47901636   0.76541575   2.39316793
| 32> C    3.16991721  -0.09994592  -1.05160716
| 33> H    3.92569219  -0.72364246  -1.54025673
| 34> H   -0.57118151   3.79101567   1.59345756
| 35> *
| 36>
| 37>                          ****END OF INPUT****

CARTESIAN COORDINATES (ANGSTROEM)
---------------------------------
  C     -1.754157    0.213804   -0.308426
  C     -1.805935   -0.781090   -1.319297
  C     -1.259146   -2.019447   -1.133035
  C     -0.533543   -2.313651    0.001973
  C     -1.143156   -0.071831    1.027182
  C     -0.420991   -1.369051    1.064244
  H     -2.224021    1.112505   -0.483196
  H     -2.376572   -0.544767   -2.198043
  H     -1.421130   -2.779034   -1.858042
  H      0.140415   -1.622432    1.896491
  H     -0.101476   -3.270194    0.154377
  Pd     1.407547    1.192104    0.076545
  O      2.775177    0.989357   -1.569184
  O      2.591844   -0.473079    0.007972
  O      0.361275    2.894822   -0.085917
  C      0.146614    2.905516    1.357984
  O      0.570861    2.200905    1.973381
  H     -1.479016    0.765416    2.393168
  C      3.169917   -0.099946   -1.051607
  H      3.925692   -0.723642   -1.540257
  H     -0.571182    3.791016    1.593458

 Total Charge           Charge          ....    0
 Multiplicity           Mult            ....    1
 Number of Electrons    NEL             ....  106
 Basis Dimension        Dim             ....  227

ORBITAL ENERGIES
----------------

  NO   OCC          E(Eh)            E(eV)
   0   2.0000     -19.547990      -531.9278
   1   2.0000     -19.523108      -531.2508
   2   2.0000     -19.518792      -531.1333
   3   2.0000     -19.491441      -530.3891
   4   2.0000     -10.585447      -288.0447
   5   2.0000     -10.580344      -287.9058
   6   2.0000     -10.526391      -286.4377
   7   2.0000     -10.476061      -285.0681
   8   2.0000     -10.475971      -285.0657
   9   2.0000     -10.463047      -284.7140
  10   2.0000     -10.462617      -284.7023
  11   2.0000     -10.458008      -284.5769
  12   2.0000      -3.681100      -100.1678
  13   2.0000      -2.336165       -63.5703
  14   2.0000      -2.317659       -63.0667
  15   2.0000      -2.293354       -62.4053
  16   2.0000      -1.334609       -36.3166
  17   2.0000      -1.218697       -33.1624
  18   2.0000      -1.100977       -29.9591
  19   2.0000      -1.051805       -28.6211
  20   2.0000      -0.954438       -25.9716
  21   2.0000      -0.845294       -23.0016
  22   2.0000      -0.836129       -22.7522
  23   2.0000      -0.694047       -18.8860
  24   2.0000      -0.691854       -18.8263
  25   2.0000      -0.681449       -18.5432
  26   2.0000      -0.674587       -18.3564
  27   2.0000      -0.611807       -16.6481
  28   2.0000      -0.597517       -16.2593
  29   2.0000      -0.584544       -15.9063
  30   2.0000      -0.578780       -15.7494
  31   2.0000      -0.572340       -15.5742
  32   2.0000      -0.549024       -14.9397
  33   2.0000      -0.536702       -14.6044
  34   2.0000      -0.519543       -14.1375
  35   2.0000      -0.513541       -13.9742
  36   2.0000      -0.492827       -13.4105
  37   2.0000      -0.461979       -12.5711
  38   2.0000      -0.436371       -11.8743
  39   2.0000      -0.431789       -11.7496
  40   2.0000      -0.412240       -11.2176
  41   2.0000      -0.406021       -11.0484
  42   2.0000      -0.402345       -10.9484
  43   2.0000      -0.388310       -10.5665
  44   2.0000      -0.380376       -10.3506
  45   2.0000      -0.366048        -9.9607
  46   2.0000      -0.359655        -9.7867
  47   2.0000      -0.356508        -9.7011
  48   2.0000      -0.338082        -9.1997
  49   2.0000      -0.324707        -8.8357
  50   2.0000      -0.317565        -8.6414
  51   2.0000      -0.299581        -8.1520
  52   2.0000      -0.293183        -7.9779
  53   0.0000      -0.096288        -2.6201
  54   0.0000      -0.022472        -0.6115
  55   0.0000      -0.000769        -0.0209
  56   0.0000       0.011878         0.3232
  57   0.0000       0.025787         0.7017

MULLIKEN ATOMIC CHARGES
-----------------------
   0 C :   -0.223071
   1 C :   -0.207486
   2 C :   -0.211879
   3 C :   -0.202785
   4 C :   -0.246252
   5 C :   -0.233265
   6 H :    0.253503
   7 H :    0.234696
   8 H :    0.231316
   9 H :    0.252114
  10 H :    0.233603
  11 Pd:    0.534723
  12 O :   -0.453318
  13 O :   -0.475978
  14 O :   -0.559921
  15 C :    0.308644
  16 O :   -0.193815
  17 H :    0.168247
  18 C :    0.411725
  19 H :    0.209634
  20 H :    0.169563
Sum of atomic charges:    0.0000000

LOEWDIN ATOMIC CHARGES
----------------------
   0 C :   -0.105304
   1 C :   -0.128745
   2 C :   -0.123661
   3 C :   -0.125553
   4 C :   -0.099680
   5 C :   -0.110400
   6 H :    0.150045
   7 H :    0.145414
   8 H :    0.140969
   9 H :    0.149275
  10 H :    0.144408
  11 Pd:   -0.140336
  12 O :   -0.161802
  13 O :   -0.158326
  14 O :   -0.276381
  15 C :    0.086413
  16 O :    0.066217
  17 H :    0.150527
  18 C :    0.170246
  19 H :    0.124488
  20 H :    0.102184

  Mayer bond orders larger than 0.100000
B(  0-C ,  1-C ) :   1.4324 B(  0-C ,  4-C ) :   1.3621 B(  0-C ,  6-H ) :   0.9071
B(  1-C ,  2-C ) :   1.4202 B(  1-C ,  7-H ) :   0.9131 B(  2-C ,  3-C ) :   1.4254
B(  2-C ,  8-H ) :   0.9151 B(  3-C ,  5-C ) :   1.4270 B(  3-C , 10-H ) :   0.9138
B(  4-C ,  5-C ) :   1.3844 B(  4-C , 17-H ) :   0.8984 B(  5-C ,  9-H ) :   0.9070
B( 11-Pd, 12-O ) :   0.5350 B( 11-Pd, 13-O ) :   0.5392 B( 11-Pd, 14-O ) :   0.8019
B( 11-Pd, 16-O ) :   0.2405 B( 12-O , 13-O ) :   0.1130 B( 12-O , 18-C ) :   1.5038
B( 13-O , 18-C ) :   1.4456 B( 14-O , 15-C ) :   1.0715 B( 15-C , 16-O ) :   2.0296
B( 15-C , 20-H ) :   0.8652 B( 18-C , 19-H ) :   0.8840

Dispersion correction           -0.013637734
FINAL SINGLE POINT ENERGY      -736.910766027678
Dispersion correction            ... done

DIPOLE MOMENT
-------------
                                X             Y             Z
Electronic contribution:     53.28314      44.64718       3.60884
Nuclear contribution   :    -53.70209     -45.54105      -3.19267
                        -----------------------------------------
Total Dipole Moment    :     -0.41895      -0.89387       0.41617
                        -----------------------------------------
Magnitude (a.u.)       :      1.07132
Magnitude (Debye)      :      2.72308

Rotational constants in cm-1:     0.027861     0.018799     0.014063
Rotational constants in MHz :   835.264865   563.594179   421.610554

                             ****ORCA TERMINATED NORMALLY****
TOTAL RUN TIME: 0 days 0 hours 4 minutes 6 seconds 94 msec
