                         Program Version 5.0.3 -  RELEASE  -
|  1> ! EnGrad PBEh-3c
|  2> %output
|  3> xyzfile=True
|  4> end
|  5> %scf
|  6> maxiter 250
|  7> end
|  8> %output
|  9> Print[P_Hirshfeld] = 1
| 10> end
| 11> % maxcore
| 12> 4000
| 13> *xyz 0 1
| 14> C   -1.74974841   0.18996546  -0.28245566
| 15> C   -1.77564870  -0.74882697  -1.31413143
| 16> C   -1.20687676  -1.99024668  -1.13885786
| 17> C   -0.50640460  -2.28179563   0.01481313
| 18> C   -1.16333778  -0.14442410   0.96620572
| 19> C   -0.44658966  -1.35982354   1.06207832
| 20> H   -2.26861614   1.10391567  -0.46281816
| 21> H   -2.33508736  -0.53071871  -2.21270770
| 22> H   -1.33559918  -2.74561779  -1.89150250
| 23> H    0.11661346  -1.63109628   1.92893185
| 24> H   -0.05954786  -3.25259883   0.14440625
| 25> Pd   1.40538158   1.17940775   0.02278053
| 26> O    2.73287915   0.95438751  -1.57442192
| 27> O    2.61756691  -0.47271457   0.03213397
| 28> O    0.34855760   2.89591178  -0.02811499
| 29> C    0.12742019   2.97181502   1.26728319
| 30> O    0.60963983   2.17250817   1.99996632
| 31> H   -1.54442447   0.79191490   2.48143408
| 32> C    3.10974081  -0.13682199  -1.07405984
| 33> H    3.88143992  -0.75364339  -1.54402829
| 34> H   -0.55769591   3.78755544   1.60299037
| 35> *
| 36>
| 37>                          ****END OF INPUT****

CARTESIAN COORDINATES (ANGSTROEM)
---------------------------------
  C     -1.749748    0.189965   -0.282456
  C     -1.775649   -0.748827   -1.314131
  C     -1.206877   -1.990247   -1.138858
  C     -0.506405   -2.281796    0.014813
  C     -1.163338   -0.144424    0.966206
  C     -0.446590   -1.359824    1.062078
  H     -2.268616    1.103916   -0.462818
  H     -2.335087   -0.530719   -2.212708
  H     -1.335599   -2.745618   -1.891503
  H      0.116613   -1.631096    1.928932
  H     -0.059548   -3.252599    0.144406
  Pd     1.405382    1.179408    0.022781
  O      2.732879    0.954388   -1.574422
  O      2.617567   -0.472715    0.032134
  O      0.348558    2.895912   -0.028115
  C      0.127420    2.971815    1.267283
  O      0.609640    2.172508    1.999966
  H     -1.544424    0.791915    2.481434
  C      3.109741   -0.136822   -1.074060
  H      3.881440   -0.753643   -1.544028
  H     -0.557696    3.787555    1.602990

 Total Charge           Charge          ....    0
 Multiplicity           Mult            ....    1
 Number of Electrons    NEL             ....  106
 Basis Dimension        Dim             ....  227

ORBITAL ENERGIES
----------------

  NO   OCC          E(Eh)            E(eV)
   0   2.0000     -19.536614      -531.6183
   1   2.0000     -19.534024      -531.5478
   2   2.0000     -19.515381      -531.0405
   3   2.0000     -19.511990      -530.9482
   4   2.0000     -10.595264      -288.3118
   5   2.0000     -10.575951      -287.7863
   6   2.0000     -10.515373      -286.1378
   7   2.0000     -10.468854      -284.8720
   8   2.0000     -10.467658      -284.8395
   9   2.0000     -10.461316      -284.6669
  10   2.0000     -10.460850      -284.6542
  11   2.0000     -10.457037      -284.5504
  12   2.0000      -3.693228      -100.4978
  13   2.0000      -2.347898       -63.8895
  14   2.0000      -2.331262       -63.4369
  15   2.0000      -2.302544       -62.6554
  16   2.0000      -1.238834       -33.7104
  17   2.0000      -1.223914       -33.3044
  18   2.0000      -1.120163       -30.4812
  19   2.0000      -1.099311       -29.9138
  20   2.0000      -0.967181       -26.3183
  21   2.0000      -0.851508       -23.1707
  22   2.0000      -0.842222       -22.9180
  23   2.0000      -0.704162       -19.1612
  24   2.0000      -0.691280       -18.8107
  25   2.0000      -0.682035       -18.5591
  26   2.0000      -0.677035       -18.4231
  27   2.0000      -0.596077       -16.2201
  28   2.0000      -0.593989       -16.1632
  29   2.0000      -0.573640       -15.6095
  30   2.0000      -0.568952       -15.4820
  31   2.0000      -0.543232       -14.7821
  32   2.0000      -0.537069       -14.6144
  33   2.0000      -0.526881       -14.3372
  34   2.0000      -0.523397       -14.2424
  35   2.0000      -0.519252       -14.1296
  36   2.0000      -0.494668       -13.4606
  37   2.0000      -0.455336       -12.3903
  38   2.0000      -0.446525       -12.1506
  39   2.0000      -0.440709       -11.9923
  40   2.0000      -0.417664       -11.3652
  41   2.0000      -0.414749       -11.2859
  42   2.0000      -0.410851       -11.1798
  43   2.0000      -0.394064       -10.7230
  44   2.0000      -0.388348       -10.5675
  45   2.0000      -0.371558       -10.1106
  46   2.0000      -0.368730       -10.0336
  47   2.0000      -0.349462        -9.5093
  48   2.0000      -0.343389        -9.3441
  49   2.0000      -0.333171        -9.0660
  50   2.0000      -0.331042        -9.0081
  51   2.0000      -0.305111        -8.3025
  52   2.0000      -0.297111        -8.0848
  53   0.0000      -0.103835        -2.8255
  54   0.0000      -0.031013        -0.8439
  55   0.0000       0.003732         0.1015
  56   0.0000       0.008096         0.2203
  57   0.0000       0.018812         0.5119

MULLIKEN ATOMIC CHARGES
-----------------------
   0 C :   -0.242431
   1 C :   -0.209920
   2 C :   -0.223338
   3 C :   -0.207556
   4 C :   -0.151818
   5 C :   -0.245839
   6 H :    0.249361
   7 H :    0.234176
   8 H :    0.229481
   9 H :    0.255114
  10 H :    0.232384
  11 Pd:    0.557473
  12 O :   -0.451593
  13 O :   -0.458785
  14 O :   -0.504866
  15 C :    0.381588
  16 O :   -0.388111
  17 H :    0.119284
  18 C :    0.423585
  19 H :    0.212217
  20 H :    0.189596
Sum of atomic charges:   -0.0000000

LOEWDIN ATOMIC CHARGES
----------------------
   0 C :   -0.122367
   1 C :   -0.126059
   2 C :   -0.129617
   3 C :   -0.123767
   4 C :   -0.061252
   5 C :   -0.120895
   6 H :    0.153671
   7 H :    0.144182
   8 H :    0.139800
   9 H :    0.155920
  10 H :    0.143634
  11 Pd:   -0.107522
  12 O :   -0.141401
  13 O :   -0.139946
  14 O :   -0.189633
  15 C :    0.132251
  16 O :   -0.132264
  17 H :    0.116596
  18 C :    0.170603
  19 H :    0.125974
  20 H :    0.112091

  Mayer bond orders larger than 0.100000
B(  0-C ,  1-C ) :   1.4204 B(  0-C ,  4-C ) :   1.3929 B(  0-C ,  6-H ) :   0.9084
B(  1-C ,  2-C ) :   1.4259 B(  1-C ,  7-H ) :   0.9129 B(  2-C ,  3-C ) :   1.4277
B(  2-C ,  8-H ) :   0.9163 B(  3-C ,  5-C ) :   1.4179 B(  3-C , 10-H ) :   0.9139
B(  4-C ,  5-C ) :   1.4134 B(  4-C , 17-H ) :   0.8834 B(  5-C ,  9-H ) :   0.9057
B( 11-Pd, 12-O ) :   0.5622 B( 11-Pd, 13-O ) :   0.5694 B( 11-Pd, 14-O ) :   0.6750
B( 11-Pd, 16-O ) :   0.3394 B( 12-O , 13-O ) :   0.1129 B( 12-O , 18-C ) :   1.4846
B( 13-O , 18-C ) :   1.4468 B( 14-O , 15-C ) :   1.2860 B( 14-O , 16-O ) :   0.1038
B( 15-C , 16-O ) :   1.7301 B( 15-C , 20-H ) :   0.8814 B( 18-C , 19-H ) :   0.8862

Dispersion correction           -0.013655495
FINAL SINGLE POINT ENERGY      -737.003667699682
Dispersion correction            ... done

DIPOLE MOMENT
-------------
                                X             Y             Z
Electronic contribution:     53.30121      44.25573       0.50175
Nuclear contribution   :    -53.59839     -45.06191      -0.74515
                        -----------------------------------------
Total Dipole Moment    :     -0.29718      -0.80618      -0.24340
                        -----------------------------------------
Magnitude (a.u.)       :      0.89302
Magnitude (Debye)      :      2.26989

Rotational constants in cm-1:     0.027886     0.019090     0.014225
Rotational constants in MHz :   836.000924   572.296894   426.447180

                             ****ORCA TERMINATED NORMALLY****
TOTAL RUN TIME: 0 days 0 hours 3 minutes 55 seconds 917 msec
