                         Program Version 5.0.3 -  RELEASE  -
|  1> ! EnGrad PBEh-3c
|  2> %output
|  3> xyzfile=True
|  4> end
|  5> %scf
|  6> maxiter 250
|  7> end
|  8> %output
|  9> Print[P_Hirshfeld] = 1
| 10> end
| 11> % maxcore
| 12> 4000
| 13> *xyz 0 1
| 14> C   -1.74116098   0.20076614  -0.29766125
| 15> C   -1.81184052  -0.77629533  -1.31139829
| 16> C   -1.26784511  -2.02546667  -1.12868828
| 17> C   -0.54011542  -2.30687136   0.00890155
| 18> C   -1.13702095  -0.07474218   1.01627850
| 19> C   -0.43059330  -1.35729142   1.05077687
| 20> H   -2.22072337   1.12216003  -0.49066523
| 21> H   -2.38543228  -0.54813717  -2.19739491
| 22> H   -1.43784176  -2.78743928  -1.85388802
| 23> H    0.15018934  -1.62440614   1.89700575
| 24> H   -0.10786718  -3.27780567   0.15592485
| 25> Pd   1.40730762   1.19229345   0.07056467
| 26> O    2.78689969   0.99329237  -1.56141547
| 27> O    2.59199623  -0.47471801   0.00552080
| 28> O    0.36145025   2.88929802  -0.05086574
| 29> C    0.11992509   2.95103606   1.29065040
| 30> O    0.59078472   2.16215622   2.01668190
| 31> H   -1.46679531   0.76100685   2.37708917
| 32> C    3.17175080  -0.08943469  -1.05249071
| 33> H    3.93517781  -0.71697777  -1.53726626
| 34> H   -0.56941234   3.78509226   1.59233897
| 35> *
| 36>
| 37>                          ****END OF INPUT****

CARTESIAN COORDINATES (ANGSTROEM)
---------------------------------
  C     -1.741161    0.200766   -0.297661
  C     -1.811841   -0.776295   -1.311398
  C     -1.267845   -2.025467   -1.128688
  C     -0.540115   -2.306871    0.008902
  C     -1.137021   -0.074742    1.016279
  C     -0.430593   -1.357291    1.050777
  H     -2.220723    1.122160   -0.490665
  H     -2.385432   -0.548137   -2.197395
  H     -1.437842   -2.787439   -1.853888
  H      0.150189   -1.624406    1.897006
  H     -0.107867   -3.277806    0.155925
  Pd     1.407308    1.192293    0.070565
  O      2.786900    0.993292   -1.561415
  O      2.591996   -0.474718    0.005521
  O      0.361450    2.889298   -0.050866
  C      0.119925    2.951036    1.290650
  O      0.590785    2.162156    2.016682
  H     -1.466795    0.761007    2.377089
  C      3.171751   -0.089435   -1.052491
  H      3.935178   -0.716978   -1.537266
  H     -0.569412    3.785092    1.592339

 Total Charge           Charge          ....    0
 Multiplicity           Mult            ....    1
 Number of Electrons    NEL             ....  106
 Basis Dimension        Dim             ....  227

ORBITAL ENERGIES
----------------

  NO   OCC          E(Eh)            E(eV)
   0   2.0000     -19.528237      -531.3903
   1   2.0000     -19.525470      -531.3151
   2   2.0000     -19.525415      -531.3136
   3   2.0000     -19.516718      -531.0769
   4   2.0000     -10.589653      -288.1591
   5   2.0000     -10.584675      -288.0237
   6   2.0000     -10.518761      -286.2300
   7   2.0000     -10.472649      -284.9753
   8   2.0000     -10.471542      -284.9452
   9   2.0000     -10.460810      -284.6531
  10   2.0000     -10.460395      -284.6418
  11   2.0000     -10.456316      -284.5308
  12   2.0000      -3.689083      -100.3850
  13   2.0000      -2.344639       -63.8009
  14   2.0000      -2.325447       -63.2786
  15   2.0000      -2.299707       -62.5782
  16   2.0000      -1.235565       -33.6214
  17   2.0000      -1.226076       -33.3632
  18   2.0000      -1.109305       -30.1857
  19   2.0000      -1.092021       -29.7154
  20   2.0000      -0.955530       -26.0013
  21   2.0000      -0.843277       -22.9467
  22   2.0000      -0.836347       -22.7581
  23   2.0000      -0.696673       -18.9574
  24   2.0000      -0.686617       -18.6838
  25   2.0000      -0.680838       -18.5265
  26   2.0000      -0.679239       -18.4830
  27   2.0000      -0.592994       -16.1362
  28   2.0000      -0.588488       -16.0136
  29   2.0000      -0.576558       -15.6889
  30   2.0000      -0.562215       -15.2987
  31   2.0000      -0.546685       -14.8761
  32   2.0000      -0.532333       -14.4855
  33   2.0000      -0.527587       -14.3564
  34   2.0000      -0.522464       -14.2170
  35   2.0000      -0.512626       -13.9493
  36   2.0000      -0.488124       -13.2825
  37   2.0000      -0.459483       -12.5032
  38   2.0000      -0.444551       -12.0969
  39   2.0000      -0.432996       -11.7824
  40   2.0000      -0.411403       -11.1949
  41   2.0000      -0.409621       -11.1464
  42   2.0000      -0.406893       -11.0721
  43   2.0000      -0.393696       -10.7130
  44   2.0000      -0.380113       -10.3434
  45   2.0000      -0.377774       -10.2797
  46   2.0000      -0.371444       -10.1075
  47   2.0000      -0.363274        -9.8852
  48   2.0000      -0.344068        -9.3626
  49   2.0000      -0.332093        -9.0367
  50   2.0000      -0.330415        -8.9910
  51   2.0000      -0.298997        -8.1361
  52   2.0000      -0.292489        -7.9590
  53   0.0000      -0.101408        -2.7595
  54   0.0000      -0.017378        -0.4729
  55   0.0000       0.003738         0.1017
  56   0.0000       0.017090         0.4650
  57   0.0000       0.023141         0.6297

MULLIKEN ATOMIC CHARGES
-----------------------
   0 C :   -0.235709
   1 C :   -0.205301
   2 C :   -0.218160
   3 C :   -0.200594
   4 C :   -0.228572
   5 C :   -0.239392
   6 H :    0.245950
   7 H :    0.233063
   8 H :    0.230347
   9 H :    0.250372
  10 H :    0.231800
  11 Pd:    0.565302
  12 O :   -0.446672
  13 O :   -0.471567
  14 O :   -0.521789
  15 C :    0.380837
  16 O :   -0.365959
  17 H :    0.178213
  18 C :    0.414428
  19 H :    0.210153
  20 H :    0.193252
Sum of atomic charges:    0.0000000

LOEWDIN ATOMIC CHARGES
----------------------
   0 C :   -0.114423
   1 C :   -0.131451
   2 C :   -0.125628
   3 C :   -0.127910
   4 C :   -0.096341
   5 C :   -0.112691
   6 H :    0.148946
   7 H :    0.144288
   8 H :    0.139878
   9 H :    0.150917
  10 H :    0.143962
  11 Pd:   -0.112675
  12 O :   -0.151388
  13 O :   -0.154347
  14 O :   -0.210897
  15 C :    0.147506
  16 O :   -0.105169
  17 H :    0.158996
  18 C :    0.168436
  19 H :    0.124867
  20 H :    0.115125

  Mayer bond orders larger than 0.100000
B(  0-C ,  1-C ) :   1.4312 B(  0-C ,  4-C ) :   1.3633 B(  0-C ,  6-H ) :   0.9096
B(  1-C ,  2-C ) :   1.4207 B(  1-C ,  7-H ) :   0.9137 B(  2-C ,  3-C ) :   1.4265
B(  2-C ,  8-H ) :   0.9150 B(  3-C ,  5-C ) :   1.4245 B(  3-C , 10-H ) :   0.9146
B(  4-C ,  5-C ) :   1.3887 B(  4-C , 17-H ) :   0.8953 B(  5-C ,  9-H ) :   0.9077
B( 11-Pd, 12-O ) :   0.5308 B( 11-Pd, 13-O ) :   0.5672 B( 11-Pd, 14-O ) :   0.7052
B( 11-Pd, 16-O ) :   0.3144 B( 12-O , 13-O ) :   0.1126 B( 12-O , 18-C ) :   1.5162
B( 13-O , 18-C ) :   1.4300 B( 14-O , 15-C ) :   1.2302 B( 14-O , 16-O ) :   0.1042
B( 15-C , 16-O ) :   1.7731 B( 15-C , 20-H ) :   0.8787 B( 18-C , 19-H ) :   0.8839

Dispersion correction           -0.013650421
FINAL SINGLE POINT ENERGY      -737.016147329158
Dispersion correction            ... done

DIPOLE MOMENT
-------------
                                X             Y             Z
Electronic contribution:     53.26083      44.86946       2.85579
Nuclear contribution   :    -53.67024     -45.56384      -2.82204
                        -----------------------------------------
Total Dipole Moment    :     -0.40940      -0.69439       0.03375
                        -----------------------------------------
Magnitude (a.u.)       :      0.80680
Magnitude (Debye)      :      2.05072

Rotational constants in cm-1:     0.027925     0.018787     0.014055
Rotational constants in MHz :   837.170330   563.230706   421.360530

                             ****ORCA TERMINATED NORMALLY****
TOTAL RUN TIME: 0 days 0 hours 4 minutes 24 seconds 998 msec
