                         Program Version 5.0.3 -  RELEASE  -
|  1> ! EnGrad PBEh-3c
|  2> %output
|  3> xyzfile=True
|  4> end
|  5> %scf
|  6> maxiter 250
|  7> end
|  8> %output
|  9> Print[P_Hirshfeld] = 1
| 10> end
| 11> % maxcore
| 12> 4000
| 13> *xyz 0 1
| 14> C   -1.70256769   0.20363722  -0.29412475
| 15> C   -1.88928809  -0.81254640  -1.28109390
| 16> C   -1.40545742  -2.09602443  -1.09341894
| 17> C   -0.61790730  -2.33282634   0.01940171
| 18> C   -1.07421077   0.02248565   1.06373016
| 19> C   -0.42198191  -1.32049411   1.01471546
| 20> H   -2.11816440   1.17391475  -0.56096002
| 21> H   -2.49955232  -0.58805184  -2.16351333
| 22> H   -1.67108085  -2.88956648  -1.77528531
| 23> H    0.23361798  -1.61488496   1.83207794
| 24> H   -0.21489694  -3.33819779   0.18245332
| 25> Pd   1.41495060   1.20341709   0.13264812
| 26> O    2.91873464   1.08783465  -1.51481086
| 27> O    2.55882685  -0.47354267  -0.05999646
| 28> O    0.38669482   2.86539208  -0.04238744
| 29> C    0.09500816   2.93786863   1.29213547
| 30> O    0.55200615   2.13471641   2.07139602
| 31> H   -1.28604723   0.68297962   2.12314674
| 32> C    3.27412806   0.00222840  -1.00575264
| 33> H    4.05691998  -0.62530122  -1.50908567
| 34> H   -0.59352413   3.77270736   1.56964406
| 35> *
| 36>
| 37>                          ****END OF INPUT****

CARTESIAN COORDINATES (ANGSTROEM)
---------------------------------
  C     -1.702568    0.203637   -0.294125
  C     -1.889288   -0.812546   -1.281094
  C     -1.405457   -2.096024   -1.093419
  C     -0.617907   -2.332826    0.019402
  C     -1.074211    0.022486    1.063730
  C     -0.421982   -1.320494    1.014715
  H     -2.118164    1.173915   -0.560960
  H     -2.499552   -0.588052   -2.163513
  H     -1.671081   -2.889566   -1.775285
  H      0.233618   -1.614885    1.832078
  H     -0.214897   -3.338198    0.182453
  Pd     1.414951    1.203417    0.132648
  O      2.918735    1.087835   -1.514811
  O      2.558827   -0.473543   -0.059996
  O      0.386695    2.865392   -0.042387
  C      0.095008    2.937869    1.292135
  O      0.552006    2.134716    2.071396
  H     -1.286047    0.682980    2.123147
  C      3.274128    0.002228   -1.005753
  H      4.056920   -0.625301   -1.509086
  H     -0.593524    3.772707    1.569644

 Total Charge           Charge          ....    0
 Multiplicity           Mult            ....    1
 Number of Electrons    NEL             ....  106
 Basis Dimension        Dim             ....  227

ORBITAL ENERGIES
----------------

  NO   OCC          E(Eh)            E(eV)
   0   2.0000     -19.530072      -531.4403
   1   2.0000     -19.529780      -531.4323
   2   2.0000     -19.521306      -531.2017
   3   2.0000     -19.517761      -531.1053
   4   2.0000     -10.595716      -288.3241
   5   2.0000     -10.585488      -288.0458
   6   2.0000     -10.506850      -285.9059
   7   2.0000     -10.480638      -285.1926
   8   2.0000     -10.478120      -285.1241
   9   2.0000     -10.463954      -284.7387
  10   2.0000     -10.463332      -284.7217
  11   2.0000     -10.460610      -284.6477
  12   2.0000      -3.689499      -100.3964
  13   2.0000      -2.346722       -63.8576
  14   2.0000      -2.323331       -63.2210
  15   2.0000      -2.301656       -62.6312
  16   2.0000      -1.222460       -33.2648
  17   2.0000      -1.215362       -33.0717
  18   2.0000      -1.102819       -30.0092
  19   2.0000      -1.098764       -29.8989
  20   2.0000      -0.947271       -25.7765
  21   2.0000      -0.836880       -22.7727
  22   2.0000      -0.831247       -22.6194
  23   2.0000      -0.693567       -18.8729
  24   2.0000      -0.684062       -18.6143
  25   2.0000      -0.681452       -18.5433
  26   2.0000      -0.677138       -18.4259
  27   2.0000      -0.589754       -16.0480
  28   2.0000      -0.586478       -15.9589
  29   2.0000      -0.574117       -15.6225
  30   2.0000      -0.558671       -15.2022
  31   2.0000      -0.543345       -14.7852
  32   2.0000      -0.538931       -14.6650
  33   2.0000      -0.523928       -14.2568
  34   2.0000      -0.515442       -14.0259
  35   2.0000      -0.504852       -13.7377
  36   2.0000      -0.482759       -13.1365
  37   2.0000      -0.472446       -12.8559
  38   2.0000      -0.445328       -12.1180
  39   2.0000      -0.434897       -11.8341
  40   2.0000      -0.417893       -11.3715
  41   2.0000      -0.405862       -11.0441
  42   2.0000      -0.400908       -10.9093
  43   2.0000      -0.396318       -10.7843
  44   2.0000      -0.391822       -10.6620
  45   2.0000      -0.381878       -10.3914
  46   2.0000      -0.373549       -10.1648
  47   2.0000      -0.357219        -9.7204
  48   2.0000      -0.345766        -9.4088
  49   2.0000      -0.333694        -9.0803
  50   2.0000      -0.332591        -9.0503
  51   2.0000      -0.291460        -7.9310
  52   2.0000      -0.290682        -7.9099
  53   0.0000      -0.104787        -2.8514
  54   0.0000      -0.017265        -0.4698
  55   0.0000       0.003921         0.1067
  56   0.0000       0.014751         0.4014
  57   0.0000       0.027368         0.7447

MULLIKEN ATOMIC CHARGES
-----------------------
   0 C :   -0.225798
   1 C :   -0.208393
   2 C :   -0.208828
   3 C :   -0.203298
   4 C :   -0.325538
   5 C :   -0.223222
   6 H :    0.237183
   7 H :    0.231978
   8 H :    0.233235
   9 H :    0.242710
  10 H :    0.230588
  11 Pd:    0.585488
  12 O :   -0.434904
  13 O :   -0.481882
  14 O :   -0.514948
  15 C :    0.390857
  16 O :   -0.399078
  17 H :    0.266656
  18 C :    0.397985
  19 H :    0.205814
  20 H :    0.203396
Sum of atomic charges:    0.0000000

LOEWDIN ATOMIC CHARGES
----------------------
   0 C :   -0.103228
   1 C :   -0.140971
   2 C :   -0.120591
   3 C :   -0.135551
   4 C :   -0.132071
   5 C :   -0.097715
   6 H :    0.145154
   7 H :    0.144297
   8 H :    0.141117
   9 H :    0.147992
  10 H :    0.144597
  11 Pd:   -0.101360
  12 O :   -0.161155
  13 O :   -0.167470
  14 O :   -0.194247
  15 C :    0.173367
  16 O :   -0.140347
  17 H :    0.192620
  18 C :    0.160650
  19 H :    0.123281
  20 H :    0.121632

  Mayer bond orders larger than 0.100000
B(  0-C ,  1-C ) :   1.4408 B(  0-C ,  4-C ) :   1.3267 B(  0-C ,  6-H ) :   0.9108
B(  1-C ,  2-C ) :   1.4094 B(  1-C ,  7-H ) :   0.9145 B(  2-C ,  3-C ) :   1.4249
B(  2-C ,  8-H ) :   0.9123 B(  3-C ,  5-C ) :   1.4237 B(  3-C , 10-H ) :   0.9155
B(  4-C ,  5-C ) :   1.3651 B(  4-C , 17-H ) :   0.8892 B(  5-C ,  9-H ) :   0.9092
B( 11-Pd, 12-O ) :   0.4840 B( 11-Pd, 13-O ) :   0.5757 B( 11-Pd, 14-O ) :   0.6986
B( 11-Pd, 16-O ) :   0.3089 B( 12-O , 13-O ) :   0.1113 B( 12-O , 18-C ) :   1.5653
B( 13-O , 18-C ) :   1.4027 B( 14-O , 15-C ) :   1.2410 B( 14-O , 16-O ) :   0.1086
B( 15-C , 16-O ) :   1.7326 B( 15-C , 20-H ) :   0.8787 B( 18-C , 19-H ) :   0.8805

Dispersion correction           -0.013221325
FINAL SINGLE POINT ENERGY      -737.057682888206
Dispersion correction            ... done

DIPOLE MOMENT
-------------
                                X             Y             Z
Electronic contribution:     53.41991      45.31278       5.43337
Nuclear contribution   :    -53.97015     -45.84484      -5.30115
                        -----------------------------------------
Total Dipole Moment    :     -0.55024      -0.53206       0.13222
                        -----------------------------------------
Magnitude (a.u.)       :      0.77675
Magnitude (Debye)      :      1.97433

Rotational constants in cm-1:     0.028240     0.018251     0.013719
Rotational constants in MHz :   846.619020   547.166043   411.291093

                             ****ORCA TERMINATED NORMALLY****
TOTAL RUN TIME: 0 days 0 hours 3 minutes 30 seconds 257 msec
