                         Program Version 5.0.3 -  RELEASE  -
|  1> ! EnGrad PBEh-3c
|  2> %output
|  3> xyzfile=True
|  4> end
|  5> %scf
|  6> maxiter 250
|  7> end
|  8> %output
|  9> Print[P_Hirshfeld] = 1
| 10> end
| 11> % maxcore
| 12> 4000
| 13> *xyz 0 1
| 14> C   -1.72403275   0.20204037  -0.29609170
| 15> C   -1.84621281  -0.79238405  -1.29794879
| 16> C   -1.32891935  -2.05678118  -1.11303526
| 17> C   -0.57464053  -2.31839054   0.01356166
| 18> C   -1.10914493  -0.03159113   1.03733820
| 19> C   -0.42677145  -1.34096027   1.03477232
| 20> H   -2.17520629   1.14512948  -0.52186302
| 21> H   -2.43608032  -0.56585185  -2.18235780
| 22> H   -1.54135647  -2.83276473  -1.81900306
| 23> H    0.18721612  -1.62018051   1.86818990
| 24> H   -0.15536846  -3.30460852   0.16769855
| 25> Pd   1.41069968   1.19723028   0.09811816
| 26> O    2.84540985   1.03525153  -1.54073170
| 27> O    2.57727520  -0.47419638  -0.02355666
| 28> O    0.37265414   2.87868823  -0.04710295
| 29> C    0.10886661   2.94519218   1.29130949
| 30> O    0.57357426   2.14997805   2.04096478
| 31> H   -1.38657683   0.72637729   2.26438603
| 32> C    3.21718724  -0.04875335  -1.03174771
| 33> H    3.98920866  -0.67629046  -1.52475933
| 34> H   -0.58011349   3.77959567   1.58226666
| 35> *
| 36>
| 37>                          ****END OF INPUT****

CARTESIAN COORDINATES (ANGSTROEM)
---------------------------------
  C     -1.724033    0.202040   -0.296092
  C     -1.846213   -0.792384   -1.297949
  C     -1.328919   -2.056781   -1.113035
  C     -0.574641   -2.318391    0.013562
  C     -1.109145   -0.031591    1.037338
  C     -0.426771   -1.340960    1.034772
  H     -2.175206    1.145129   -0.521863
  H     -2.436080   -0.565852   -2.182358
  H     -1.541356   -2.832765   -1.819003
  H      0.187216   -1.620181    1.868190
  H     -0.155368   -3.304609    0.167699
  Pd     1.410700    1.197230    0.098118
  O      2.845410    1.035252   -1.540732
  O      2.577275   -0.474196   -0.023557
  O      0.372654    2.878688   -0.047103
  C      0.108867    2.945192    1.291309
  O      0.573574    2.149978    2.040965
  H     -1.386577    0.726377    2.264386
  C      3.217187   -0.048753   -1.031748
  H      3.989209   -0.676290   -1.524759
  H     -0.580113    3.779596    1.582267

 Total Charge           Charge          ....    0
 Multiplicity           Mult            ....    1
 Number of Electrons    NEL             ....  106
 Basis Dimension        Dim             ....  227

ORBITAL ENERGIES
----------------

  NO   OCC          E(Eh)            E(eV)
   0   2.0000     -19.527447      -531.3689
   1   2.0000     -19.525285      -531.3100
   2   2.0000     -19.522513      -531.2346
   3   2.0000     -19.521369      -531.2035
   4   2.0000     -10.589504      -288.1551
   5   2.0000     -10.587219      -288.0929
   6   2.0000     -10.514294      -286.1085
   7   2.0000     -10.475245      -285.0459
   8   2.0000     -10.473581      -285.0006
   9   2.0000     -10.461525      -284.6726
  10   2.0000     -10.461027      -284.6590
  11   2.0000     -10.457562      -284.5647
  12   2.0000      -3.689093      -100.3853
  13   2.0000      -2.345434       -63.8225
  14   2.0000      -2.324283       -63.2470
  15   2.0000      -2.300381       -62.5966
  16   2.0000      -1.229580       -33.4586
  17   2.0000      -1.222231       -33.2586
  18   2.0000      -1.106361       -30.1056
  19   2.0000      -1.095812       -29.8186
  20   2.0000      -0.951577       -25.8937
  21   2.0000      -0.837898       -22.8004
  22   2.0000      -0.835778       -22.7427
  23   2.0000      -0.693009       -18.8577
  24   2.0000      -0.683265       -18.5926
  25   2.0000      -0.682364       -18.5681
  26   2.0000      -0.679622       -18.4935
  27   2.0000      -0.590919       -16.0797
  28   2.0000      -0.587075       -15.9751
  29   2.0000      -0.576144       -15.6777
  30   2.0000      -0.560132       -15.2420
  31   2.0000      -0.545843       -14.8532
  32   2.0000      -0.532860       -14.4998
  33   2.0000      -0.525432       -14.2977
  34   2.0000      -0.519909       -14.1474
  35   2.0000      -0.508924       -13.8485
  36   2.0000      -0.481047       -13.0900
  37   2.0000      -0.467570       -12.7232
  38   2.0000      -0.444522       -12.0961
  39   2.0000      -0.432566       -11.7707
  40   2.0000      -0.414213       -11.2713
  41   2.0000      -0.407166       -11.0795
  42   2.0000      -0.400083       -10.8868
  43   2.0000      -0.394821       -10.7436
  44   2.0000      -0.391253       -10.6465
  45   2.0000      -0.380527       -10.3547
  46   2.0000      -0.373482       -10.1630
  47   2.0000      -0.360946        -9.8218
  48   2.0000      -0.344982        -9.3874
  49   2.0000      -0.333126        -9.0648
  50   2.0000      -0.331322        -9.0157
  51   2.0000      -0.295554        -8.0424
  52   2.0000      -0.291365        -7.9284
  53   0.0000      -0.102638        -2.7929
  54   0.0000      -0.014305        -0.3893
  55   0.0000       0.004424         0.1204
  56   0.0000       0.021416         0.5828
  57   0.0000       0.030394         0.8271

MULLIKEN ATOMIC CHARGES
-----------------------
   0 C :   -0.229729
   1 C :   -0.206010
   2 C :   -0.214723
   3 C :   -0.200805
   4 C :   -0.280040
   5 C :   -0.230741
   6 H :    0.241887
   7 H :    0.232236
   8 H :    0.231349
   9 H :    0.246621
  10 H :    0.230935
  11 Pd:    0.574990
  12 O :   -0.442369
  13 O :   -0.474245
  14 O :   -0.518613
  15 C :    0.385729
  16 O :   -0.381233
  17 H :    0.222523
  18 C :    0.406978
  19 H :    0.207617
  20 H :    0.197643
Sum of atomic charges:   -0.0000000

LOEWDIN ATOMIC CHARGES
----------------------
   0 C :   -0.110105
   1 C :   -0.135751
   2 C :   -0.123362
   3 C :   -0.131346
   4 C :   -0.117252
   5 C :   -0.106919
   6 H :    0.147054
   7 H :    0.144107
   8 H :    0.140155
   9 H :    0.149333
  10 H :    0.144083
  11 Pd:   -0.107240
  12 O :   -0.156482
  13 O :   -0.157303
  14 O :   -0.203212
  15 C :    0.158830
  16 O :   -0.121261
  17 H :    0.181813
  18 C :    0.163218
  19 H :    0.123738
  20 H :    0.117901

  Mayer bond orders larger than 0.100000
B(  0-C ,  1-C ) :   1.4367 B(  0-C ,  4-C ) :   1.3445 B(  0-C ,  6-H ) :   0.9103
B(  1-C ,  2-C ) :   1.4158 B(  1-C ,  7-H ) :   0.9142 B(  2-C ,  3-C ) :   1.4263
B(  2-C ,  8-H ) :   0.9138 B(  3-C ,  5-C ) :   1.4250 B(  3-C , 10-H ) :   0.9151
B(  4-C ,  5-C ) :   1.3761 B(  4-C , 17-H ) :   0.8952 B(  5-C ,  9-H ) :   0.9086
B( 11-Pd, 12-O ) :   0.5118 B( 11-Pd, 13-O ) :   0.5697 B( 11-Pd, 14-O ) :   0.7024
B( 11-Pd, 16-O ) :   0.3117 B( 12-O , 13-O ) :   0.1120 B( 12-O , 18-C ) :   1.5359
B( 13-O , 18-C ) :   1.4219 B( 14-O , 15-C ) :   1.2352 B( 14-O , 16-O ) :   0.1063
B( 15-C , 16-O ) :   1.7552 B( 15-C , 20-H ) :   0.8788 B( 18-C , 19-H ) :   0.8825

Dispersion correction           -0.013499472
FINAL SINGLE POINT ENERGY      -737.039585115757
Dispersion correction            ... done

DIPOLE MOMENT
-------------
                                X             Y             Z
Electronic contribution:     53.32566      45.07332       4.01941
Nuclear contribution   :    -53.80334     -45.68856      -3.92230
                        -----------------------------------------
Total Dipole Moment    :     -0.47768      -0.61523       0.09711
                        -----------------------------------------
Magnitude (a.u.)       :      0.78493
Magnitude (Debye)      :      1.99514

Rotational constants in cm-1:     0.028067     0.018556     0.013909
Rotational constants in MHz :   841.429681   556.294259   416.977633

                             ****ORCA TERMINATED NORMALLY****
TOTAL RUN TIME: 0 days 0 hours 3 minutes 47 seconds 946 msec
