                         Program Version 5.0.3 -  RELEASE  -
|  1> ! EnGrad PBEh-3c
|  2> %output
|  3> xyzfile=True
|  4> end
|  5> %scf
|  6> maxiter 250
|  7> end
|  8> %output
|  9> Print[P_Hirshfeld] = 1
| 10> end
| 11> % maxcore
| 12> 4000
| 13> *xyz 0 1
| 14> C   -1.70536457   0.20526087  -0.28765603
| 15> C   -1.88065463  -0.80012074  -1.27719177
| 16> C   -1.39361965  -2.08419012  -1.09142186
| 17> C   -0.61004003  -2.32362095   0.02675251
| 18> C   -1.07733982  -0.01650194   1.02435288
| 19> C   -0.42482811  -1.32047431   1.02165633
| 20> H   -2.12516291   1.16457487  -0.55511543
| 21> H   -2.48676508  -0.58405756  -2.16246928
| 22> H   -1.64955042  -2.87886091  -1.78061797
| 23> H    0.22412108  -1.61508642   1.83450801
| 24> H   -0.20611275  -3.32717500   0.18071244
| 25> Pd   1.41440013   1.19088870   0.10274386
| 26> O    2.91095969   1.08404105  -1.50886882
| 27> O    2.57248338  -0.47293774  -0.05134539
| 28> O    0.38082363   2.86505399  -0.01576156
| 29> C    0.10538447   2.93537324   1.28690933
| 30> O    0.54596791   2.15491591   2.05881583
| 31> H   -1.30220377   0.69166280   2.14582913
| 32> C    3.25153793  -0.01552466  -1.01964787
| 33> H    4.04365386  -0.62842375  -1.50305390
| 34> H   -0.59107382   3.77167048   1.57181874
| 35> *
| 36>
| 37>                          ****END OF INPUT****

CARTESIAN COORDINATES (ANGSTROEM)
---------------------------------
  C     -1.705365    0.205261   -0.287656
  C     -1.880655   -0.800121   -1.277192
  C     -1.393620   -2.084190   -1.091422
  C     -0.610040   -2.323621    0.026753
  C     -1.077340   -0.016502    1.024353
  C     -0.424828   -1.320474    1.021656
  H     -2.125163    1.164575   -0.555115
  H     -2.486765   -0.584058   -2.162469
  H     -1.649550   -2.878861   -1.780618
  H      0.224121   -1.615086    1.834508
  H     -0.206113   -3.327175    0.180712
  Pd     1.414400    1.190889    0.102744
  O      2.910960    1.084041   -1.508869
  O      2.572483   -0.472938   -0.051345
  O      0.380824    2.865054   -0.015762
  C      0.105384    2.935373    1.286909
  O      0.545968    2.154916    2.058816
  H     -1.302204    0.691663    2.145829
  C      3.251538   -0.015525   -1.019648
  H      4.043654   -0.628424   -1.503054
  H     -0.591074    3.771670    1.571819

 Total Charge           Charge          ....    0
 Multiplicity           Mult            ....    1
 Number of Electrons    NEL             ....  106
 Basis Dimension        Dim             ....  227

ORBITAL ENERGIES
----------------

  NO   OCC          E(Eh)            E(eV)
   0   2.0000     -19.526573      -531.3451
   1   2.0000     -19.524078      -531.2772
   2   2.0000     -19.521533      -531.2079
   3   2.0000     -19.520265      -531.1734
   4   2.0000     -10.587633      -288.1041
   5   2.0000     -10.584348      -288.0148
   6   2.0000     -10.505268      -285.8629
   7   2.0000     -10.476090      -285.0689
   8   2.0000     -10.473782      -285.0061
   9   2.0000     -10.463368      -284.7227
  10   2.0000     -10.462799      -284.7072
  11   2.0000     -10.460783      -284.6524
  12   2.0000      -3.691212      -100.4430
  13   2.0000      -2.348227       -63.8985
  14   2.0000      -2.325427       -63.2781
  15   2.0000      -2.303127       -62.6713
  16   2.0000      -1.231950       -33.5231
  17   2.0000      -1.223449       -33.2917
  18   2.0000      -1.109553       -30.1925
  19   2.0000      -1.105774       -30.0896
  20   2.0000      -0.952597       -25.9215
  21   2.0000      -0.840788       -22.8790
  22   2.0000      -0.835773       -22.7426
  23   2.0000      -0.692517       -18.8443
  24   2.0000      -0.683685       -18.6040
  25   2.0000      -0.681157       -18.5352
  26   2.0000      -0.679518       -18.4906
  27   2.0000      -0.591278       -16.0895
  28   2.0000      -0.588503       -16.0140
  29   2.0000      -0.577438       -15.7129
  30   2.0000      -0.561763       -15.2863
  31   2.0000      -0.546654       -14.8752
  32   2.0000      -0.536521       -14.5995
  33   2.0000      -0.526320       -14.3219
  34   2.0000      -0.521640       -14.1945
  35   2.0000      -0.509904       -13.8752
  36   2.0000      -0.478293       -13.0150
  37   2.0000      -0.476928       -12.9779
  38   2.0000      -0.444983       -12.1086
  39   2.0000      -0.436581       -11.8800
  40   2.0000      -0.416973       -11.3464
  41   2.0000      -0.407179       -11.0799
  42   2.0000      -0.399498       -10.8709
  43   2.0000      -0.397032       -10.8038
  44   2.0000      -0.394288       -10.7291
  45   2.0000      -0.382345       -10.4041
  46   2.0000      -0.375053       -10.2057
  47   2.0000      -0.361968        -9.8496
  48   2.0000      -0.346139        -9.4189
  49   2.0000      -0.335827        -9.1383
  50   2.0000      -0.333549        -9.0763
  51   2.0000      -0.294684        -8.0187
  52   2.0000      -0.293984        -7.9997
  53   0.0000      -0.106122        -2.8877
  54   0.0000      -0.012715        -0.3460
  55   0.0000       0.003654         0.0994
  56   0.0000       0.024136         0.6568
  57   0.0000       0.035895         0.9768

MULLIKEN ATOMIC CHARGES
-----------------------
   0 C :   -0.222236
   1 C :   -0.210343
   2 C :   -0.213368
   3 C :   -0.205426
   4 C :   -0.312808
   5 C :   -0.220643
   6 H :    0.242083
   7 H :    0.231353
   8 H :    0.232578
   9 H :    0.246551
  10 H :    0.229979
  11 Pd:    0.581465
  12 O :   -0.439248
  13 O :   -0.475653
  14 O :   -0.508686
  15 C :    0.379934
  16 O :   -0.386578
  17 H :    0.250246
  18 C :    0.405177
  19 H :    0.206742
  20 H :    0.188881
Sum of atomic charges:    0.0000000

LOEWDIN ATOMIC CHARGES
----------------------
   0 C :   -0.108440
   1 C :   -0.137008
   2 C :   -0.122589
   3 C :   -0.132109
   4 C :   -0.124961
   5 C :   -0.104420
   6 H :    0.148071
   7 H :    0.143424
   8 H :    0.140912
   9 H :    0.150236
  10 H :    0.143601
  11 Pd:   -0.093152
  12 O :   -0.156999
  13 O :   -0.156324
  14 O :   -0.183735
  15 C :    0.138480
  16 O :   -0.130475
  17 H :    0.189047
  18 C :    0.161024
  19 H :    0.123104
  20 H :    0.112313

  Mayer bond orders larger than 0.100000
B(  0-C ,  1-C ) :   1.4392 B(  0-C ,  4-C ) :   1.3349 B(  0-C ,  6-H ) :   0.9096
B(  1-C ,  2-C ) :   1.4122 B(  1-C ,  7-H ) :   0.9148 B(  2-C ,  3-C ) :   1.4261
B(  2-C ,  8-H ) :   0.9131 B(  3-C ,  5-C ) :   1.4243 B(  3-C , 10-H ) :   0.9157
B(  4-C ,  5-C ) :   1.3714 B(  4-C , 17-H ) :   0.8928 B(  5-C ,  9-H ) :   0.9082
B( 11-Pd, 12-O ) :   0.5009 B( 11-Pd, 13-O ) :   0.5768 B( 11-Pd, 14-O ) :   0.6938
B( 11-Pd, 16-O ) :   0.3000 B( 12-O , 13-O ) :   0.1118 B( 12-O , 18-C ) :   1.5498
B( 13-O , 18-C ) :   1.4128 B( 14-O , 15-C ) :   1.2563 B( 14-O , 16-O ) :   0.1048
B( 15-C , 16-O ) :   1.7580 B( 15-C , 20-H ) :   0.8809 B( 18-C , 19-H ) :   0.8823

Dispersion correction           -0.013281363
FINAL SINGLE POINT ENERGY      -737.066280781053
Dispersion correction            ... done

DIPOLE MOMENT
-------------
                                X             Y             Z
Electronic contribution:     53.47545      44.61347       3.96236
Nuclear contribution   :    -53.94840     -45.27922      -3.94197
                        -----------------------------------------
Total Dipole Moment    :     -0.47295      -0.66574       0.02040
                        -----------------------------------------
Magnitude (a.u.)       :      0.81689
Magnitude (Debye)      :      2.07637

Rotational constants in cm-1:     0.028305     0.018389     0.013777
Rotational constants in MHz :   848.568366   551.276704   413.036420

                             ****ORCA TERMINATED NORMALLY****
TOTAL RUN TIME: 0 days 0 hours 4 minutes 0 seconds 350 msec
