                         Program Version 5.0.3 -  RELEASE  -
|  1> ! EnGrad PBEh-3c
|  2> %output
|  3> xyzfile=True
|  4> end
|  5> %scf
|  6> maxiter 250
|  7> end
|  8> %output
|  9> Print[P_Hirshfeld] = 1
| 10> end
| 11> % maxcore
| 12> 4000
| 13> *xyz 0 1
| 14> C   -1.68797244   0.20325328  -0.27636277
| 15> C   -1.90606207  -0.79858307  -1.25502358
| 16> C   -1.44306296  -2.10096861  -1.06961583
| 17> C   -0.63761344  -2.32045263   0.04328735
| 18> C   -1.05209285  -0.02489350   0.99095489
| 19> C   -0.42748648  -1.30312337   1.00881147
| 20> H   -2.08695049   1.17904929  -0.58008401
| 21> H   -2.52349063  -0.59722734  -2.14438798
| 22> H   -1.73153533  -2.91226223  -1.74953636
| 23> H    0.25187102  -1.61077544   1.80949027
| 24> H   -0.24479860  -3.34085616   0.19138952
| 25> Pd   1.41667102   1.17794308   0.08746647
| 26> O    2.96418271   1.12376744  -1.47674475
| 27> O    2.57652911  -0.47177956  -0.07108262
| 28> O    0.38599178   2.85027480   0.03067712
| 29> C    0.08702815   2.96043723   1.24881496
| 30> O    0.53633831   2.14135542   2.09756310
| 31> H   -1.23636219   0.66331462   2.05001627
| 32> C    3.26732264   0.00560034  -1.01674659
| 33> H    4.08407849  -0.58881245  -1.48065329
| 34> H   -0.59660394   3.76128988   1.56303732
| 35> *
| 36>
| 37>                          ****END OF INPUT****

CARTESIAN COORDINATES (ANGSTROEM)
---------------------------------
  C     -1.687972    0.203253   -0.276363
  C     -1.906062   -0.798583   -1.255024
  C     -1.443063   -2.100969   -1.069616
  C     -0.637613   -2.320453    0.043287
  C     -1.052093   -0.024893    0.990955
  C     -0.427486   -1.303123    1.008811
  H     -2.086950    1.179049   -0.580084
  H     -2.523491   -0.597227   -2.144388
  H     -1.731535   -2.912262   -1.749536
  H      0.251871   -1.610775    1.809490
  H     -0.244799   -3.340856    0.191390
  Pd     1.416671    1.177943    0.087466
  O      2.964183    1.123767   -1.476745
  O      2.576529   -0.471780   -0.071083
  O      0.385992    2.850275    0.030677
  C      0.087028    2.960437    1.248815
  O      0.536338    2.141355    2.097563
  H     -1.236362    0.663315    2.050016
  C      3.267323    0.005600   -1.016747
  H      4.084078   -0.588812   -1.480653
  H     -0.596604    3.761290    1.563037

 Total Charge           Charge          ....    0
 Multiplicity           Mult            ....    1
 Number of Electrons    NEL             ....  106
 Basis Dimension        Dim             ....  227

ORBITAL ENERGIES
----------------

  NO   OCC          E(Eh)            E(eV)
   0   2.0000     -19.536681      -531.6201
   1   2.0000     -19.532655      -531.5106
   2   2.0000     -19.525642      -531.3197
   3   2.0000     -19.501011      -530.6495
   4   2.0000     -10.590816      -288.1907
   5   2.0000     -10.581490      -287.9370
   6   2.0000     -10.492395      -285.5126
   7   2.0000     -10.473390      -284.9954
   8   2.0000     -10.469821      -284.8983
   9   2.0000     -10.463643      -284.7302
  10   2.0000     -10.462792      -284.7070
  11   2.0000     -10.462219      -284.6915
  12   2.0000      -3.696223      -100.5793
  13   2.0000      -2.353899       -64.0529
  14   2.0000      -2.329842       -63.3982
  15   2.0000      -2.307771       -62.7976
  16   2.0000      -1.231542       -33.5120
  17   2.0000      -1.218195       -33.1488
  18   2.0000      -1.115613       -30.3574
  19   2.0000      -1.102840       -30.0098
  20   2.0000      -0.957015       -26.0417
  21   2.0000      -0.845750       -23.0140
  22   2.0000      -0.835716       -22.7410
  23   2.0000      -0.698339       -19.0028
  24   2.0000      -0.686906       -18.6917
  25   2.0000      -0.683844       -18.6083
  26   2.0000      -0.680920       -18.5288
  27   2.0000      -0.593160       -16.1407
  28   2.0000      -0.590161       -16.0591
  29   2.0000      -0.580200       -15.7880
  30   2.0000      -0.564211       -15.3530
  31   2.0000      -0.541715       -14.7408
  32   2.0000      -0.534761       -14.5516
  33   2.0000      -0.527897       -14.3648
  34   2.0000      -0.522037       -14.2054
  35   2.0000      -0.513144       -13.9634
  36   2.0000      -0.484015       -13.1707
  37   2.0000      -0.474463       -12.9108
  38   2.0000      -0.444944       -12.1075
  39   2.0000      -0.441074       -12.0022
  40   2.0000      -0.414816       -11.2877
  41   2.0000      -0.409150       -11.1335
  42   2.0000      -0.398394       -10.8409
  43   2.0000      -0.397990       -10.8298
  44   2.0000      -0.392928       -10.6921
  45   2.0000      -0.387225       -10.5369
  46   2.0000      -0.377881       -10.2827
  47   2.0000      -0.363879        -9.9017
  48   2.0000      -0.343394        -9.3442
  49   2.0000      -0.341603        -9.2955
  50   2.0000      -0.335842        -9.1387
  51   2.0000      -0.295265        -8.0346
  52   2.0000      -0.294866        -8.0237
  53   0.0000      -0.111353        -3.0301
  54   0.0000      -0.008318        -0.2263
  55   0.0000       0.004942         0.1345
  56   0.0000       0.022308         0.6070
  57   0.0000       0.033119         0.9012

MULLIKEN ATOMIC CHARGES
-----------------------
   0 C :   -0.220019
   1 C :   -0.213812
   2 C :   -0.216528
   3 C :   -0.209400
   4 C :   -0.320041
   5 C :   -0.215009
   6 H :    0.238474
   7 H :    0.229578
   8 H :    0.232438
   9 H :    0.247391
  10 H :    0.228044
  11 Pd:    0.595641
  12 O :   -0.437601
  13 O :   -0.470722
  14 O :   -0.465492
  15 C :    0.381924
  16 O :   -0.463112
  17 H :    0.265343
  18 C :    0.408122
  19 H :    0.206714
  20 H :    0.198066
Sum of atomic charges:   -0.0000000

LOEWDIN ATOMIC CHARGES
----------------------
   0 C :   -0.112733
   1 C :   -0.137063
   2 C :   -0.124232
   3 C :   -0.131823
   4 C :   -0.124634
   5 C :   -0.105730
   6 H :    0.148372
   7 H :    0.142095
   8 H :    0.141187
   9 H :    0.152471
  10 H :    0.142507
  11 Pd:   -0.073200
  12 O :   -0.153776
  13 O :   -0.147204
  14 O :   -0.125569
  15 C :    0.142527
  16 O :   -0.223755
  17 H :    0.191434
  18 C :    0.159807
  19 H :    0.122774
  20 H :    0.116545

  Mayer bond orders larger than 0.100000
B(  0-C ,  1-C ) :   1.4396 B(  0-C ,  4-C ) :   1.3314 B(  0-C ,  6-H ) :   0.9102
B(  1-C ,  2-C ) :   1.4112 B(  1-C ,  7-H ) :   0.9157 B(  2-C ,  3-C ) :   1.4260
B(  2-C ,  8-H ) :   0.9131 B(  3-C ,  5-C ) :   1.4233 B(  3-C , 10-H ) :   0.9166
B(  4-C ,  5-C ) :   1.3729 B(  4-C , 17-H ) :   0.8881 B(  5-C ,  9-H ) :   0.9074
B( 11-Pd, 12-O ) :   0.4976 B( 11-Pd, 13-O ) :   0.5940 B( 11-Pd, 14-O ) :   0.6353
B( 11-Pd, 16-O ) :   0.3324 B( 12-O , 13-O ) :   0.1119 B( 12-O , 18-C ) :   1.5559
B( 13-O , 18-C ) :   1.4059 B( 14-O , 15-C ) :   1.3694 B( 14-O , 16-O ) :   0.1074
B( 15-C , 16-O ) :   1.6409 B( 15-C , 20-H ) :   0.8844 B( 18-C , 19-H ) :   0.8830

Dispersion correction           -0.013339870
FINAL SINGLE POINT ENERGY      -737.088560092789
Dispersion correction            ... done

DIPOLE MOMENT
-------------
                                X             Y             Z
Electronic contribution:     53.56766      43.99551       2.77161
Nuclear contribution   :    -54.02221     -44.61247      -3.04783
                        -----------------------------------------
Total Dipole Moment    :     -0.45455      -0.61696      -0.27622
                        -----------------------------------------
Magnitude (a.u.)       :      0.81459
Magnitude (Debye)      :      2.07051

Rotational constants in cm-1:     0.028501     0.018288     0.013693
Rotational constants in MHz :   854.424877   548.262033   410.515746

                             ****ORCA TERMINATED NORMALLY****
TOTAL RUN TIME: 0 days 0 hours 4 minutes 8 seconds 12 msec
