                         Program Version 5.0.3 -  RELEASE  -
|  1> ! EnGrad PBEh-3c
|  2> %output
|  3> xyzfile=True
|  4> end
|  5> %scf
|  6> maxiter 250
|  7> end
|  8> %output
|  9> Print[P_Hirshfeld] = 1
| 10> end
| 11> % maxcore
| 12> 4000
| 13> *xyz 0 1
| 14> C   -1.66180344   0.20713818  -0.27709720
| 15> C   -1.95944924  -0.80959175  -1.22234123
| 16> C   -1.54263549  -2.13677450  -1.02983807
| 17> C   -0.69347227  -2.32945709   0.06414921
| 18> C   -1.00219363  -0.01044091   0.95676637
| 19> C   -0.41830364  -1.28802437   0.98455086
| 20> H   -2.00850390   1.20393974  -0.62541724
| 21> H   -2.59678738  -0.62267246  -2.10754936
| 22> H   -1.89408501  -2.97408540  -1.68312722
| 23> H    0.30382437  -1.59888109   1.75736623
| 24> H   -0.32291800  -3.36642133   0.21304805
| 25> Pd   1.41870808   1.15898823   0.07980708
| 26> O    3.06503142   1.20127954  -1.41971740
| 27> O    2.57257806  -0.47115184  -0.11055369
| 28> O    0.40034570   2.82577336   0.07630695
| 29> C    0.06930721   2.96321797   1.24123748
| 30> O    0.50184446   2.14086891   2.14093036
| 31> H   -1.10582324   0.61191405   1.86719790
| 32> C    3.31715101   0.05483587  -1.00762386
| 33> H    4.16505527  -0.51402951  -1.44175625
| 34> H   -0.61307552   3.74932119   1.54463675
| 35> *
| 36>
| 37>                          ****END OF INPUT****

CARTESIAN COORDINATES (ANGSTROEM)
---------------------------------
  C     -1.661803    0.207138   -0.277097
  C     -1.959449   -0.809592   -1.222341
  C     -1.542635   -2.136775   -1.029838
  C     -0.693472   -2.329457    0.064149
  C     -1.002194   -0.010441    0.956766
  C     -0.418304   -1.288024    0.984551
  H     -2.008504    1.203940   -0.625417
  H     -2.596787   -0.622672   -2.107549
  H     -1.894085   -2.974085   -1.683127
  H      0.303824   -1.598881    1.757366
  H     -0.322918   -3.366421    0.213048
  Pd     1.418708    1.158988    0.079807
  O      3.065031    1.201280   -1.419717
  O      2.572578   -0.471152   -0.110554
  O      0.400346    2.825773    0.076307
  C      0.069307    2.963218    1.241237
  O      0.501844    2.140869    2.140930
  H     -1.105823    0.611914    1.867198
  C      3.317151    0.054836   -1.007624
  H      4.165055   -0.514030   -1.441756
  H     -0.613076    3.749321    1.544637

 Total Charge           Charge          ....    0
 Multiplicity           Mult            ....    1
 Number of Electrons    NEL             ....  106
 Basis Dimension        Dim             ....  227

ORBITAL ENERGIES
----------------

  NO   OCC          E(Eh)            E(eV)
   0   2.0000     -19.540886      -531.7345
   1   2.0000     -19.535487      -531.5876
   2   2.0000     -19.528154      -531.3881
   3   2.0000     -19.486626      -530.2580
   4   2.0000     -10.593663      -288.2682
   5   2.0000     -10.576037      -287.7886
   6   2.0000     -10.476252      -285.0733
   7   2.0000     -10.475022      -285.0399
   8   2.0000     -10.470220      -284.9092
   9   2.0000     -10.468571      -284.8643
  10   2.0000     -10.466219      -284.8003
  11   2.0000     -10.464508      -284.7537
  12   2.0000      -3.698762      -100.6484
  13   2.0000      -2.357259       -64.1443
  14   2.0000      -2.331148       -63.4338
  15   2.0000      -2.311192       -62.8907
  16   2.0000      -1.233060       -33.5533
  17   2.0000      -1.226966       -33.3874
  18   2.0000      -1.116864       -30.3914
  19   2.0000      -1.086754       -29.5721
  20   2.0000      -0.961203       -26.1557
  21   2.0000      -0.853110       -23.2143
  22   2.0000      -0.835467       -22.7342
  23   2.0000      -0.702197       -19.1078
  24   2.0000      -0.691170       -18.8077
  25   2.0000      -0.688793       -18.7430
  26   2.0000      -0.682147       -18.5622
  27   2.0000      -0.596621       -16.2349
  28   2.0000      -0.595254       -16.1977
  29   2.0000      -0.584535       -15.9060
  30   2.0000      -0.564574       -15.3628
  31   2.0000      -0.540970       -14.7205
  32   2.0000      -0.539261       -14.6740
  33   2.0000      -0.531665       -14.4674
  34   2.0000      -0.525487       -14.2992
  35   2.0000      -0.516715       -14.0605
  36   2.0000      -0.496603       -13.5133
  37   2.0000      -0.472021       -12.8443
  38   2.0000      -0.447358       -12.1732
  39   2.0000      -0.442824       -12.0499
  40   2.0000      -0.416206       -11.3255
  41   2.0000      -0.408112       -11.1053
  42   2.0000      -0.402207       -10.9446
  43   2.0000      -0.396793       -10.7973
  44   2.0000      -0.393981       -10.7208
  45   2.0000      -0.387094       -10.5334
  46   2.0000      -0.377681       -10.2772
  47   2.0000      -0.361515        -9.8373
  48   2.0000      -0.343684        -9.3521
  49   2.0000      -0.340267        -9.2591
  50   2.0000      -0.335360        -9.1256
  51   2.0000      -0.297053        -8.0832
  52   2.0000      -0.295129        -8.0309
  53   0.0000      -0.115962        -3.1555
  54   0.0000      -0.009099        -0.2476
  55   0.0000       0.003853         0.1048
  56   0.0000       0.020726         0.5640
  57   0.0000       0.035309         0.9608

MULLIKEN ATOMIC CHARGES
-----------------------
   0 C :   -0.220532
   1 C :   -0.217270
   2 C :   -0.216079
   3 C :   -0.213363
   4 C :   -0.337872
   5 C :   -0.213326
   6 H :    0.237972
   7 H :    0.228800
   8 H :    0.234077
   9 H :    0.249716
  10 H :    0.227233
  11 Pd:    0.610072
  12 O :   -0.431525
  13 O :   -0.480812
  14 O :   -0.439780
  15 C :    0.364039
  16 O :   -0.494641
  17 H :    0.296578
  18 C :    0.408960
  19 H :    0.208192
  20 H :    0.199560
Sum of atomic charges:   -0.0000000

LOEWDIN ATOMIC CHARGES
----------------------
   0 C :   -0.108717
   1 C :   -0.137888
   2 C :   -0.122160
   3 C :   -0.132299
   4 C :   -0.127905
   5 C :   -0.099491
   6 H :    0.149867
   7 H :    0.141449
   8 H :    0.143142
   9 H :    0.154923
  10 H :    0.141937
  11 Pd:   -0.055958
  12 O :   -0.153816
  13 O :   -0.153717
  14 O :   -0.092004
  15 C :    0.130109
  16 O :   -0.270386
  17 H :    0.186969
  18 C :    0.165836
  19 H :    0.123364
  20 H :    0.116743

  Mayer bond orders larger than 0.100000
B(  0-C ,  1-C ) :   1.4407 B(  0-C ,  4-C ) :   1.3281 B(  0-C ,  6-H ) :   0.9098
B(  1-C ,  2-C ) :   1.4078 B(  1-C ,  7-H ) :   0.9163 B(  2-C ,  3-C ) :   1.4217
B(  2-C ,  8-H ) :   0.9123 B(  3-C ,  5-C ) :   1.4263 B(  3-C , 10-H ) :   0.9171
B(  4-C ,  5-C ) :   1.3707 B(  4-C , 17-H ) :   0.8755 B(  5-C ,  9-H ) :   0.9061
B( 11-Pd, 12-O ) :   0.4741 B( 11-Pd, 13-O ) :   0.6120 B( 11-Pd, 14-O ) :   0.6086
B( 11-Pd, 16-O ) :   0.3202 B( 12-O , 13-O ) :   0.1128 B( 12-O , 18-C ) :   1.5842
B( 13-O , 18-C ) :   1.3763 B( 14-O , 15-C ) :   1.4242 B( 14-O , 16-O ) :   0.1055
B( 15-C , 16-O ) :   1.6111 B( 15-C , 20-H ) :   0.8853 B( 18-C , 19-H ) :   0.8826

Dispersion correction           -0.013410221
FINAL SINGLE POINT ENERGY      -737.095118122224
Dispersion correction            ... done

DIPOLE MOMENT
-------------
                                X             Y             Z
Electronic contribution:     53.60474      42.93552       1.91046
Nuclear contribution   :    -54.06890     -43.60096      -2.41050
                        -----------------------------------------
Total Dipole Moment    :     -0.46416      -0.66544      -0.50003
                        -----------------------------------------
Magnitude (a.u.)       :      0.95304
Magnitude (Debye)      :      2.42245

Rotational constants in cm-1:     0.028825     0.017998     0.013490
Rotational constants in MHz :   864.148605   539.576348   404.412521

                             ****ORCA TERMINATED NORMALLY****
TOTAL RUN TIME: 0 days 0 hours 3 minutes 48 seconds 676 msec
