                         Program Version 5.0.3 -  RELEASE  -
|  1> ! EnGrad PBEh-3c
|  2> %output
|  3> xyzfile=True
|  4> end
|  5> %scf
|  6> maxiter 250
|  7> end
|  8> %output
|  9> Print[P_Hirshfeld] = 1
| 10> end
| 11> % maxcore
| 12> 4000
| 13> *xyz 0 1
| 14> C   -1.64792915   0.20928286  -0.29774438
| 15> C   -2.00440192  -0.81753568  -1.19135422
| 16> C   -1.62491489  -2.15471365  -0.98578915
| 17> C   -0.74333770  -2.33738024   0.08301999
| 18> C   -0.95600804  -0.04433986   0.86808473
| 19> C   -0.40592039  -1.29961751   0.96074256
| 20> H   -1.94501648   1.21707817  -0.65069520
| 21> H   -2.64847176  -0.63713355  -2.06785037
| 22> H   -2.01703007  -3.00622011  -1.61602190
| 23> H    0.33816968  -1.58336941   1.71785868
| 24> H   -0.38437410  -3.37285301   0.23425411
| 25> Pd   1.41840186   1.13262378   0.05455535
| 26> O    3.14246362   1.26181407  -1.35808788
| 27> O    2.58281586  -0.46346391  -0.15222606
| 28> O    0.42212163   2.79908121   0.08199553
| 29> C    0.04205324   2.97128660   1.27722822
| 30> O    0.47756858   2.14121554   2.18016589
| 31> H   -0.99431400   0.59215100   1.73672711
| 32> C    3.34426255   0.09253620  -1.00045000
| 33> H    4.22646198  -0.45224913  -1.40219424
| 34> H   -0.62983599   3.74613710   1.52701244
| 35> *
| 36>
| 37>                          ****END OF INPUT****

CARTESIAN COORDINATES (ANGSTROEM)
---------------------------------
  C     -1.647929    0.209283   -0.297744
  C     -2.004402   -0.817536   -1.191354
  C     -1.624915   -2.154714   -0.985789
  C     -0.743338   -2.337380    0.083020
  C     -0.956008   -0.044340    0.868085
  C     -0.405920   -1.299618    0.960743
  H     -1.945016    1.217078   -0.650695
  H     -2.648472   -0.637134   -2.067850
  H     -2.017030   -3.006220   -1.616022
  H      0.338170   -1.583369    1.717859
  H     -0.384374   -3.372853    0.234254
  Pd     1.418402    1.132624    0.054555
  O      3.142464    1.261814   -1.358088
  O      2.582816   -0.463464   -0.152226
  O      0.422122    2.799081    0.081996
  C      0.042053    2.971287    1.277228
  O      0.477569    2.141216    2.180166
  H     -0.994314    0.592151    1.736727
  C      3.344263    0.092536   -1.000450
  H      4.226462   -0.452249   -1.402194
  H     -0.629836    3.746137    1.527012

 Total Charge           Charge          ....    0
 Multiplicity           Mult            ....    1
 Number of Electrons    NEL             ....  106
 Basis Dimension        Dim             ....  227

ORBITAL ENERGIES
----------------

  NO   OCC          E(Eh)            E(eV)
   0   2.0000     -19.535485      -531.5876
   1   2.0000     -19.535248      -531.5811
   2   2.0000     -19.525953      -531.3282
   3   2.0000     -19.486136      -530.2447
   4   2.0000     -10.591278      -288.2033
   5   2.0000     -10.577397      -287.8256
   6   2.0000     -10.471700      -284.9494
   7   2.0000     -10.471398      -284.9412
   8   2.0000     -10.466784      -284.8157
   9   2.0000     -10.465818      -284.7894
  10   2.0000     -10.465074      -284.7692
  11   2.0000     -10.463554      -284.7278
  12   2.0000      -3.697521      -100.6147
  13   2.0000      -2.356227       -64.1162
  14   2.0000      -2.329590       -63.3914
  15   2.0000      -2.310738       -62.8784
  16   2.0000      -1.233071       -33.5536
  17   2.0000      -1.204611       -32.7791
  18   2.0000      -1.121134       -30.5076
  19   2.0000      -1.076415       -29.2907
  20   2.0000      -0.971838       -26.4451
  21   2.0000      -0.858669       -23.3656
  22   2.0000      -0.843078       -22.9413
  23   2.0000      -0.705880       -19.2080
  24   2.0000      -0.694141       -18.8885
  25   2.0000      -0.690491       -18.7892
  26   2.0000      -0.688334       -18.7305
  27   2.0000      -0.602842       -16.4042
  28   2.0000      -0.595252       -16.1976
  29   2.0000      -0.580111       -15.7856
  30   2.0000      -0.564264       -15.3544
  31   2.0000      -0.538514       -14.6537
  32   2.0000      -0.534754       -14.5514
  33   2.0000      -0.530662       -14.4401
  34   2.0000      -0.526138       -14.3169
  35   2.0000      -0.516062       -14.0428
  36   2.0000      -0.494877       -13.4663
  37   2.0000      -0.479727       -13.0540
  38   2.0000      -0.454260       -12.3611
  39   2.0000      -0.443955       -12.0806
  40   2.0000      -0.416721       -11.3396
  41   2.0000      -0.407735       -11.0950
  42   2.0000      -0.402548       -10.9539
  43   2.0000      -0.400870       -10.9082
  44   2.0000      -0.392457       -10.6793
  45   2.0000      -0.387135       -10.5345
  46   2.0000      -0.375254       -10.2112
  47   2.0000      -0.359448        -9.7811
  48   2.0000      -0.343841        -9.3564
  49   2.0000      -0.335881        -9.1398
  50   2.0000      -0.333343        -9.0707
  51   2.0000      -0.301274        -8.1981
  52   2.0000      -0.300174        -8.1682
  53   0.0000      -0.115278        -3.1369
  54   0.0000      -0.006150        -0.1674
  55   0.0000       0.003778         0.1028
  56   0.0000       0.020261         0.5513
  57   0.0000       0.029814         0.8113

MULLIKEN ATOMIC CHARGES
-----------------------
   0 C :   -0.204096
   1 C :   -0.227584
   2 C :   -0.211763
   3 C :   -0.223689
   4 C :   -0.368854
   5 C :   -0.196882
   6 H :    0.243937
   7 H :    0.227910
   8 H :    0.234565
   9 H :    0.254461
  10 H :    0.226628
  11 Pd:    0.626730
  12 O :   -0.428600
  13 O :   -0.481327
  14 O :   -0.478580
  15 C :    0.366581
  16 O :   -0.491339
  17 H :    0.311786
  18 C :    0.405054
  19 H :    0.203106
  20 H :    0.211957
Sum of atomic charges:   -0.0000000

LOEWDIN ATOMIC CHARGES
----------------------
   0 C :   -0.108157
   1 C :   -0.132273
   2 C :   -0.120278
   3 C :   -0.127544
   4 C :   -0.132785
   5 C :   -0.099618
   6 H :    0.154737
   7 H :    0.139845
   8 H :    0.144910
   9 H :    0.158654
  10 H :    0.140279
  11 Pd:   -0.049484
  12 O :   -0.152365
  13 O :   -0.146500
  14 O :   -0.128843
  15 C :    0.155315
  16 O :   -0.280130
  17 H :    0.185093
  18 C :    0.156969
  19 H :    0.120385
  20 H :    0.121792

  Mayer bond orders larger than 0.100000
B(  0-C ,  1-C ) :   1.4397 B(  0-C ,  4-C ) :   1.3361 B(  0-C ,  6-H ) :   0.9081
B(  1-C ,  2-C ) :   1.4081 B(  1-C ,  7-H ) :   0.9167 B(  2-C ,  3-C ) :   1.4177
B(  2-C ,  8-H ) :   0.9132 B(  3-C ,  5-C ) :   1.4313 B(  3-C , 10-H ) :   0.9170
B(  4-C ,  5-C ) :   1.3743 B(  4-C , 11-Pd) :   0.1095 B(  4-C , 17-H ) :   0.8566
B(  5-C ,  9-H ) :   0.9046 B( 11-Pd, 12-O ) :   0.4699 B( 11-Pd, 13-O ) :   0.6075
B( 11-Pd, 14-O ) :   0.6288 B( 11-Pd, 16-O ) :   0.2662 B( 12-O , 13-O ) :   0.1128
B( 12-O , 18-C ) :   1.5919 B( 13-O , 18-C ) :   1.3802 B( 14-O , 15-C ) :   1.3617
B( 14-O , 16-O ) :   0.1073 B( 15-C , 16-O ) :   1.6588 B( 15-C , 20-H ) :   0.8829
B( 18-C , 19-H ) :   0.8840

Dispersion correction           -0.013450612
FINAL SINGLE POINT ENERGY      -737.099719475911
Dispersion correction            ... done

DIPOLE MOMENT
-------------
                                X             Y             Z
Electronic contribution:     53.44204      41.63907       0.61110
Nuclear contribution   :    -54.01134     -42.37095      -1.12781
                        -----------------------------------------
Total Dipole Moment    :     -0.56931      -0.73189      -0.51671
                        -----------------------------------------
Magnitude (a.u.)       :      1.06149
Magnitude (Debye)      :      2.69809

Rotational constants in cm-1:     0.029151     0.017751     0.013339
Rotational constants in MHz :   873.929846   532.172712   399.891692

                             ****ORCA TERMINATED NORMALLY****
TOTAL RUN TIME: 0 days 0 hours 4 minutes 6 seconds 905 msec
