                         Program Version 5.0.4 -  RELEASE  -
|  1> %pal nprocs 8 end
|  2>
|  3>  *xyzfile 1 1 IEIP_ts_guess.xyz
|  4>
|  5>
|  6>                          ****END OF INPUT****
|  1>
|  2>
|  3>   ! PBEh-3c OptTS Freq pal8
|  4>
|  5>   %geom
|  6>    calc_hess true
|  7>    recalc_hess 20
|  8>    maxiter 600
|  9>   end
| 10>
| 11>
| 12>                          ****END OF INPUT****
 Total Charge           Charge          ....    1
 Multiplicity           Mult            ....    1
 Number of Electrons    NEL             ....   82
Dispersion correction           -0.011232067
FINAL SINGLE POINT ENERGY     -1104.415308248543
Dispersion correction            ... done
Dispersion correction in the Hessian             ... done   (      0.7 sec)
Dispersion correction           -0.011108569
FINAL SINGLE POINT ENERGY     -1104.419717202919
Dispersion correction            ... done
Dispersion correction           -0.010988556
FINAL SINGLE POINT ENERGY     -1104.423769554274
FINAL SINGLE POINT ENERGY     -1104.427208909194
FINAL SINGLE POINT ENERGY     -1104.429557198719
FINAL SINGLE POINT ENERGY     -1104.430805048310
FINAL SINGLE POINT ENERGY     -1104.431599543609
FINAL SINGLE POINT ENERGY     -1104.432134961909
FINAL SINGLE POINT ENERGY     -1104.432492300698
FINAL SINGLE POINT ENERGY     -1104.432685140662
FINAL SINGLE POINT ENERGY     -1104.433356313579
FINAL SINGLE POINT ENERGY     -1104.433326634190
FINAL SINGLE POINT ENERGY     -1104.433377916032
FINAL SINGLE POINT ENERGY     -1104.433352879427
FINAL SINGLE POINT ENERGY     -1104.433380038365
FINAL SINGLE POINT ENERGY     -1104.433388847725
FINAL SINGLE POINT ENERGY     -1104.433423965363
Dispersion correction           -0.010724728
FINAL SINGLE POINT ENERGY     -1104.433423382610
Dispersion correction            ... done
                    ***********************HURRAY********************
Dispersion correction           -0.010725680
FINAL SINGLE POINT ENERGY     -1104.433425365658
Dispersion correction in the Hessian             ... done   (      0.6 sec)

VIBRATIONAL FREQUENCIES
-----------------------

Scaling factor for frequencies =  1.000000000  (already applied!)

   0:         0.00 cm**-1
   1:         0.00 cm**-1
   2:         0.00 cm**-1
   3:         0.00 cm**-1
   4:         0.00 cm**-1
   5:         0.00 cm**-1
   6:     -1139.49 cm**-1 ***imaginary mode***
   7:        36.97 cm**-1
   8:        58.40 cm**-1
   9:        78.05 cm**-1
  10:        95.09 cm**-1
  11:       105.83 cm**-1
  12:       121.64 cm**-1
  13:       142.40 cm**-1
  14:       218.50 cm**-1
  15:       231.50 cm**-1
  16:       255.37 cm**-1
  17:       286.25 cm**-1
  18:       333.45 cm**-1
  19:       465.68 cm**-1
  20:       478.74 cm**-1
  21:       639.20 cm**-1
  22:       654.59 cm**-1
  23:       697.42 cm**-1
  24:       776.70 cm**-1
  25:       797.52 cm**-1
  26:       857.31 cm**-1
  27:       914.64 cm**-1
  28:       917.33 cm**-1
  29:      1066.34 cm**-1
  30:      1088.88 cm**-1
  31:      1134.22 cm**-1
  32:      1138.67 cm**-1
  33:      1178.05 cm**-1
  34:      1182.13 cm**-1
  35:      1184.47 cm**-1
  36:      1287.49 cm**-1
  37:      1321.99 cm**-1
  38:      1425.26 cm**-1
  39:      1435.48 cm**-1
  40:      1452.35 cm**-1
  41:      1472.03 cm**-1
  42:      1498.37 cm**-1
  43:      1502.63 cm**-1
  44:      1517.20 cm**-1
  45:      1535.64 cm**-1
  46:      1539.88 cm**-1
  47:      1556.64 cm**-1
  48:      1561.59 cm**-1
  49:      1565.64 cm**-1
  50:      1609.79 cm**-1
  51:      1678.69 cm**-1
  52:      2458.50 cm**-1
  53:      3108.89 cm**-1
  54:      3130.20 cm**-1
  55:      3133.98 cm**-1
  56:      3221.91 cm**-1
  57:      3223.31 cm**-1
  58:      3234.75 cm**-1
  59:      3236.10 cm**-1
  60:      3256.46 cm**-1
  61:      3354.47 cm**-1
  62:      3373.43 cm**-1

IR SPECTRUM
-----------

 Mode   freq       eps      Int      T**2         TX        TY        TZ
       cm**-1   L/(mol*cm) km/mol    a.u.
----------------------------------------------------------------------------
  7:     36.97   0.000829    4.19  0.006999  ( 0.006069 -0.082921 -0.009278)
  8:     58.40   0.000068    0.34  0.000365  (-0.005891  0.000611  0.018154)
  9:     78.05   0.000565    2.85  0.002258  (-0.020082 -0.041279 -0.012288)
 10:     95.09   0.000331    1.67  0.001087  (-0.016133 -0.023393 -0.016704)
 11:    105.83   0.000121    0.61  0.000356  ( 0.008806  0.008816  0.014166)
 12:    121.64   0.001293    6.54  0.003318  ( 0.011811 -0.051988 -0.021819)
 13:    142.40   0.000319    1.61  0.000698  ( 0.017703  0.013611  0.014120)
 14:    218.50   0.001247    6.30  0.001780  ( 0.013037 -0.020660  0.034405)
 15:    231.50   0.001744    8.82  0.002352  (-0.029759  0.018442 -0.033554)
 16:    255.37   0.007967   40.26  0.009735  (-0.062210  0.052676  0.055590)
 17:    286.25   0.000218    1.10  0.000237  ( 0.010728 -0.007879 -0.007756)
 18:    333.45   0.002573   13.00  0.002408  ( 0.013484  0.000048 -0.047183)
 19:    465.68   0.003178   16.06  0.002130  (-0.027409 -0.017766 -0.032598)
 20:    478.74   0.006319   31.93  0.004119  ( 0.023685 -0.005451  0.059398)
 21:    639.20   0.000505    2.55  0.000247  ( 0.002605  0.000807 -0.015467)
 22:    654.59   0.000027    0.14  0.000013  ( 0.001629  0.002728  0.001639)
 23:    697.42   0.000414    2.09  0.000185  (-0.011000  0.006600 -0.004546)
 24:    776.70   0.002837   14.34  0.001140  ( 0.018679  0.027072  0.007618)
 25:    797.52   0.011957   60.43  0.004679  ( 0.056779 -0.037604  0.006396)
 26:    857.31   0.007868   39.76  0.002864  (-0.037453  0.023477  0.030165)
 27:    914.64   0.005184   26.20  0.001769  ( 0.009830  0.022997  0.033811)
 28:    917.33   0.000022    0.11  0.000007  ( 0.000394  0.001932  0.001870)
 29:   1066.34   0.000111    0.56  0.000032  (-0.002530 -0.005102 -0.000206)
 30:   1088.88   0.000028    0.14  0.000008  (-0.000791 -0.000852 -0.002579)
 31:   1134.22   0.000391    1.98  0.000108  (-0.005268 -0.005418  0.007108)
 32:   1138.67   0.000380    1.92  0.000104  (-0.003921 -0.005902 -0.007340)
 33:   1178.05   0.000399    2.01  0.000106  ( 0.005010  0.008930  0.000864)
 34:   1182.13   0.001422    7.18  0.000375  (-0.001335 -0.000804  0.019310)
 35:   1184.47   0.000534    2.70  0.000141  (-0.005263 -0.000917  0.010595)
 36:   1287.49   0.009324   47.12  0.002260  (-0.024369 -0.039841 -0.008876)
 37:   1321.99   0.008019   40.52  0.001893  ( 0.022033  0.031387  0.020549)
 38:   1425.26   0.001133    5.72  0.000248  (-0.009064 -0.011331  0.006118)
 39:   1435.48   0.000184    0.93  0.000040  (-0.000269  0.000575  0.006296)
 40:   1452.35   0.000674    3.40  0.000145  ( 0.007014  0.009400  0.002675)
 41:   1472.03   0.004096   20.70  0.000868  (-0.003359 -0.002537  0.029165)
 42:   1498.37   0.011366   57.44  0.002367  (-0.047174 -0.003349 -0.011427)
 43:   1502.63   0.001235    6.24  0.000256  (-0.011781 -0.009298 -0.005588)
 44:   1517.20   0.000423    2.14  0.000087  (-0.001928  0.003596 -0.008385)
 45:   1535.64   0.002805   14.18  0.000570  ( 0.003904 -0.022689 -0.006330)
 46:   1539.88   0.002927   14.79  0.000593  ( 0.024042 -0.003628 -0.001451)
 47:   1556.64   0.006338   32.03  0.001271  (-0.017710 -0.030443 -0.005491)
 48:   1561.59   0.002125   10.74  0.000425  (-0.007733 -0.000239 -0.019098)
 49:   1565.64   0.004340   21.93  0.000865  ( 0.016538  0.023560  0.006034)
 50:   1609.79   0.011102   56.10  0.002152  (-0.023803 -0.000702 -0.039812)
 51:   1678.69   0.002971   15.01  0.000552  (-0.003564 -0.002991  0.023035)
 52:   2458.50   0.023072  116.60  0.002929  (-0.020208 -0.044758  0.022735)
 53:   3108.89   0.000475    2.40  0.000048  ( 0.003378 -0.004464  0.004038)
 54:   3130.20   0.002631   13.30  0.000262  (-0.009085 -0.013404 -0.000308)
 55:   3133.98   0.002267   11.45  0.000226  ( 0.008040  0.012596 -0.001550)
 56:   3221.91   0.000211    1.07  0.000020  ( 0.004062 -0.001954 -0.000320)
 57:   3223.31   0.000594    3.00  0.000058  (-0.003353  0.001002 -0.006730)
 58:   3234.75   0.000125    0.63  0.000012  ( 0.003229 -0.001047 -0.000704)
 59:   3236.10   0.000175    0.89  0.000017  ( 0.001488 -0.002110 -0.003198)
 60:   3256.46   0.001508    7.62  0.000144  (-0.000549  0.000982  0.011967)
 61:   3354.47   0.002180   11.02  0.000203  (-0.007376 -0.011828 -0.002921)
 62:   3373.43   0.002120   10.72  0.000196  ( 0.002751  0.001681 -0.013629)

--------------------------
THERMOCHEMISTRY AT 298.15K
--------------------------

Temperature         ... 298.15 K
Pressure            ... 1.00 atm
Total Mass          ... 157.14 AMU

Throughout the following assumptions are being made:
  (1) The electronic state is orbitally nondegenerate
  (2) There are no thermally accessible electronically excited states
  (3) Hindered rotations indicated by low frequency modes are not
      treated as such but are treated as vibrations and this may
      cause some error
  (4) All equations used are the standard statistical mechanics
      equations for an ideal gas
  (5) All vibrations are strictly harmonic

freq.      36.97  E(vib)   ...       0.54
freq.      58.40  E(vib)   ...       0.51
freq.      78.05  E(vib)   ...       0.49
freq.      95.09  E(vib)   ...       0.47
freq.     105.83  E(vib)   ...       0.45
freq.     121.64  E(vib)   ...       0.44
freq.     142.40  E(vib)   ...       0.41
freq.     218.50  E(vib)   ...       0.33
freq.     231.50  E(vib)   ...       0.32
freq.     255.37  E(vib)   ...       0.30
freq.     286.25  E(vib)   ...       0.27
freq.     333.45  E(vib)   ...       0.24
freq.     465.68  E(vib)   ...       0.16
freq.     478.74  E(vib)   ...       0.15
freq.     639.20  E(vib)   ...       0.09
freq.     654.59  E(vib)   ...       0.08
freq.     697.42  E(vib)   ...       0.07
freq.     776.70  E(vib)   ...       0.05
freq.     797.52  E(vib)   ...       0.05
freq.     857.31  E(vib)   ...       0.04
freq.     914.64  E(vib)   ...       0.03
freq.     917.33  E(vib)   ...       0.03
freq.    1066.34  E(vib)   ...       0.02
freq.    1088.88  E(vib)   ...       0.02
freq.    1134.22  E(vib)   ...       0.01
freq.    1138.67  E(vib)   ...       0.01
freq.    1178.05  E(vib)   ...       0.01
freq.    1182.13  E(vib)   ...       0.01
freq.    1184.47  E(vib)   ...       0.01
freq.    1287.49  E(vib)   ...       0.01
freq.    1321.99  E(vib)   ...       0.01
freq.    1425.26  E(vib)   ...       0.00
freq.    1435.48  E(vib)   ...       0.00
freq.    1452.35  E(vib)   ...       0.00
freq.    1472.03  E(vib)   ...       0.00
freq.    1498.37  E(vib)   ...       0.00
freq.    1502.63  E(vib)   ...       0.00
freq.    1517.20  E(vib)   ...       0.00
freq.    1535.64  E(vib)   ...       0.00
freq.    1539.88  E(vib)   ...       0.00
freq.    1556.64  E(vib)   ...       0.00
freq.    1561.59  E(vib)   ...       0.00
freq.    1565.64  E(vib)   ...       0.00
freq.    1609.79  E(vib)   ...       0.00
freq.    1678.69  E(vib)   ...       0.00
freq.    2458.50  E(vib)   ...       0.00
freq.    3108.89  E(vib)   ...       0.00
freq.    3130.20  E(vib)   ...       0.00
freq.    3133.98  E(vib)   ...       0.00
freq.    3221.91  E(vib)   ...       0.00
freq.    3223.31  E(vib)   ...       0.00
freq.    3234.75  E(vib)   ...       0.00
freq.    3236.10  E(vib)   ...       0.00
freq.    3256.46  E(vib)   ...       0.00
freq.    3354.47  E(vib)   ...       0.00
freq.    3373.43  E(vib)   ...       0.00

------------
INNER ENERGY
------------

The inner energy is: U= E(el) + E(ZPE) + E(vib) + E(rot) + E(trans)
    E(el)   - is the total energy from the electronic structure calculation
              = E(kin-el) + E(nuc-el) + E(el-el) + E(nuc-nuc)
    E(ZPE)  - the the zero temperature vibrational energy from the frequency calculation
    E(vib)  - the the finite temperature correction to E(ZPE) due to population
              of excited vibrational states
    E(rot)  - is the rotational thermal energy
    E(trans)- is the translational thermal energy

Summary of contributions to the inner energy U:
Electronic energy                ...  -1104.43342537 Eh
Zero point energy                ...      0.17274892 Eh     108.40 kcal/mol
Thermal vibrational correction   ...      0.00906231 Eh       5.69 kcal/mol
Thermal rotational correction    ...      0.00141627 Eh       0.89 kcal/mol
Thermal translational correction ...      0.00141627 Eh       0.89 kcal/mol
-----------------------------------------------------------------------
Total thermal energy                  -1104.24878159 Eh

Summary of corrections to the electronic energy:
(perhaps to be used in another calculation)
Total thermal correction                  0.01189485 Eh       7.46 kcal/mol
Non-thermal (ZPE) correction              0.17274892 Eh     108.40 kcal/mol
-----------------------------------------------------------------------
Total correction                          0.18464377 Eh     115.87 kcal/mol

--------
ENTHALPY
--------

The enthalpy is H = U + kB*T
                kB is Boltzmann's constant
Total free energy                 ...  -1104.24878159 Eh
Thermal Enthalpy correction       ...      0.00094421 Eh       0.59 kcal/mol
-----------------------------------------------------------------------
Total Enthalpy                    ...  -1104.24783738 Eh

Note: Only C1 symmetry has been detected, increase convergence thresholds
      if your molecule has a higher symmetry. Symmetry factor of 1.0 is
      used for the rotational entropy correction.

Note: Rotational entropy computed according to Herzberg
Infrared and Raman Spectra, Chapter V,1, Van Nostrand Reinhold, 1945
Point Group:  C1, Symmetry Number:   1
Rotational constants in cm-1:     0.062909     0.026744     0.019911

Vibrational entropy computed according to the QRRHO of S. Grimme
Chem.Eur.J. 2012 18 9955

-------
ENTROPY
-------

The entropy contributions are T*S = T*(S(el)+S(vib)+S(rot)+S(trans))
     S(el)   - electronic entropy
     S(vib)  - vibrational entropy
     S(rot)  - rotational entropy
     S(trans)- translational entropy
The entropies will be listed as multiplied by the temperature to get
units of energy

Electronic entropy                ...      0.00000000 Eh      0.00 kcal/mol
Vibrational entropy               ...      0.01660200 Eh     10.42 kcal/mol
Rotational entropy                ...      0.01437523 Eh      9.02 kcal/mol
Translational entropy             ...      0.01951131 Eh     12.24 kcal/mol
-----------------------------------------------------------------------
Final entropy term                ...      0.05048854 Eh     31.68 kcal/mol

In case the symmetry of your molecule has not been determined correctly
or in case you have a reason to use a different symmetry number we print
out the resulting rotational entropy values for sn=1,12 :
 --------------------------------------------------------
|  sn= 1 | S(rot)=       0.01437523 Eh      9.02 kcal/mol|
|  sn= 2 | S(rot)=       0.01372077 Eh      8.61 kcal/mol|
|  sn= 3 | S(rot)=       0.01333794 Eh      8.37 kcal/mol|
|  sn= 4 | S(rot)=       0.01306632 Eh      8.20 kcal/mol|
|  sn= 5 | S(rot)=       0.01285563 Eh      8.07 kcal/mol|
|  sn= 6 | S(rot)=       0.01268348 Eh      7.96 kcal/mol|
|  sn= 7 | S(rot)=       0.01253794 Eh      7.87 kcal/mol|

|  1>
|  2>
|  3>   ! PBEh-3c IRC pal8
|  4>   %irc
|  5>     maxiter 600
|  6>     inithess read
|  7>     hess_filename "reaction-5-ieip_optts_Compound_1.hess"
|  8>   end
|  9>
| 10>
| 11>                          ****END OF INPUT****

CARTESIAN COORDINATES (ANGSTROEM)
---------------------------------
  Sc     0.748142    0.073412   -1.913476
  C      0.265631   -0.144259    0.367824
  N     -0.448991   -1.126227    0.948531
  C     -0.505831   -0.962606    2.306591
  C      0.193490    0.157894    2.588727
  N      0.652376    0.640405    1.392117
  C      1.470628    1.830825    1.272362
  H      1.073212    2.621550    1.904423
  H      1.456384    2.187420    0.244073
  H      2.499609    1.627564    1.563067
  C     -1.080359   -2.232801    0.252567
  H     -1.087577   -2.038718   -0.818761
  H     -2.109390   -2.343629    0.587113
  H     -0.542750   -3.160195    0.440026
  H     -1.032881   -1.639521    2.957135
  H      0.390425    0.639767    3.531163
  C     -0.321167    0.840119   -3.494615
  H     -0.485475    0.732495   -4.563498
  H      0.529730    1.616275   -3.384913
  H     -1.226003    1.293555   -3.066047
  H     -0.434540   -0.610454   -3.112380

 Multiplicity           Mult            ....    1
 Number of Electrons    NEL             ....   82
 Basis Dimension        Dim             ....  175

ORBITAL ENERGIES
----------------

  NO   OCC          E(Eh)            E(eV)
   0   2.0000    -162.824682     -4430.6849
   1   2.0000     -18.133779      -493.4452
   2   2.0000     -14.976099      -407.5204
   3   2.0000     -14.968277      -407.3075
   4   2.0000     -14.963042      -407.1651
   5   2.0000     -14.859426      -404.3455
   6   2.0000     -14.858113      -404.3098
   7   2.0000     -10.638197      -289.4801
   8   2.0000     -10.624031      -289.0946
   9   2.0000     -10.622902      -289.0639
  10   2.0000     -10.622607      -289.0558
  11   2.0000     -10.613827      -288.8169
  12   2.0000     -10.584701      -288.0244
  13   2.0000      -2.361231       -64.2524
  14   2.0000      -1.519736       -41.3541
  15   2.0000      -1.504623       -40.9429
  16   2.0000      -1.501293       -40.8523
  17   2.0000      -1.307849       -35.5884
  18   2.0000      -1.185080       -32.2477
  19   2.0000      -1.022281       -27.8177
  20   2.0000      -0.978430       -26.6244
  21   2.0000      -0.923552       -25.1311
  22   2.0000      -0.914554       -24.8863
  23   2.0000      -0.839502       -22.8440
  24   2.0000      -0.801434       -21.8081
  25   2.0000      -0.747957       -20.3529
  26   2.0000      -0.700536       -19.0625
  27   2.0000      -0.672905       -18.3107
  28   2.0000      -0.655135       -17.8271
  29   2.0000      -0.653892       -17.7933
  30   2.0000      -0.647064       -17.6075
  31   2.0000      -0.617850       -16.8126
  32   2.0000      -0.605759       -16.4835
  33   2.0000      -0.602221       -16.3873
  34   2.0000      -0.594295       -16.1716
  35   2.0000      -0.588317       -16.0089
  36   2.0000      -0.555403       -15.1133
  37   2.0000      -0.504157       -13.7188
  38   2.0000      -0.482822       -13.1383
  39   2.0000      -0.433146       -11.7865
  40   2.0000      -0.333582        -9.0772
  41   0.0000      -0.165055        -4.4914
  42   0.0000      -0.157348        -4.2817
  43   0.0000      -0.144278        -3.9260
  44   0.0000      -0.125533        -3.4159
  45   0.0000      -0.120428        -3.2770

MULLIKEN ATOMIC CHARGES
-----------------------
   0 Sc:    0.581170
   1 C :    0.175754
   2 N :   -0.412602
   3 C :   -0.064190
   4 C :   -0.067063
   5 N :   -0.416476
   6 C :   -0.518499
   7 H :    0.279594
   8 H :    0.241602
   9 H :    0.274386
  10 C :   -0.528585
  11 H :    0.263047
  12 H :    0.275553
  13 H :    0.272499
  14 H :    0.301039
  15 H :    0.300438
  16 C :   -0.935424
  17 H :    0.326791
  18 H :    0.215468
  19 H :    0.299717
  20 H :    0.135781
Sum of atomic charges:    1.0000000

LOEWDIN ATOMIC CHARGES
----------------------
   0 Sc:    0.170617
   1 C :   -0.047162
   2 N :    0.001096
   3 C :   -0.081918
   4 C :   -0.083453
   5 N :   -0.003928
   6 C :   -0.236381
   7 H :    0.156458
   8 H :    0.144195
   9 H :    0.150553
  10 C :   -0.241029
  11 H :    0.154687
  12 H :    0.154260
  13 H :    0.150469
  14 H :    0.167885
  15 H :    0.167364
  16 C :   -0.409587
  17 H :    0.177884
  18 H :    0.175807
  19 H :    0.187874
  20 H :    0.144310

  Mayer bond orders larger than 0.100000
B(  0-Sc,  1-C ) :   0.6280 B(  0-Sc, 16-C ) :   0.8045 B(  0-Sc, 18-H ) :   0.1954
B(  0-Sc, 20-H ) :   0.6505 B(  1-C ,  2-N ) :   1.2313 B(  1-C ,  5-N ) :   1.2205
B(  2-N ,  3-C ) :   1.1475 B(  2-N , 10-C ) :   0.9120 B(  3-C ,  4-C ) :   1.6418
B(  3-C , 14-H ) :   0.8797 B(  4-C ,  5-N ) :   1.1436 B(  4-C , 15-H ) :   0.8798
B(  5-N ,  6-C ) :   0.9188 B(  6-C ,  7-H ) :   0.8986 B(  6-C ,  8-H ) :   0.9038
B(  6-C ,  9-H ) :   0.8938 B( 10-C , 11-H ) :   0.8847 B( 10-C , 12-H ) :   0.8988
B( 10-C , 13-H ) :   0.8955 B( 16-C , 17-H ) :   0.8816 B( 16-C , 18-H ) :   0.7398
B( 16-C , 19-H ) :   0.8528 B( 16-C , 20-H ) :   0.3085

Dispersion correction           -0.010725680
FINAL SINGLE POINT ENERGY     -1104.433425412653
Dispersion correction            ... done

DIPOLE MOMENT
-------------
                                X             Y             Z
Electronic contribution:      5.59264      -1.00373      -2.75358
Nuclear contribution   :     -4.90937       1.13529       2.74571
                        -----------------------------------------
Total Dipole Moment    :      0.68327       0.13156      -0.00787
                        -----------------------------------------
Magnitude (a.u.)       :      0.69586
Magnitude (Debye)      :      1.76874

Rotational constants in cm-1:     0.062909     0.026744     0.019911
Rotational constants in MHz :  1885.972712   801.760726   596.915191

                      ***********************HURRAY********************
                             ****ORCA TERMINATED NORMALLY****
TOTAL RUN TIME: 0 days 1 hours 47 minutes 5 seconds 176 msec
