                         Program Version 5.0.3 -  RELEASE  -
|  1> ! EnGrad PBEh-3c
|  2> %output
|  3> xyzfile=True
|  4> end
|  5> %scf
|  6> maxiter 250
|  7> end
|  8> %output
|  9> Print[P_Hirshfeld] = 1
| 10> end
| 11> % maxcore
| 12> 4000
| 13> *xyz 0 1
| 14> Pd   0.44796258   0.21467811  -0.33161295
| 15> O    1.98756331   1.41574613   0.68207413
| 16> C    1.78491279   2.59402992   0.36666685
| 17> O    0.66066524   2.82567965  -0.21161401
| 18> C    2.74913898   3.70949758   0.61523446
| 19> H    2.26415577   4.58124259   1.05109219
| 20> H    3.17411181   4.03169586  -0.33711832
| 21> H    3.55516728   3.38023708   1.26496899
| 22> N   -1.34935580  -0.74459831  -0.96564042
| 23> C   -1.20326435  -1.80387324  -1.98766608
| 24> H   -0.78156756  -1.49102352  -2.93775785
| 25> H   -2.17434378  -2.18476560  -2.34768534
| 26> H   -0.54373960  -2.55934153  -1.57545270
| 27> C   -2.08962166   0.31644054  -1.66422391
| 28> H   -2.23559892   1.18330150  -1.03237087
| 29> H   -3.08921895   0.00548066  -1.99990718
| 30> H   -1.57970828   0.67920587  -2.55234568
| 31> C   -1.57364554  -1.03902796   1.44248925
| 32> C   -1.21091074  -2.10287224   2.26369538
| 33> C   -1.07785161  -1.97529770   3.63331611
| 34> C   -1.09957267  -0.71259791   4.18955053
| 35> C   -1.55621475   0.33196798   3.39712600
| 36> C   -1.82017522   0.19177243   2.04312115
| 37> H   -0.90743877  -0.59432579   5.24842814
| 38> H   -1.63787762   1.28564126   3.90543504
| 39> H   -1.34906783  -3.13906282   1.96389696
| 40> H   -0.94410069  -2.82611831   4.29192008
| 41> H   -2.22650365   3.36478307   1.41554433
| 42> C   -2.21679815  -1.28844759   0.11253135
| 43> H   -3.24573820  -0.89358622   0.14725086
| 44> H   -2.44768022  -2.35932773   0.02595695
| 45> O    2.00035039  -0.25440693  -1.45492973
| 46> C    2.28702750  -0.47721223  -2.68410391
| 47> O    1.43182181  -0.55104442  -3.53202885
| 48> C    3.70915052  -0.74058798  -3.05274109
| 49> H    3.91069418  -1.78488754  -3.27303537
| 50> H    4.37412186  -0.47339737  -2.23224606
| 51> H    4.02314529  -0.11559729  -3.88780374
| 52> *
| 53>
| 54>                          ****END OF INPUT****

CARTESIAN COORDINATES (ANGSTROEM)
---------------------------------
  Pd     0.447963    0.214678   -0.331613
  O      1.987563    1.415746    0.682074
  C      1.784913    2.594030    0.366667
  O      0.660665    2.825680   -0.211614
  C      2.749139    3.709498    0.615234
  H      2.264156    4.581243    1.051092
  H      3.174112    4.031696   -0.337118
  H      3.555167    3.380237    1.264969
  N     -1.349356   -0.744598   -0.965640
  C     -1.203264   -1.803873   -1.987666
  H     -0.781568   -1.491024   -2.937758
  H     -2.174344   -2.184766   -2.347685
  H     -0.543740   -2.559342   -1.575453
  C     -2.089622    0.316441   -1.664224
  H     -2.235599    1.183301   -1.032371
  H     -3.089219    0.005481   -1.999907
  H     -1.579708    0.679206   -2.552346
  C     -1.573646   -1.039028    1.442489
  C     -1.210911   -2.102872    2.263695
  C     -1.077852   -1.975298    3.633316
  C     -1.099573   -0.712598    4.189551
  C     -1.556215    0.331968    3.397126
  C     -1.820175    0.191772    2.043121
  H     -0.907439   -0.594326    5.248428
  H     -1.637878    1.285641    3.905435
  H     -1.349068   -3.139063    1.963897
  H     -0.944101   -2.826118    4.291920
  H     -2.226504    3.364783    1.415544
  C     -2.216798   -1.288448    0.112531
  H     -3.245738   -0.893586    0.147251
  H     -2.447680   -2.359328    0.025957
  O      2.000350   -0.254407   -1.454930
  C      2.287027   -0.477212   -2.684104
  O      1.431822   -0.551044   -3.532029
  C      3.709151   -0.740588   -3.052741
  H      3.910694   -1.784888   -3.273035
  H      4.374122   -0.473397   -2.232246
  H      4.023145   -0.115597   -3.887804

 Total Charge           Charge          ....    0
 Multiplicity           Mult            ....    1
 Number of Electrons    NEL             ....  154
 Basis Dimension        Dim             ....  339

ORBITAL ENERGIES
----------------

  NO   OCC          E(Eh)            E(eV)
   0   2.0000     -19.473297      -529.8954
   1   2.0000     -19.471378      -529.8431
   2   2.0000     -19.416831      -528.3588
   3   2.0000     -19.416239      -528.3427
   4   2.0000     -14.737750      -401.0346
   5   2.0000     -10.526364      -286.4369
   6   2.0000     -10.523689      -286.3641
   7   2.0000     -10.522556      -286.3333
   8   2.0000     -10.517010      -286.1824
   9   2.0000     -10.503097      -285.8038
  10   2.0000     -10.486738      -285.3587
  11   2.0000     -10.483642      -285.2744
  12   2.0000     -10.482535      -285.2443
  13   2.0000     -10.481194      -285.2078
  14   2.0000     -10.479954      -285.1740
  15   2.0000     -10.476782      -285.0877
  16   2.0000     -10.419791      -283.5369
  17   2.0000     -10.412123      -283.3283
  18   2.0000      -3.671691       -99.9118
  19   2.0000      -2.322216       -63.1907
  20   2.0000      -2.312811       -62.9348
  21   2.0000      -2.281111       -62.0722
  22   2.0000      -1.155769       -31.4501
  23   2.0000      -1.151063       -31.3220
  24   2.0000      -1.091017       -29.6881
  25   2.0000      -1.046818       -28.4854
  26   2.0000      -1.016784       -27.6681
  27   2.0000      -0.998297       -27.1651
  28   2.0000      -0.905135       -24.6300
  29   2.0000      -0.865147       -23.5419
  30   2.0000      -0.821389       -22.3511
  31   2.0000      -0.815379       -22.1876
  32   2.0000      -0.805218       -21.9111
  33   2.0000      -0.798711       -21.7340
  34   2.0000      -0.733017       -19.9464
  35   2.0000      -0.710899       -19.3445
  36   2.0000      -0.687395       -18.7050
  37   2.0000      -0.612826       -16.6758
  38   2.0000      -0.600529       -16.3412
  39   2.0000      -0.585685       -15.9373
  40   2.0000      -0.582653       -15.8548
  41   2.0000      -0.578037       -15.7292
  42   2.0000      -0.567185       -15.4339
  43   2.0000      -0.546524       -14.8717
  44   2.0000      -0.532487       -14.4897
  45   2.0000      -0.518798       -14.1172
  46   2.0000      -0.509295       -13.8586
  47   2.0000      -0.500928       -13.6309
  48   2.0000      -0.495205       -13.4752
  49   2.0000      -0.489983       -13.3331
  50   2.0000      -0.487289       -13.2598
  51   2.0000      -0.486775       -13.2458
  52   2.0000      -0.483587       -13.1591
  53   2.0000      -0.481169       -13.0933
  54   2.0000      -0.459529       -12.5044
  55   2.0000      -0.448347       -12.2002
  56   2.0000      -0.437245       -11.8980
  57   2.0000      -0.434874       -11.8335
  58   2.0000      -0.431772       -11.7491
  59   2.0000      -0.427084       -11.6215
  60   2.0000      -0.420626       -11.4458
  61   2.0000      -0.418133       -11.3780
  62   2.0000      -0.411045       -11.1851
  63   2.0000      -0.404174       -10.9981
  64   2.0000      -0.378636       -10.3032
  65   2.0000      -0.367847       -10.0096
  66   2.0000      -0.354810        -9.6549
  67   2.0000      -0.343504        -9.3472
  68   2.0000      -0.330454        -8.9921
  69   2.0000      -0.324462        -8.8291
  70   2.0000      -0.323588        -8.8053
  71   2.0000      -0.309616        -8.4251
  72   2.0000      -0.291276        -7.9260
  73   2.0000      -0.285787        -7.7767
  74   2.0000      -0.272768        -7.4224
  75   2.0000      -0.271037        -7.3753
  76   2.0000      -0.256810        -6.9882
  77   0.0000      -0.172903        -4.7049
  78   0.0000      -0.103734        -2.8227
  79   0.0000      -0.026284        -0.7152
  80   0.0000      -0.011472        -0.3122
  81   0.0000       0.052137         1.4187

MULLIKEN ATOMIC CHARGES
-----------------------
   0 Pd:    0.535885
   1 O :   -0.451769
   2 C :    0.585126
   3 O :   -0.534717
   4 C :   -0.749133
   5 H :    0.246798
   6 H :    0.253047
   7 H :    0.234873
   8 N :   -0.488009
   9 C :   -0.553305
  10 H :    0.323420
  11 H :    0.221799
  12 H :    0.261446
  13 C :   -0.574209
  14 H :    0.294369
  15 H :    0.234673
  16 H :    0.306740
  17 C :   -0.070415
  18 C :   -0.214227
  19 C :   -0.234125
  20 C :   -0.180649
  21 C :   -0.290137
  22 C :    0.053360
  23 H :    0.244690
  24 H :    0.258764
  25 H :    0.223840
  26 H :    0.244633
  27 H :    0.065975
  28 C :   -0.319836
  29 H :    0.274152
  30 H :    0.261734
  31 O :   -0.523391
  32 C :    0.550131
  33 O :   -0.465729
  34 C :   -0.753595
  35 H :    0.242486
  36 H :    0.239829
  37 H :    0.245477
Sum of atomic charges:   -0.0000000

LOEWDIN ATOMIC CHARGES
----------------------
   0 Pd:   -0.179975
   1 O :   -0.146278
   2 C :    0.134387
   3 O :   -0.313148
   4 C :   -0.379220
   5 H :    0.151224
   6 H :    0.158930
   7 H :    0.140956
   8 N :   -0.047602
   9 C :   -0.245526
  10 H :    0.170481
  11 H :    0.121793
  12 H :    0.148691
  13 C :   -0.242973
  14 H :    0.159354
  15 H :    0.125355
  16 H :    0.166720
  17 C :   -0.071066
  18 C :   -0.105120
  19 C :   -0.123750
  20 C :   -0.111796
  21 C :   -0.127192
  22 C :    0.009389
  23 H :    0.148072
  24 H :    0.155255
  25 H :    0.148794
  26 H :    0.146105
  27 H :    0.067558
  28 C :   -0.102212
  29 H :    0.157024
  30 H :    0.147318
  31 O :   -0.142200
  32 C :    0.103615
  33 O :   -0.281096
  34 C :   -0.381635
  35 H :    0.150079
  36 H :    0.139658
  37 H :    0.150032

  Mayer bond orders larger than 0.100000
B(  0-Pd,  1-O ) :   0.5764 B(  0-Pd,  3-O ) :   0.2496 B(  0-Pd,  8-N ) :   0.4341
B(  0-Pd, 22-C ) :   0.1004 B(  0-Pd, 31-O ) :   0.6758 B(  1-O ,  2-C ) :   1.4309
B(  2-C ,  3-O ) :   1.6417 B(  2-C ,  4-C ) :   0.9399 B(  4-C ,  5-H ) :   0.9145
B(  4-C ,  6-H ) :   0.9099 B(  4-C ,  7-H ) :   0.9136 B(  8-N ,  9-C ) :   0.9109
B(  8-N , 13-C ) :   0.9090 B(  8-N , 28-C ) :   0.8848 B(  9-C , 10-H ) :   0.8630
B(  9-C , 11-H ) :   0.9022 B(  9-C , 12-H ) :   0.9115 B( 13-C , 14-H ) :   0.8842
B( 13-C , 15-H ) :   0.9004 B( 13-C , 16-H ) :   0.8837 B( 17-C , 18-C ) :   1.3703
B( 17-C , 22-C ) :   1.4181 B( 17-C , 28-C ) :   0.9329 B( 18-C , 19-C ) :   1.4521
B( 18-C , 25-H ) :   0.9121 B( 19-C , 20-C ) :   1.4221 B( 19-C , 26-H ) :   0.9060
B( 20-C , 21-C ) :   1.3980 B( 20-C , 23-H ) :   0.9049 B( 21-C , 22-C ) :   1.4531
B( 21-C , 24-H ) :   0.9028 B( 22-C , 27-H ) :   0.7148 B( 28-C , 29-H ) :   0.8960
B( 28-C , 30-H ) :   0.9105 B( 31-O , 32-C ) :   1.2812 B( 32-C , 33-O ) :   1.9025
B( 32-C , 34-C ) :   0.9251 B( 34-C , 35-H ) :   0.9152 B( 34-C , 36-H ) :   0.9125
B( 34-C , 37-H ) :   0.9156

Dispersion correction           -0.025294974
FINAL SINGLE POINT ENERGY      -988.180111465928
Dispersion correction            ... done

DIPOLE MOMENT
-------------
                                X             Y             Z
Electronic contribution:     17.91000       8.31409     -14.88597
Nuclear contribution   :    -20.04275      -9.88014      16.60536
                        -----------------------------------------
Total Dipole Moment    :     -2.13275      -1.56605       1.71939
                        -----------------------------------------
Magnitude (a.u.)       :      3.15554
Magnitude (Debye)      :      8.02076

Rotational constants in cm-1:     0.013390     0.008130     0.006329
Rotational constants in MHz :   401.427583   243.745888   189.730323

                             ****ORCA TERMINATED NORMALLY****
TOTAL RUN TIME: 0 days 0 hours 15 minutes 8 seconds 245 msec
