                         Program Version 5.0.3 -  RELEASE  -
|  1> ! EnGrad PBEh-3c
|  2> %output
|  3> xyzfile=True
|  4> end
|  5> %scf
|  6> maxiter 250
|  7> end
|  8> %output
|  9> Print[P_Hirshfeld] = 1
| 10> end
| 11> % maxcore
| 12> 4000
| 13> *xyz 0 1
| 14> Pd   0.46758448   0.25961516  -0.29065994
| 15> O    2.01674703   1.32977798   0.69379807
| 16> C    1.64852329   2.63610773   0.30158878
| 17> O    0.71767155   2.83905903  -0.18946375
| 18> C    2.76023763   3.70332757   0.62016666
| 19> H    2.25861084   4.57762121   1.05147400
| 20> H    3.17433526   4.03117789  -0.33606142
| 21> H    3.55944923   3.38492957   1.26580657
| 22> N   -1.37519442  -0.75122078  -1.03388480
| 23> C   -1.19599452  -1.81480784  -2.00880508
| 24> H   -0.76378844  -1.46433479  -2.93087388
| 25> H   -2.17229442  -2.18751983  -2.32608967
| 26> H   -0.54855627  -2.56822680  -1.58682223
| 27> C   -2.10578857   0.35105030  -1.66692566
| 28> H   -2.23689285   1.18837011  -1.01644395
| 29> H   -3.08601018  -0.00026399  -1.99046276
| 30> H   -1.57190578   0.67892225  -2.54827006
| 31> C   -1.62123193  -1.01111011   1.43251505
| 32> C   -1.22745224  -2.13154922   2.28837351
| 33> C   -1.04484948  -1.96310447   3.63431137
| 34> C   -1.12642098  -0.72583852   4.18536958
| 35> C   -1.55594045   0.38489060   3.39954493
| 36> C   -1.78930896   0.18113708   2.08974570
| 37> H   -0.91159083  -0.58365614   5.24705647
| 38> H   -1.65738259   1.29032622   3.89995385
| 39> H   -1.32350270  -3.13149785   1.93876690
| 40> H   -0.92623114  -2.82787214   4.27975235
| 41> H   -2.23683770   3.31727137   1.42394965
| 42> C   -2.20621066  -1.30556122   0.13431291
| 43> H   -3.22902035  -0.88464570   0.13359814
| 44> H   -2.41663283  -2.36175673   0.01221144
| 45> O    2.04193994  -0.27025429  -1.42039136
| 46> C    2.23616311  -0.49444786  -2.69191133
| 47> O    1.40767702  -0.53165992  -3.57612591
| 48> C    3.74622541  -0.73004662  -3.02250328
| 49> H    3.89660117  -1.79813935  -3.27769985
| 50> H    4.37691943  -0.48605391  -2.22803700
| 51> H    4.02089472  -0.13093336  -3.89175841
| 52> *
| 53>
| 54>                          ****END OF INPUT****

CARTESIAN COORDINATES (ANGSTROEM)
---------------------------------
  Pd     0.467584    0.259615   -0.290660
  O      2.016747    1.329778    0.693798
  C      1.648523    2.636108    0.301589
  O      0.717672    2.839059   -0.189464
  C      2.760238    3.703328    0.620167
  H      2.258611    4.577621    1.051474
  H      3.174335    4.031178   -0.336061
  H      3.559449    3.384930    1.265807
  N     -1.375194   -0.751221   -1.033885
  C     -1.195995   -1.814808   -2.008805
  H     -0.763788   -1.464335   -2.930874
  H     -2.172294   -2.187520   -2.326090
  H     -0.548556   -2.568227   -1.586822
  C     -2.105789    0.351050   -1.666926
  H     -2.236893    1.188370   -1.016444
  H     -3.086010   -0.000264   -1.990463
  H     -1.571906    0.678922   -2.548270
  C     -1.621232   -1.011110    1.432515
  C     -1.227452   -2.131549    2.288374
  C     -1.044849   -1.963104    3.634311
  C     -1.126421   -0.725839    4.185370
  C     -1.555940    0.384891    3.399545
  C     -1.789309    0.181137    2.089746
  H     -0.911591   -0.583656    5.247056
  H     -1.657383    1.290326    3.899954
  H     -1.323503   -3.131498    1.938767
  H     -0.926231   -2.827872    4.279752
  H     -2.236838    3.317271    1.423950
  C     -2.206211   -1.305561    0.134313
  H     -3.229020   -0.884646    0.133598
  H     -2.416633   -2.361757    0.012211
  O      2.041940   -0.270254   -1.420391
  C      2.236163   -0.494448   -2.691911
  O      1.407677   -0.531660   -3.576126
  C      3.746225   -0.730047   -3.022503
  H      3.896601   -1.798139   -3.277700
  H      4.376919   -0.486054   -2.228037
  H      4.020895   -0.130933   -3.891758

 Total Charge           Charge          ....    0
 Multiplicity           Mult            ....    1
 Number of Electrons    NEL             ....  154
 Basis Dimension        Dim             ....  339

ORBITAL ENERGIES
----------------

  NO   OCC          E(Eh)            E(eV)
   0   2.0000     -19.472641      -529.8775
   1   2.0000     -19.471140      -529.8366
   2   2.0000     -19.459457      -529.5187
   3   2.0000     -19.427869      -528.6592
   4   2.0000     -14.722621      -400.6229
   5   2.0000     -10.535669      -286.6901
   6   2.0000     -10.531321      -286.5718
   7   2.0000     -10.530329      -286.5448
   8   2.0000     -10.517108      -286.1851
   9   2.0000     -10.513953      -286.0992
  10   2.0000     -10.497457      -285.6503
  11   2.0000     -10.491656      -285.4925
  12   2.0000     -10.488520      -285.4071
  13   2.0000     -10.479975      -285.1746
  14   2.0000     -10.479899      -285.1726
  15   2.0000     -10.472724      -284.9773
  16   2.0000     -10.418995      -283.5153
  17   2.0000     -10.407196      -283.1942
  18   2.0000      -3.658355       -99.5489
  19   2.0000      -2.307424       -62.7882
  20   2.0000      -2.299753       -62.5795
  21   2.0000      -2.270443       -61.7819
  22   2.0000      -1.238127       -33.6911
  23   2.0000      -1.137448       -30.9515
  24   2.0000      -1.077241       -29.3132
  25   2.0000      -1.048307       -28.5259
  26   2.0000      -1.022298       -27.8181
  27   2.0000      -1.005410       -27.3586
  28   2.0000      -0.912813       -24.8389
  29   2.0000      -0.880769       -23.9669
  30   2.0000      -0.824337       -22.4314
  31   2.0000      -0.815894       -22.2016
  32   2.0000      -0.791569       -21.5397
  33   2.0000      -0.781808       -21.2741
  34   2.0000      -0.731187       -19.8966
  35   2.0000      -0.722358       -19.6564
  36   2.0000      -0.685524       -18.6541
  37   2.0000      -0.618714       -16.8361
  38   2.0000      -0.588960       -16.0264
  39   2.0000      -0.584504       -15.9052
  40   2.0000      -0.580236       -15.7890
  41   2.0000      -0.574184       -15.6244
  42   2.0000      -0.569607       -15.4998
  43   2.0000      -0.549215       -14.9449
  44   2.0000      -0.542803       -14.7704
  45   2.0000      -0.532660       -14.4944
  46   2.0000      -0.517243       -14.0749
  47   2.0000      -0.513083       -13.9617
  48   2.0000      -0.510482       -13.8909
  49   2.0000      -0.501414       -13.6442
  50   2.0000      -0.495040       -13.4707
  51   2.0000      -0.483948       -13.1689
  52   2.0000      -0.480874       -13.0852
  53   2.0000      -0.478402       -13.0180
  54   2.0000      -0.468119       -12.7382
  55   2.0000      -0.456264       -12.4156
  56   2.0000      -0.449081       -12.2201
  57   2.0000      -0.441238       -12.0067
  58   2.0000      -0.438330       -11.9276
  59   2.0000      -0.437881       -11.9153
  60   2.0000      -0.430535       -11.7154
  61   2.0000      -0.426710       -11.6114
  62   2.0000      -0.410054       -11.1581
  63   2.0000      -0.395209       -10.7542
  64   2.0000      -0.375745       -10.2246
  65   2.0000      -0.360222        -9.8021
  66   2.0000      -0.342143        -9.3102
  67   2.0000      -0.340121        -9.2552
  68   2.0000      -0.339744        -9.2449
  69   2.0000      -0.329376        -8.9628
  70   2.0000      -0.321406        -8.7459
  71   2.0000      -0.309889        -8.4325
  72   2.0000      -0.300741        -8.1836
  73   2.0000      -0.290745        -7.9116
  74   2.0000      -0.279531        -7.6064
  75   2.0000      -0.276729        -7.5302
  76   2.0000      -0.266230        -7.2445
  77   0.0000      -0.164922        -4.4878
  78   0.0000      -0.090345        -2.4584
  79   0.0000      -0.039799        -1.0830
  80   0.0000      -0.011251        -0.3061
  81   0.0000       0.054336         1.4786

MULLIKEN ATOMIC CHARGES
-----------------------
   0 Pd:    0.440316
   1 O :   -0.539760
   2 C :    0.536977
   3 O :   -0.279805
   4 C :   -0.758117
   5 H :    0.224973
   6 H :    0.241578
   7 H :    0.252017
   8 N :   -0.473892
   9 C :   -0.543412
  10 H :    0.315914
  11 H :    0.211132
  12 H :    0.258500
  13 C :   -0.558257
  14 H :    0.286621
  15 H :    0.226844
  16 H :    0.296556
  17 C :   -0.045740
  18 C :   -0.217247
  19 C :   -0.201290
  20 C :   -0.217805
  21 C :   -0.256275
  22 C :    0.053593
  23 H :    0.249104
  24 H :    0.274820
  25 H :    0.235524
  26 H :    0.245749
  27 H :    0.002740
  28 C :   -0.334094
  29 H :    0.264567
  30 H :    0.265256
  31 O :   -0.516569
  32 C :    0.544681
  33 O :   -0.460573
  34 C :   -0.740487
  35 H :    0.224095
  36 H :    0.257134
  37 H :    0.234631
Sum of atomic charges:   -0.0000000

LOEWDIN ATOMIC CHARGES
----------------------
   0 Pd:   -0.236913
   1 O :   -0.257064
   2 C :    0.106910
   3 O :   -0.039785
   4 C :   -0.395045
   5 H :    0.139378
   6 H :    0.150266
   7 H :    0.144584
   8 N :   -0.074590
   9 C :   -0.247610
  10 H :    0.167304
  11 H :    0.115023
  12 H :    0.147561
  13 C :   -0.241698
  14 H :    0.156171
  15 H :    0.120767
  16 H :    0.163349
  17 C :   -0.064348
  18 C :   -0.087585
  19 C :   -0.130420
  20 C :   -0.099118
  21 C :   -0.124850
  22 C :    0.038112
  23 H :    0.150308
  24 H :    0.161714
  25 H :    0.149458
  26 H :    0.150531
  27 H :    0.002259
  28 C :   -0.100716
  29 H :    0.155227
  30 H :    0.149100
  31 O :   -0.159739
  32 C :    0.132719
  33 O :   -0.280402
  34 C :   -0.388041
  35 H :    0.143160
  36 H :    0.140506
  37 H :    0.143518

  Mayer bond orders larger than 0.100000
B(  0-Pd,  1-O ) :   0.7776 B(  0-Pd,  3-O ) :   0.1446 B(  0-Pd,  8-N ) :   0.3768
B(  0-Pd, 31-O ) :   0.6729 B(  1-O ,  2-C ) :   1.0964 B(  2-C ,  3-O ) :   2.0348
B(  2-C ,  4-C ) :   0.9100 B(  4-C ,  5-H ) :   0.9193 B(  4-C ,  6-H ) :   0.9154
B(  4-C ,  7-H ) :   0.9132 B(  8-N ,  9-C ) :   0.9249 B(  8-N , 13-C ) :   0.9188
B(  8-N , 28-C ) :   0.8836 B(  9-C , 10-H ) :   0.8653 B(  9-C , 11-H ) :   0.9049
B(  9-C , 12-H ) :   0.9120 B( 13-C , 14-H ) :   0.8866 B( 13-C , 15-H ) :   0.9046
B( 13-C , 16-H ) :   0.8881 B( 17-C , 18-C ) :   1.3492 B( 17-C , 22-C ) :   1.4331
B( 17-C , 28-C ) :   0.9375 B( 18-C , 19-C ) :   1.4608 B( 18-C , 21-C ) :   0.1039
B( 18-C , 25-H ) :   0.9050 B( 19-C , 20-C ) :   1.4283 B( 19-C , 26-H ) :   0.9057
B( 20-C , 21-C ) :   1.3767 B( 20-C , 23-H ) :   0.9020 B( 21-C , 22-C ) :   1.4813
B( 21-C , 24-H ) :   0.8959 B( 22-C , 27-H ) :   0.7008 B( 28-C , 29-H ) :   0.8979
B( 28-C , 30-H ) :   0.9100 B( 31-O , 32-C ) :   1.2759 B( 31-O , 33-O ) :   0.1054
B( 32-C , 33-O ) :   1.9054 B( 32-C , 34-C ) :   0.9077 B( 34-C , 35-H ) :   0.9230
B( 34-C , 36-H ) :   0.9045 B( 34-C , 37-H ) :   0.9197

Dispersion correction           -0.025232468
FINAL SINGLE POINT ENERGY      -988.161262881225
Dispersion correction            ... done

DIPOLE MOMENT
-------------
                                X             Y             Z
Electronic contribution:     18.64109      10.91306     -12.57445
Nuclear contribution   :    -21.08197     -12.30891      14.41005
                        -----------------------------------------
Total Dipole Moment    :     -2.44088      -1.39585       1.83559
                        -----------------------------------------
Magnitude (a.u.)       :      3.35793
Magnitude (Debye)      :      8.53518

Rotational constants in cm-1:     0.013302     0.008098     0.006318
Rotational constants in MHz :   398.794124   242.757140   189.395757

                             ****ORCA TERMINATED NORMALLY****
TOTAL RUN TIME: 0 days 0 hours 11 minutes 11 seconds 488 msec
