                         Program Version 5.0.3 -  RELEASE  -
|  1> ! EnGrad PBEh-3c
|  2> %output
|  3> xyzfile=True
|  4> end
|  5> %scf
|  6> maxiter 250
|  7> end
|  8> %output
|  9> Print[P_Hirshfeld] = 1
| 10> end
| 11> % maxcore
| 12> 4000
| 13> *xyz 0 1
| 14> Pd   0.45362464   0.22764509  -0.31979561
| 15> O    1.99598452   1.39093928   0.68545717
| 16> C    1.74555642   2.60617184   0.34788801
| 17> O    0.67711491   2.82954038  -0.20522236
| 18> C    2.75234159   3.70771717   0.61665769
| 19> H    2.26255573   4.58019761   1.05120236
| 20> H    3.17417629   4.03154640  -0.33681334
| 21> H    3.55640287   3.38159113   1.26521068
| 22> N   -1.35681175  -0.74650928  -0.98533292
| 23> C   -1.20116658  -1.80702851  -1.99376592
| 24> H   -0.77643724  -1.48332226  -2.93577142
| 25> H   -2.17375242  -2.18556036  -2.34145373
| 26> H   -0.54512949  -2.56190545  -1.57873348
| 27> C   -2.09428676   0.32642748  -1.66500352
| 28> H   -2.23597230   1.18476409  -1.02777502
| 29> H   -3.08829303   0.00382299  -1.99718191
| 30> H   -1.57745680   0.67912403  -2.55116963
| 31> C   -1.58737700  -1.03097202   1.43961111
| 32> C   -1.21568394  -2.11114723   2.27081647
| 33> C   -1.06832856  -1.97177924   3.63360330
| 34> C   -1.10731998  -0.71641860   4.18834408
| 35> C   -1.55613560   0.34723926   3.39782400
| 36> C   -1.81126850   0.18870351   2.05657507
| 37> H   -0.90863689  -0.59124697   5.24803234
| 38> H   -1.64350595   1.28699314   3.90385340
| 39> H   -1.34169079  -3.13687988   1.95664547
| 40> H   -0.93894427  -2.82662439   4.28840898
| 41> H   -2.22948563   3.35107316   1.41796976
| 42> C   -2.21374304  -1.29338588   0.11881661
| 43> H   -3.24091412  -0.89100635   0.14331125
| 44> H   -2.43872123  -2.36002864   0.02199057
| 45> O    2.01235141  -0.25897982  -1.44496338
| 46> C    2.27235014  -0.48218572  -2.68635681
| 47> O    1.42485462  -0.54545085  -3.54475344
| 48> C    3.71984880  -0.73754618  -3.04401571
| 49> H    3.90662752  -1.78871147  -3.27438135
| 50> H    4.37492912  -0.47704952  -2.23103150
| 51> H    4.02249587  -0.12002264  -3.88894489
| 52> *
| 53>
| 54>                          ****END OF INPUT****

CARTESIAN COORDINATES (ANGSTROEM)
---------------------------------
  Pd     0.453625    0.227645   -0.319796
  O      1.995985    1.390939    0.685457
  C      1.745556    2.606172    0.347888
  O      0.677115    2.829540   -0.205222
  C      2.752342    3.707717    0.616658
  H      2.262556    4.580198    1.051202
  H      3.174176    4.031546   -0.336813
  H      3.556403    3.381591    1.265211
  N     -1.356812   -0.746509   -0.985333
  C     -1.201167   -1.807029   -1.993766
  H     -0.776437   -1.483322   -2.935771
  H     -2.173752   -2.185560   -2.341454
  H     -0.545129   -2.561905   -1.578733
  C     -2.094287    0.326427   -1.665004
  H     -2.235972    1.184764   -1.027775
  H     -3.088293    0.003823   -1.997182
  H     -1.577457    0.679124   -2.551170
  C     -1.587377   -1.030972    1.439611
  C     -1.215684   -2.111147    2.270816
  C     -1.068329   -1.971779    3.633603
  C     -1.107320   -0.716419    4.188344
  C     -1.556136    0.347239    3.397824
  C     -1.811268    0.188704    2.056575
  H     -0.908637   -0.591247    5.248032
  H     -1.643506    1.286993    3.903853
  H     -1.341691   -3.136880    1.956645
  H     -0.938944   -2.826624    4.288409
  H     -2.229486    3.351073    1.417970
  C     -2.213743   -1.293386    0.118817
  H     -3.240914   -0.891006    0.143311
  H     -2.438721   -2.360029    0.021991
  O      2.012351   -0.258980   -1.444963
  C      2.272350   -0.482186   -2.686357
  O      1.424855   -0.545451   -3.544753
  C      3.719849   -0.737546   -3.044016
  H      3.906628   -1.788711   -3.274381
  H      4.374929   -0.477050   -2.231031
  H      4.022496   -0.120023   -3.888945

 Total Charge           Charge          ....    0
 Multiplicity           Mult            ....    1
 Number of Electrons    NEL             ....  154
 Basis Dimension        Dim             ....  339

ORBITAL ENERGIES
----------------

  NO   OCC          E(Eh)            E(eV)
   0   2.0000     -19.472937      -529.8856
   1   2.0000     -19.467074      -529.7260
   2   2.0000     -19.429460      -528.7025
   3   2.0000     -19.419694      -528.4367
   4   2.0000     -14.733670      -400.9235
   5   2.0000     -10.528028      -286.4822
   6   2.0000     -10.525719      -286.4194
   7   2.0000     -10.525316      -286.4084
   8   2.0000     -10.517424      -286.1936
   9   2.0000     -10.506811      -285.9048
  10   2.0000     -10.490231      -285.4537
  11   2.0000     -10.484920      -285.3092
  12   2.0000     -10.484368      -285.2941
  13   2.0000     -10.482723      -285.2494
  14   2.0000     -10.478003      -285.1210
  15   2.0000     -10.477959      -285.1197
  16   2.0000     -10.418996      -283.5153
  17   2.0000     -10.410456      -283.2829
  18   2.0000      -3.668418       -99.8227
  19   2.0000      -2.318400       -63.0869
  20   2.0000      -2.309737       -62.8511
  21   2.0000      -2.278427       -61.9992
  22   2.0000      -1.152257       -31.3545
  23   2.0000      -1.146902       -31.2088
  24   2.0000      -1.087253       -29.5857
  25   2.0000      -1.047563       -28.5057
  26   2.0000      -1.035989       -28.1907
  27   2.0000      -1.000766       -27.2322
  28   2.0000      -0.907667       -24.6989
  29   2.0000      -0.870112       -23.6769
  30   2.0000      -0.822488       -22.3810
  31   2.0000      -0.815855       -22.2005
  32   2.0000      -0.800189       -21.7742
  33   2.0000      -0.793511       -21.5925
  34   2.0000      -0.731799       -19.9133
  35   2.0000      -0.715610       -19.4727
  36   2.0000      -0.687557       -18.7094
  37   2.0000      -0.614510       -16.7217
  38   2.0000      -0.597011       -16.2455
  39   2.0000      -0.584168       -15.8960
  40   2.0000      -0.582859       -15.8604
  41   2.0000      -0.574611       -15.6360
  42   2.0000      -0.567098       -15.4315
  43   2.0000      -0.547056       -14.8861
  44   2.0000      -0.537000       -14.6125
  45   2.0000      -0.514435       -13.9985
  46   2.0000      -0.510898       -13.9022
  47   2.0000      -0.501515       -13.6469
  48   2.0000      -0.492668       -13.4062
  49   2.0000      -0.491137       -13.3645
  50   2.0000      -0.488065       -13.2809
  51   2.0000      -0.485861       -13.2209
  52   2.0000      -0.483292       -13.1510
  53   2.0000      -0.481853       -13.1119
  54   2.0000      -0.462301       -12.5798
  55   2.0000      -0.450311       -12.2536
  56   2.0000      -0.440154       -11.9772
  57   2.0000      -0.436638       -11.8815
  58   2.0000      -0.432549       -11.7703
  59   2.0000      -0.427009       -11.6195
  60   2.0000      -0.425617       -11.5816
  61   2.0000      -0.421126       -11.4594
  62   2.0000      -0.408833       -11.1249
  63   2.0000      -0.403252       -10.9730
  64   2.0000      -0.377670       -10.2769
  65   2.0000      -0.366007        -9.9596
  66   2.0000      -0.350813        -9.5461
  67   2.0000      -0.343210        -9.3392
  68   2.0000      -0.331794        -9.0286
  69   2.0000      -0.329496        -8.9660
  70   2.0000      -0.324630        -8.8336
  71   2.0000      -0.309913        -8.4332
  72   2.0000      -0.296660        -8.0725
  73   2.0000      -0.290980        -7.9180
  74   2.0000      -0.274159        -7.4602
  75   2.0000      -0.271870        -7.3979
  76   2.0000      -0.265857        -7.2343
  77   0.0000      -0.171387        -4.6637
  78   0.0000      -0.100038        -2.7222
  79   0.0000      -0.030078        -0.8185
  80   0.0000      -0.012216        -0.3324
  81   0.0000       0.052866         1.4386

MULLIKEN ATOMIC CHARGES
-----------------------
   0 Pd:    0.513883
   1 O :   -0.487501
   2 C :    0.584471
   3 O :   -0.476088
   4 C :   -0.750482
   5 H :    0.240301
   6 H :    0.249557
   7 H :    0.240333
   8 N :   -0.484319
   9 C :   -0.550501
  10 H :    0.321513
  11 H :    0.218624
  12 H :    0.260590
  13 C :   -0.569434
  14 H :    0.291866
  15 H :    0.232406
  16 H :    0.304015
  17 C :   -0.066095
  18 C :   -0.212818
  19 C :   -0.226434
  20 C :   -0.189479
  21 C :   -0.281826
  22 C :    0.054334
  23 H :    0.246309
  24 H :    0.264337
  25 H :    0.227224
  26 H :    0.245546
  27 H :    0.050556
  28 C :   -0.322819
  29 H :    0.271394
  30 H :    0.262947
  31 O :   -0.521230
  32 C :    0.548232
  33 O :   -0.464605
  34 C :   -0.749369
  35 H :    0.236964
  36 H :    0.245391
  37 H :    0.242206
Sum of atomic charges:   -0.0000000

LOEWDIN ATOMIC CHARGES
----------------------
   0 Pd:   -0.190733
   1 O :   -0.185011
   2 C :    0.132441
   3 O :   -0.245292
   4 C :   -0.382712
   5 H :    0.147730
   6 H :    0.156317
   7 H :    0.142003
   8 N :   -0.055565
   9 C :   -0.246084
  10 H :    0.169592
  11 H :    0.119713
  12 H :    0.148390
  13 C :   -0.242441
  14 H :    0.158384
  15 H :    0.123964
  16 H :    0.165820
  17 C :   -0.069049
  18 C :   -0.099905
  19 C :   -0.125487
  20 C :   -0.107863
  21 C :   -0.126585
  22 C :    0.018270
  23 H :    0.148839
  24 H :    0.157624
  25 H :    0.149093
  26 H :    0.147430
  27 H :    0.051684
  28 C :   -0.101252
  29 H :    0.156386
  30 H :    0.147897
  31 O :   -0.146781
  32 C :    0.111665
  33 O :   -0.281229
  34 C :   -0.383568
  35 H :    0.148010
  36 H :    0.140241
  37 H :    0.148064

  Mayer bond orders larger than 0.100000
B(  0-Pd,  1-O ) :   0.6386 B(  0-Pd,  3-O ) :   0.2112 B(  0-Pd,  8-N ) :   0.4178
B(  0-Pd, 31-O ) :   0.6765 B(  1-O ,  2-C ) :   1.3239 B(  2-C ,  3-O ) :   1.7542
B(  2-C ,  4-C ) :   0.9336 B(  4-C ,  5-H ) :   0.9163 B(  4-C ,  6-H ) :   0.9117
B(  4-C ,  7-H ) :   0.9135 B(  8-N ,  9-C ) :   0.9150 B(  8-N , 13-C ) :   0.9120
B(  8-N , 28-C ) :   0.8843 B(  9-C , 10-H ) :   0.8636 B(  9-C , 11-H ) :   0.9030
B(  9-C , 12-H ) :   0.9117 B( 13-C , 14-H ) :   0.8850 B( 13-C , 15-H ) :   0.9017
B( 13-C , 16-H ) :   0.8850 B( 17-C , 18-C ) :   1.3641 B( 17-C , 22-C ) :   1.4239
B( 17-C , 28-C ) :   0.9339 B( 18-C , 19-C ) :   1.4559 B( 18-C , 25-H ) :   0.9101
B( 19-C , 20-C ) :   1.4247 B( 19-C , 26-H ) :   0.9056 B( 20-C , 21-C ) :   1.3929
B( 20-C , 23-H ) :   0.9039 B( 21-C , 22-C ) :   1.4613 B( 21-C , 24-H ) :   0.9005
B( 22-C , 27-H ) :   0.7177 B( 28-C , 29-H ) :   0.8967 B( 28-C , 30-H ) :   0.9105
B( 31-O , 32-C ) :   1.2798 B( 32-C , 33-O ) :   1.9040 B( 32-C , 34-C ) :   0.9200
B( 34-C , 35-H ) :   0.9176 B( 34-C , 36-H ) :   0.9101 B( 34-C , 37-H ) :   0.9170

Dispersion correction           -0.025277205
FINAL SINGLE POINT ENERGY      -988.201670165172
Dispersion correction            ... done

DIPOLE MOMENT
-------------
                                X             Y             Z
Electronic contribution:     18.08241       9.03980     -14.20122
Nuclear contribution   :    -20.34263     -10.58098      15.97188
                        -----------------------------------------
Total Dipole Moment    :     -2.26022      -1.54118       1.77066
                        -----------------------------------------
Magnitude (a.u.)       :      3.25869
Magnitude (Debye)      :      8.28293

Rotational constants in cm-1:     0.013367     0.008121     0.006326
Rotational constants in MHz :   400.739640   243.476223   189.643605

                             ****ORCA TERMINATED NORMALLY****
TOTAL RUN TIME: 0 days 0 hours 14 minutes 7 seconds 127 msec
