                         Program Version 5.0.3 -  RELEASE  -
|  1> ! EnGrad PBEh-3c
|  2> %output
|  3> xyzfile=True
|  4> end
|  5> %scf
|  6> maxiter 250
|  7> end
|  8> %output
|  9> Print[P_Hirshfeld] = 1
| 10> end
| 11> % maxcore
| 12> 4000
| 13> *xyz 0 1
| 14> Pd   0.52844148   0.34516904  -0.20318560
| 15> O    2.02017801   1.26261608   0.67003080
| 16> C    1.57606862   2.59089733   0.28657387
| 17> O    0.69153489   2.90196972  -0.21738437
| 18> C    2.75014372   3.68581747   0.61863724
| 19> H    2.25175763   4.56933575   1.05189164
| 20> H    3.17608354   4.02984321  -0.33305235
| 21> H    3.56842587   3.38711527   1.27033711
| 22> N   -1.42290913  -0.75961167  -1.13568992
| 23> C   -1.18752118  -1.83157454  -2.05396947
| 24> H   -0.72305717  -1.40831020  -2.92137121
| 25> H   -2.17051435  -2.19933112  -2.28465103
| 26> H   -0.55710349  -2.58971304  -1.61045547
| 27> C   -2.13606310   0.40295164  -1.67929992
| 28> H   -2.24091132   1.20660232  -0.97606554
| 29> H   -3.08540431  -0.00798995  -1.97364372
| 30> H   -1.55590259   0.68289510  -2.54281647
| 31> C   -1.69536449  -0.99615120   1.45453177
| 32> C   -1.27251972  -2.14015751   2.30775899
| 33> C   -0.98150206  -1.95725767   3.63595973
| 34> C   -1.18456564  -0.71303006   4.18201662
| 35> C   -1.54271183   0.44728829   3.42568354
| 36> C   -1.73143556   0.17248894   2.16583236
| 37> H   -0.92311151  -0.56243002   5.23872478
| 38> H   -1.69952641   1.32536446   3.89902305
| 39> H   -1.26991076  -3.12839588   1.88146882
| 40> H   -0.88441197  -2.82941382   4.25464554
| 41> H   -2.25862671   3.20720258   1.44277291
| 42> C   -2.19258514  -1.32065312   0.13997818
| 43> H   -3.19189219  -0.86847656   0.10293736
| 44> H   -2.34942345  -2.37326287  -0.01441242
| 45> O    2.11626513  -0.31102468  -1.37033265
| 46> C    2.15857257  -0.52138648  -2.69882744
| 47> O    1.36132345  -0.49018936  -3.65176778
| 48> C    3.77776922  -0.72776890  -2.98365318
| 49> H    3.86824598  -1.81505066  -3.28396816
| 50> H    4.39751445  -0.50621328  -2.19818476
| 51> H    4.01739895  -0.16295841  -3.89843834
| 52> *
| 53>
| 54>                          ****END OF INPUT****

CARTESIAN COORDINATES (ANGSTROEM)
---------------------------------
  Pd     0.528441    0.345169   -0.203186
  O      2.020178    1.262616    0.670031
  C      1.576069    2.590897    0.286574
  O      0.691535    2.901970   -0.217384
  C      2.750144    3.685817    0.618637
  H      2.251758    4.569336    1.051892
  H      3.176084    4.029843   -0.333052
  H      3.568426    3.387115    1.270337
  N     -1.422909   -0.759612   -1.135690
  C     -1.187521   -1.831575   -2.053969
  H     -0.723057   -1.408310   -2.921371
  H     -2.170514   -2.199331   -2.284651
  H     -0.557103   -2.589713   -1.610455
  C     -2.136063    0.402952   -1.679300
  H     -2.240911    1.206602   -0.976066
  H     -3.085404   -0.007990   -1.973644
  H     -1.555903    0.682895   -2.542816
  C     -1.695364   -0.996151    1.454532
  C     -1.272520   -2.140158    2.307759
  C     -0.981502   -1.957258    3.635960
  C     -1.184566   -0.713030    4.182017
  C     -1.542712    0.447288    3.425684
  C     -1.731436    0.172489    2.165832
  H     -0.923112   -0.562430    5.238725
  H     -1.699526    1.325364    3.899023
  H     -1.269911   -3.128396    1.881469
  H     -0.884412   -2.829414    4.254646
  H     -2.258627    3.207203    1.442773
  C     -2.192585   -1.320653    0.139978
  H     -3.191892   -0.868477    0.102937
  H     -2.349423   -2.373263   -0.014412
  O      2.116265   -0.311025   -1.370333
  C      2.158573   -0.521386   -2.698827
  O      1.361323   -0.490189   -3.651768
  C      3.777769   -0.727769   -2.983653
  H      3.868246   -1.815051   -3.283968
  H      4.397514   -0.506213   -2.198185
  H      4.017399   -0.162958   -3.898438

 Total Charge           Charge          ....    0
 Multiplicity           Mult            ....    1
 Number of Electrons    NEL             ....  154
 Basis Dimension        Dim             ....  339

ORBITAL ENERGIES
----------------

  NO   OCC          E(Eh)            E(eV)
   0   2.0000     -19.505044      -530.7592
   1   2.0000     -19.492033      -530.4052
   2   2.0000     -19.489397      -530.3335
   3   2.0000     -19.453701      -529.3621
   4   2.0000     -14.707788      -400.2193
   5   2.0000     -10.563882      -287.4578
   6   2.0000     -10.554231      -287.1952
   7   2.0000     -10.517494      -286.1956
   8   2.0000     -10.516090      -286.1574
   9   2.0000     -10.507352      -285.9196
  10   2.0000     -10.503366      -285.8111
  11   2.0000     -10.502586      -285.7899
  12   2.0000     -10.491450      -285.4869
  13   2.0000     -10.484336      -285.2933
  14   2.0000     -10.481933      -285.2279
  15   2.0000     -10.469780      -284.8972
  16   2.0000     -10.426111      -283.7089
  17   2.0000     -10.413337      -283.3613
  18   2.0000      -3.660432       -99.6054
  19   2.0000      -2.312638       -62.9301
  20   2.0000      -2.299223       -62.5650
  21   2.0000      -2.274590       -61.8947
  22   2.0000      -1.268830       -34.5266
  23   2.0000      -1.125500       -30.6264
  24   2.0000      -1.063391       -28.9363
  25   2.0000      -1.056373       -28.7454
  26   2.0000      -1.049661       -28.5627
  27   2.0000      -1.009296       -27.4643
  28   2.0000      -0.914547       -24.8861
  29   2.0000      -0.889344       -24.2003
  30   2.0000      -0.830513       -22.5994
  31   2.0000      -0.813453       -22.1352
  32   2.0000      -0.784007       -21.3339
  33   2.0000      -0.767507       -20.8849
  34   2.0000      -0.733495       -19.9594
  35   2.0000      -0.714239       -19.4354
  36   2.0000      -0.683479       -18.5984
  37   2.0000      -0.624704       -16.9991
  38   2.0000      -0.598869       -16.2961
  39   2.0000      -0.586317       -15.9545
  40   2.0000      -0.585606       -15.9352
  41   2.0000      -0.574338       -15.6285
  42   2.0000      -0.571371       -15.5478
  43   2.0000      -0.559851       -15.2343
  44   2.0000      -0.554848       -15.0982
  45   2.0000      -0.537972       -14.6390
  46   2.0000      -0.536883       -14.6093
  47   2.0000      -0.531458       -14.4617
  48   2.0000      -0.514118       -13.9899
  49   2.0000      -0.500840       -13.6285
  50   2.0000      -0.499293       -13.5864
  51   2.0000      -0.488641       -13.2966
  52   2.0000      -0.480197       -13.0668
  53   2.0000      -0.476741       -12.9728
  54   2.0000      -0.467493       -12.7211
  55   2.0000      -0.465988       -12.6802
  56   2.0000      -0.458512       -12.4768
  57   2.0000      -0.446052       -12.1377
  58   2.0000      -0.444628       -12.0989
  59   2.0000      -0.442625       -12.0444
  60   2.0000      -0.434543       -11.8245
  61   2.0000      -0.430235       -11.7073
  62   2.0000      -0.406634       -11.0651
  63   2.0000      -0.398482       -10.8433
  64   2.0000      -0.390050       -10.6138
  65   2.0000      -0.363501        -9.8914
  66   2.0000      -0.350329        -9.5329
  67   2.0000      -0.347212        -9.4481
  68   2.0000      -0.343588        -9.3495
  69   2.0000      -0.328224        -8.9314
  70   2.0000      -0.324752        -8.8370
  71   2.0000      -0.319151        -8.6845
  72   2.0000      -0.312058        -8.4915
  73   2.0000      -0.302451        -8.2301
  74   2.0000      -0.294577        -8.0159
  75   2.0000      -0.276737        -7.5304
  76   2.0000      -0.213892        -5.8203
  77   0.0000      -0.175654        -4.7798
  78   0.0000      -0.088928        -2.4198
  79   0.0000      -0.046300        -1.2599
  80   0.0000      -0.010971        -0.2985
  81   0.0000       0.042093         1.1454

MULLIKEN ATOMIC CHARGES
-----------------------
   0 Pd:    0.479429
   1 O :   -0.535042
   2 C :    0.538174
   3 O :   -0.239578
   4 C :   -0.760414
   5 H :    0.225187
   6 H :    0.241220
   7 H :    0.245161
   8 N :   -0.450248
   9 C :   -0.529291
  10 H :    0.303081
  11 H :    0.204389
  12 H :    0.253352
  13 C :   -0.535199
  14 H :    0.275118
  15 H :    0.222893
  16 H :    0.286192
  17 C :    0.050183
  18 C :   -0.257576
  19 C :   -0.163296
  20 C :   -0.258004
  21 C :   -0.227982
  22 C :    0.036298
  23 H :    0.245248
  24 H :    0.268288
  25 H :    0.243652
  26 H :    0.242815
  27 H :   -0.123022
  28 C :   -0.357090
  29 H :    0.250220
  30 H :    0.262099
  31 O :   -0.504606
  32 C :    0.552631
  33 O :   -0.458748
  34 C :   -0.727654
  35 H :    0.210189
  36 H :    0.262950
  37 H :    0.228979
Sum of atomic charges:   -0.0000000

LOEWDIN ATOMIC CHARGES
----------------------
   0 Pd:   -0.184993
   1 O :   -0.221337
   2 C :    0.146141
   3 O :    0.000044
   4 C :   -0.405279
   5 H :    0.137576
   6 H :    0.147709
   7 H :    0.140597
   8 N :   -0.114640
   9 C :   -0.249873
  10 H :    0.164825
  11 H :    0.111220
  12 H :    0.145058
  13 C :   -0.236815
  14 H :    0.154942
  15 H :    0.119507
  16 H :    0.161999
  17 C :   -0.067558
  18 C :   -0.080951
  19 C :   -0.138887
  20 C :   -0.080252
  21 C :   -0.132193
  22 C :    0.068585
  23 H :    0.148487
  24 H :    0.162706
  25 H :    0.147014
  26 H :    0.155731
  27 H :   -0.127481
  28 C :   -0.106522
  29 H :    0.150641
  30 H :    0.148874
  31 O :   -0.184762
  32 C :    0.187780
  33 O :   -0.288892
  34 C :   -0.394297
  35 H :    0.136622
  36 H :    0.139870
  37 H :    0.138804

  Mayer bond orders larger than 0.100000
B(  0-Pd,  1-O ) :   0.8268 B(  0-Pd,  3-O ) :   0.1448 B(  0-Pd,  8-N ) :   0.3349
B(  0-Pd, 31-O ) :   0.6686 B(  1-O ,  2-C ) :   1.0306 B(  2-C ,  3-O ) :   2.0671
B(  2-C ,  4-C ) :   0.8970 B(  4-C ,  5-H ) :   0.9188 B(  4-C ,  6-H ) :   0.9151
B(  4-C ,  7-H ) :   0.9138 B(  8-N ,  9-C ) :   0.9356 B(  8-N , 13-C ) :   0.9252
B(  8-N , 28-C ) :   0.8846 B(  9-C , 10-H ) :   0.8670 B(  9-C , 11-H ) :   0.9079
B(  9-C , 12-H ) :   0.9121 B( 13-C , 14-H ) :   0.8933 B( 13-C , 15-H ) :   0.9071
B( 13-C , 16-H ) :   0.8926 B( 17-C , 18-C ) :   1.3182 B( 17-C , 20-C ) :   0.1015
B( 17-C , 22-C ) :   1.3738 B( 17-C , 28-C ) :   0.9352 B( 18-C , 19-C ) :   1.4527
B( 18-C , 25-H ) :   0.8987 B( 19-C , 20-C ) :   1.4169 B( 19-C , 26-H ) :   0.9069
B( 20-C , 21-C ) :   1.3544 B( 20-C , 23-H ) :   0.8990 B( 21-C , 22-C ) :   1.4802
B( 21-C , 24-H ) :   0.8633 B( 22-C , 27-H ) :   0.7042 B( 28-C , 29-H ) :   0.9006
B( 28-C , 30-H ) :   0.9093 B( 31-O , 32-C ) :   1.2638 B( 31-O , 33-O ) :   0.1154
B( 32-C , 33-O ) :   1.8890 B( 32-C , 34-C ) :   0.8796 B( 34-C , 35-H ) :   0.9267
B( 34-C , 36-H ) :   0.9014 B( 34-C , 37-H ) :   0.9186

Dispersion correction           -0.025057663
FINAL SINGLE POINT ENERGY      -988.041598159388
Dispersion correction            ... done

DIPOLE MOMENT
-------------
                                X             Y             Z
Electronic contribution:     22.30680      15.23937      -7.74281
Nuclear contribution   :    -24.44534     -16.86209       9.64884
                        -----------------------------------------
Total Dipole Moment    :     -2.13854      -1.62273       1.90604
                        -----------------------------------------
Magnitude (a.u.)       :      3.29235
Magnitude (Debye)      :      8.36849

Rotational constants in cm-1:     0.013123     0.008037     0.006295
Rotational constants in MHz :   393.413376   240.928377   188.715346

                             ****ORCA TERMINATED NORMALLY****
TOTAL RUN TIME: 0 days 0 hours 21 minutes 4 seconds 68 msec
