                         Program Version 5.0.3 -  RELEASE  -
|  1> ! EnGrad PBEh-3c
|  2> %output
|  3> xyzfile=True
|  4> end
|  5> %scf
|  6> maxiter 250
|  7> end
|  8> %output
|  9> Print[P_Hirshfeld] = 1
| 10> end
| 11> % maxcore
| 12> 4000
| 13> *xyz 0 1
| 14> Pd   0.47350931   0.25888037  -0.28880323
| 15> O    2.00241462   1.35683380   0.68135718
| 16> C    1.70051029   2.60211221   0.33159206
| 17> O    0.68094742   2.84879051  -0.20845476
| 18> C    2.75175744   3.70189671   0.61718381
| 19> H    2.25968584   4.57731077   1.05138556
| 20> H    3.17468319   4.03109373  -0.33581375
| 21> H    3.55959832   3.38305933   1.26657317
| 22> N   -1.37437898  -0.74999161  -1.02529450
| 23> C   -1.19753993  -1.81355231  -2.00976670
| 24> H   -0.76224999  -1.46338570  -2.93194416
| 25> H   -2.17289181  -2.18922032  -2.32635682
| 26> H   -0.54831192  -2.56929610  -1.58716448
| 27> C   -2.10538999   0.34676592  -1.66880319
| 28> H   -2.23728498   1.19056821  -1.01403178
| 29> H   -3.08752527   0.00068337  -1.99092598
| 30> H   -1.57172817   0.68012630  -2.54894954
| 31> C   -1.61607770  -1.02171741   1.44357669
| 32> C   -1.23078964  -2.11885753   2.28063498
| 33> C   -1.04525199  -1.96791973   3.63422959
| 34> C   -1.12785018  -0.71551800   4.18666238
| 35> C   -1.55256786   0.37383009   3.40522846
| 36> C   -1.79005066   0.18439403   2.08561325
| 37> H   -0.91248392  -0.58358806   5.24555859
| 38> H   -1.65839495   1.29719140   3.90256960
| 39> H   -1.32261324  -3.13462502   1.93666517
| 40> H   -0.92445079  -2.82736576   4.27943540
| 41> H   -2.23723069   3.31283553   1.42456189
| 42> C   -2.20811974  -1.30063291   0.12444089
| 43> H   -3.22788517  -0.88501843   0.13258076
| 44> H   -2.41498784  -2.36354601   0.01231545
| 45> O    2.03996939  -0.27281220  -1.42512818
| 46> C    2.24211057  -0.49260442  -2.68967123
| 47> O    1.40796943  -0.53076356  -3.57319549
| 48> C    3.73524277  -0.73494759  -3.02797268
| 49> H    3.89642655  -1.79571184  -3.27692931
| 50> H    4.38093180  -0.48480061  -2.22230156
| 51> H    4.02114122  -0.13143403  -3.89146804
| 52> *
| 53>
| 54>                          ****END OF INPUT****

CARTESIAN COORDINATES (ANGSTROEM)
---------------------------------
  Pd     0.473509    0.258880   -0.288803
  O      2.002415    1.356834    0.681357
  C      1.700510    2.602112    0.331592
  O      0.680947    2.848791   -0.208455
  C      2.751757    3.701897    0.617184
  H      2.259686    4.577311    1.051386
  H      3.174683    4.031094   -0.335814
  H      3.559598    3.383059    1.266573
  N     -1.374379   -0.749992   -1.025294
  C     -1.197540   -1.813552   -2.009767
  H     -0.762250   -1.463386   -2.931944
  H     -2.172892   -2.189220   -2.326357
  H     -0.548312   -2.569296   -1.587164
  C     -2.105390    0.346766   -1.668803
  H     -2.237285    1.190568   -1.014032
  H     -3.087525    0.000683   -1.990926
  H     -1.571728    0.680126   -2.548950
  C     -1.616078   -1.021717    1.443577
  C     -1.230790   -2.118858    2.280635
  C     -1.045252   -1.967920    3.634230
  C     -1.127850   -0.715518    4.186662
  C     -1.552568    0.373830    3.405228
  C     -1.790051    0.184394    2.085613
  H     -0.912484   -0.583588    5.245559
  H     -1.658395    1.297191    3.902570
  H     -1.322613   -3.134625    1.936665
  H     -0.924451   -2.827366    4.279435
  H     -2.237231    3.312836    1.424562
  C     -2.208120   -1.300633    0.124441
  H     -3.227885   -0.885018    0.132581
  H     -2.414988   -2.363546    0.012315
  O      2.039969   -0.272812   -1.425128
  C      2.242111   -0.492604   -2.689671
  O      1.407969   -0.530764   -3.573195
  C      3.735243   -0.734948   -3.027973
  H      3.896427   -1.795712   -3.276929
  H      4.380932   -0.484801   -2.222302
  H      4.021141   -0.131434   -3.891468

 Total Charge           Charge          ....    0
 Multiplicity           Mult            ....    1
 Number of Electrons    NEL             ....  154
 Basis Dimension        Dim             ....  339

ORBITAL ENERGIES
----------------

  NO   OCC          E(Eh)            E(eV)
   0   2.0000     -19.476150      -529.9730
   1   2.0000     -19.473681      -529.9058
   2   2.0000     -19.447640      -529.1972
   3   2.0000     -19.427436      -528.6474
   4   2.0000     -14.726353      -400.7244
   5   2.0000     -10.536441      -286.7111
   6   2.0000     -10.531386      -286.5736
   7   2.0000     -10.529006      -286.5088
   8   2.0000     -10.517253      -286.1890
   9   2.0000     -10.510686      -286.0103
  10   2.0000     -10.494263      -285.5634
  11   2.0000     -10.488429      -285.4047
  12   2.0000     -10.486058      -285.3401
  13   2.0000     -10.480649      -285.1930
  14   2.0000     -10.479762      -285.1688
  15   2.0000     -10.474811      -285.0341
  16   2.0000     -10.420795      -283.5642
  17   2.0000     -10.409886      -283.2674
  18   2.0000      -3.665379       -99.7400
  19   2.0000      -2.315275       -63.0018
  20   2.0000      -2.306450       -62.7617
  21   2.0000      -2.276216       -61.9390
  22   2.0000      -1.169014       -31.8105
  23   2.0000      -1.140469       -31.0337
  24   2.0000      -1.080028       -29.3891
  25   2.0000      -1.051252       -28.6060
  26   2.0000      -1.047272       -28.4977
  27   2.0000      -1.004311       -27.3287
  28   2.0000      -0.910016       -24.7628
  29   2.0000      -0.876771       -23.8581
  30   2.0000      -0.823805       -22.4169
  31   2.0000      -0.815965       -22.2035
  32   2.0000      -0.794831       -21.6285
  33   2.0000      -0.785025       -21.3616
  34   2.0000      -0.728819       -19.8322
  35   2.0000      -0.720158       -19.5965
  36   2.0000      -0.687527       -18.7086
  37   2.0000      -0.616752       -16.7827
  38   2.0000      -0.593789       -16.1578
  39   2.0000      -0.583388       -15.8748
  40   2.0000      -0.580448       -15.7948
  41   2.0000      -0.575831       -15.6692
  42   2.0000      -0.567783       -15.4502
  43   2.0000      -0.546559       -14.8726
  44   2.0000      -0.541370       -14.7314
  45   2.0000      -0.514183       -13.9916
  46   2.0000      -0.512075       -13.9343
  47   2.0000      -0.505312       -13.7502
  48   2.0000      -0.498051       -13.5527
  49   2.0000      -0.494319       -13.4511
  50   2.0000      -0.492568       -13.4035
  51   2.0000      -0.485087       -13.1999
  52   2.0000      -0.483442       -13.1551
  53   2.0000      -0.480711       -13.0808
  54   2.0000      -0.466906       -12.7052
  55   2.0000      -0.452449       -12.3118
  56   2.0000      -0.446455       -12.1487
  57   2.0000      -0.438991       -11.9455
  58   2.0000      -0.436168       -11.8687
  59   2.0000      -0.435343       -11.8463
  60   2.0000      -0.429036       -11.6747
  61   2.0000      -0.421676       -11.4744
  62   2.0000      -0.408826       -11.1247
  63   2.0000      -0.397193       -10.8082
  64   2.0000      -0.377839       -10.2815
  65   2.0000      -0.363824        -9.9001
  66   2.0000      -0.347529        -9.4567
  67   2.0000      -0.343935        -9.3589
  68   2.0000      -0.336934        -9.1684
  69   2.0000      -0.333786        -9.0828
  70   2.0000      -0.326273        -8.8783
  71   2.0000      -0.312868        -8.5136
  72   2.0000      -0.306998        -8.3538
  73   2.0000      -0.294498        -8.0137
  74   2.0000      -0.280002        -7.6193
  75   2.0000      -0.275429        -7.4948
  76   2.0000      -0.267850        -7.2886
  77   0.0000      -0.166293        -4.5251
  78   0.0000      -0.096394        -2.6230
  79   0.0000      -0.033882        -0.9220
  80   0.0000      -0.012474        -0.3394
  81   0.0000       0.050802         1.3824

MULLIKEN ATOMIC CHARGES
-----------------------
   0 Pd:    0.481448
   1 O :   -0.507462
   2 C :    0.582933
   3 O :   -0.419263
   4 C :   -0.751526
   5 H :    0.235619
   6 H :    0.247391
   7 H :    0.242218
   8 N :   -0.471836
   9 C :   -0.544755
  10 H :    0.317152
  11 H :    0.214086
  12 H :    0.258057
  13 C :   -0.559676
  14 H :    0.288325
  15 H :    0.228371
  16 H :    0.298365
  17 C :   -0.045980
  18 C :   -0.222618
  19 C :   -0.209245
  20 C :   -0.212294
  21 C :   -0.263127
  22 C :    0.049483
  23 H :    0.247529
  24 H :    0.271378
  25 H :    0.232040
  26 H :    0.245914
  27 H :    0.025213
  28 C :   -0.329435
  29 H :    0.266742
  30 H :    0.262967
  31 O :   -0.517844
  32 C :    0.549207
  33 O :   -0.464384
  34 C :   -0.742157
  35 H :    0.228806
  36 H :    0.250801
  37 H :    0.237558
Sum of atomic charges:   -0.0000000

LOEWDIN ATOMIC CHARGES
----------------------
   0 Pd:   -0.205103
   1 O :   -0.200197
   2 C :    0.139082
   3 O :   -0.183664
   4 C :   -0.387310
   5 H :    0.144746
   6 H :    0.153944
   7 H :    0.141503
   8 N :   -0.070125
   9 C :   -0.246763
  10 H :    0.167964
  11 H :    0.116692
  12 H :    0.147394
  13 C :   -0.241523
  14 H :    0.158019
  15 H :    0.121655
  16 H :    0.164170
  17 C :   -0.067662
  18 C :   -0.094086
  19 C :   -0.128166
  20 C :   -0.103369
  21 C :   -0.127928
  22 C :    0.031214
  23 H :    0.149154
  24 H :    0.161027
  25 H :    0.148985
  26 H :    0.149386
  27 H :    0.025611
  28 C :   -0.100734
  29 H :    0.155211
  30 H :    0.148245
  31 O :   -0.156232
  32 C :    0.130021
  33 O :   -0.284086
  34 C :   -0.386788
  35 H :    0.144488
  36 H :    0.140299
  37 H :    0.144926

  Mayer bond orders larger than 0.100000
B(  0-Pd,  1-O ) :   0.6983 B(  0-Pd,  3-O ) :   0.1856 B(  0-Pd,  8-N ) :   0.3967
B(  0-Pd, 31-O ) :   0.6739 B(  1-O ,  2-C ) :   1.2341 B(  2-C ,  3-O ) :   1.8413
B(  2-C ,  4-C ) :   0.9256 B(  4-C ,  5-H ) :   0.9173 B(  4-C ,  6-H ) :   0.9129
B(  4-C ,  7-H ) :   0.9136 B(  8-N ,  9-C ) :   0.9215 B(  8-N , 13-C ) :   0.9164
B(  8-N , 28-C ) :   0.8854 B(  9-C , 10-H ) :   0.8645 B(  9-C , 11-H ) :   0.9043
B(  9-C , 12-H ) :   0.9123 B( 13-C , 14-H ) :   0.8862 B( 13-C , 15-H ) :   0.9037
B( 13-C , 16-H ) :   0.8877 B( 17-C , 18-C ) :   1.3614 B( 17-C , 22-C ) :   1.4267
B( 17-C , 28-C ) :   0.9362 B( 18-C , 19-C ) :   1.4592 B( 18-C , 25-H ) :   0.9068
B( 19-C , 20-C ) :   1.4260 B( 19-C , 26-H ) :   0.9064 B( 20-C , 21-C ) :   1.3888
B( 20-C , 23-H ) :   0.9029 B( 21-C , 22-C ) :   1.4715 B( 21-C , 24-H ) :   0.8978
B( 22-C , 27-H ) :   0.7138 B( 28-C , 29-H ) :   0.8974 B( 28-C , 30-H ) :   0.9108
B( 31-O , 32-C ) :   1.2785 B( 31-O , 33-O ) :   0.1044 B( 32-C , 33-O ) :   1.9021
B( 32-C , 34-C ) :   0.9092 B( 34-C , 35-H ) :   0.9205 B( 34-C , 36-H ) :   0.9078
B( 34-C , 37-H ) :   0.9184

Dispersion correction           -0.025230180
FINAL SINGLE POINT ENERGY      -988.216984128654
Dispersion correction            ... done

DIPOLE MOMENT
-------------
                                X             Y             Z
Electronic contribution:     19.15076      10.72203     -12.42279
Nuclear contribution   :    -21.43304     -12.25036      14.29136
                        -----------------------------------------
Total Dipole Moment    :     -2.28227      -1.52833       1.86857
                        -----------------------------------------
Magnitude (a.u.)       :      3.32206
Magnitude (Debye)      :      8.44402

Rotational constants in cm-1:     0.013312     0.008100     0.006320
Rotational constants in MHz :   399.081472   242.840562   189.454722

                             ****ORCA TERMINATED NORMALLY****
TOTAL RUN TIME: 0 days 0 hours 11 minutes 44 seconds 296 msec
