                         Program Version 5.0.3 -  RELEASE  -
|  1> ! EnGrad PBEh-3c
|  2> %output
|  3> xyzfile=True
|  4> end
|  5> %scf
|  6> maxiter 250
|  7> end
|  8> %output
|  9> Print[P_Hirshfeld] = 1
| 10> end
| 11> % maxcore
| 12> 4000
| 13> *xyz 0 1
| 14> Pd   0.57165476   0.38223358  -0.15574343
| 15> O    1.98534974   1.20021659   0.64299012
| 16> C    1.64277203   2.60241786   0.31579924
| 17> O    0.59017820   2.94923878  -0.27009783
| 18> C    2.73638127   3.65625953   0.62169035
| 19> H    2.24839991   4.55584621   1.05059294
| 20> H    3.17352206   4.02009402  -0.32947740
| 21> H    3.56920080   3.38555589   1.26978276
| 22> N   -1.43323500  -0.74939167  -1.13508745
| 23> C   -1.18595859  -1.83992869  -2.07372804
| 24> H   -0.68535902  -1.38094359  -2.91633852
| 25> H   -2.17626040  -2.22695347  -2.25987134
| 26> H   -0.56735687  -2.61218842  -1.61657188
| 27> C   -2.14590782   0.41232656  -1.69486253
| 28> H   -2.24248398   1.21925909  -0.95441051
| 29> H   -3.09706152  -0.01106081  -1.97567580
| 30> H   -1.54021131   0.68488076  -2.54978060
| 31> C   -1.72858461  -1.00818649   1.49095115
| 32> C   -1.32285511  -2.14257969   2.31213257
| 33> C   -0.96763416  -1.93921610   3.63195361
| 34> C   -1.20545567  -0.70919960   4.19873029
| 35> C   -1.50984116   0.45606831   3.46342096
| 36> C   -1.68713904   0.17917515   2.16985034
| 37> H   -0.93441019  -0.54930279   5.22906740
| 38> H   -1.70433529   1.37960719   3.90722328
| 39> H   -1.25411158  -3.12449530   1.84087737
| 40> H   -0.86367692  -2.83606631   4.24624950
| 41> H   -2.24751187   3.12299105   1.44676465
| 42> C   -2.19036078  -1.30519373   0.10687475
| 43> H   -3.16810848  -0.84527081   0.07814136
| 44> H   -2.31109464  -2.37941687  -0.03167058
| 45> O    2.13178473  -0.33732490  -1.37071369
| 46> C    2.13115701  -0.52761093  -2.71330815
| 47> O    1.35913789  -0.48719497  -3.63955873
| 48> C    3.75002759  -0.73101924  -2.99160239
| 49> H    3.85681421  -1.79800823  -3.28570803
| 50> H    4.42106350  -0.49821588  -2.16196425
| 51> H    4.00570188  -0.17209911  -3.89993191
| 52> *
| 53>
| 54>                          ****END OF INPUT****

CARTESIAN COORDINATES (ANGSTROEM)
---------------------------------
  Pd     0.571655    0.382234   -0.155743
  O      1.985350    1.200217    0.642990
  C      1.642772    2.602418    0.315799
  O      0.590178    2.949239   -0.270098
  C      2.736381    3.656260    0.621690
  H      2.248400    4.555846    1.050593
  H      3.173522    4.020094   -0.329477
  H      3.569201    3.385556    1.269783
  N     -1.433235   -0.749392   -1.135087
  C     -1.185959   -1.839929   -2.073728
  H     -0.685359   -1.380944   -2.916339
  H     -2.176260   -2.226953   -2.259871
  H     -0.567357   -2.612188   -1.616572
  C     -2.145908    0.412327   -1.694863
  H     -2.242484    1.219259   -0.954411
  H     -3.097062   -0.011061   -1.975676
  H     -1.540211    0.684881   -2.549781
  C     -1.728585   -1.008186    1.490951
  C     -1.322855   -2.142580    2.312133
  C     -0.967634   -1.939216    3.631954
  C     -1.205456   -0.709200    4.198730
  C     -1.509841    0.456068    3.463421
  C     -1.687139    0.179175    2.169850
  H     -0.934410   -0.549303    5.229067
  H     -1.704335    1.379607    3.907223
  H     -1.254112   -3.124495    1.840877
  H     -0.863677   -2.836066    4.246250
  H     -2.247512    3.122991    1.446765
  C     -2.190361   -1.305194    0.106875
  H     -3.168108   -0.845271    0.078141
  H     -2.311095   -2.379417   -0.031671
  O      2.131785   -0.337325   -1.370714
  C      2.131157   -0.527611   -2.713308
  O      1.359138   -0.487195   -3.639559
  C      3.750028   -0.731019   -2.991602
  H      3.856814   -1.798008   -3.285708
  H      4.421063   -0.498216   -2.161964
  H      4.005702   -0.172099   -3.899932

 Total Charge           Charge          ....    0
 Multiplicity           Mult            ....    1
 Number of Electrons    NEL             ....  154
 Basis Dimension        Dim             ....  339

ORBITAL ENERGIES
----------------

  NO   OCC          E(Eh)            E(eV)
   0   2.0000     -19.516742      -531.0775
   1   2.0000     -19.498808      -530.5895
   2   2.0000     -19.477312      -530.0046
   3   2.0000     -19.455454      -529.4098
   4   2.0000     -14.695219      -399.8772
   5   2.0000     -10.591521      -288.2099
   6   2.0000     -10.547837      -287.0212
   7   2.0000     -10.536771      -286.7201
   8   2.0000     -10.515671      -286.1460
   9   2.0000     -10.511240      -286.0254
  10   2.0000     -10.501157      -285.7510
  11   2.0000     -10.491906      -285.4993
  12   2.0000     -10.491383      -285.4850
  13   2.0000     -10.484530      -285.2986
  14   2.0000     -10.473870      -285.0085
  15   2.0000     -10.468265      -284.8560
  16   2.0000     -10.450260      -284.3660
  17   2.0000     -10.409615      -283.2600
  18   2.0000      -3.657788       -99.5335
  19   2.0000      -2.315638       -63.0117
  20   2.0000      -2.292971       -62.3949
  21   2.0000      -2.271817       -61.8193
  22   2.0000      -1.156377       -31.4666
  23   2.0000      -1.136660       -30.9301
  24   2.0000      -1.063766       -28.9465
  25   2.0000      -1.051238       -28.6056
  26   2.0000      -1.050386       -28.5825
  27   2.0000      -1.007817       -27.4241
  28   2.0000      -0.906815       -24.6757
  29   2.0000      -0.881705       -23.9924
  30   2.0000      -0.817938       -22.2572
  31   2.0000      -0.817114       -22.2348
  32   2.0000      -0.810296       -22.0493
  33   2.0000      -0.757258       -20.6060
  34   2.0000      -0.727760       -19.8034
  35   2.0000      -0.708218       -19.2716
  36   2.0000      -0.677787       -18.4435
  37   2.0000      -0.620909       -16.8958
  38   2.0000      -0.614533       -16.7223
  39   2.0000      -0.579529       -15.7698
  40   2.0000      -0.577998       -15.7281
  41   2.0000      -0.564880       -15.3712
  42   2.0000      -0.559584       -15.2271
  43   2.0000      -0.547959       -14.9107
  44   2.0000      -0.537639       -14.6299
  45   2.0000      -0.530673       -14.4404
  46   2.0000      -0.518439       -14.1075
  47   2.0000      -0.506426       -13.7806
  48   2.0000      -0.501220       -13.6389
  49   2.0000      -0.495654       -13.4874
  50   2.0000      -0.488590       -13.2952
  51   2.0000      -0.482802       -13.1377
  52   2.0000      -0.478161       -13.0114
  53   2.0000      -0.472717       -12.8633
  54   2.0000      -0.466475       -12.6934
  55   2.0000      -0.454544       -12.3688
  56   2.0000      -0.453471       -12.3396
  57   2.0000      -0.452833       -12.3222
  58   2.0000      -0.443666       -12.0728
  59   2.0000      -0.438597       -11.9348
  60   2.0000      -0.431537       -11.7427
  61   2.0000      -0.426896       -11.6164
  62   2.0000      -0.420692       -11.4476
  63   2.0000      -0.398114       -10.8332
  64   2.0000      -0.388785       -10.5794
  65   2.0000      -0.366952        -9.9853
  66   2.0000      -0.348373        -9.4797
  67   2.0000      -0.342793        -9.3279
  68   2.0000      -0.338571        -9.2130
  69   2.0000      -0.332347        -9.0436
  70   2.0000      -0.324669        -8.8347
  71   2.0000      -0.317831        -8.6486
  72   2.0000      -0.307273        -8.3613
  73   2.0000      -0.301512        -8.2046
  74   2.0000      -0.292143        -7.9496
  75   2.0000      -0.267685        -7.2841
  76   2.0000      -0.257475        -7.0062
  77   0.0000      -0.144482        -3.9316
  78   0.0000      -0.074690        -2.0324
  79   0.0000      -0.036071        -0.9815
  80   0.0000      -0.015477        -0.4211
  81   0.0000       0.024794         0.6747

MULLIKEN ATOMIC CHARGES
-----------------------
   0 Pd:    0.480480
   1 O :   -0.547324
   2 C :    0.611035
   3 O :   -0.410101
   4 C :   -0.749812
   5 H :    0.249357
   6 H :    0.263473
   7 H :    0.257171
   8 N :   -0.453441
   9 C :   -0.524860
  10 H :    0.298158
  11 H :    0.203745
  12 H :    0.248070
  13 C :   -0.524461
  14 H :    0.274510
  15 H :    0.215569
  16 H :    0.276951
  17 C :    0.031468
  18 C :   -0.255249
  19 C :   -0.174973
  20 C :   -0.257904
  21 C :   -0.232750
  22 C :    0.030804
  23 H :    0.245027
  24 H :    0.283894
  25 H :    0.246376
  26 H :    0.235763
  27 H :   -0.041919
  28 C :   -0.330557
  29 H :    0.252239
  30 H :    0.249373
  31 O :   -0.522888
  32 C :    0.549555
  33 O :   -0.425423
  34 C :   -0.731799
  35 H :    0.212942
  36 H :    0.243539
  37 H :    0.223962
Sum of atomic charges:   -0.0000000

LOEWDIN ATOMIC CHARGES
----------------------
   0 Pd:   -0.246154
   1 O :   -0.186573
   2 C :    0.274700
   3 O :   -0.188794
   4 C :   -0.380632
   5 H :    0.154399
   6 H :    0.164345
   7 H :    0.149082
   8 N :   -0.134825
   9 C :   -0.246900
  10 H :    0.165466
  11 H :    0.111314
  12 H :    0.141423
  13 C :   -0.239782
  14 H :    0.158290
  15 H :    0.116099
  16 H :    0.159113
  17 C :   -0.061582
  18 C :   -0.090036
  19 C :   -0.131712
  20 C :   -0.103744
  21 C :   -0.127537
  22 C :    0.062045
  23 H :    0.148511
  24 H :    0.169114
  25 H :    0.149958
  26 H :    0.152959
  27 H :   -0.041946
  28 C :   -0.107168
  29 H :    0.150598
  30 H :    0.144916
  31 O :   -0.211226
  32 C :    0.171653
  33 O :   -0.248449
  34 C :   -0.403640
  35 H :    0.133542
  36 H :    0.139886
  37 H :    0.133286

  Mayer bond orders larger than 0.100000
B(  0-Pd,  1-O ) :   0.8052 B(  0-Pd,  3-O ) :   0.1688 B(  0-Pd,  8-N ) :   0.3144
B(  0-Pd, 27-H ) :   0.1083 B(  0-Pd, 31-O ) :   0.6561 B(  1-O ,  2-C ) :   1.0611
B(  1-O ,  3-O ) :   0.1079 B(  2-C ,  3-O ) :   1.8386 B(  2-C ,  4-C ) :   0.9409
B(  4-C ,  5-H ) :   0.9078 B(  4-C ,  6-H ) :   0.9010 B(  4-C ,  7-H ) :   0.9039
B(  8-N ,  9-C ) :   0.9292 B(  8-N , 13-C ) :   0.9222 B(  8-N , 28-C ) :   0.9063
B(  9-C , 10-H ) :   0.8695 B(  9-C , 11-H ) :   0.9094 B(  9-C , 12-H ) :   0.9133
B( 13-C , 14-H ) :   0.8903 B( 13-C , 15-H ) :   0.9097 B( 13-C , 16-H ) :   0.8976
B( 17-C , 18-C ) :   1.3518 B( 17-C , 22-C ) :   1.4200 B( 17-C , 28-C ) :   0.9416
B( 18-C , 19-C ) :   1.4398 B( 18-C , 21-C ) :   0.1049 B( 18-C , 25-H ) :   0.8989
B( 19-C , 20-C ) :   1.4112 B( 19-C , 26-H ) :   0.9134 B( 20-C , 21-C ) :   1.3631
B( 20-C , 23-H ) :   0.9040 B( 21-C , 22-C ) :   1.4678 B( 21-C , 24-H ) :   0.8932
B( 22-C , 27-H ) :   0.6924 B( 28-C , 29-H ) :   0.8971 B( 28-C , 30-H ) :   0.9132
B( 31-O , 32-C ) :   1.2523 B( 31-O , 33-O ) :   0.1143 B( 32-C , 33-O ) :   1.9354
B( 32-C , 34-C ) :   0.8723 B( 34-C , 35-H ) :   0.9234 B( 34-C , 36-H ) :   0.9138
B( 34-C , 37-H ) :   0.9176

Dispersion correction           -0.025010079
FINAL SINGLE POINT ENERGY      -988.156992062421
Dispersion correction            ... done

DIPOLE MOMENT
-------------
                                X             Y             Z
Electronic contribution:     25.21760      17.79734      -4.88289
Nuclear contribution   :    -26.89568     -18.86126       7.07278
                        -----------------------------------------
Total Dipole Moment    :     -1.67808      -1.06392       2.18989
                        -----------------------------------------
Magnitude (a.u.)       :      2.95694
Magnitude (Debye)      :      7.51594

Rotational constants in cm-1:     0.013066     0.008018     0.006292
Rotational constants in MHz :   391.710200   240.367350   188.638205

                             ****ORCA TERMINATED NORMALLY****
TOTAL RUN TIME: 0 days 0 hours 22 minutes 40 seconds 338 msec
