                         Program Version 5.0.3 -  RELEASE  -
|  1> ! EnGrad PBEh-3c
|  2> %output
|  3> xyzfile=True
|  4> end
|  5> %scf
|  6> maxiter 250
|  7> end
|  8> %output
|  9> Print[P_Hirshfeld] = 1
| 10> end
| 11> % maxcore
| 12> 4000
| 13> *xyz 0 1
| 14> Pd   0.50152718   0.29409437  -0.25081827
| 15> O    1.99754306   1.31212383   0.67040443
| 16> C    1.68402758   2.60219946   0.32708364
| 17> O    0.65503527   2.87746576  -0.22605218
| 18> C    2.74736796   3.68886853   0.61847031
| 19> H    2.25646401   4.57118322   1.05115929
| 20> H    3.17435172   4.02795361  -0.33400490
| 21> H    3.56233957   3.38377203   1.26748942
| 22> N   -1.39118078  -0.74982034  -1.05663741
| 23> C   -1.19423377  -1.82108205  -2.02802593
| 24> H   -0.74029970  -1.43985072  -2.92748917
| 25> H   -2.17385345  -2.19999211  -2.30737702
| 26> H   -0.55374874  -2.58154069  -1.59555950
| 27> C   -2.11695673   0.36548171  -1.67624242
| 28> H   -2.23876915   1.19875868  -0.99701152
| 29> H   -3.09024761  -0.00266927  -1.98657247
| 30> H   -1.56273096   0.68148357  -2.54918679
| 31> C   -1.64819537  -1.01785470   1.45710082
| 32> C   -1.25707183  -2.12562956   2.28962669
| 33> C   -1.02309420  -1.95972562   3.63357986
| 34> C   -1.15000444  -0.71371427   4.19010744
| 35> C   -1.54037054   0.39730687   3.42184084
| 36> C   -1.76067218   0.18290418   2.10966065
| 37> H   -0.91874328  -0.57380054   5.24085081
| 38> H   -1.67150967   1.32071887   3.90389810
| 39> H   -1.30305787  -3.13173326   1.90932035
| 40> H   -0.90710149  -2.82984953   4.26996173
| 41> H   -2.24016569   3.25864007   1.43090018
| 42> C   -2.20305004  -1.30193490   0.11942623
| 43> H   -3.21082054  -0.87367156   0.11703979
| 44> H   -2.38532915  -2.36807671  -0.00024137
| 45> O    2.06618018  -0.29122883  -1.40959432
| 46> C    2.21043633  -0.50259783  -2.69641893
| 47> O    1.39402935  -0.51832591  -3.59214040
| 48> C    3.73946344  -0.73382616  -3.01758995
| 49> H    3.88511830  -1.79636740  -3.27943540
| 50> H    4.39238832  -0.48863031  -2.20507689
| 51> H    4.01673371  -0.14304281  -3.89388425
| 52> *
| 53>
| 54>                          ****END OF INPUT****

CARTESIAN COORDINATES (ANGSTROEM)
---------------------------------
  Pd     0.501527    0.294094   -0.250818
  O      1.997543    1.312124    0.670404
  C      1.684028    2.602199    0.327084
  O      0.655035    2.877466   -0.226052
  C      2.747368    3.688869    0.618470
  H      2.256464    4.571183    1.051159
  H      3.174352    4.027954   -0.334005
  H      3.562340    3.383772    1.267489
  N     -1.391181   -0.749820   -1.056637
  C     -1.194234   -1.821082   -2.028026
  H     -0.740300   -1.439851   -2.927489
  H     -2.173853   -2.199992   -2.307377
  H     -0.553749   -2.581541   -1.595559
  C     -2.116957    0.365482   -1.676242
  H     -2.238769    1.198759   -0.997012
  H     -3.090248   -0.002669   -1.986572
  H     -1.562731    0.681484   -2.549187
  C     -1.648195   -1.017855    1.457101
  C     -1.257072   -2.125630    2.289627
  C     -1.023094   -1.959726    3.633580
  C     -1.150004   -0.713714    4.190107
  C     -1.540371    0.397307    3.421841
  C     -1.760672    0.182904    2.109661
  H     -0.918743   -0.573801    5.240851
  H     -1.671510    1.320719    3.903898
  H     -1.303058   -3.131733    1.909320
  H     -0.907101   -2.829850    4.269962
  H     -2.240166    3.258640    1.430900
  C     -2.203050   -1.301935    0.119426
  H     -3.210821   -0.873672    0.117040
  H     -2.385329   -2.368077   -0.000241
  O      2.066180   -0.291229   -1.409594
  C      2.210436   -0.502598   -2.696419
  O      1.394029   -0.518326   -3.592140
  C      3.739463   -0.733826   -3.017590
  H      3.885118   -1.796367   -3.279435
  H      4.392388   -0.488630   -2.205077
  H      4.016734   -0.143043   -3.893884

 Total Charge           Charge          ....    0
 Multiplicity           Mult            ....    1
 Number of Electrons    NEL             ....  154
 Basis Dimension        Dim             ....  339

ORBITAL ENERGIES
----------------

  NO   OCC          E(Eh)            E(eV)
   0   2.0000     -19.487342      -530.2775
   1   2.0000     -19.476465      -529.9816
   2   2.0000     -19.462675      -529.6063
   3   2.0000     -19.435049      -528.8546
   4   2.0000     -14.717933      -400.4953
   5   2.0000     -10.552781      -287.1558
   6   2.0000     -10.535479      -286.6850
   7   2.0000     -10.530875      -286.5597
   8   2.0000     -10.515494      -286.1411
   9   2.0000     -10.511664      -286.0369
  10   2.0000     -10.495442      -285.5955
  11   2.0000     -10.488687      -285.4117
  12   2.0000     -10.487074      -285.3678
  13   2.0000     -10.480506      -285.1891
  14   2.0000     -10.478484      -285.1340
  15   2.0000     -10.472592      -284.9737
  16   2.0000     -10.429239      -283.7940
  17   2.0000     -10.409575      -283.2589
  18   2.0000      -3.662529       -99.6625
  19   2.0000      -2.313656       -62.9578
  20   2.0000      -2.302323       -62.6494
  21   2.0000      -2.274117       -61.8819
  22   2.0000      -1.164466       -31.6867
  23   2.0000      -1.137894       -30.9637
  24   2.0000      -1.071877       -29.1673
  25   2.0000      -1.054501       -28.6944
  26   2.0000      -1.049280       -28.5524
  27   2.0000      -1.005551       -27.3624
  28   2.0000      -0.909193       -24.7404
  29   2.0000      -0.878778       -23.9128
  30   2.0000      -0.822201       -22.3732
  31   2.0000      -0.814722       -22.1697
  32   2.0000      -0.801302       -21.8045
  33   2.0000      -0.776641       -21.1335
  34   2.0000      -0.726899       -19.7799
  35   2.0000      -0.718882       -19.5618
  36   2.0000      -0.685379       -18.6501
  37   2.0000      -0.616200       -16.7677
  38   2.0000      -0.594085       -16.1659
  39   2.0000      -0.583395       -15.8750
  40   2.0000      -0.581020       -15.8104
  41   2.0000      -0.574296       -15.6274
  42   2.0000      -0.567146       -15.4328
  43   2.0000      -0.545322       -14.8390
  44   2.0000      -0.539690       -14.6857
  45   2.0000      -0.519692       -14.1415
  46   2.0000      -0.510112       -13.8809
  47   2.0000      -0.504558       -13.7297
  48   2.0000      -0.502466       -13.6728
  49   2.0000      -0.494313       -13.4509
  50   2.0000      -0.493385       -13.4257
  51   2.0000      -0.484251       -13.1771
  52   2.0000      -0.482856       -13.1392
  53   2.0000      -0.477656       -12.9977
  54   2.0000      -0.468664       -12.7530
  55   2.0000      -0.453159       -12.3311
  56   2.0000      -0.449283       -12.2256
  57   2.0000      -0.441186       -12.0053
  58   2.0000      -0.440606       -11.9895
  59   2.0000      -0.437547       -11.9063
  60   2.0000      -0.430544       -11.7157
  61   2.0000      -0.422959       -11.5093
  62   2.0000      -0.406065       -11.0496
  63   2.0000      -0.394732       -10.7412
  64   2.0000      -0.378271       -10.2933
  65   2.0000      -0.362885        -9.8746
  66   2.0000      -0.344790        -9.3822
  67   2.0000      -0.344335        -9.3698
  68   2.0000      -0.339604        -9.2411
  69   2.0000      -0.336213        -9.1488
  70   2.0000      -0.327165        -8.9026
  71   2.0000      -0.318459        -8.6657
  72   2.0000      -0.311656        -8.4806
  73   2.0000      -0.296722        -8.0742
  74   2.0000      -0.285072        -7.7572
  75   2.0000      -0.276015        -7.5107
  76   2.0000      -0.265246        -7.2177
  77   0.0000      -0.160143        -4.3577
  78   0.0000      -0.090840        -2.4719
  79   0.0000      -0.033230        -0.9042
  80   0.0000      -0.012525        -0.3408
  81   0.0000       0.049147         1.3374

MULLIKEN ATOMIC CHARGES
-----------------------
   0 Pd:    0.470568
   1 O :   -0.520649
   2 C :    0.601211
   3 O :   -0.418560
   4 C :   -0.750208
   5 H :    0.239527
   6 H :    0.252038
   7 H :    0.246424
   8 N :   -0.461817
   9 C :   -0.538344
  10 H :    0.311638
  11 H :    0.210540
  12 H :    0.254975
  13 C :   -0.548948
  14 H :    0.283984
  15 H :    0.224206
  16 H :    0.292023
  17 C :   -0.018928
  18 C :   -0.237962
  19 C :   -0.192042
  20 C :   -0.231968
  21 C :   -0.248644
  22 C :    0.038897
  23 H :    0.247212
  24 H :    0.274740
  25 H :    0.237445
  26 H :    0.242089
  27 H :    0.006494
  28 C :   -0.331981
  29 H :    0.262319
  30 H :    0.259483
  31 O :   -0.519332
  32 C :    0.549704
  33 O :   -0.453796
  34 C :   -0.738607
  35 H :    0.223803
  36 H :    0.249055
  37 H :    0.233410
Sum of atomic charges:   -0.0000000

LOEWDIN ATOMIC CHARGES
----------------------
   0 Pd:   -0.217145
   1 O :   -0.200913
   2 C :    0.182910
   3 O :   -0.185986
   4 C :   -0.385102
   5 H :    0.147454
   6 H :    0.156872
   7 H :    0.143484
   8 N :   -0.086812
   9 C :   -0.245945
  10 H :    0.166649
  11 H :    0.114560
  12 H :    0.145760
  13 C :   -0.240486
  14 H :    0.158021
  15 H :    0.119575
  16 H :    0.162466
  17 C :   -0.066110
  18 C :   -0.093004
  19 C :   -0.128918
  20 C :   -0.103753
  21 C :   -0.128079
  22 C :    0.040266
  23 H :    0.148961
  24 H :    0.163241
  25 H :    0.148861
  26 H :    0.150387
  27 H :    0.006675
  28 C :   -0.102099
  29 H :    0.153662
  30 H :    0.147363
  31 O :   -0.170219
  32 C :    0.139982
  33 O :   -0.274193
  34 C :   -0.390949
  35 H :    0.141123
  36 H :    0.140023
  37 H :    0.141419

  Mayer bond orders larger than 0.100000
B(  0-Pd,  1-O ) :   0.7376 B(  0-Pd,  3-O ) :   0.1805 B(  0-Pd,  8-N ) :   0.3752
B(  0-Pd, 31-O ) :   0.6694 B(  1-O ,  2-C ) :   1.1753 B(  2-C ,  3-O ) :   1.8418
B(  2-C ,  4-C ) :   0.9316 B(  4-C ,  5-H ) :   0.9148 B(  4-C ,  6-H ) :   0.9097
B(  4-C ,  7-H ) :   0.9107 B(  8-N ,  9-C ) :   0.9245 B(  8-N , 13-C ) :   0.9192
B(  8-N , 28-C ) :   0.8909 B(  9-C , 10-H ) :   0.8660 B(  9-C , 11-H ) :   0.9056
B(  9-C , 12-H ) :   0.9128 B( 13-C , 14-H ) :   0.8878 B( 13-C , 15-H ) :   0.9055
B( 13-C , 16-H ) :   0.8908 B( 17-C , 18-C ) :   1.3623 B( 17-C , 22-C ) :   1.4286
B( 17-C , 28-C ) :   0.9372 B( 18-C , 19-C ) :   1.4584 B( 18-C , 21-C ) :   0.1016
B( 18-C , 25-H ) :   0.9033 B( 19-C , 20-C ) :   1.4217 B( 19-C , 26-H ) :   0.9091
B( 20-C , 21-C ) :   1.3879 B( 20-C , 23-H ) :   0.9028 B( 21-C , 22-C ) :   1.4692
B( 21-C , 24-H ) :   0.8970 B( 22-C , 27-H ) :   0.7112 B( 28-C , 29-H ) :   0.8975
B( 28-C , 30-H ) :   0.9119 B( 31-O , 32-C ) :   1.2734 B( 31-O , 33-O ) :   0.1079
B( 32-C , 33-O ) :   1.9127 B( 32-C , 34-C ) :   0.8981 B( 34-C , 35-H ) :   0.9216
B( 34-C , 36-H ) :   0.9096 B( 34-C , 37-H ) :   0.9186

Dispersion correction           -0.025179993
FINAL SINGLE POINT ENERGY      -988.224938791927
Dispersion correction            ... done

DIPOLE MOMENT
-------------
                                X             Y             Z
Electronic contribution:     20.87331      12.73496     -10.27243
Nuclear contribution   :    -22.99247     -14.13759      12.23065
                        -----------------------------------------
Total Dipole Moment    :     -2.11917      -1.40264       1.95822
                        -----------------------------------------
Magnitude (a.u.)       :      3.20825
Magnitude (Debye)      :      8.15473

Rotational constants in cm-1:     0.013253     0.008078     0.006314
Rotational constants in MHz :   397.311407   242.177233   189.291515

                             ****ORCA TERMINATED NORMALLY****
TOTAL RUN TIME: 0 days 0 hours 18 minutes 49 seconds 851 msec
