                         Program Version 5.0.3 -  RELEASE  -
|  1> ! EnGrad PBEh-3c
|  2> %output
|  3> xyzfile=True
|  4> end
|  5> %scf
|  6> maxiter 250
|  7> end
|  8> %output
|  9> Print[P_Hirshfeld] = 1
| 10> end
| 11> % maxcore
| 12> 4000
| 13> *xyz 0 1
| 14> Pd   0.64483178   0.44472438  -0.06569450
| 15> O    1.90776557   1.17675967   0.57534581
| 16> C    1.39907391   2.60975207   0.19029831
| 17> O    0.74374839   2.96717963  -0.17962111
| 18> C    2.72228647   3.61453831   0.62697850
| 19> H    2.24527782   4.51006508   1.04375343
| 20> H    3.16271147   3.98463633  -0.31329453
| 21> H    3.57196601   3.37041601   1.27038139
| 22> N   -1.44112464  -0.73421703  -1.12902374
| 23> C   -1.17953780  -1.85324434  -2.08903730
| 24> H   -0.59559532  -1.34241027  -2.89128774
| 25> H   -2.18682832  -2.30377343  -2.20275108
| 26> H   -0.59836739  -2.66782214  -1.61466348
| 27> C   -2.15931308   0.43084417  -1.72148829
| 28> H   -2.24202480   1.22999061  -0.93677256
| 29> H   -3.12364076  -0.02000341  -1.99564432
| 30> H   -1.50074844   0.67830774  -2.57291176
| 31> C   -1.81305680  -1.04027028   1.53838882
| 32> C   -1.45475553  -2.14960054   2.33024958
| 33> C   -0.96811086  -1.94508053   3.63397916
| 34> C   -1.23708521  -0.68945047   4.23370446
| 35> C   -1.42184055   0.49137959   3.51632837
| 36> C   -1.56077442   0.20673559   2.19989847
| 37> H   -0.95536608  -0.52578322   5.22812018
| 38> H   -1.66999747   1.48795953   3.91320909
| 39> H   -1.25685143  -3.11247757   1.75586120
| 40> H   -0.84101020  -2.83466001   4.22233581
| 41> H   -2.18128342   2.92990109   1.44066689
| 42> C   -2.17656234  -1.27063108   0.06067804
| 43> H   -3.12449503  -0.77116972   0.01746514
| 44> H   -2.24044857  -2.37140920  -0.07433746
| 45> O    2.13774051  -0.37101420  -1.39137727
| 46> C    2.14790726  -0.54974481  -2.66165750
| 47> O    1.29560150  -0.52366892  -3.65133740
| 48> C    3.72306946  -0.69644608  -2.97282396
| 49> H    3.83651462  -1.74175569  -3.29764067
| 50> H    4.43140283  -0.46346987  -2.13080760
| 51> H    3.96519049  -0.16545685  -3.91084537
| 52> *
| 53>
| 54>                          ****END OF INPUT****

CARTESIAN COORDINATES (ANGSTROEM)
---------------------------------
  Pd     0.644832    0.444724   -0.065695
  O      1.907766    1.176760    0.575346
  C      1.399074    2.609752    0.190298
  O      0.743748    2.967180   -0.179621
  C      2.722286    3.614538    0.626978
  H      2.245278    4.510065    1.043753
  H      3.162711    3.984636   -0.313295
  H      3.571966    3.370416    1.270381
  N     -1.441125   -0.734217   -1.129024
  C     -1.179538   -1.853244   -2.089037
  H     -0.595595   -1.342410   -2.891288
  H     -2.186828   -2.303773   -2.202751
  H     -0.598367   -2.667822   -1.614663
  C     -2.159313    0.430844   -1.721488
  H     -2.242025    1.229991   -0.936773
  H     -3.123641   -0.020003   -1.995644
  H     -1.500748    0.678308   -2.572912
  C     -1.813057   -1.040270    1.538389
  C     -1.454756   -2.149601    2.330250
  C     -0.968111   -1.945081    3.633979
  C     -1.237085   -0.689450    4.233704
  C     -1.421841    0.491380    3.516328
  C     -1.560774    0.206736    2.199898
  H     -0.955366   -0.525783    5.228120
  H     -1.669997    1.487960    3.913209
  H     -1.256851   -3.112478    1.755861
  H     -0.841010   -2.834660    4.222336
  H     -2.181283    2.929901    1.440667
  C     -2.176562   -1.270631    0.060678
  H     -3.124495   -0.771170    0.017465
  H     -2.240449   -2.371409   -0.074337
  O      2.137741   -0.371014   -1.391377
  C      2.147907   -0.549745   -2.661658
  O      1.295602   -0.523669   -3.651337
  C      3.723069   -0.696446   -2.972824
  H      3.836515   -1.741756   -3.297641
  H      4.431403   -0.463470   -2.130808
  H      3.965190   -0.165457   -3.910845

 Total Charge           Charge          ....    0
 Multiplicity           Mult            ....    1
 Number of Electrons    NEL             ....  154
 Basis Dimension        Dim             ....  339

ORBITAL ENERGIES
----------------

  NO   OCC          E(Eh)            E(eV)
   0   2.0000     -19.592267      -533.1327
   1   2.0000     -19.504090      -530.7333
   2   2.0000     -19.475636      -529.9590
   3   2.0000     -19.430118      -528.7204
   4   2.0000     -14.677449      -399.3937
   5   2.0000     -10.611913      -288.7648
   6   2.0000     -10.555433      -287.2279
   7   2.0000     -10.540698      -286.8270
   8   2.0000     -10.523160      -286.3497
   9   2.0000     -10.506939      -285.9084
  10   2.0000     -10.505939      -285.8811
  11   2.0000     -10.505133      -285.8592
  12   2.0000     -10.496048      -285.6120
  13   2.0000     -10.495245      -285.5901
  14   2.0000     -10.478920      -285.1459
  15   2.0000     -10.467027      -284.8223
  16   2.0000     -10.428320      -283.7690
  17   2.0000     -10.406800      -283.1834
  18   2.0000      -3.666138       -99.7607
  19   2.0000      -2.338275       -63.6277
  20   2.0000      -2.296798       -62.4991
  21   2.0000      -2.284363       -62.1607
  22   2.0000      -1.477584       -40.2071
  23   2.0000      -1.117956       -30.4211
  24   2.0000      -1.088304       -29.6143
  25   2.0000      -1.040344       -28.3092
  26   2.0000      -1.026662       -27.9369
  27   2.0000      -1.006146       -27.3786
  28   2.0000      -0.905645       -24.6438
  29   2.0000      -0.874055       -23.7842
  30   2.0000      -0.807233       -21.9659
  31   2.0000      -0.802874       -21.8473
  32   2.0000      -0.799570       -21.7574
  33   2.0000      -0.757025       -20.5997
  34   2.0000      -0.716104       -19.4862
  35   2.0000      -0.715549       -19.4711
  36   2.0000      -0.710845       -19.3431
  37   2.0000      -0.709443       -19.3049
  38   2.0000      -0.674114       -18.3436
  39   2.0000      -0.652547       -17.7567
  40   2.0000      -0.609758       -16.5924
  41   2.0000      -0.601919       -16.3790
  42   2.0000      -0.579745       -15.7757
  43   2.0000      -0.573994       -15.6192
  44   2.0000      -0.558542       -15.1987
  45   2.0000      -0.545683       -14.8488
  46   2.0000      -0.543232       -14.7821
  47   2.0000      -0.528066       -14.3694
  48   2.0000      -0.497852       -13.5472
  49   2.0000      -0.492358       -13.3977
  50   2.0000      -0.485841       -13.2204
  51   2.0000      -0.483566       -13.1585
  52   2.0000      -0.477610       -12.9964
  53   2.0000      -0.473393       -12.8817
  54   2.0000      -0.464687       -12.6448
  55   2.0000      -0.463023       -12.5995
  56   2.0000      -0.453433       -12.3385
  57   2.0000      -0.445867       -12.1327
  58   2.0000      -0.438500       -11.9322
  59   2.0000      -0.436924       -11.8893
  60   2.0000      -0.435940       -11.8625
  61   2.0000      -0.433561       -11.7978
  62   2.0000      -0.424631       -11.5548
  63   2.0000      -0.418138       -11.3781
  64   2.0000      -0.387862       -10.5543
  65   2.0000      -0.381073       -10.3695
  66   2.0000      -0.353336        -9.6147
  67   2.0000      -0.347342        -9.4517
  68   2.0000      -0.340794        -9.2735
  69   2.0000      -0.327560        -8.9134
  70   2.0000      -0.305593        -8.3156
  71   2.0000      -0.293281        -7.9806
  72   2.0000      -0.290343        -7.9006
  73   2.0000      -0.281201        -7.6519
  74   2.0000      -0.274836        -7.4787
  75   2.0000      -0.271201        -7.3797
  76   2.0000      -0.264230        -7.1901
  77   0.0000      -0.144783        -3.9397
  78   0.0000      -0.067018        -1.8237
  79   0.0000      -0.039379        -1.0715
  80   0.0000      -0.027789        -0.7562
  81   0.0000       0.052887         1.4391

MULLIKEN ATOMIC CHARGES
-----------------------
   0 Pd:    0.482496
   1 O :   -0.597974
   2 C :    0.385781
   3 O :    0.122255
   4 C :   -0.820023
   5 H :    0.211321
   6 H :    0.233881
   7 H :    0.251414
   8 N :   -0.452227
   9 C :   -0.538947
  10 H :    0.309103
  11 H :    0.195744
  12 H :    0.238062
  13 C :   -0.517105
  14 H :    0.248672
  15 H :    0.213965
  16 H :    0.271694
  17 C :    0.043570
  18 C :   -0.247004
  19 C :   -0.194529
  20 C :   -0.247856
  21 C :   -0.234844
  22 C :    0.024305
  23 H :    0.249313
  24 H :    0.287787
  25 H :    0.243038
  26 H :    0.244120
  27 H :   -0.076131
  28 C :   -0.291310
  29 H :    0.243667
  30 H :    0.230734
  31 O :   -0.490594
  32 C :    0.559194
  33 O :   -0.529888
  34 C :   -0.729815
  35 H :    0.219781
  36 H :    0.232140
  37 H :    0.226210
Sum of atomic charges:    0.0000000

LOEWDIN ATOMIC CHARGES
----------------------
   0 Pd:   -0.261214
   1 O :   -0.188624
   2 C :    0.033431
   3 O :    0.344430
   4 C :   -0.444652
   5 H :    0.126598
   6 H :    0.140942
   7 H :    0.142092
   8 N :   -0.170603
   9 C :   -0.254069
  10 H :    0.178458
  11 H :    0.108074
  12 H :    0.133490
  13 C :   -0.242492
  14 H :    0.147769
  15 H :    0.117591
  16 H :    0.159649
  17 C :   -0.049450
  18 C :   -0.103437
  19 C :   -0.119639
  20 C :   -0.111207
  21 C :   -0.128455
  22 C :    0.072865
  23 H :    0.148959
  24 H :    0.179128
  25 H :    0.154278
  26 H :    0.153035
  27 H :   -0.073929
  28 C :   -0.116304
  29 H :    0.146271
  30 H :    0.140388
  31 O :   -0.177607
  32 C :    0.176886
  33 O :   -0.374043
  34 C :   -0.399130
  35 H :    0.136340
  36 H :    0.139227
  37 H :    0.134956

  Mayer bond orders larger than 0.100000
B(  0-Pd,  1-O ) :   1.0005 B(  0-Pd,  8-N ) :   0.2437 B(  0-Pd, 22-C ) :   0.1259
B(  0-Pd, 27-H ) :   0.1320 B(  0-Pd, 31-O ) :   0.5564 B(  1-O ,  2-C ) :   0.7495
B(  2-C ,  3-O ) :   2.5275 B(  2-C ,  4-C ) :   0.8260 B(  4-C ,  5-H ) :   0.9190
B(  4-C ,  6-H ) :   0.9171 B(  4-C ,  7-H ) :   0.9155 B(  8-N ,  9-C ) :   0.9194
B(  8-N , 13-C ) :   0.9286 B(  8-N , 28-C ) :   0.9350 B(  9-C , 10-H ) :   0.8457
B(  9-C , 11-H ) :   0.9105 B(  9-C , 12-H ) :   0.9137 B( 13-C , 14-H ) :   0.8972
B( 13-C , 15-H ) :   0.9093 B( 13-C , 16-H ) :   0.8986 B( 17-C , 18-C ) :   1.3858
B( 17-C , 22-C ) :   1.3606 B( 17-C , 28-C ) :   0.9406 B( 18-C , 19-C ) :   1.3935
B( 18-C , 25-H ) :   0.9023 B( 19-C , 20-C ) :   1.4235 B( 19-C , 26-H ) :   0.9112
B( 20-C , 21-C ) :   1.3470 B( 20-C , 23-H ) :   0.9045 B( 21-C , 22-C ) :   1.4534
B( 21-C , 24-H ) :   0.8913 B( 22-C , 27-H ) :   0.6768 B( 28-C , 29-H ) :   0.8951
B( 28-C , 30-H ) :   0.9151 B( 31-O , 32-C ) :   1.3893 B( 31-O , 33-O ) :   0.1185
B( 32-C , 33-O ) :   1.7777 B( 32-C , 34-C ) :   0.8842 B( 34-C , 35-H ) :   0.9187
B( 34-C , 36-H ) :   0.9181 B( 34-C , 37-H ) :   0.9166

Dispersion correction           -0.024973905
FINAL SINGLE POINT ENERGY      -987.485365051466
Dispersion correction            ... done

DIPOLE MOMENT
-------------
                                X             Y             Z
Electronic contribution:     29.02204      21.84636       0.19635
Nuclear contribution   :    -30.92995     -22.22874       2.30517
                        -----------------------------------------
Total Dipole Moment    :     -1.90791      -0.38238       2.50152
                        -----------------------------------------
Magnitude (a.u.)       :      3.16922
Magnitude (Debye)      :      8.05552

Rotational constants in cm-1:     0.013061     0.008052     0.006278
Rotational constants in MHz :   391.568130   241.390937   188.211858

                             ****ORCA TERMINATED NORMALLY****
TOTAL RUN TIME: 0 days 0 hours 21 minutes 5 seconds 718 msec
