                         Program Version 5.0.3 -  RELEASE  -
|  1> ! EnGrad PBEh-3c
|  2> %output
|  3> xyzfile=True
|  4> end
|  5> %scf
|  6> maxiter 250
|  7> end
|  8> %output
|  9> Print[P_Hirshfeld] = 1
| 10> end
| 11> % maxcore
| 12> 4000
| 13> %pal nprocs 4
| 14> end
| 15> *xyz 0 1
| 16> C   -1.94850000   0.11390000  -0.11553000
| 17> C   -1.51314000  -0.55355000  -1.25176000
| 18> C   -0.65360000  -1.63698000  -1.13265000
| 19> C   -0.22371000  -2.04826000   0.12095000
| 20> C   -1.51877000  -0.29869000   1.13870000
| 21> C   -0.65405000  -1.37730000   1.25696000
| 22> H   -2.62392000   0.95412000  -0.20975000
| 23> H   -1.84157000  -0.22938000  -2.23030000
| 24> H   -0.32031000  -2.16033000  -2.01958000
| 25> H   -0.30961000  -1.68955000   2.23377000
| 26> H    0.45051000  -2.88926000   0.21625000
| 27> Pd   1.43399000   1.27524000   0.00042000
| 28> O    2.09476000   0.53096000  -1.76783000
| 29> O    2.59801000  -0.39701000   0.11164000
| 30> O    0.31132000   2.97233000  -0.11995000
| 31> C    0.21519000   2.97032000   1.13364000
| 32> O    0.79029000   2.05104000   1.76995000
| 33> H   -1.85791000   0.21851000   2.02659000
| 34> C    2.67984000  -0.39057000  -1.14227000
| 35> H    3.24668000  -1.16254000  -1.67564000
| 36> H   -0.35550000   3.74699000   1.65639000
| 37> *
| 38>
| 39>                          ****END OF INPUT****

CARTESIAN COORDINATES (ANGSTROEM)
---------------------------------
  C     -1.948500    0.113900   -0.115530
  C     -1.513140   -0.553550   -1.251760
  C     -0.653600   -1.636980   -1.132650
  C     -0.223710   -2.048260    0.120950
  C     -1.518770   -0.298690    1.138700
  C     -0.654050   -1.377300    1.256960
  H     -2.623920    0.954120   -0.209750
  H     -1.841570   -0.229380   -2.230300
  H     -0.320310   -2.160330   -2.019580
  H     -0.309610   -1.689550    2.233770
  H      0.450510   -2.889260    0.216250
  Pd     1.433990    1.275240    0.000420
  O      2.094760    0.530960   -1.767830
  O      2.598010   -0.397010    0.111640
  O      0.311320    2.972330   -0.119950
  C      0.215190    2.970320    1.133640
  O      0.790290    2.051040    1.769950
  H     -1.857910    0.218510    2.026590
  C      2.679840   -0.390570   -1.142270
  H      3.246680   -1.162540   -1.675640
  H     -0.355500    3.746990    1.656390

 Total Charge           Charge          ....    0
 Multiplicity           Mult            ....    1
 Number of Electrons    NEL             ....  106
 Basis Dimension        Dim             ....  227

ORBITAL ENERGIES
----------------

  NO   OCC          E(Eh)            E(eV)
   0   2.0000     -19.535957      -531.6004
   1   2.0000     -19.535710      -531.5937
   2   2.0000     -19.535629      -531.5915
   3   2.0000     -19.535033      -531.5753
   4   2.0000     -10.596413      -288.3431
   5   2.0000     -10.595937      -288.3301
   6   2.0000     -10.450198      -284.3643
   7   2.0000     -10.450011      -284.3593
   8   2.0000     -10.449672      -284.3500
   9   2.0000     -10.449320      -284.3404
  10   2.0000     -10.449081      -284.3339
  11   2.0000     -10.448075      -284.3066
  12   2.0000      -3.693801      -100.5134
  13   2.0000      -2.347419       -63.8765
  14   2.0000      -2.335739       -63.5587
  15   2.0000      -2.300358       -62.5959
  16   2.0000      -1.244641       -33.8684
  17   2.0000      -1.236484       -33.6464
  18   2.0000      -1.124854       -30.6088
  19   2.0000      -1.120723       -30.4964
  20   2.0000      -0.958514       -26.0825
  21   2.0000      -0.840031       -22.8584
  22   2.0000      -0.839230       -22.8366
  23   2.0000      -0.709691       -19.3117
  24   2.0000      -0.697506       -18.9801
  25   2.0000      -0.681945       -18.5567
  26   2.0000      -0.681675       -18.5493
  27   2.0000      -0.605279       -16.4705
  28   2.0000      -0.595595       -16.2070
  29   2.0000      -0.587450       -15.9853
  30   2.0000      -0.581935       -15.8352
  31   2.0000      -0.557495       -15.1702
  32   2.0000      -0.546813       -14.8795
  33   2.0000      -0.531331       -14.4583
  34   2.0000      -0.525911       -14.3108
  35   2.0000      -0.512760       -13.9529
  36   2.0000      -0.484624       -13.1873
  37   2.0000      -0.483812       -13.1652
  38   2.0000      -0.455830       -12.4038
  39   2.0000      -0.431789       -11.7496
  40   2.0000      -0.429024       -11.6743
  41   2.0000      -0.418612       -11.3910
  42   2.0000      -0.400221       -10.8906
  43   2.0000      -0.399857       -10.8807
  44   2.0000      -0.394347       -10.7307
  45   2.0000      -0.385938       -10.5019
  46   2.0000      -0.383498       -10.4355
  47   2.0000      -0.375855       -10.2275
  48   2.0000      -0.359557        -9.7840
  49   2.0000      -0.335352        -9.1254
  50   2.0000      -0.324224        -8.8226
  51   2.0000      -0.296154        -8.0587
  52   2.0000      -0.294920        -8.0252
  53   0.0000      -0.077292        -2.1032
  54   0.0000       0.005313         0.1446
  55   0.0000       0.016606         0.4519
  56   0.0000       0.021696         0.5904
  57   0.0000       0.027303         0.7430

MULLIKEN ATOMIC CHARGES
-----------------------
   0 C :   -0.227855
   1 C :   -0.216432
   2 C :   -0.231557
   3 C :   -0.224544
   4 C :   -0.230808
   5 C :   -0.213673
   6 H :    0.222236
   7 H :    0.225556
   8 H :    0.219961
   9 H :    0.227215
  10 H :    0.222045
  11 Pd:    0.533807
  12 O :   -0.456829
  13 O :   -0.454609
  14 O :   -0.456782
  15 C :    0.438746
  16 O :   -0.457736
  17 H :    0.222883
  18 C :    0.442688
  19 H :    0.207461
  20 H :    0.208228
Sum of atomic charges:    0.0000000

LOEWDIN ATOMIC CHARGES
----------------------
   0 C :   -0.127199
   1 C :   -0.120468
   2 C :   -0.131819
   3 C :   -0.124446
   4 C :   -0.123096
   5 C :   -0.119339
   6 H :    0.140211
   7 H :    0.141537
   8 H :    0.137541
   9 H :    0.142964
  10 H :    0.139296
  11 Pd:   -0.153487
  12 O :   -0.134165
  13 O :   -0.135034
  14 O :   -0.136527
  15 C :    0.174203
  16 O :   -0.137212
  17 H :    0.140738
  18 C :    0.176046
  19 H :    0.125078
  20 H :    0.125177

  Mayer bond orders larger than 0.100000
B(  0-C ,  1-C ) :   1.4284 B(  0-C ,  4-C ) :   1.4172 B(  0-C ,  6-H ) :   0.9195
B(  1-C ,  2-C ) :   1.4260 B(  1-C ,  7-H ) :   0.9184 B(  2-C ,  3-C ) :   1.4227
B(  2-C ,  8-H ) :   0.9200 B(  3-C ,  5-C ) :   1.4274 B(  3-C , 10-H ) :   0.9193
B(  4-C ,  5-C ) :   1.4305 B(  4-C , 17-H ) :   0.9190 B(  5-C ,  9-H ) :   0.9178
B( 11-Pd, 12-O ) :   0.5855 B( 11-Pd, 13-O ) :   0.5754 B( 11-Pd, 14-O ) :   0.5781
B( 11-Pd, 16-O ) :   0.5733 B( 12-O , 13-O ) :   0.1117 B( 12-O , 18-C ) :   1.4450
B( 13-O , 18-C ) :   1.4534 B( 14-O , 15-C ) :   1.4517 B( 14-O , 16-O ) :   0.1124
B( 15-C , 16-O ) :   1.4518 B( 15-C , 20-H ) :   0.8919 B( 18-C , 19-H ) :   0.8925

Dispersion correction           -0.013607307
FINAL SINGLE POINT ENERGY      -737.154894041332
Dispersion correction            ... done

DIPOLE MOMENT
-------------
                                X             Y             Z
Electronic contribution:     55.94028      49.72517       0.03658
Nuclear contribution   :    -56.06427     -49.85438      -0.02156
                        -----------------------------------------
Total Dipole Moment    :     -0.12399      -0.12921       0.01502
                        -----------------------------------------
Magnitude (a.u.)       :      0.17971
Magnitude (Debye)      :      0.45678

Rotational constants in cm-1:     0.028545     0.020802     0.015628
Rotational constants in MHz :   855.746093   623.618986   468.512298

                             ****ORCA TERMINATED NORMALLY****
TOTAL RUN TIME: 0 days 0 hours 1 minutes 7 seconds 724 msec
