                         Program Version 5.0.3 -  RELEASE  -
|  1> ! EnGrad PBEh-3c
|  2> %output
|  3> xyzfile=True
|  4> end
|  5> %scf
|  6> maxiter 250
|  7> end
|  8> %output
|  9> Print[P_Hirshfeld] = 1
| 10> end
| 11> % maxcore
| 12> 4000
| 13> *xyz 0 1
| 14> C   -1.51173945   0.18221967  -0.57299174
| 15> C   -2.07578402  -0.87760908  -1.26948392
| 16> C   -1.72683110  -2.17732446  -0.94805010
| 17> C   -0.78803048  -2.43697527   0.03542451
| 18> C   -0.66768105  -0.12101124   0.47714638
| 19> C   -0.25542455  -1.39885264   0.78045456
| 20> H   -1.85160382   1.15964928  -0.89676765
| 21> H   -2.81275123  -0.69504521  -2.03755732
| 22> H   -2.22508904  -3.00323539  -1.45419042
| 23> H    0.47056563  -1.66692695   1.54066954
| 24> H   -0.52333136  -3.45723508   0.26989299
| 25> Pd   1.45436791   1.12572429  -0.11560642
| 26> O    3.26818827   1.31333402  -1.20188531
| 27> O    2.65934690  -0.53920282  -0.28295179
| 28> O    0.37406904   2.83162275   0.14233003
| 29> C   -0.01198310   2.95491742   1.30094572
| 30> O    0.36686709   2.13185408   2.21212926
| 31> H   -1.22949308   1.25722989   2.82688091
| 32> C    3.46651814   0.10262308  -1.00251787
| 33> H    4.35905641  -0.41585112  -1.37906728
| 34> H   -0.73923113   3.73008475   1.57520790
| 35> *
| 36>
| 37>                          ****END OF INPUT****

CARTESIAN COORDINATES (ANGSTROEM)
---------------------------------
  C     -1.511739    0.182220   -0.572992
  C     -2.075784   -0.877609   -1.269484
  C     -1.726831   -2.177324   -0.948050
  C     -0.788030   -2.436975    0.035425
  C     -0.667681   -0.121011    0.477146
  C     -0.255425   -1.398853    0.780455
  H     -1.851604    1.159649   -0.896768
  H     -2.812751   -0.695045   -2.037557
  H     -2.225089   -3.003235   -1.454190
  H      0.470566   -1.666927    1.540670
  H     -0.523331   -3.457235    0.269893
  Pd     1.454368    1.125724   -0.115606
  O      3.268188    1.313334   -1.201885
  O      2.659347   -0.539203   -0.282952
  O      0.374069    2.831623    0.142330
  C     -0.011983    2.954917    1.300946
  O      0.366867    2.131854    2.212129
  H     -1.229493    1.257230    2.826881
  C      3.466518    0.102623   -1.002518
  H      4.359056   -0.415851   -1.379067
  H     -0.739231    3.730085    1.575208

 Total Charge           Charge          ....    0
 Multiplicity           Mult            ....    1
 Number of Electrons    NEL             ....  106
 Basis Dimension        Dim             ....  227

ORBITAL ENERGIES
----------------

  NO   OCC          E(Eh)            E(eV)
   0   2.0000     -19.536316      -531.6102
   1   2.0000     -19.519349      -531.1485
   2   2.0000     -19.516991      -531.0843
   3   2.0000     -19.511678      -530.9398
   4   2.0000     -10.582070      -287.9528
   5   2.0000     -10.577189      -287.8199
   6   2.0000     -10.487339      -285.3750
   7   2.0000     -10.466061      -284.7960
   8   2.0000     -10.462652      -284.7032
   9   2.0000     -10.460197      -284.6364
  10   2.0000     -10.458622      -284.5936
  11   2.0000     -10.457621      -284.5663
  12   2.0000      -3.669129       -99.8421
  13   2.0000      -2.321687       -63.1763
  14   2.0000      -2.307386       -62.7872
  15   2.0000      -2.280867       -62.0655
  16   2.0000      -1.223090       -33.2820
  17   2.0000      -1.218484       -33.1566
  18   2.0000      -1.105934       -30.0940
  19   2.0000      -1.101365       -29.9697
  20   2.0000      -0.971255       -26.4292
  21   2.0000      -0.854509       -23.2524
  22   2.0000      -0.839833       -22.8530
  23   2.0000      -0.693163       -18.8619
  24   2.0000      -0.690696       -18.7948
  25   2.0000      -0.681870       -18.5546
  26   2.0000      -0.680020       -18.5043
  27   2.0000      -0.590937       -16.0802
  28   2.0000      -0.583789       -15.8857
  29   2.0000      -0.577093       -15.7035
  30   2.0000      -0.554574       -15.0907
  31   2.0000      -0.541995       -14.7484
  32   2.0000      -0.529545       -14.4097
  33   2.0000      -0.522403       -14.2153
  34   2.0000      -0.521366       -14.1871
  35   2.0000      -0.519351       -14.1323
  36   2.0000      -0.493614       -13.4319
  37   2.0000      -0.451282       -12.2800
  38   2.0000      -0.438799       -11.9403
  39   2.0000      -0.426186       -11.5971
  40   2.0000      -0.417081       -11.3494
  41   2.0000      -0.403568       -10.9816
  42   2.0000      -0.393481       -10.7072
  43   2.0000      -0.382626       -10.4118
  44   2.0000      -0.380003       -10.3404
  45   2.0000      -0.363839        -9.9006
  46   2.0000      -0.356736        -9.7073
  47   2.0000      -0.338356        -9.2071
  48   2.0000      -0.332641        -9.0516
  49   2.0000      -0.313954        -8.5431
  50   2.0000      -0.305526        -8.3138
  51   2.0000      -0.299220        -8.1422
  52   2.0000      -0.257784        -7.0147
  53   0.0000      -0.141949        -3.8626
  54   0.0000      -0.085648        -2.3306
  55   0.0000       0.006265         0.1705
  56   0.0000       0.014140         0.3848
  57   0.0000       0.033304         0.9062

MULLIKEN ATOMIC CHARGES
-----------------------
   0 C :   -0.204375
   1 C :   -0.226622
   2 C :   -0.213561
   3 C :   -0.222115
   4 C :   -0.167596
   5 C :   -0.207124
   6 H :    0.249278
   7 H :    0.231713
   8 H :    0.228282
   9 H :    0.259212
  10 H :    0.230558
  11 Pd:    0.447737
  12 O :   -0.454467
  13 O :   -0.463816
  14 O :   -0.425704
  15 C :    0.359704
  16 O :   -0.416601
  17 H :    0.191162
  18 C :    0.403361
  19 H :    0.198238
  20 H :    0.202734
Sum of atomic charges:    0.0000000

LOEWDIN ATOMIC CHARGES
----------------------
   0 C :   -0.114304
   1 C :   -0.131299
   2 C :   -0.119300
   3 C :   -0.125868
   4 C :   -0.033520
   5 C :   -0.102207
   6 H :    0.156510
   7 H :    0.139970
   8 H :    0.139923
   9 H :    0.161075
  10 H :    0.140853
  11 Pd:   -0.208463
  12 O :   -0.155977
  13 O :   -0.149624
  14 O :   -0.092077
  15 C :    0.119591
  16 O :   -0.222357
  17 H :    0.213555
  18 C :    0.150913
  19 H :    0.117665
  20 H :    0.114941

  Mayer bond orders larger than 0.100000
B(  0-C ,  1-C ) :   1.4145 B(  0-C ,  4-C ) :   1.3550 B(  0-C ,  6-H ) :   0.9000
B(  1-C ,  2-C ) :   1.4277 B(  1-C ,  7-H ) :   0.9103 B(  2-C ,  3-C ) :   1.4177
B(  2-C ,  8-H ) :   0.9168 B(  3-C ,  5-C ) :   1.4223 B(  3-C , 10-H ) :   0.9110
B(  4-C ,  5-C ) :   1.3904 B(  4-C , 11-Pd) :   0.4950 B(  4-C , 17-H ) :   0.3554
B(  5-C ,  9-H ) :   0.8970 B( 11-Pd, 12-O ) :   0.4606 B( 11-Pd, 13-O ) :   0.5670
B( 11-Pd, 14-O ) :   0.5105 B( 11-Pd, 16-O ) :   0.1317 B( 11-Pd, 17-H ) :   0.1033
B( 12-O , 13-O ) :   0.1130 B( 12-O , 18-C ) :   1.5425 B( 13-O , 18-C ) :   1.4375
B( 14-O , 15-C ) :   1.5271 B( 15-C , 16-O ) :   1.5246 B( 15-C , 20-H ) :   0.8768
B( 16-O , 17-H ) :   0.3300 B( 18-C , 19-H ) :   0.8854

Dispersion correction           -0.013389051
FINAL SINGLE POINT ENERGY      -736.901828956736
Dispersion correction            ... done

DIPOLE MOMENT
-------------
                                X             Y             Z
Electronic contribution:     53.80792      42.06746      -5.42548
Nuclear contribution   :    -54.90931     -42.61421       5.46390
                        -----------------------------------------
Total Dipole Moment    :     -1.10139      -0.54675       0.03842
                        -----------------------------------------
Magnitude (a.u.)       :      1.23023
Magnitude (Debye)      :      3.12700

Rotational constants in cm-1:     0.028324     0.017293     0.012875
Rotational constants in MHz :   849.139003   518.446017   385.981512

                             ****ORCA TERMINATED NORMALLY****
TOTAL RUN TIME: 0 days 0 hours 4 minutes 24 seconds 901 msec
