                         Program Version 5.0.3 -  RELEASE  -
|  1> ! EnGrad PBEh-3c
|  2> %output
|  3> xyzfile=True
|  4> end
|  5> %scf
|  6> maxiter 250
|  7> end
|  8> %output
|  9> Print[P_Hirshfeld] = 1
| 10> end
| 11> % maxcore
| 12> 4000
| 13> *xyz 0 1
| 14> C   -1.58182990   0.20270718  -0.41024855
| 15> C   -2.03447403  -0.84098184  -1.21552672
| 16> C   -1.60583044  -2.14736310  -0.99620467
| 17> C   -0.76142773  -2.38969834   0.08142892
| 18> C   -0.66224746  -0.02494679   0.62323803
| 19> C   -0.32504709  -1.35268652   0.89055683
| 20> H   -1.90501689   1.20367214  -0.65240383
| 21> H   -2.64532360  -0.64017988  -2.08423832
| 22> H   -1.94055310  -2.97903472  -1.64658844
| 23> H    0.35944193  -1.56437962   1.68958848
| 24> H   -0.38340066  -3.38643564   0.23802338
| 25> Pd   1.25192941   0.98116106   0.02197603
| 26> O    3.11057907   1.26684690  -1.30504093
| 27> O    2.54487057  -0.54097607  -0.19044714
| 28> O    0.38970512   2.72799527   0.20055284
| 29> C   -0.10221678   2.89855770   1.31097231
| 30> O    0.02940636   1.96569120   2.30670466
| 31> H   -0.58920820   1.16671692   1.97612061
| 32> C    3.30425519   0.07684387  -1.00224336
| 33> H    4.16611903  -0.47896692  -1.39288490
| 34> H   -0.62767166   3.83653874   1.53637927
| 35> *
| 36>
| 37>                          ****END OF INPUT****

CARTESIAN COORDINATES (ANGSTROEM)
---------------------------------
  C     -1.581830    0.202707   -0.410249
  C     -2.034474   -0.840982   -1.215527
  C     -1.605830   -2.147363   -0.996205
  C     -0.761428   -2.389698    0.081429
  C     -0.662247   -0.024947    0.623238
  C     -0.325047   -1.352687    0.890557
  H     -1.905017    1.203672   -0.652404
  H     -2.645324   -0.640180   -2.084238
  H     -1.940553   -2.979035   -1.646588
  H      0.359442   -1.564380    1.689588
  H     -0.383401   -3.386436    0.238023
  Pd     1.251929    0.981161    0.021976
  O      3.110579    1.266847   -1.305041
  O      2.544871   -0.540976   -0.190447
  O      0.389705    2.727995    0.200553
  C     -0.102217    2.898558    1.310972
  O      0.029406    1.965691    2.306705
  H     -0.589208    1.166717    1.976121
  C      3.304255    0.076844   -1.002243
  H      4.166119   -0.478967   -1.392885
  H     -0.627672    3.836539    1.536379

 Total Charge           Charge          ....    0
 Multiplicity           Mult            ....    1
 Number of Electrons    NEL             ....  106
 Basis Dimension        Dim             ....  227

ORBITAL ENERGIES
----------------

  NO   OCC          E(Eh)            E(eV)
   0   2.0000     -19.593473      -533.1655
   1   2.0000     -19.550659      -532.0005
   2   2.0000     -19.508180      -530.8446
   3   2.0000     -19.498450      -530.5798
   4   2.0000     -10.643580      -289.6265
   5   2.0000     -10.567738      -287.5628
   6   2.0000     -10.458343      -284.5860
   7   2.0000     -10.457012      -284.5498
   8   2.0000     -10.450846      -284.3820
   9   2.0000     -10.449477      -284.3447
  10   2.0000     -10.447582      -284.2932
  11   2.0000     -10.446796      -284.2718
  12   2.0000      -3.669677       -99.8570
  13   2.0000      -2.322933       -63.2102
  14   2.0000      -2.309223       -62.8372
  15   2.0000      -2.280963       -62.0682
  16   2.0000      -1.266590       -34.4657
  17   2.0000      -1.201507       -32.6947
  18   2.0000      -1.159550       -31.5530
  19   2.0000      -1.093985       -29.7688
  20   2.0000      -0.954444       -25.9718
  21   2.0000      -0.837800       -22.7977
  22   2.0000      -0.832144       -22.6438
  23   2.0000      -0.756289       -20.5797
  24   2.0000      -0.681020       -18.5315
  25   2.0000      -0.673887       -18.3374
  26   2.0000      -0.671098       -18.2615
  27   2.0000      -0.642158       -17.4740
  28   2.0000      -0.627378       -17.0718
  29   2.0000      -0.587585       -15.9890
  30   2.0000      -0.570583       -15.5264
  31   2.0000      -0.563629       -15.3371
  32   2.0000      -0.533390       -14.5143
  33   2.0000      -0.515145       -14.0178
  34   2.0000      -0.511611       -13.9216
  35   2.0000      -0.505857       -13.7651
  36   2.0000      -0.491353       -13.3704
  37   2.0000      -0.479691       -13.0531
  38   2.0000      -0.453538       -12.3414
  39   2.0000      -0.450271       -12.2525
  40   2.0000      -0.432480       -11.7684
  41   2.0000      -0.418898       -11.3988
  42   2.0000      -0.397954       -10.8289
  43   2.0000      -0.393280       -10.7017
  44   2.0000      -0.379275       -10.3206
  45   2.0000      -0.373447       -10.1620
  46   2.0000      -0.359874        -9.7927
  47   2.0000      -0.352601        -9.5948
  48   2.0000      -0.328890        -8.9495
  49   2.0000      -0.324057        -8.8180
  50   2.0000      -0.296748        -8.0749
  51   2.0000      -0.291852        -7.9417
  52   2.0000      -0.268633        -7.3099
  53   0.0000      -0.092206        -2.5091
  54   0.0000      -0.041771        -1.1367
  55   0.0000       0.015701         0.4272
  56   0.0000       0.016656         0.4532
  57   0.0000       0.044456         1.2097

MULLIKEN ATOMIC CHARGES
-----------------------
   0 C :   -0.162277
   1 C :   -0.227630
   2 C :   -0.213195
   3 C :   -0.220462
   4 C :   -0.465811
   5 C :   -0.170660
   6 H :    0.219326
   7 H :    0.220519
   8 H :    0.225777
   9 H :    0.244444
  10 H :    0.222610
  11 Pd:    0.488529
  12 O :   -0.446277
  13 O :   -0.491101
  14 O :   -0.375079
  15 C :    0.397127
  16 O :   -0.572336
  17 H :    0.491704
  18 C :    0.392594
  19 H :    0.189877
  20 H :    0.252319
Sum of atomic charges:   -0.0000000

LOEWDIN ATOMIC CHARGES
----------------------
   0 C :   -0.102288
   1 C :   -0.137913
   2 C :   -0.111657
   3 C :   -0.132163
   4 C :   -0.192958
   5 C :   -0.086041
   6 H :    0.139656
   7 H :    0.136981
   8 H :    0.140095
   9 H :    0.151040
  10 H :    0.138380
  11 Pd:   -0.236417
  12 O :   -0.189094
  13 O :   -0.166534
  14 O :   -0.022484
  15 C :    0.227220
  16 O :   -0.325454
  17 H :    0.364938
  18 C :    0.146447
  19 H :    0.111698
  20 H :    0.146549

  Mayer bond orders larger than 0.100000
B(  0-C ,  1-C ) :   1.4454 B(  0-C ,  4-C ) :   1.3215 B(  0-C ,  6-H ) :   0.9122
B(  1-C ,  2-C ) :   1.4140 B(  1-C ,  7-H ) :   0.9167 B(  2-C ,  3-C ) :   1.4093
B(  2-C ,  8-H ) :   0.9175 B(  3-C ,  5-C ) :   1.4461 B(  3-C , 10-H ) :   0.9158
B(  4-C ,  5-C ) :   1.3770 B(  4-C , 11-Pd) :   0.6704 B(  4-C , 17-H ) :   0.1618
B(  5-C ,  9-H ) :   0.9060 B( 11-Pd, 12-O ) :   0.3821 B( 11-Pd, 13-O ) :   0.5794
B( 11-Pd, 14-O ) :   0.4445 B( 12-O , 13-O ) :   0.1150 B( 12-O , 18-C ) :   1.6130
B( 13-O , 18-C ) :   1.3988 B( 14-O , 15-C ) :   1.7025 B( 15-C , 16-O ) :   1.2219
B( 15-C , 20-H ) :   0.8682 B( 16-O , 17-H ) :   0.5414 B( 18-C , 19-H ) :   0.8850

Dispersion correction           -0.013581992
FINAL SINGLE POINT ENERGY      -737.059721808861
Dispersion correction            ... done

DIPOLE MOMENT
-------------
                                X             Y             Z
Electronic contribution:     46.59267      37.00802      -0.12717
Nuclear contribution   :    -47.49707     -36.61635       0.29013
                        -----------------------------------------
Total Dipole Moment    :     -0.90440       0.39167       0.16295
                        -----------------------------------------
Magnitude (a.u.)       :      0.99894
Magnitude (Debye)      :      2.53912

Rotational constants in cm-1:     0.028502     0.019161     0.013926
Rotational constants in MHz :   854.483259   574.425102   417.487291

                             ****ORCA TERMINATED NORMALLY****
TOTAL RUN TIME: 0 days 0 hours 4 minutes 9 seconds 644 msec
