                         Program Version 5.0.3 -  RELEASE  -
|  1> ! EnGrad PBEh-3c
|  2> %output
|  3> xyzfile=True
|  4> end
|  5> %scf
|  6> maxiter 250
|  7> end
|  8> %output
|  9> Print[P_Hirshfeld] = 1
| 10> end
| 11> % maxcore
| 12> 4000
| 13> *xyz 0 1
| 14> C   -1.59491117   0.20223338  -0.39326477
| 15> C   -2.02342192  -0.83640859  -1.21185406
| 16> C   -1.58504073  -2.13876736  -1.00227389
| 17> C   -0.75202386  -2.38435743   0.08072637
| 18> C   -0.68602982  -0.01545801   0.66486459
| 19> C   -0.33893982  -1.35430282   0.91136432
| 20> H   -1.92344739   1.21262898  -0.61797509
| 21> H   -2.61793487  -0.62742266  -2.08575688
| 22> H   -1.88446965  -2.95542166  -1.66651292
| 23> H    0.34551080  -1.55756566   1.72230302
| 24> H   -0.35985065  -3.37238333   0.23626780
| 25> Pd   1.25707449   0.96866696   0.01524619
| 26> O    3.06524925   1.25202780  -1.30877423
| 27> O    2.53119862  -0.54879609  -0.17633176
| 28> O    0.37435912   2.72107546   0.20477072
| 29> C   -0.10316629   2.87175660   1.34459911
| 30> O   -0.02035690   1.98904043   2.27729023
| 31> H   -0.49546520   1.12106929   1.84273338
| 32> C    3.27684555   0.06660595  -1.00402651
| 33> H    4.13484233  -0.49124185  -1.39541991
| 34> H   -0.60911163   3.85543089   1.53758858
| 35> *
| 36>
| 37>                          ****END OF INPUT****

CARTESIAN COORDINATES (ANGSTROEM)
---------------------------------
  C     -1.594911    0.202233   -0.393265
  C     -2.023422   -0.836409   -1.211854
  C     -1.585041   -2.138767   -1.002274
  C     -0.752024   -2.384357    0.080726
  C     -0.686030   -0.015458    0.664865
  C     -0.338940   -1.354303    0.911364
  H     -1.923447    1.212629   -0.617975
  H     -2.617935   -0.627423   -2.085757
  H     -1.884470   -2.955422   -1.666513
  H      0.345511   -1.557566    1.722303
  H     -0.359851   -3.372383    0.236268
  Pd     1.257074    0.968667    0.015246
  O      3.065249    1.252028   -1.308774
  O      2.531199   -0.548796   -0.176332
  O      0.374359    2.721075    0.204771
  C     -0.103166    2.871757    1.344599
  O     -0.020357    1.989040    2.277290
  H     -0.495465    1.121069    1.842733
  C      3.276846    0.066606   -1.004027
  H      4.134842   -0.491242   -1.395420
  H     -0.609112    3.855431    1.537589

 Total Charge           Charge          ....    0
 Multiplicity           Mult            ....    1
 Number of Electrons    NEL             ....  106
 Basis Dimension        Dim             ....  227

ORBITAL ENERGIES
----------------

  NO   OCC          E(Eh)            E(eV)
   0   2.0000     -19.571809      -532.5760
   1   2.0000     -19.547313      -531.9094
   2   2.0000     -19.517556      -531.0997
   3   2.0000     -19.509828      -530.8894
   4   2.0000     -10.629138      -289.2336
   5   2.0000     -10.576559      -287.8028
   6   2.0000     -10.460134      -284.6347
   7   2.0000     -10.459295      -284.6119
   8   2.0000     -10.453222      -284.4466
   9   2.0000     -10.451312      -284.3947
  10   2.0000     -10.447981      -284.3040
  11   2.0000     -10.446145      -284.2541
  12   2.0000      -3.677230      -100.0625
  13   2.0000      -2.330920       -63.4276
  14   2.0000      -2.316098       -63.0242
  15   2.0000      -2.288376       -62.2699
  16   2.0000      -1.261725       -34.3333
  17   2.0000      -1.213128       -33.0109
  18   2.0000      -1.167317       -31.7643
  19   2.0000      -1.104301       -30.0496
  20   2.0000      -0.955682       -26.0054
  21   2.0000      -0.838969       -22.8295
  22   2.0000      -0.834240       -22.7008
  23   2.0000      -0.744495       -20.2587
  24   2.0000      -0.683758       -18.6060
  25   2.0000      -0.680654       -18.5215
  26   2.0000      -0.674478       -18.3535
  27   2.0000      -0.641246       -17.4492
  28   2.0000      -0.616974       -16.7887
  29   2.0000      -0.587876       -15.9969
  30   2.0000      -0.575549       -15.6615
  31   2.0000      -0.566762       -15.4224
  32   2.0000      -0.543771       -14.7968
  33   2.0000      -0.517042       -14.0694
  34   2.0000      -0.515103       -14.0167
  35   2.0000      -0.511678       -13.9235
  36   2.0000      -0.481620       -13.1056
  37   2.0000      -0.478807       -13.0290
  38   2.0000      -0.452989       -12.3265
  39   2.0000      -0.450335       -12.2542
  40   2.0000      -0.433949       -11.8084
  41   2.0000      -0.420559       -11.4440
  42   2.0000      -0.398022       -10.8307
  43   2.0000      -0.394923       -10.7464
  44   2.0000      -0.387974       -10.5573
  45   2.0000      -0.380776       -10.3614
  46   2.0000      -0.367245        -9.9932
  47   2.0000      -0.357611        -9.7311
  48   2.0000      -0.335200        -9.1212
  49   2.0000      -0.329756        -8.9731
  50   2.0000      -0.300568        -8.1789
  51   2.0000      -0.293841        -7.9958
  52   2.0000      -0.277111        -7.5406
  53   0.0000      -0.097041        -2.6406
  54   0.0000      -0.021198        -0.5768
  55   0.0000       0.014817         0.4032
  56   0.0000       0.015915         0.4331
  57   0.0000       0.037432         1.0186

MULLIKEN ATOMIC CHARGES
-----------------------
   0 C :   -0.158566
   1 C :   -0.225980
   2 C :   -0.208978
   3 C :   -0.220944
   4 C :   -0.518749
   5 C :   -0.164866
   6 H :    0.222394
   7 H :    0.221080
   8 H :    0.228274
   9 H :    0.241565
  10 H :    0.222658
  11 Pd:    0.507732
  12 O :   -0.440497
  13 O :   -0.489049
  14 O :   -0.413384
  15 C :    0.387437
  16 O :   -0.533387
  17 H :    0.511863
  18 C :    0.399966
  19 H :    0.195402
  20 H :    0.236027
Sum of atomic charges:    0.0000000

LOEWDIN ATOMIC CHARGES
----------------------
   0 C :   -0.093034
   1 C :   -0.139567
   2 C :   -0.106144
   3 C :   -0.134695
   4 C :   -0.218095
   5 C :   -0.080995
   6 H :    0.141953
   7 H :    0.137643
   8 H :    0.140759
   9 H :    0.150303
  10 H :    0.138610
  11 Pd:   -0.211583
  12 O :   -0.173617
  13 O :   -0.158849
  14 O :   -0.068514
  15 C :    0.188561
  16 O :   -0.279127
  17 H :    0.358940
  18 C :    0.153467
  19 H :    0.115130
  20 H :    0.138856

  Mayer bond orders larger than 0.100000
B(  0-C ,  1-C ) :   1.4482 B(  0-C ,  4-C ) :   1.3093 B(  0-C ,  6-H ) :   0.9130
B(  1-C ,  2-C ) :   1.4074 B(  1-C ,  7-H ) :   0.9173 B(  2-C ,  3-C ) :   1.4103
B(  2-C ,  8-H ) :   0.9170 B(  3-C ,  5-C ) :   1.4428 B(  3-C , 10-H ) :   0.9165
B(  4-C ,  5-C ) :   1.3615 B(  4-C , 11-Pd) :   0.5770 B(  4-C , 17-H ) :   0.2435
B(  5-C ,  9-H ) :   0.9085 B( 11-Pd, 12-O ) :   0.4091 B( 11-Pd, 13-O ) :   0.5881
B( 11-Pd, 14-O ) :   0.4884 B( 12-O , 13-O ) :   0.1149 B( 12-O , 18-C ) :   1.6000
B( 13-O , 18-C ) :   1.3934 B( 14-O , 15-C ) :   1.6039 B( 15-C , 16-O ) :   1.3617
B( 15-C , 20-H ) :   0.8732 B( 16-O , 17-H ) :   0.4415 B( 18-C , 19-H ) :   0.8855

Dispersion correction           -0.013620871
FINAL SINGLE POINT ENERGY      -737.071998770956
Dispersion correction            ... done

DIPOLE MOMENT
-------------
                                X             Y             Z
Electronic contribution:     47.48177      36.18909      -0.70902
Nuclear contribution   :    -48.06683     -36.09013       0.70637
                        -----------------------------------------
Total Dipole Moment    :     -0.58506       0.09896      -0.00265
                        -----------------------------------------
Magnitude (a.u.)       :      0.59338
Magnitude (Debye)      :      1.50824

Rotational constants in cm-1:     0.028476     0.019405     0.014020
Rotational constants in MHz :   853.702846   581.751870   420.299507

                             ****ORCA TERMINATED NORMALLY****
TOTAL RUN TIME: 0 days 0 hours 3 minutes 44 seconds 816 msec
