                         Program Version 5.0.3 -  RELEASE  -
|  1> ! EnGrad PBEh-3c
|  2> %output
|  3> xyzfile=True
|  4> end
|  5> %scf
|  6> maxiter 250
|  7> end
|  8> %output
|  9> Print[P_Hirshfeld] = 1
| 10> end
| 11> % maxcore
| 12> 4000
| 13> *xyz 0 1
| 14> C   -1.60102665   0.20341026  -0.37889961
| 15> C   -2.01458642  -0.83183101  -1.20835446
| 16> C   -1.56670554  -2.12988984  -1.00427319
| 17> C   -0.74510833  -2.38018660   0.08392918
| 18> C   -0.69722665  -0.00716713   0.69472424
| 19> C   -0.34688216  -1.35190197   0.92754029
| 20> H   -1.93724457   1.21899480  -0.58806704
| 21> H   -2.59809650  -0.61435416  -2.08743834
| 22> H   -1.83291780  -2.93125961  -1.68349141
| 23> H    0.33408704  -1.55262798   1.74980165
| 24> H   -0.33949811  -3.36427285   0.23697171
| 25> Pd   1.25752572   0.95523516   0.00502181
| 26> O    3.01963659   1.23992769  -1.30566974
| 27> O    2.51523346  -0.55984714  -0.17039301
| 28> O    0.35109030   2.71253940   0.21399402
| 29> C   -0.10365821   2.86970665   1.37173558
| 30> O   -0.08559295   2.01901782   2.26194798
| 31> H   -0.39753999   1.06783340   1.71145753
| 32> C    3.25637489   0.05176241  -0.99936877
| 33> H    4.10717190  -0.50080601  -1.40013638
| 34> H   -0.58467065   3.86107526   1.54007476
| 35> *
| 36>
| 37>                          ****END OF INPUT****

CARTESIAN COORDINATES (ANGSTROEM)
---------------------------------
  C     -1.601027    0.203410   -0.378900
  C     -2.014586   -0.831831   -1.208354
  C     -1.566706   -2.129890   -1.004273
  C     -0.745108   -2.380187    0.083929
  C     -0.697227   -0.007167    0.694724
  C     -0.346882   -1.351902    0.927540
  H     -1.937245    1.218995   -0.588067
  H     -2.598097   -0.614354   -2.087438
  H     -1.832918   -2.931260   -1.683491
  H      0.334087   -1.552628    1.749802
  H     -0.339498   -3.364273    0.236972
  Pd     1.257526    0.955235    0.005022
  O      3.019637    1.239928   -1.305670
  O      2.515233   -0.559847   -0.170393
  O      0.351090    2.712539    0.213994
  C     -0.103658    2.869707    1.371736
  O     -0.085593    2.019018    2.261948
  H     -0.397540    1.067833    1.711458
  C      3.256375    0.051762   -0.999369
  H      4.107172   -0.500806   -1.400136
  H     -0.584671    3.861075    1.540075

 Total Charge           Charge          ....    0
 Multiplicity           Mult            ....    1
 Number of Electrons    NEL             ....  106
 Basis Dimension        Dim             ....  227

ORBITAL ENERGIES
----------------

  NO   OCC          E(Eh)            E(eV)
   0   2.0000     -19.550272      -531.9899
   1   2.0000     -19.536904      -531.6262
   2   2.0000     -19.526876      -531.3533
   3   2.0000     -19.518877      -531.1356
   4   2.0000     -10.608214      -288.6642
   5   2.0000     -10.584756      -288.0259
   6   2.0000     -10.462969      -284.7119
   7   2.0000     -10.462341      -284.6948
   8   2.0000     -10.458079      -284.5788
   9   2.0000     -10.453759      -284.4612
  10   2.0000     -10.451127      -284.3896
  11   2.0000     -10.449081      -284.3339
  12   2.0000      -3.683844      -100.2425
  13   2.0000      -2.337519       -63.6071
  14   2.0000      -2.322689       -63.2036
  15   2.0000      -2.294803       -62.4448
  16   2.0000      -1.259579       -34.2749
  17   2.0000      -1.222800       -33.2741
  18   2.0000      -1.156613       -31.4730
  19   2.0000      -1.111810       -30.2539
  20   2.0000      -0.958675       -26.0869
  21   2.0000      -0.841251       -22.8916
  22   2.0000      -0.838752       -22.8236
  23   2.0000      -0.732863       -19.9422
  24   2.0000      -0.692953       -18.8562
  25   2.0000      -0.683225       -18.5915
  26   2.0000      -0.677635       -18.4394
  27   2.0000      -0.630523       -17.1574
  28   2.0000      -0.607637       -16.5346
  29   2.0000      -0.589389       -16.0381
  30   2.0000      -0.583794       -15.8858
  31   2.0000      -0.560868       -15.2620
  32   2.0000      -0.551623       -15.0104
  33   2.0000      -0.525446       -14.2981
  34   2.0000      -0.517388       -14.0788
  35   2.0000      -0.514649       -14.0043
  36   2.0000      -0.482316       -13.1245
  37   2.0000      -0.474032       -12.8991
  38   2.0000      -0.450335       -12.2542
  39   2.0000      -0.446324       -12.1451
  40   2.0000      -0.437314       -11.8999
  41   2.0000      -0.419512       -11.4155
  42   2.0000      -0.400152       -10.8887
  43   2.0000      -0.396827       -10.7982
  44   2.0000      -0.392851       -10.6900
  45   2.0000      -0.384811       -10.4713
  46   2.0000      -0.372160       -10.1270
  47   2.0000      -0.362326        -9.8594
  48   2.0000      -0.340347        -9.2613
  49   2.0000      -0.334247        -9.0953
  50   2.0000      -0.307044        -8.3551
  51   2.0000      -0.296525        -8.0688
  52   2.0000      -0.286283        -7.7901
  53   0.0000      -0.099990        -2.7209
  54   0.0000       0.003424         0.0932
  55   0.0000       0.012672         0.3448
  56   0.0000       0.015437         0.4201
  57   0.0000       0.030000         0.8163

MULLIKEN ATOMIC CHARGES
-----------------------
   0 C :   -0.166203
   1 C :   -0.221864
   2 C :   -0.206684
   3 C :   -0.220401
   4 C :   -0.537126
   5 C :   -0.161675
   6 H :    0.226798
   7 H :    0.222710
   8 H :    0.230389
   9 H :    0.240045
  10 H :    0.223723
  11 Pd:    0.517564
  12 O :   -0.442620
  13 O :   -0.483595
  14 O :   -0.445670
  15 C :    0.367537
  16 O :   -0.493281
  17 H :    0.519704
  18 C :    0.407007
  19 H :    0.202415
  20 H :    0.221228
Sum of atomic charges:   -0.0000000

LOEWDIN ATOMIC CHARGES
----------------------
   0 C :   -0.084824
   1 C :   -0.139701
   2 C :   -0.103002
   3 C :   -0.135674
   4 C :   -0.218908
   5 C :   -0.077123
   6 H :    0.145775
   7 H :    0.139101
   8 H :    0.141271
   9 H :    0.150757
  10 H :    0.139646
  11 Pd:   -0.192953
  12 O :   -0.166459
  13 O :   -0.148371
  14 O :   -0.107266
  15 C :    0.146770
  16 O :   -0.248001
  17 H :    0.347804
  18 C :    0.162363
  19 H :    0.119275
  20 H :    0.129519

  Mayer bond orders larger than 0.100000
B(  0-C ,  1-C ) :   1.4468 B(  0-C ,  4-C ) :   1.3048 B(  0-C ,  6-H ) :   0.9133
B(  1-C ,  2-C ) :   1.4022 B(  1-C ,  7-H ) :   0.9179 B(  2-C ,  3-C ) :   1.4123
B(  2-C ,  8-H ) :   0.9165 B(  3-C ,  5-C ) :   1.4346 B(  3-C , 10-H ) :   0.9173
B(  4-C ,  5-C ) :   1.3476 B(  4-C , 11-Pd) :   0.4941 B(  4-C , 17-H ) :   0.3302
B(  5-C ,  9-H ) :   0.9102 B( 11-Pd, 12-O ) :   0.4408 B( 11-Pd, 13-O ) :   0.5879
B( 11-Pd, 14-O ) :   0.5296 B( 12-O , 13-O ) :   0.1153 B( 12-O , 18-C ) :   1.5735
B( 13-O , 18-C ) :   1.4007 B( 14-O , 15-C ) :   1.5180 B( 15-C , 16-O ) :   1.5048
B( 15-C , 20-H ) :   0.8778 B( 16-O , 17-H ) :   0.3385 B( 18-C , 19-H ) :   0.8858

Dispersion correction           -0.013643286
FINAL SINGLE POINT ENERGY      -737.081000352464
Dispersion correction            ... done

DIPOLE MOMENT
-------------
                                X             Y             Z
Electronic contribution:     48.13347      35.24539      -1.49068
Nuclear contribution   :    -48.44868     -35.47833       1.30333
                        -----------------------------------------
Total Dipole Moment    :     -0.31521      -0.23294      -0.18735
                        -----------------------------------------
Magnitude (a.u.)       :      0.43442
Magnitude (Debye)      :      1.10421

Rotational constants in cm-1:     0.028335     0.019674     0.014094
Rotational constants in MHz :   849.474863   589.816594   422.522932

                             ****ORCA TERMINATED NORMALLY****
TOTAL RUN TIME: 0 days 0 hours 3 minutes 52 seconds 870 msec
