                         Program Version 5.0.3 -  RELEASE  -
|  1> ! EnGrad PBEh-3c
|  2> %output
|  3> xyzfile=True
|  4> end
|  5> %scf
|  6> maxiter 250
|  7> end
|  8> %output
|  9> Print[P_Hirshfeld] = 1
| 10> end
| 11> % maxcore
| 12> 4000
| 13> *xyz 0 1
| 14> C   -1.60224298   0.21037722  -0.35692943
| 15> C   -2.00198180  -0.82169682  -1.20327536
| 16> C   -1.53999329  -2.11435485  -1.00172036
| 17> C   -0.73401270  -2.37386615   0.09399779
| 18> C   -0.70305263   0.00340910   0.72910066
| 19> C   -0.35097334  -1.34354505   0.94978437
| 20> H   -1.95323844   1.22366197  -0.54909800
| 21> H   -2.57618252  -0.59546939  -2.08978198
| 22> H   -1.76347412  -2.89926916  -1.70840590
| 23> H    0.31773561  -1.54782623   1.78317446
| 24> H   -0.31350781  -3.35718366   0.24001741
| 25> Pd   1.24989237   0.94319072  -0.01220445
| 26> O    2.95629030   1.21579591  -1.29247655
| 27> O    2.49138957  -0.58185919  -0.16818232
| 28> O    0.32042123   2.69662063   0.21964684
| 29> C   -0.10643277   2.90294207   1.38440344
| 30> O   -0.18665018   2.04645454   2.27578856
| 31> H   -0.26681568   0.97211252   1.52385716
| 32> C    3.22769616   0.03592794  -0.99092618
| 33> H    4.07329713  -0.51323375  -1.41027042
| 34> H   -0.54799217   3.86843162   1.54766199
| 35> *
| 36>
| 37>                          ****END OF INPUT****

CARTESIAN COORDINATES (ANGSTROEM)
---------------------------------
  C     -1.602243    0.210377   -0.356929
  C     -2.001982   -0.821697   -1.203275
  C     -1.539993   -2.114355   -1.001720
  C     -0.734013   -2.373866    0.093998
  C     -0.703053    0.003409    0.729101
  C     -0.350973   -1.343545    0.949784
  H     -1.953238    1.223662   -0.549098
  H     -2.576183   -0.595469   -2.089782
  H     -1.763474   -2.899269   -1.708406
  H      0.317736   -1.547826    1.783174
  H     -0.313508   -3.357184    0.240017
  Pd     1.249892    0.943191   -0.012204
  O      2.956290    1.215796   -1.292477
  O      2.491390   -0.581859   -0.168182
  O      0.320421    2.696621    0.219647
  C     -0.106433    2.902942    1.384403
  O     -0.186650    2.046455    2.275789
  H     -0.266816    0.972113    1.523857
  C      3.227696    0.035928   -0.990926
  H      4.073297   -0.513234   -1.410270
  H     -0.547992    3.868432    1.547662

 Total Charge           Charge          ....    0
 Multiplicity           Mult            ....    1
 Number of Electrons    NEL             ....  106
 Basis Dimension        Dim             ....  227

ORBITAL ENERGIES
----------------

  NO   OCC          E(Eh)            E(eV)
   0   2.0000     -19.536411      -531.6128
   1   2.0000     -19.532525      -531.5070
   2   2.0000     -19.530962      -531.4645
   3   2.0000     -19.504807      -530.7528
   4   2.0000     -10.594185      -288.2824
   5   2.0000     -10.581948      -287.9494
   6   2.0000     -10.470040      -284.9043
   7   2.0000     -10.466802      -284.8162
   8   2.0000     -10.465577      -284.7828
   9   2.0000     -10.459955      -284.6298
  10   2.0000     -10.459048      -284.6052
  11   2.0000     -10.457716      -284.5689
  12   2.0000      -3.693245      -100.4983
  13   2.0000      -2.346732       -63.8578
  14   2.0000      -2.332836       -63.4797
  15   2.0000      -2.303704       -62.6870
  16   2.0000      -1.238117       -33.6909
  17   2.0000      -1.225577       -33.3496
  18   2.0000      -1.125805       -30.6347
  19   2.0000      -1.122646       -30.5487
  20   2.0000      -0.964813       -26.2539
  21   2.0000      -0.848303       -23.0835
  22   2.0000      -0.845809       -23.0156
  23   2.0000      -0.716067       -19.4852
  24   2.0000      -0.701174       -19.0799
  25   2.0000      -0.689408       -18.7597
  26   2.0000      -0.683401       -18.5963
  27   2.0000      -0.611889       -16.6503
  28   2.0000      -0.597965       -16.2715
  29   2.0000      -0.588717       -16.0198
  30   2.0000      -0.575118       -15.6498
  31   2.0000      -0.562667       -15.3109
  32   2.0000      -0.539961       -14.6931
  33   2.0000      -0.535588       -14.5741
  34   2.0000      -0.523898       -14.2560
  35   2.0000      -0.518029       -14.0963
  36   2.0000      -0.487509       -13.2658
  37   2.0000      -0.483357       -13.1528
  38   2.0000      -0.448327       -12.1996
  39   2.0000      -0.445739       -12.1292
  40   2.0000      -0.432042       -11.7565
  41   2.0000      -0.420274       -11.4362
  42   2.0000      -0.407771       -11.0960
  43   2.0000      -0.403701       -10.9853
  44   2.0000      -0.394889       -10.7455
  45   2.0000      -0.384206       -10.4548
  46   2.0000      -0.370787       -10.0896
  47   2.0000      -0.367883       -10.0106
  48   2.0000      -0.344332        -9.3698
  49   2.0000      -0.339534        -9.2392
  50   2.0000      -0.317823        -8.6484
  51   2.0000      -0.301329        -8.1996
  52   2.0000      -0.294514        -8.0141
  53   0.0000      -0.103726        -2.8225
  54   0.0000       0.004505         0.1226
  55   0.0000       0.007367         0.2005
  56   0.0000       0.019866         0.5406
  57   0.0000       0.034547         0.9401

MULLIKEN ATOMIC CHARGES
-----------------------
   0 C :   -0.199960
   1 C :   -0.209448
   2 C :   -0.211397
   3 C :   -0.210944
   4 C :   -0.461878
   5 C :   -0.172752
   6 H :    0.235705
   7 H :    0.227230
   8 H :    0.233000
   9 H :    0.243362
  10 H :    0.227533
  11 Pd:    0.513745
  12 O :   -0.439500
  13 O :   -0.477083
  14 O :   -0.471421
  15 C :    0.359220
  16 O :   -0.472478
  17 H :    0.451098
  18 C :    0.415022
  19 H :    0.208607
  20 H :    0.212338
Sum of atomic charges:    0.0000000

LOEWDIN ATOMIC CHARGES
----------------------
   0 C :   -0.076368
   1 C :   -0.137930
   2 C :   -0.101564
   3 C :   -0.134307
   4 C :   -0.182064
   5 C :   -0.072938
   6 H :    0.151901
   7 H :    0.142023
   8 H :    0.142035
   9 H :    0.153499
  10 H :    0.142170
  11 Pd:   -0.178086
  12 O :   -0.148107
  13 O :   -0.139763
  14 O :   -0.136585
  15 C :    0.126326
  16 O :   -0.278776
  17 H :    0.315878
  18 C :    0.167222
  19 H :    0.123237
  20 H :    0.122200

  Mayer bond orders larger than 0.100000
B(  0-C ,  1-C ) :   1.4399 B(  0-C ,  4-C ) :   1.3040 B(  0-C ,  6-H ) :   0.9127
B(  1-C ,  2-C ) :   1.3989 B(  1-C ,  7-H ) :   0.9178 B(  2-C ,  3-C ) :   1.4151
B(  2-C ,  8-H ) :   0.9155 B(  3-C ,  5-C ) :   1.4224 B(  3-C , 10-H ) :   0.9176
B(  4-C ,  5-C ) :   1.3366 B(  4-C , 11-Pd) :   0.4200 B(  4-C , 17-H ) :   0.4388
B(  5-C ,  9-H ) :   0.9103 B( 11-Pd, 12-O ) :   0.4796 B( 11-Pd, 13-O ) :   0.5892
B( 11-Pd, 14-O ) :   0.5690 B( 12-O , 13-O ) :   0.1151 B( 12-O , 18-C ) :   1.5463
B( 13-O , 18-C ) :   1.4066 B( 14-O , 15-C ) :   1.4407 B( 14-O , 16-O ) :   0.1084
B( 15-C , 16-O ) :   1.6245 B( 15-C , 20-H ) :   0.8815 B( 16-O , 17-H ) :   0.2572
B( 18-C , 19-H ) :   0.8861

Dispersion correction           -0.013535268
FINAL SINGLE POINT ENERGY      -737.089797431909
Dispersion correction            ... done

DIPOLE MOMENT
-------------
                                X             Y             Z
Electronic contribution:     48.56776      34.28844      -2.89429
Nuclear contribution   :    -48.59750     -34.91693       2.31326
                        -----------------------------------------
Total Dipole Moment    :     -0.02973      -0.62849      -0.58104
                        -----------------------------------------
Magnitude (a.u.)       :      0.85644
Magnitude (Debye)      :      2.17689

Rotational constants in cm-1:     0.028019     0.020072     0.014200
Rotational constants in MHz :   839.975371   601.754949   425.701364

                             ****ORCA TERMINATED NORMALLY****
TOTAL RUN TIME: 0 days 0 hours 3 minutes 55 seconds 347 msec
