                         Program Version 5.0.3 -  RELEASE  -
|  1> ! EnGrad PBEh-3c
|  2> %output
|  3> xyzfile=True
|  4> end
|  5> %scf
|  6> maxiter 250
|  7> end
|  8> %output
|  9> Print[P_Hirshfeld] = 1
| 10> end
| 11> % maxcore
| 12> 4000
| 13> *xyz 0 1
| 14> C   -1.55172672   0.17123083  -0.58054556
| 15> C   -2.08007971  -0.89350708  -1.26520565
| 16> C   -1.74292025  -2.19684142  -0.96209459
| 17> C   -0.80724791  -2.44890750   0.04146357
| 18> C   -0.57969225  -0.03949699   0.47640907
| 19> C   -0.25657337  -1.42329632   0.78336453
| 20> H   -1.82891532   1.17071529  -0.87320934
| 21> H   -2.81200472  -0.69129407  -2.04450423
| 22> H   -2.21270405  -2.99569775  -1.45348230
| 23> H    0.46714456  -1.64324877   1.54336623
| 24> H   -0.51793733  -3.46205237   0.26851998
| 25> Pd   1.37748859   1.06414036  -0.05268647
| 26> O    3.28264622   1.34167945  -1.22388691
| 27> O    2.61583081  -0.52903077  -0.28477782
| 28> O    0.39710776   2.84193498   0.04840112
| 29> C   -0.00512646   2.86942429   1.43532986
| 30> O    0.28099334   2.15616722   2.19940792
| 31> H   -1.14288741   1.27590391   2.75301347
| 32> C    3.49051369   0.09913387  -0.98289388
| 33> H    4.35735381  -0.41060156  -1.38854222
| 34> H   -0.73186232   3.74070361   1.55979168
| 35> *
| 36>
| 37>                          ****END OF INPUT****

CARTESIAN COORDINATES (ANGSTROEM)
---------------------------------
  C     -1.551727    0.171231   -0.580546
  C     -2.080080   -0.893507   -1.265206
  C     -1.742920   -2.196841   -0.962095
  C     -0.807248   -2.448907    0.041464
  C     -0.579692   -0.039497    0.476409
  C     -0.256573   -1.423296    0.783365
  H     -1.828915    1.170715   -0.873209
  H     -2.812005   -0.691294   -2.044504
  H     -2.212704   -2.995698   -1.453482
  H      0.467145   -1.643249    1.543366
  H     -0.517937   -3.462052    0.268520
  Pd     1.377489    1.064140   -0.052686
  O      3.282646    1.341679   -1.223887
  O      2.615831   -0.529031   -0.284778
  O      0.397108    2.841935    0.048401
  C     -0.005126    2.869424    1.435330
  O      0.280993    2.156167    2.199408
  H     -1.142887    1.275904    2.753013
  C      3.490514    0.099134   -0.982894
  H      4.357354   -0.410602   -1.388542
  H     -0.731862    3.740704    1.559792

 Total Charge           Charge          ....    0
 Multiplicity           Mult            ....    1
 Number of Electrons    NEL             ....  106
 Basis Dimension        Dim             ....  227

ORBITAL ENERGIES
----------------

  NO   OCC          E(Eh)            E(eV)
   0   2.0000     -19.554641      -532.1088
   1   2.0000     -19.510398      -530.9049
   2   2.0000     -19.503241      -530.7102
   3   2.0000     -19.495390      -530.4965
   4   2.0000     -10.584666      -288.0234
   5   2.0000     -10.572140      -287.6825
   6   2.0000     -10.500850      -285.7427
   7   2.0000     -10.474704      -285.0312
   8   2.0000     -10.474123      -285.0154
   9   2.0000     -10.470512      -284.9171
  10   2.0000     -10.463973      -284.7392
  11   2.0000     -10.463127      -284.7161
  12   2.0000      -3.664689       -99.7213
  13   2.0000      -2.315499       -63.0079
  14   2.0000      -2.301552       -62.6284
  15   2.0000      -2.278049       -61.9889
  16   2.0000      -1.295071       -35.2407
  17   2.0000      -1.188583       -32.3430
  18   2.0000      -1.076759       -29.3001
  19   2.0000      -1.058649       -28.8073
  20   2.0000      -0.967111       -26.3164
  21   2.0000      -0.856663       -23.3110
  22   2.0000      -0.839588       -22.8464
  23   2.0000      -0.690054       -18.7773
  24   2.0000      -0.687585       -18.7101
  25   2.0000      -0.680956       -18.5298
  26   2.0000      -0.673342       -18.3226
  27   2.0000      -0.610094       -16.6015
  28   2.0000      -0.600617       -16.3436
  29   2.0000      -0.567279       -15.4364
  30   2.0000      -0.558329       -15.1929
  31   2.0000      -0.555628       -15.1194
  32   2.0000      -0.527491       -14.3538
  33   2.0000      -0.523840       -14.2544
  34   2.0000      -0.522938       -14.2299
  35   2.0000      -0.498703       -13.5704
  36   2.0000      -0.495663       -13.4877
  37   2.0000      -0.466100       -12.6832
  38   2.0000      -0.438985       -11.9454
  39   2.0000      -0.423715       -11.5299
  40   2.0000      -0.408500       -11.1158
  41   2.0000      -0.397661       -10.8209
  42   2.0000      -0.383783       -10.4433
  43   2.0000      -0.375047       -10.2055
  44   2.0000      -0.362033        -9.8514
  45   2.0000      -0.357204        -9.7200
  46   2.0000      -0.350515        -9.5380
  47   2.0000      -0.333785        -9.0827
  48   2.0000      -0.318637        -8.6706
  49   2.0000      -0.316576        -8.6145
  50   2.0000      -0.310186        -8.4406
  51   2.0000      -0.294616        -8.0169
  52   2.0000      -0.277758        -7.5582
  53   0.0000      -0.158438        -4.3113
  54   0.0000      -0.072335        -1.9683
  55   0.0000       0.002085         0.0567
  56   0.0000       0.007038         0.1915
  57   0.0000       0.034034         0.9261

MULLIKEN ATOMIC CHARGES
-----------------------
   0 C :   -0.207664
   1 C :   -0.210601
   2 C :   -0.200217
   3 C :   -0.213903
   4 C :   -0.228266
   5 C :   -0.203741
   6 H :    0.264176
   7 H :    0.232173
   8 H :    0.240190
   9 H :    0.260701
  10 H :    0.232864
  11 Pd:    0.449238
  12 O :   -0.466528
  13 O :   -0.494707
  14 O :   -0.538565
  15 C :    0.318438
  16 O :   -0.231977
  17 H :    0.217735
  18 C :    0.396648
  19 H :    0.205835
  20 H :    0.178171
Sum of atomic charges:    0.0000000

LOEWDIN ATOMIC CHARGES
----------------------
   0 C :   -0.087376
   1 C :   -0.137004
   2 C :   -0.095207
   3 C :   -0.132785
   4 C :   -0.047035
   5 C :   -0.080295
   6 H :    0.159839
   7 H :    0.142748
   8 H :    0.143400
   9 H :    0.158558
  10 H :    0.142896
  11 Pd:   -0.250794
  12 O :   -0.206828
  13 O :   -0.174447
  14 O :   -0.249870
  15 C :    0.097414
  16 O :   -0.025851
  17 H :    0.246405
  18 C :    0.173914
  19 H :    0.120915
  20 H :    0.101403

  Mayer bond orders larger than 0.100000
B(  0-C ,  1-C ) :   1.4329 B(  0-C ,  4-C ) :   1.2971 B(  0-C ,  6-H ) :   0.8981
B(  1-C ,  2-C ) :   1.4078 B(  1-C ,  7-H ) :   0.9126 B(  2-C ,  3-C ) :   1.3937
B(  2-C ,  8-H ) :   0.9124 B(  3-C ,  5-C ) :   1.4538 B(  3-C , 10-H ) :   0.9124
B(  4-C ,  5-C ) :   1.3078 B(  4-C , 11-Pd) :   0.5664 B(  4-C , 17-H ) :   0.4134
B(  5-C ,  9-H ) :   0.9012 B( 11-Pd, 12-O ) :   0.4191 B( 11-Pd, 13-O ) :   0.5468
B( 11-Pd, 14-O ) :   0.6696 B( 11-Pd, 17-H ) :   0.1127 B( 12-O , 13-O ) :   0.1168
B( 12-O , 18-C ) :   1.5662 B( 13-O , 18-C ) :   1.4130 B( 14-O , 15-C ) :   1.1918
B( 15-C , 16-O ) :   1.9209 B( 15-C , 20-H ) :   0.8683 B( 16-O , 17-H ) :   0.1945
B( 18-C , 19-H ) :   0.8820

Dispersion correction           -0.013514576
FINAL SINGLE POINT ENERGY      -736.857200770800
Dispersion correction            ... done

DIPOLE MOMENT
-------------
                                X             Y             Z
Electronic contribution:     50.30814      38.82414      -1.88421
Nuclear contribution   :    -51.62456     -39.82123       2.55084
                        -----------------------------------------
Total Dipole Moment    :     -1.31642      -0.99709       0.66662
                        -----------------------------------------
Magnitude (a.u.)       :      1.78088
Magnitude (Debye)      :      4.52663

Rotational constants in cm-1:     0.028323     0.017514     0.013007
Rotational constants in MHz :   849.102191   525.059926   389.931358

                             ****ORCA TERMINATED NORMALLY****
TOTAL RUN TIME: 0 days 0 hours 4 minutes 30 seconds 609 msec
