                         Program Version 5.0.3 -  RELEASE  -
|  1> ! EnGrad PBEh-3c
|  2> %output
|  3> xyzfile=True
|  4> end
|  5> %scf
|  6> maxiter 250
|  7> end
|  8> %output
|  9> Print[P_Hirshfeld] = 1
| 10> end
| 11> % maxcore
| 12> 4000
| 13> *xyz 0 1
| 14> C   -1.52556260   0.17842095  -0.57560301
| 15> C   -2.07726900  -0.88310484  -1.26800497
| 16> C   -1.73239294  -2.18407126  -0.95290512
| 17> C   -0.79467373  -2.44110011   0.03751215
| 18> C   -0.63726429  -0.09283266   0.47689150
| 19> C   -0.25582168  -1.40730255   0.78146050
| 20> H   -1.84376066   1.16347468  -0.88862380
| 21> H   -2.81249317  -0.69374848  -2.03995879
| 22> H   -2.22080769  -3.00062971  -1.45394563
| 23> H    0.46938300  -1.65874166   1.54160176
| 24> H   -0.52146670  -3.45890036   0.26941836
| 25> Pd   1.42779158   1.10443541  -0.09385569
| 26> O    3.27318622   1.32313272  -1.20949102
| 27> O    2.64430387  -0.53568645  -0.28358303
| 28> O    0.38203327   2.83518757   0.10985984
| 29> C   -0.00961283   2.92536339   1.34740083
| 30> O    0.33718149   2.14025887   2.20773164
| 31> H   -1.19955445   1.26368529   2.80134575
| 32> C    3.47481314   0.10141690  -0.99573408
| 33> H    4.35846784  -0.41403641  -1.38234266
| 34> H   -0.73668381   3.73375557   1.56987868
| 35> *
| 36>
| 37>                          ****END OF INPUT****

CARTESIAN COORDINATES (ANGSTROEM)
---------------------------------
  C     -1.525563    0.178421   -0.575603
  C     -2.077269   -0.883105   -1.268005
  C     -1.732393   -2.184071   -0.952905
  C     -0.794674   -2.441100    0.037512
  C     -0.637264   -0.092833    0.476891
  C     -0.255822   -1.407303    0.781461
  H     -1.843761    1.163475   -0.888624
  H     -2.812493   -0.693748   -2.039959
  H     -2.220808   -3.000630   -1.453946
  H      0.469383   -1.658742    1.541602
  H     -0.521467   -3.458900    0.269418
  Pd     1.427792    1.104435   -0.093856
  O      3.273186    1.323133   -1.209491
  O      2.644304   -0.535686   -0.283583
  O      0.382033    2.835188    0.109860
  C     -0.009613    2.925363    1.347401
  O      0.337181    2.140259    2.207732
  H     -1.199554    1.263685    2.801346
  C      3.474813    0.101417   -0.995734
  H      4.358468   -0.414036   -1.382343
  H     -0.736684    3.733756    1.569879

 Total Charge           Charge          ....    0
 Multiplicity           Mult            ....    1
 Number of Electrons    NEL             ....  106
 Basis Dimension        Dim             ....  227

ORBITAL ENERGIES
----------------

  NO   OCC          E(Eh)            E(eV)
   0   2.0000     -19.529281      -531.4187
   1   2.0000     -19.525674      -531.3206
   2   2.0000     -19.517241      -531.0911
   3   2.0000     -19.506963      -530.8115
   4   2.0000     -10.583387      -287.9886
   5   2.0000     -10.576147      -287.7916
   6   2.0000     -10.491189      -285.4798
   7   2.0000     -10.468002      -284.8488
   8   2.0000     -10.465797      -284.7888
   9   2.0000     -10.462678      -284.7040
  10   2.0000     -10.459379      -284.6142
  11   2.0000     -10.459072      -284.6058
  12   2.0000      -3.668791       -99.8329
  13   2.0000      -2.321007       -63.1578
  14   2.0000      -2.306237       -62.7559
  15   2.0000      -2.280913       -62.0668
  16   2.0000      -1.215831       -33.0844
  17   2.0000      -1.210851       -32.9489
  18   2.0000      -1.108880       -30.1742
  19   2.0000      -1.096573       -29.8393
  20   2.0000      -0.968674       -26.3590
  21   2.0000      -0.854322       -23.2473
  22   2.0000      -0.839248       -22.8371
  23   2.0000      -0.689869       -18.7723
  24   2.0000      -0.687580       -18.7100
  25   2.0000      -0.681670       -18.5492
  26   2.0000      -0.679421       -18.4880
  27   2.0000      -0.593596       -16.1526
  28   2.0000      -0.579873       -15.7791
  29   2.0000      -0.571455       -15.5501
  30   2.0000      -0.554335       -15.0842
  31   2.0000      -0.538004       -14.6398
  32   2.0000      -0.527126       -14.3438
  33   2.0000      -0.521994       -14.2042
  34   2.0000      -0.519452       -14.1350
  35   2.0000      -0.512362       -13.9421
  36   2.0000      -0.495684       -13.4882
  37   2.0000      -0.455019       -12.3817
  38   2.0000      -0.438372       -11.9287
  39   2.0000      -0.428741       -11.6666
  40   2.0000      -0.413920       -11.2633
  41   2.0000      -0.405658       -11.0385
  42   2.0000      -0.392691       -10.6857
  43   2.0000      -0.378814       -10.3081
  44   2.0000      -0.374797       -10.1988
  45   2.0000      -0.367425        -9.9981
  46   2.0000      -0.357327        -9.7234
  47   2.0000      -0.339966        -9.2509
  48   2.0000      -0.329375        -8.9627
  49   2.0000      -0.315337        -8.5808
  50   2.0000      -0.306654        -8.3445
  51   2.0000      -0.297863        -8.1053
  52   2.0000      -0.266620        -7.2551
  53   0.0000      -0.148343        -4.0366
  54   0.0000      -0.080875        -2.2007
  55   0.0000       0.007183         0.1955
  56   0.0000       0.010125         0.2755
  57   0.0000       0.033679         0.9164

MULLIKEN ATOMIC CHARGES
-----------------------
   0 C :   -0.206553
   1 C :   -0.219583
   2 C :   -0.211244
   3 C :   -0.217927
   4 C :   -0.190911
   5 C :   -0.207886
   6 H :    0.254231
   7 H :    0.231167
   8 H :    0.232075
   9 H :    0.259251
  10 H :    0.230691
  11 Pd:    0.454054
  12 O :   -0.458343
  13 O :   -0.474048
  14 O :   -0.479012
  15 C :    0.364418
  16 O :   -0.366935
  17 H :    0.207277
  18 C :    0.402317
  19 H :    0.201269
  20 H :    0.195691
Sum of atomic charges:    0.0000000

LOEWDIN ATOMIC CHARGES
----------------------
   0 C :   -0.105966
   1 C :   -0.133230
   2 C :   -0.112513
   3 C :   -0.128286
   4 C :   -0.041347
   5 C :   -0.095948
   6 H :    0.157115
   7 H :    0.140665
   8 H :    0.141053
   9 H :    0.159696
  10 H :    0.141297
  11 Pd:   -0.216315
  12 O :   -0.173095
  13 O :   -0.157279
  14 O :   -0.154268
  15 C :    0.120785
  16 O :   -0.163605
  17 H :    0.231394
  18 C :    0.159880
  19 H :    0.118984
  20 H :    0.110984

  Mayer bond orders larger than 0.100000
B(  0-C ,  1-C ) :   1.4214 B(  0-C ,  4-C ) :   1.3379 B(  0-C ,  6-H ) :   0.8999
B(  1-C ,  2-C ) :   1.4215 B(  1-C ,  7-H ) :   0.9114 B(  2-C ,  3-C ) :   1.4100
B(  2-C ,  8-H ) :   0.9155 B(  3-C ,  5-C ) :   1.4336 B(  3-C , 10-H ) :   0.9117
B(  4-C ,  5-C ) :   1.3646 B(  4-C , 11-Pd) :   0.5108 B(  4-C , 17-H ) :   0.3833
B(  5-C ,  9-H ) :   0.8990 B( 11-Pd, 12-O ) :   0.4497 B( 11-Pd, 13-O ) :   0.5626
B( 11-Pd, 14-O ) :   0.5686 B( 11-Pd, 16-O ) :   0.1078 B( 11-Pd, 17-H ) :   0.1048
B( 12-O , 13-O ) :   0.1142 B( 12-O , 18-C ) :   1.5499 B( 13-O , 18-C ) :   1.4290
B( 14-O , 15-C ) :   1.3994 B( 15-C , 16-O ) :   1.6575 B( 15-C , 20-H ) :   0.8767
B( 16-O , 17-H ) :   0.2777 B( 18-C , 19-H ) :   0.8841

Dispersion correction           -0.013427763
FINAL SINGLE POINT ENERGY      -736.913401747447
Dispersion correction            ... done

DIPOLE MOMENT
-------------
                                X             Y             Z
Electronic contribution:     52.62029      40.95824      -4.19279
Nuclear contribution   :    -53.77381     -41.64871       4.45689
                        -----------------------------------------
Total Dipole Moment    :     -1.15352      -0.69047       0.26410
                        -----------------------------------------
Magnitude (a.u.)       :      1.37007
Magnitude (Debye)      :      3.48245

Rotational constants in cm-1:     0.028333     0.017375     0.012923
Rotational constants in MHz :   849.408676   520.902545   387.410168

                             ****ORCA TERMINATED NORMALLY****
TOTAL RUN TIME: 0 days 0 hours 4 minutes 14 seconds 593 msec
