                         Program Version 5.0.3 -  RELEASE  -
|  1> ! EnGrad PBEh-3c
|  2> %output
|  3> xyzfile=True
|  4> end
|  5> %scf
|  6> maxiter 250
|  7> end
|  8> %output
|  9> Print[P_Hirshfeld] = 1
| 10> end
| 11> % maxcore
| 12> 4000
| 13> *xyz 0 1
| 14> C   -1.54689790   0.17256457  -0.56807814
| 15> C   -2.08044800  -0.89304810  -1.26819799
| 16> C   -1.73409916  -2.19258917  -0.96001906
| 17> C   -0.80582269  -2.44769551   0.04084476
| 18> C   -0.58317469  -0.04523945   0.47666863
| 19> C   -0.26182455  -1.41165001   0.78410275
| 20> H   -1.83310433   1.17164669  -0.86762207
| 21> H   -2.80651664  -0.69052472  -2.04671077
| 22> H   -2.20591928  -2.99823709  -1.46182524
| 23> H    0.46446596  -1.64256604   1.54911153
| 24> H   -0.51318223  -3.46151251   0.26679287
| 25> Pd   1.37226062   1.06463412  -0.05182750
| 26> O    3.27876384   1.32746573  -1.22468592
| 27> O    2.61809668  -0.52708726  -0.28376371
| 28> O    0.38882331   2.83794717   0.08583428
| 29> C   -0.00848447   2.89924613   1.36976127
| 30> O    0.29188843   2.13036344   2.22723698
| 31> H   -1.13964512   1.27084181   2.74207343
| 32> C    3.47680240   0.10836604  -0.98198251
| 33> H    4.35401761  -0.41517568  -1.39056598
| 34> H   -0.72655747   3.73851781   1.55967439
| 35> *
| 36>
| 37>                          ****END OF INPUT****

CARTESIAN COORDINATES (ANGSTROEM)
---------------------------------
  C     -1.546898    0.172565   -0.568078
  C     -2.080448   -0.893048   -1.268198
  C     -1.734099   -2.192589   -0.960019
  C     -0.805823   -2.447696    0.040845
  C     -0.583175   -0.045239    0.476669
  C     -0.261825   -1.411650    0.784103
  H     -1.833104    1.171647   -0.867622
  H     -2.806517   -0.690525   -2.046711
  H     -2.205919   -2.998237   -1.461825
  H      0.464466   -1.642566    1.549112
  H     -0.513182   -3.461513    0.266793
  Pd     1.372261    1.064634   -0.051827
  O      3.278764    1.327466   -1.224686
  O      2.618097   -0.527087   -0.283764
  O      0.388823    2.837947    0.085834
  C     -0.008484    2.899246    1.369761
  O      0.291888    2.130363    2.227237
  H     -1.139645    1.270842    2.742073
  C      3.476802    0.108366   -0.981983
  H      4.354018   -0.415176   -1.390566
  H     -0.726557    3.738518    1.559674

 Total Charge           Charge          ....    0
 Multiplicity           Mult            ....    1
 Number of Electrons    NEL             ....  106
 Basis Dimension        Dim             ....  227

ORBITAL ENERGIES
----------------

  NO   OCC          E(Eh)            E(eV)
   0   2.0000     -19.548841      -531.9510
   1   2.0000     -19.528629      -531.4010
   2   2.0000     -19.509170      -530.8715
   3   2.0000     -19.496268      -530.5204
   4   2.0000     -10.595084      -288.3069
   5   2.0000     -10.569877      -287.6210
   6   2.0000     -10.489762      -285.4409
   7   2.0000     -10.469269      -284.8833
   8   2.0000     -10.467360      -284.8314
   9   2.0000     -10.463943      -284.7384
  10   2.0000     -10.458734      -284.5966
  11   2.0000     -10.458692      -284.5955
  12   2.0000      -3.665382       -99.7401
  13   2.0000      -2.316667       -63.0397
  14   2.0000      -2.303013       -62.6682
  15   2.0000      -2.277860       -61.9837
  16   2.0000      -1.234103       -33.5817
  17   2.0000      -1.196808       -32.5668
  18   2.0000      -1.106705       -30.1150
  19   2.0000      -1.084633       -29.5144
  20   2.0000      -0.962452       -26.1897
  21   2.0000      -0.849983       -23.1292
  22   2.0000      -0.836118       -22.7519
  23   2.0000      -0.688662       -18.7394
  24   2.0000      -0.685830       -18.6624
  25   2.0000      -0.680639       -18.5211
  26   2.0000      -0.673365       -18.3232
  27   2.0000      -0.595080       -16.1929
  28   2.0000      -0.592474       -16.1220
  29   2.0000      -0.565122       -15.3778
  30   2.0000      -0.557188       -15.1619
  31   2.0000      -0.535714       -14.5775
  32   2.0000      -0.529188       -14.3999
  33   2.0000      -0.520775       -14.1710
  34   2.0000      -0.517870       -14.0920
  35   2.0000      -0.500786       -13.6271
  36   2.0000      -0.492696       -13.4070
  37   2.0000      -0.457908       -12.4603
  38   2.0000      -0.434918       -11.8347
  39   2.0000      -0.428064       -11.6482
  40   2.0000      -0.411411       -11.1951
  41   2.0000      -0.405560       -11.0359
  42   2.0000      -0.386700       -10.5226
  43   2.0000      -0.382523       -10.4090
  44   2.0000      -0.371117       -10.0986
  45   2.0000      -0.364942        -9.9306
  46   2.0000      -0.354646        -9.6504
  47   2.0000      -0.341611        -9.2957
  48   2.0000      -0.323153        -8.7934
  49   2.0000      -0.318143        -8.6571
  50   2.0000      -0.304588        -8.2883
  51   2.0000      -0.294480        -8.0132
  52   2.0000      -0.272210        -7.4072
  53   0.0000      -0.150661        -4.0997
  54   0.0000      -0.074396        -2.0244
  55   0.0000       0.006934         0.1887
  56   0.0000       0.009323         0.2537
  57   0.0000       0.030714         0.8358

MULLIKEN ATOMIC CHARGES
-----------------------
   0 C :   -0.212622
   1 C :   -0.210556
   2 C :   -0.208221
   3 C :   -0.210987
   4 C :   -0.227443
   5 C :   -0.210288
   6 H :    0.252567
   7 H :    0.229778
   8 H :    0.234829
   9 H :    0.256226
  10 H :    0.230336
  11 Pd:    0.446568
  12 O :   -0.455399
  13 O :   -0.488294
  14 O :   -0.491069
  15 C :    0.369786
  16 O :   -0.347231
  17 H :    0.256799
  18 C :    0.393071
  19 H :    0.198436
  20 H :    0.193714
Sum of atomic charges:   -0.0000000

LOEWDIN ATOMIC CHARGES
----------------------
   0 C :   -0.096031
   1 C :   -0.137718
   2 C :   -0.103524
   3 C :   -0.133204
   4 C :   -0.061342
   5 C :   -0.085339
   6 H :    0.154323
   7 H :    0.141080
   8 H :    0.141493
   9 H :    0.156884
  10 H :    0.141695
  11 Pd:   -0.244493
  12 O :   -0.191702
  13 O :   -0.169032
  14 O :   -0.175866
  15 C :    0.134329
  16 O :   -0.137893
  17 H :    0.280900
  18 C :    0.158154
  19 H :    0.117301
  20 H :    0.109985

  Mayer bond orders larger than 0.100000
B(  0-C ,  1-C ) :   1.4322 B(  0-C ,  4-C ) :   1.3081 B(  0-C ,  6-H ) :   0.9018
B(  1-C ,  2-C ) :   1.4119 B(  1-C ,  7-H ) :   0.9135 B(  2-C ,  3-C ) :   1.4012
B(  2-C ,  8-H ) :   0.9142 B(  3-C ,  5-C ) :   1.4448 B(  3-C , 10-H ) :   0.9133
B(  4-C ,  5-C ) :   1.3298 B(  4-C , 11-Pd) :   0.6079 B(  4-C , 17-H ) :   0.3355
B(  5-C ,  9-H ) :   0.9019 B( 11-Pd, 12-O ) :   0.4079 B( 11-Pd, 13-O ) :   0.5642
B( 11-Pd, 14-O ) :   0.5761 B( 12-O , 13-O ) :   0.1147 B( 12-O , 18-C ) :   1.5867
B( 13-O , 18-C ) :   1.4073 B( 14-O , 15-C ) :   1.3706 B( 15-C , 16-O ) :   1.6751
B( 15-C , 20-H ) :   0.8761 B( 16-O , 17-H ) :   0.2995 B( 18-C , 19-H ) :   0.8820

Dispersion correction           -0.013519123
FINAL SINGLE POINT ENERGY      -736.920301524034
Dispersion correction            ... done

DIPOLE MOMENT
-------------
                                X             Y             Z
Electronic contribution:     50.06008      39.23519      -1.99505
Nuclear contribution   :    -51.40395     -39.86641       2.58697
                        -----------------------------------------
Total Dipole Moment    :     -1.34387      -0.63122       0.59192
                        -----------------------------------------
Magnitude (a.u.)       :      1.59837
Magnitude (Debye)      :      4.06273

Rotational constants in cm-1:     0.028371     0.017572     0.013046
Rotational constants in MHz :   850.542601   526.797706   391.104703

                             ****ORCA TERMINATED NORMALLY****
TOTAL RUN TIME: 0 days 0 hours 4 minutes 25 seconds 592 msec
