                         Program Version 5.0.3 -  RELEASE  -
|  1> ! EnGrad PBEh-3c
|  2> %output
|  3> xyzfile=True
|  4> end
|  5> %scf
|  6> maxiter 250
|  7> end
|  8> %output
|  9> Print[P_Hirshfeld] = 1
| 10> end
| 11> % maxcore
| 12> 4000
| 13> *xyz 0 1
| 14> C   -1.55833274   0.16793436  -0.52967134
| 15> C   -2.08952391  -0.89613821  -1.26230537
| 16> C   -1.72218986  -2.19750960  -0.96423906
| 17> C   -0.82059844  -2.44947966   0.05736686
| 18> C   -0.49808636   0.00948655   0.46076991
| 19> C   -0.27599663  -1.38955985   0.78599103
| 20> H   -1.81934816   1.18546953  -0.82361218
| 21> H   -2.79035602  -0.68474280  -2.06215761
| 22> H   -2.17577150  -3.00845849  -1.49444012
| 23> H    0.45130891  -1.61319699   1.56685674
| 24> H   -0.49414263  -3.46626339   0.26092307
| 25> Pd   1.26578664   0.99586593   0.01528090
| 26> O    3.28115214   1.32208734  -1.24548819
| 27> O    2.57758304  -0.51592685  -0.28310274
| 28> O    0.39401799   2.81909056   0.09907330
| 29> C   -0.03384139   2.92356844   1.32593285
| 30> O    0.20475385   2.05354461   2.31498691
| 31> H   -0.99430404   1.28620682   2.59437169
| 32> C    3.46014536   0.12701757  -0.96298143
| 33> H    4.33333481  -0.41926794  -1.39957936
| 34> H   -0.69656530   3.74050329   1.53841164
| 35> *
| 36>
| 37>                          ****END OF INPUT****

CARTESIAN COORDINATES (ANGSTROEM)
---------------------------------
  C     -1.558333    0.167934   -0.529671
  C     -2.089524   -0.896138   -1.262305
  C     -1.722190   -2.197510   -0.964239
  C     -0.820598   -2.449480    0.057367
  C     -0.498086    0.009487    0.460770
  C     -0.275997   -1.389560    0.785991
  H     -1.819348    1.185470   -0.823612
  H     -2.790356   -0.684743   -2.062158
  H     -2.175772   -3.008458   -1.494440
  H      0.451309   -1.613197    1.566857
  H     -0.494143   -3.466263    0.260923
  Pd     1.265787    0.995866    0.015281
  O      3.281152    1.322087   -1.245488
  O      2.577583   -0.515927   -0.283103
  O      0.394018    2.819091    0.099073
  C     -0.033841    2.923568    1.325933
  O      0.204754    2.053545    2.314987
  H     -0.994304    1.286207    2.594372
  C      3.460145    0.127018   -0.962981
  H      4.333335   -0.419268   -1.399579
  H     -0.696565    3.740503    1.538412

 Total Charge           Charge          ....    0
 Multiplicity           Mult            ....    1
 Number of Electrons    NEL             ....  106
 Basis Dimension        Dim             ....  227

ORBITAL ENERGIES
----------------

  NO   OCC          E(Eh)            E(eV)
   0   2.0000     -19.587267      -532.9966
   1   2.0000     -19.582449      -532.8655
   2   2.0000     -19.488556      -530.3106
   3   2.0000     -19.475797      -529.9634
   4   2.0000     -10.644826      -289.6604
   5   2.0000     -10.553494      -287.1752
   6   2.0000     -10.469511      -284.8899
   7   2.0000     -10.460112      -284.6341
   8   2.0000     -10.455238      -284.5015
   9   2.0000     -10.451576      -284.4018
  10   2.0000     -10.450625      -284.3760
  11   2.0000     -10.448742      -284.3247
  12   2.0000      -3.657260       -99.5191
  13   2.0000      -2.305931       -62.7476
  14   2.0000      -2.300515       -62.6002
  15   2.0000      -2.268697       -61.7344
  16   2.0000      -1.226164       -33.3656
  17   2.0000      -1.177148       -32.0318
  18   2.0000      -1.145507       -31.1708
  19   2.0000      -1.068647       -29.0794
  20   2.0000      -0.945325       -25.7236
  21   2.0000      -0.832089       -22.6423
  22   2.0000      -0.824312       -22.4307
  23   2.0000      -0.741535       -20.1782
  24   2.0000      -0.673027       -18.3140
  25   2.0000      -0.668686       -18.1959
  26   2.0000      -0.652973       -17.7683
  27   2.0000      -0.625347       -17.0166
  28   2.0000      -0.593501       -16.1500
  29   2.0000      -0.580916       -15.8075
  30   2.0000      -0.552116       -15.0238
  31   2.0000      -0.542910       -14.7733
  32   2.0000      -0.515089       -14.0163
  33   2.0000      -0.510175       -13.8826
  34   2.0000      -0.504171       -13.7192
  35   2.0000      -0.483077       -13.1452
  36   2.0000      -0.475288       -12.9333
  37   2.0000      -0.457543       -12.4504
  38   2.0000      -0.448986       -12.2175
  39   2.0000      -0.444175       -12.0866
  40   2.0000      -0.425759       -11.5855
  41   2.0000      -0.419112       -11.4046
  42   2.0000      -0.392927       -10.6921
  43   2.0000      -0.384791       -10.4707
  44   2.0000      -0.374583       -10.1929
  45   2.0000      -0.358705        -9.7609
  46   2.0000      -0.345618        -9.4047
  47   2.0000      -0.338319        -9.2061
  48   2.0000      -0.318448        -8.6654
  49   2.0000      -0.309677        -8.4267
  50   2.0000      -0.291246        -7.9252
  51   2.0000      -0.286699        -7.8015
  52   2.0000      -0.261246        -7.1089
  53   0.0000      -0.117146        -3.1877
  54   0.0000      -0.061877        -1.6838
  55   0.0000      -0.026162        -0.7119
  56   0.0000       0.018012         0.4901
  57   0.0000       0.022622         0.6156

MULLIKEN ATOMIC CHARGES
-----------------------
   0 C :   -0.220099
   1 C :   -0.206516
   2 C :   -0.218769
   3 C :   -0.203949
   4 C :   -0.290683
   5 C :   -0.212103
   6 H :    0.224301
   7 H :    0.224375
   8 H :    0.226231
   9 H :    0.242366
  10 H :    0.226074
  11 Pd:    0.431972
  12 O :   -0.448305
  13 O :   -0.506911
  14 O :   -0.413694
  15 C :    0.417481
  16 O :   -0.468064
  17 H :    0.400190
  18 C :    0.372551
  19 H :    0.185130
  20 H :    0.238422
Sum of atomic charges:    0.0000000

LOEWDIN ATOMIC CHARGES
----------------------
   0 C :   -0.106846
   1 C :   -0.141569
   2 C :   -0.116336
   3 C :   -0.137348
   4 C :   -0.096766
   5 C :   -0.086644
   6 H :    0.140746
   7 H :    0.139383
   8 H :    0.137882
   9 H :    0.150549
  10 H :    0.140967
  11 Pd:   -0.289667
  12 O :   -0.212702
  13 O :   -0.190294
  14 O :   -0.085266
  15 C :    0.229612
  16 O :   -0.249684
  17 H :    0.393092
  18 C :    0.137481
  19 H :    0.109646
  20 H :    0.133765

  Mayer bond orders larger than 0.100000
B(  0-C ,  1-C ) :   1.4407 B(  0-C ,  4-C ) :   1.3161 B(  0-C ,  6-H ) :   0.9097
B(  1-C ,  2-C ) :   1.4144 B(  1-C ,  7-H ) :   0.9163 B(  2-C ,  3-C ) :   1.4070
B(  2-C ,  8-H ) :   0.9161 B(  3-C ,  5-C ) :   1.4443 B(  3-C , 10-H ) :   0.9159
B(  4-C ,  5-C ) :   1.3413 B(  4-C , 11-Pd) :   0.8311 B(  4-C , 17-H ) :   0.1073
B(  5-C ,  9-H ) :   0.9060 B( 11-Pd, 12-O ) :   0.3275 B( 11-Pd, 13-O ) :   0.5703
B( 11-Pd, 14-O ) :   0.4494 B( 12-O , 13-O ) :   0.1146 B( 12-O , 18-C ) :   1.6563
B( 13-O , 18-C ) :   1.3802 B( 14-O , 15-C ) :   1.6273 B( 15-C , 16-O ) :   1.2978
B( 15-C , 20-H ) :   0.8716 B( 16-O , 17-H ) :   0.5784 B( 18-C , 19-H ) :   0.8798

Dispersion correction           -0.013763012
FINAL SINGLE POINT ENERGY      -736.968781477151
Dispersion correction            ... done

DIPOLE MOMENT
-------------
                                X             Y             Z
Electronic contribution:     45.22290      37.20528       1.32879
Nuclear contribution   :    -46.90487     -36.85090      -0.21209
                        -----------------------------------------
Total Dipole Moment    :     -1.68197       0.35437       1.11670
                        -----------------------------------------
Magnitude (a.u.)       :      2.04978
Magnitude (Debye)      :      5.21014

Rotational constants in cm-1:     0.028396     0.018040     0.013326
Rotational constants in MHz :   851.286600   540.813911   399.516951

                             ****ORCA TERMINATED NORMALLY****
TOTAL RUN TIME: 0 days 0 hours 3 minutes 57 seconds 751 msec
