                         Program Version 5.0.3 -  RELEASE  -
|  1> ! EnGrad PBEh-3c
|  2> %output
|  3> xyzfile=True
|  4> end
|  5> %scf
|  6> maxiter 250
|  7> end
|  8> %output
|  9> Print[P_Hirshfeld] = 1
| 10> end
| 11> % maxcore
| 12> 4000
| 13> *xyz 0 1
| 14> C   -1.55197284   0.17050962  -0.55103267
| 15> C   -2.08447601  -0.89441953  -1.26558277
| 16> C   -1.72881365  -2.19477292  -0.96189195
| 17> C   -0.81238037  -2.44848734   0.04817750
| 18> C   -0.54541132  -0.02095130   0.46961256
| 19> C   -0.26811432  -1.40184609   0.78494080
| 20> H   -1.82699915   1.17778146  -0.84808988
| 21> H   -2.79934433  -0.68795862  -2.05356629
| 22> H   -2.19253928  -3.00277349  -1.47630017
| 23> H    0.45862668  -1.62953165   1.55698710
| 24> H   -0.50473219  -3.46362102   0.26418777
| 25> Pd   1.32500600   1.03411385  -0.02204387
| 26> O    3.27982380   1.32507873  -1.23391825
| 27> O    2.60011617  -0.52213411  -0.28347036
| 28> O    0.39112878   2.82957834   0.09170994
| 29> C   -0.01973822   2.91004070   1.35030962
| 30> O    0.25321691   2.09627019   2.26618161
| 31> H   -1.07514075   1.27766102   2.67652137
| 32> C    3.46940978   0.11664384  -0.97354957
| 33> H    4.34483830  -0.41699188  -1.39456624
| 34> H   -0.71324653   3.73939899   1.55023769
| 35> *
| 36>
| 37>                          ****END OF INPUT****

CARTESIAN COORDINATES (ANGSTROEM)
---------------------------------
  C     -1.551973    0.170510   -0.551033
  C     -2.084476   -0.894420   -1.265583
  C     -1.728814   -2.194773   -0.961892
  C     -0.812380   -2.448487    0.048177
  C     -0.545411   -0.020951    0.469613
  C     -0.268114   -1.401846    0.784941
  H     -1.826999    1.177781   -0.848090
  H     -2.799344   -0.687959   -2.053566
  H     -2.192539   -3.002773   -1.476300
  H      0.458627   -1.629532    1.556987
  H     -0.504732   -3.463621    0.264188
  Pd     1.325006    1.034114   -0.022044
  O      3.279824    1.325079   -1.233918
  O      2.600116   -0.522134   -0.283470
  O      0.391129    2.829578    0.091710
  C     -0.019738    2.910041    1.350310
  O      0.253217    2.096270    2.266182
  H     -1.075141    1.277661    2.676521
  C      3.469410    0.116644   -0.973550
  H      4.344838   -0.416992   -1.394566
  H     -0.713247    3.739399    1.550238

 Total Charge           Charge          ....    0
 Multiplicity           Mult            ....    1
 Number of Electrons    NEL             ....  106
 Basis Dimension        Dim             ....  227

ORBITAL ENERGIES
----------------

  NO   OCC          E(Eh)            E(eV)
   0   2.0000     -19.567871      -532.4688
   1   2.0000     -19.552268      -532.0443
   2   2.0000     -19.499865      -530.6183
   3   2.0000     -19.486665      -530.2591
   4   2.0000     -10.617718      -288.9228
   5   2.0000     -10.562098      -287.4093
   6   2.0000     -10.477933      -285.1191
   7   2.0000     -10.464001      -284.7399
   8   2.0000     -10.460909      -284.6558
   9   2.0000     -10.458344      -284.5860
  10   2.0000     -10.454208      -284.4735
  11   2.0000     -10.453333      -284.4496
  12   2.0000      -3.660501       -99.6073
  13   2.0000      -2.310885       -62.8824
  14   2.0000      -2.300060       -62.5878
  15   2.0000      -2.272521       -61.8384
  16   2.0000      -1.224484       -33.3199
  17   2.0000      -1.187550       -32.3149
  18   2.0000      -1.127647       -30.6848
  19   2.0000      -1.077173       -29.3114
  20   2.0000      -0.953991       -25.9594
  21   2.0000      -0.841144       -22.8887
  22   2.0000      -0.829893       -22.5825
  23   2.0000      -0.711161       -19.3517
  24   2.0000      -0.679408       -18.4876
  25   2.0000      -0.674411       -18.3517
  26   2.0000      -0.664114       -18.0715
  27   2.0000      -0.607068       -16.5192
  28   2.0000      -0.587566       -15.9885
  29   2.0000      -0.573787       -15.6135
  30   2.0000      -0.553065       -15.0497
  31   2.0000      -0.540467       -14.7069
  32   2.0000      -0.521764       -14.1979
  33   2.0000      -0.515611       -14.0305
  34   2.0000      -0.510713       -13.8972
  35   2.0000      -0.492369       -13.3980
  36   2.0000      -0.484131       -13.1739
  37   2.0000      -0.453008       -12.3270
  38   2.0000      -0.434808       -11.8317
  39   2.0000      -0.428870       -11.6702
  40   2.0000      -0.426916       -11.6170
  41   2.0000      -0.402066       -10.9408
  42   2.0000      -0.396339       -10.7849
  43   2.0000      -0.384995       -10.4763
  44   2.0000      -0.371352       -10.1050
  45   2.0000      -0.363006        -9.8779
  46   2.0000      -0.348269        -9.4769
  47   2.0000      -0.342445        -9.3184
  48   2.0000      -0.319367        -8.6904
  49   2.0000      -0.316098        -8.6015
  50   2.0000      -0.297564        -8.0971
  51   2.0000      -0.290424        -7.9028
  52   2.0000      -0.267267        -7.2727
  53   0.0000      -0.139650        -3.8001
  54   0.0000      -0.068461        -1.8629
  55   0.0000      -0.003044        -0.0828
  56   0.0000       0.014327         0.3899
  57   0.0000       0.019848         0.5401

MULLIKEN ATOMIC CHARGES
-----------------------
   0 C :   -0.216016
   1 C :   -0.208420
   2 C :   -0.212963
   3 C :   -0.207519
   4 C :   -0.257748
   5 C :   -0.211740
   6 H :    0.239678
   7 H :    0.226499
   8 H :    0.230920
   9 H :    0.249373
  10 H :    0.227626
  11 Pd:    0.436068
  12 O :   -0.451752
  13 O :   -0.496037
  14 O :   -0.457758
  15 C :    0.395941
  16 O :   -0.402921
  17 H :    0.326291
  18 C :    0.383873
  19 H :    0.192307
  20 H :    0.214298
Sum of atomic charges:   -0.0000000

LOEWDIN ATOMIC CHARGES
----------------------
   0 C :   -0.099787
   1 C :   -0.140348
   2 C :   -0.107562
   3 C :   -0.136000
   4 C :   -0.083851
   5 C :   -0.084966
   6 H :    0.147848
   7 H :    0.139795
   8 H :    0.139782
   9 H :    0.153512
  10 H :    0.140830
  11 Pd:   -0.268935
  12 O :   -0.201235
  13 O :   -0.177374
  14 O :   -0.135459
  15 C :    0.177780
  16 O :   -0.189603
  17 H :    0.341739
  18 C :    0.148905
  19 H :    0.113805
  20 H :    0.121125

  Mayer bond orders larger than 0.100000
B(  0-C ,  1-C ) :   1.4377 B(  0-C ,  4-C ) :   1.3070 B(  0-C ,  6-H ) :   0.9058
B(  1-C ,  2-C ) :   1.4111 B(  1-C ,  7-H ) :   0.9152 B(  2-C ,  3-C ) :   1.4028
B(  2-C ,  8-H ) :   0.9152 B(  3-C ,  5-C ) :   1.4455 B(  3-C , 10-H ) :   0.9149
B(  4-C ,  5-C ) :   1.3314 B(  4-C , 11-Pd) :   0.7178 B(  4-C , 17-H ) :   0.2210
B(  5-C ,  9-H ) :   0.9041 B( 11-Pd, 12-O ) :   0.3697 B( 11-Pd, 13-O ) :   0.5690
B( 11-Pd, 14-O ) :   0.5140 B( 12-O , 13-O ) :   0.1146 B( 12-O , 18-C ) :   1.6194
B( 13-O , 18-C ) :   1.3941 B( 14-O , 15-C ) :   1.4873 B( 15-C , 16-O ) :   1.4971
B( 15-C , 20-H ) :   0.8760 B( 16-O , 17-H ) :   0.4287 B( 18-C , 19-H ) :   0.8811

Dispersion correction           -0.013623767
FINAL SINGLE POINT ENERGY      -736.945635646732
Dispersion correction            ... done

DIPOLE MOMENT
-------------
                                X             Y             Z
Electronic contribution:     47.88849      38.34908      -0.47634
Nuclear contribution   :    -49.40720     -38.52808       1.34471
                        -----------------------------------------
Total Dipole Moment    :     -1.51871      -0.17900       0.86837
                        -----------------------------------------
Magnitude (a.u.)       :      1.75857
Magnitude (Debye)      :      4.46993

Rotational constants in cm-1:     0.028389     0.017784     0.013173
Rotational constants in MHz :   851.077213   533.138742   394.902549

                             ****ORCA TERMINATED NORMALLY****
TOTAL RUN TIME: 0 days 0 hours 4 minutes 0 seconds 161 msec
