                         Program Version 5.0.3 -  RELEASE  -
|  1> ! EnGrad PBEh-3c
|  2> %output
|  3> xyzfile=True
|  4> end
|  5> %scf
|  6> maxiter 250
|  7> end
|  8> %output
|  9> Print[P_Hirshfeld] = 1
| 10> end
| 11> % maxcore
| 12> 4000
| 13> *xyz 0 1
| 14> C   -1.54582979   0.17389185  -0.52693321
| 15> C   -2.08294495  -0.88625248  -1.25620142
| 16> C   -1.71475794  -2.19187871  -0.96623996
| 17> C   -0.81065283  -2.44101697   0.05937834
| 18> C   -0.53741244  -0.02228372   0.46689115
| 19> C   -0.27294696  -1.38265059   0.79026794
| 20> H   -1.83080715   1.18059859  -0.82377051
| 21> H   -2.78502317  -0.68394144  -2.06231230
| 22> H   -2.16693598  -3.00776143  -1.50109318
| 23> H    0.44660083  -1.61842595   1.56900244
| 24> H   -0.49092211  -3.46072517   0.26017791
| 25> Pd   1.29311421   1.01500942  -0.00278031
| 26> O    3.26812973   1.31760550  -1.24356230
| 27> O    2.58925294  -0.52178473  -0.27721903
| 28> O    0.38220699   2.81896604   0.12986724
| 29> C   -0.01422296   2.89377795   1.33798148
| 30> O    0.19511271   2.08255603   2.27097384
| 31> H   -0.99673031   1.28472074   2.59289171
| 32> C    3.45005561   0.11754122  -0.97211972
| 33> H    4.32374202  -0.42310038  -1.39541747
| 34> H   -0.70023720   3.74661069   1.54324028
| 35> *
| 36>
| 37>                          ****END OF INPUT****

CARTESIAN COORDINATES (ANGSTROEM)
---------------------------------
  C     -1.545830    0.173892   -0.526933
  C     -2.082945   -0.886252   -1.256201
  C     -1.714758   -2.191879   -0.966240
  C     -0.810653   -2.441017    0.059378
  C     -0.537412   -0.022284    0.466891
  C     -0.272947   -1.382651    0.790268
  H     -1.830807    1.180599   -0.823771
  H     -2.785023   -0.683941   -2.062312
  H     -2.166936   -3.007761   -1.501093
  H      0.446601   -1.618426    1.569002
  H     -0.490922   -3.460725    0.260178
  Pd     1.293114    1.015009   -0.002780
  O      3.268130    1.317605   -1.243562
  O      2.589253   -0.521785   -0.277219
  O      0.382207    2.818966    0.129867
  C     -0.014223    2.893778    1.337981
  O      0.195113    2.082556    2.270974
  H     -0.996730    1.284721    2.592892
  C      3.450056    0.117541   -0.972120
  H      4.323742   -0.423100   -1.395417
  H     -0.700237    3.746611    1.543240

 Total Charge           Charge          ....    0
 Multiplicity           Mult            ....    1
 Number of Electrons    NEL             ....  106
 Basis Dimension        Dim             ....  227

ORBITAL ENERGIES
----------------

  NO   OCC          E(Eh)            E(eV)
   0   2.0000     -19.578547      -532.7594
   1   2.0000     -19.566509      -532.4318
   2   2.0000     -19.493839      -530.4543
   3   2.0000     -19.480689      -530.0965
   4   2.0000     -10.626796      -289.1698
   5   2.0000     -10.556311      -287.2518
   6   2.0000     -10.467429      -284.8332
   7   2.0000     -10.459195      -284.6092
   8   2.0000     -10.454836      -284.4906
   9   2.0000     -10.454502      -284.4815
  10   2.0000     -10.451969      -284.4125
  11   2.0000     -10.450273      -284.3664
  12   2.0000      -3.656827       -99.5073
  13   2.0000      -2.306671       -62.7677
  14   2.0000      -2.298080       -62.5339
  15   2.0000      -2.268693       -61.7343
  16   2.0000      -1.248538       -33.9745
  17   2.0000      -1.184081       -32.2205
  18   2.0000      -1.158683       -31.5294
  19   2.0000      -1.074476       -29.2380
  20   2.0000      -0.950775       -25.8719
  21   2.0000      -0.835977       -22.7481
  22   2.0000      -0.828876       -22.5549
  23   2.0000      -0.719520       -19.5791
  24   2.0000      -0.676930       -18.4202
  25   2.0000      -0.670235       -18.2380
  26   2.0000      -0.658276       -17.9126
  27   2.0000      -0.632111       -17.2006
  28   2.0000      -0.595407       -16.2018
  29   2.0000      -0.583388       -15.8748
  30   2.0000      -0.561057       -15.2671
  31   2.0000      -0.548151       -14.9159
  32   2.0000      -0.518095       -14.0981
  33   2.0000      -0.512385       -13.9427
  34   2.0000      -0.508356       -13.8331
  35   2.0000      -0.488713       -13.2985
  36   2.0000      -0.478919       -13.0320
  37   2.0000      -0.453053       -12.3282
  38   2.0000      -0.447199       -12.1689
  39   2.0000      -0.438517       -11.9326
  40   2.0000      -0.427765       -11.6401
  41   2.0000      -0.412063       -11.2128
  42   2.0000      -0.395796       -10.7702
  43   2.0000      -0.384267       -10.4564
  44   2.0000      -0.370308       -10.0766
  45   2.0000      -0.360103        -9.7989
  46   2.0000      -0.346003        -9.4152
  47   2.0000      -0.341702        -9.2982
  48   2.0000      -0.318039        -8.6543
  49   2.0000      -0.312942        -8.5156
  50   2.0000      -0.293243        -7.9796
  51   2.0000      -0.288996        -7.8640
  52   2.0000      -0.264496        -7.1973
  53   0.0000      -0.121729        -3.3124
  54   0.0000      -0.063989        -1.7412
  55   0.0000      -0.000683        -0.0186
  56   0.0000       0.016746         0.4557
  57   0.0000       0.025859         0.7037

MULLIKEN ATOMIC CHARGES
-----------------------
   0 C :   -0.210109
   1 C :   -0.213254
   2 C :   -0.217009
   3 C :   -0.210738
   4 C :   -0.287995
   5 C :   -0.206192
   6 H :    0.231347
   7 H :    0.224134
   8 H :    0.227236
   9 H :    0.244297
  10 H :    0.225535
  11 Pd:    0.420940
  12 O :   -0.450481
  13 O :   -0.498035
  14 O :   -0.416032
  15 C :    0.400685
  16 O :   -0.434103
  17 H :    0.397391
  18 C :    0.378123
  19 H :    0.186585
  20 H :    0.207675
Sum of atomic charges:   -0.0000000

LOEWDIN ATOMIC CHARGES
----------------------
   0 C :   -0.106010
   1 C :   -0.139391
   2 C :   -0.114686
   3 C :   -0.134893
   4 C :   -0.102587
   5 C :   -0.089430
   6 H :    0.144327
   7 H :    0.138671
   8 H :    0.138522
   9 H :    0.151612
  10 H :    0.140003
  11 Pd:   -0.280319
  12 O :   -0.205601
  13 O :   -0.180433
  14 O :   -0.085429
  15 C :    0.165257
  16 O :   -0.202654
  17 H :    0.395504
  18 C :    0.139534
  19 H :    0.110272
  20 H :    0.117732

  Mayer bond orders larger than 0.100000
B(  0-C ,  1-C ) :   1.4393 B(  0-C ,  4-C ) :   1.3213 B(  0-C ,  6-H ) :   0.9076
B(  1-C ,  2-C ) :   1.4146 B(  1-C ,  7-H ) :   0.9159 B(  2-C ,  3-C ) :   1.4080
B(  2-C ,  8-H ) :   0.9162 B(  3-C ,  5-C ) :   1.4436 B(  3-C , 10-H ) :   0.9155
B(  4-C ,  5-C ) :   1.3511 B(  4-C , 11-Pd) :   0.7747 B(  4-C , 17-H ) :   0.1457
B(  5-C ,  9-H ) :   0.9051 B( 11-Pd, 12-O ) :   0.3505 B( 11-Pd, 13-O ) :   0.5675
B( 11-Pd, 14-O ) :   0.4719 B( 12-O , 13-O ) :   0.1144 B( 12-O , 18-C ) :   1.6355
B( 13-O , 18-C ) :   1.3945 B( 14-O , 15-C ) :   1.5904 B( 15-C , 16-O ) :   1.4012
B( 15-C , 20-H ) :   0.8780 B( 16-O , 17-H ) :   0.5142 B( 18-C , 19-H ) :   0.8812

Dispersion correction           -0.013718117
FINAL SINGLE POINT ENERGY      -736.976877668537
Dispersion correction            ... done

DIPOLE MOMENT
-------------
                                X             Y             Z
Electronic contribution:     46.59546      37.80097       0.43152
Nuclear contribution   :    -48.16701     -37.71262       0.61632
                        -----------------------------------------
Total Dipole Moment    :     -1.57155       0.08836       1.04784
                        -----------------------------------------
Magnitude (a.u.)       :      1.89091
Magnitude (Debye)      :      4.80631

Rotational constants in cm-1:     0.028486     0.018067     0.013309
Rotational constants in MHz :   853.978692   541.638314   398.987008

                             ****ORCA TERMINATED NORMALLY****
TOTAL RUN TIME: 0 days 0 hours 4 minutes 33 seconds 796 msec
