                         Program Version 5.0.3 -  RELEASE  -
|  1> ! EnGrad PBEh-3c
|  2> %output
|  3> xyzfile=True
|  4> end
|  5> %scf
|  6> maxiter 250
|  7> end
|  8> %output
|  9> Print[P_Hirshfeld] = 1
| 10> end
| 11> % maxcore
| 12> 4000
| 13> *xyz 0 1
| 14> C   -1.53510902   0.18017869  -0.50322962
| 15> C   -2.07842599  -0.87498495  -1.24669130
| 16> C   -1.69616650  -2.18433293  -0.96911210
| 17> C   -0.80391120  -2.43011819   0.06820587
| 18> C   -0.55315771  -0.03942520   0.47093660
| 19> C   -0.27738242  -1.36314720   0.79831468
| 20> H   -1.84106293   1.18107635  -0.80135665
| 21> H   -2.76759534  -0.67957305  -2.06895430
| 22> H   -2.13824982  -3.01165265  -1.52761464
| 23> H    0.43350551  -1.61134709   1.58234474
| 24> H   -0.47628882  -3.45397053   0.25630346
| 25> Pd   1.28108575   1.01042911   0.00178495
| 26> O    3.24939131   1.30537950  -1.25040712
| 27> O    2.58674327  -0.52510861  -0.26785014
| 28> O    0.37245646   2.80363257   0.17990536
| 29> C   -0.02411363   2.91128948   1.29692508
| 30> O    0.15396142   2.04821016   2.29011988
| 31> H   -0.92696890   1.28895671   2.51334948
| 32> C    3.42446976   0.11586092  -0.97629694
| 33> H    4.29982702  -0.43151944  -1.39412429
| 34> H   -0.68478386   3.75029255   1.53915916
| 35> *
| 36>
| 37>                          ****END OF INPUT****

CARTESIAN COORDINATES (ANGSTROEM)
---------------------------------
  C     -1.535109    0.180179   -0.503230
  C     -2.078426   -0.874985   -1.246691
  C     -1.696166   -2.184333   -0.969112
  C     -0.803911   -2.430118    0.068206
  C     -0.553158   -0.039425    0.470937
  C     -0.277382   -1.363147    0.798315
  H     -1.841063    1.181076   -0.801357
  H     -2.767595   -0.679573   -2.068954
  H     -2.138250   -3.011653   -1.527615
  H      0.433506   -1.611347    1.582345
  H     -0.476289   -3.453971    0.256303
  Pd     1.281086    1.010429    0.001785
  O      3.249391    1.305379   -1.250407
  O      2.586743   -0.525109   -0.267850
  O      0.372456    2.803633    0.179905
  C     -0.024114    2.911289    1.296925
  O      0.153961    2.048210    2.290120
  H     -0.926969    1.288957    2.513349
  C      3.424470    0.115861   -0.976297
  H      4.299827   -0.431519   -1.394124
  H     -0.684784    3.750293    1.539159

 Total Charge           Charge          ....    0
 Multiplicity           Mult            ....    1
 Number of Electrons    NEL             ....  106
 Basis Dimension        Dim             ....  227

ORBITAL ENERGIES
----------------

  NO   OCC          E(Eh)            E(eV)
   0   2.0000     -19.588292      -533.0245
   1   2.0000     -19.575262      -532.6700
   2   2.0000     -19.490672      -530.3682
   3   2.0000     -19.478706      -530.0425
   4   2.0000     -10.634040      -289.3669
   5   2.0000     -10.552436      -287.1464
   6   2.0000     -10.457660      -284.5674
   7   2.0000     -10.454363      -284.4777
   8   2.0000     -10.450689      -284.3777
   9   2.0000     -10.449975      -284.3583
  10   2.0000     -10.448139      -284.3083
  11   2.0000     -10.447198      -284.2827
  12   2.0000      -3.653476       -99.4161
  13   2.0000      -2.303393       -62.6785
  14   2.0000      -2.295760       -62.4708
  15   2.0000      -2.265426       -61.6454
  16   2.0000      -1.278017       -34.7766
  17   2.0000      -1.186627       -32.2898
  18   2.0000      -1.163262       -31.6540
  19   2.0000      -1.077011       -29.3070
  20   2.0000      -0.950548       -25.8657
  21   2.0000      -0.832815       -22.6621
  22   2.0000      -0.829122       -22.5615
  23   2.0000      -0.737379       -20.0651
  24   2.0000      -0.676487       -18.4081
  25   2.0000      -0.666208       -18.1285
  26   2.0000      -0.655312       -17.8319
  27   2.0000      -0.645621       -17.5682
  28   2.0000      -0.618373       -16.8268
  29   2.0000      -0.584098       -15.8941
  30   2.0000      -0.570529       -15.5249
  31   2.0000      -0.547746       -14.9049
  32   2.0000      -0.517612       -14.0849
  33   2.0000      -0.510142       -13.8817
  34   2.0000      -0.507765       -13.8170
  35   2.0000      -0.490014       -13.3340
  36   2.0000      -0.477138       -12.9836
  37   2.0000      -0.473496       -12.8845
  38   2.0000      -0.446912       -12.1611
  39   2.0000      -0.443403       -12.0656
  40   2.0000      -0.429104       -11.6765
  41   2.0000      -0.417000       -11.3472
  42   2.0000      -0.396294       -10.7837
  43   2.0000      -0.383781       -10.4432
  44   2.0000      -0.367049        -9.9879
  45   2.0000      -0.359055        -9.7704
  46   2.0000      -0.345049        -9.3893
  47   2.0000      -0.342470        -9.3191
  48   2.0000      -0.316292        -8.6067
  49   2.0000      -0.311724        -8.4824
  50   2.0000      -0.290922        -7.9164
  51   2.0000      -0.287397        -7.8205
  52   2.0000      -0.260856        -7.0983
  53   0.0000      -0.089595        -2.4380
  54   0.0000      -0.056451        -1.5361
  55   0.0000       0.000366         0.0100
  56   0.0000       0.018136         0.4935
  57   0.0000       0.033205         0.9036

MULLIKEN ATOMIC CHARGES
-----------------------
   0 C :   -0.204696
   1 C :   -0.219359
   2 C :   -0.221696
   3 C :   -0.214661
   4 C :   -0.294160
   5 C :   -0.202292
   6 H :    0.221697
   7 H :    0.221903
   8 H :    0.222565
   9 H :    0.241919
  10 H :    0.223657
  11 Pd:    0.409157
  12 O :   -0.447751
  13 O :   -0.494055
  14 O :   -0.340909
  15 C :    0.398400
  16 O :   -0.508478
  17 H :    0.434195
  18 C :    0.375457
  19 H :    0.180352
  20 H :    0.218757
Sum of atomic charges:   -0.0000000

LOEWDIN ATOMIC CHARGES
----------------------
   0 C :   -0.115653
   1 C :   -0.136922
   2 C :   -0.123732
   3 C :   -0.131483
   4 C :   -0.108960
   5 C :   -0.096189
   6 H :    0.140814
   7 H :    0.137403
   8 H :    0.137159
   9 H :    0.151420
  10 H :    0.139141
  11 Pd:   -0.283628
  12 O :   -0.201129
  13 O :   -0.178091
  14 O :    0.000027
  15 C :    0.172013
  16 O :   -0.269067
  17 H :    0.407149
  18 C :    0.129227
  19 H :    0.106509
  20 H :    0.123993

  Mayer bond orders larger than 0.100000
B(  0-C ,  1-C ) :   1.4381 B(  0-C ,  4-C ) :   1.3390 B(  0-C ,  6-H ) :   0.9090
B(  1-C ,  2-C ) :   1.4212 B(  1-C ,  7-H ) :   0.9160 B(  2-C ,  3-C ) :   1.4154
B(  2-C ,  8-H ) :   0.9175 B(  3-C ,  5-C ) :   1.4376 B(  3-C , 10-H ) :   0.9156
B(  4-C ,  5-C ) :   1.3806 B(  4-C , 11-Pd) :   0.8035 B(  5-C ,  9-H ) :   0.9045
B( 11-Pd, 12-O ) :   0.3433 B( 11-Pd, 13-O ) :   0.5683 B( 11-Pd, 14-O ) :   0.4093
B( 12-O , 13-O ) :   0.1138 B( 12-O , 18-C ) :   1.6428 B( 13-O , 18-C ) :   1.4011
B( 14-O , 15-C ) :   1.7594 B( 15-C , 16-O ) :   1.2264 B( 15-C , 20-H ) :   0.8757
B( 16-O , 17-H ) :   0.6234 B( 18-C , 19-H ) :   0.8818

Dispersion correction           -0.013688865
FINAL SINGLE POINT ENERGY      -737.006842469229
Dispersion correction            ... done

DIPOLE MOMENT
-------------
                                X             Y             Z
Electronic contribution:     46.25579      38.02199       0.37835
Nuclear contribution   :    -47.81586     -37.58151       0.58324
                        -----------------------------------------
Total Dipole Moment    :     -1.56007       0.44047       0.96159
                        -----------------------------------------
Magnitude (a.u.)       :      1.88480
Magnitude (Debye)      :      4.79079

Rotational constants in cm-1:     0.028506     0.018293     0.013416
Rotational constants in MHz :   854.596414   548.400925   402.212141

                             ****ORCA TERMINATED NORMALLY****
TOTAL RUN TIME: 0 days 0 hours 4 minutes 1 seconds 781 msec
