                         Program Version 5.0.3 -  RELEASE  -
|  1> ! EnGrad PBEh-3c
|  2> %output
|  3> xyzfile=True
|  4> end
|  5> %scf
|  6> maxiter 250
|  7> end
|  8> %output
|  9> Print[P_Hirshfeld] = 1
| 10> end
| 11> % maxcore
| 12> 4000
| 13> *xyz 0 1
| 14> C   -1.53773129   0.18740855  -0.46552524
| 15> C   -2.06691802  -0.86094025  -1.23277894
| 16> C   -1.66411736  -2.17455073  -0.97994951
| 17> C   -0.79307412  -2.41422310   0.08004229
| 18> C   -0.56932271  -0.04137216   0.49530986
| 19> C   -0.28936035  -1.34459170   0.81999842
| 20> H   -1.85872742   1.18558072  -0.75251854
| 21> H   -2.73100290  -0.66918755  -2.08144218
| 22> H   -2.07638156  -3.01084154  -1.57469617
| 23> H    0.40732698  -1.59353335   1.61187797
| 24> H   -0.44524185  -3.43902926   0.24810793
| 25> Pd   1.24914878   0.99174580   0.02286324
| 26> O    3.21278274   1.28987883  -1.27241073
| 27> O    2.57188647  -0.52745931  -0.24665822
| 28> O    0.37418258   2.77963107   0.20610900
| 29> C   -0.05214242   2.92323737   1.28541330
| 30> O    0.07800426   1.99498260   2.31720107
| 31> H   -0.79517924   1.28840616   2.35294358
| 32> C    3.38392928   0.10735411  -0.98009790
| 33> H    4.25529856  -0.44827389  -1.39631589
| 34> H   -0.65654663   3.76302076   1.53098899
| 35> *
| 36>
| 37>                          ****END OF INPUT****

CARTESIAN COORDINATES (ANGSTROEM)
---------------------------------
  C     -1.537731    0.187409   -0.465525
  C     -2.066918   -0.860940   -1.232779
  C     -1.664117   -2.174551   -0.979950
  C     -0.793074   -2.414223    0.080042
  C     -0.569323   -0.041372    0.495310
  C     -0.289360   -1.344592    0.819998
  H     -1.858727    1.185581   -0.752519
  H     -2.731003   -0.669188   -2.081442
  H     -2.076382   -3.010842   -1.574696
  H      0.407327   -1.593533    1.611878
  H     -0.445242   -3.439029    0.248108
  Pd     1.249149    0.991746    0.022863
  O      3.212783    1.289879   -1.272411
  O      2.571886   -0.527459   -0.246658
  O      0.374183    2.779631    0.206109
  C     -0.052142    2.923237    1.285413
  O      0.078004    1.994983    2.317201
  H     -0.795179    1.288406    2.352944
  C      3.383929    0.107354   -0.980098
  H      4.255299   -0.448274   -1.396316
  H     -0.656547    3.763021    1.530989

 Total Charge           Charge          ....    0
 Multiplicity           Mult            ....    1
 Number of Electrons    NEL             ....  106
 Basis Dimension        Dim             ....  227

ORBITAL ENERGIES
----------------

  NO   OCC          E(Eh)            E(eV)
   0   2.0000     -19.605014      -533.4796
   1   2.0000     -19.566816      -532.4401
   2   2.0000     -19.489482      -530.3358
   3   2.0000     -19.476942      -529.9945
   4   2.0000     -10.644459      -289.6505
   5   2.0000     -10.550350      -287.0896
   6   2.0000     -10.454492      -284.4812
   7   2.0000     -10.453795      -284.4622
   8   2.0000     -10.452048      -284.4147
   9   2.0000     -10.451485      -284.3994
  10   2.0000     -10.447846      -284.3003
  11   2.0000     -10.445909      -284.2476
  12   2.0000      -3.654744       -99.4506
  13   2.0000      -2.304709       -62.7143
  14   2.0000      -2.297724       -62.5242
  15   2.0000      -2.266751       -61.6814
  16   2.0000      -1.298625       -35.3374
  17   2.0000      -1.187205       -32.3055
  18   2.0000      -1.160425       -31.5768
  19   2.0000      -1.078705       -29.3531
  20   2.0000      -0.953670       -25.9507
  21   2.0000      -0.833594       -22.6833
  22   2.0000      -0.832192       -22.6451
  23   2.0000      -0.762412       -20.7463
  24   2.0000      -0.678870       -18.4730
  25   2.0000      -0.668192       -18.1824
  26   2.0000      -0.664572       -18.0839
  27   2.0000      -0.652820       -17.7641
  28   2.0000      -0.636710       -17.3258
  29   2.0000      -0.591163       -16.0864
  30   2.0000      -0.574145       -15.6233
  31   2.0000      -0.547820       -14.9069
  32   2.0000      -0.517766       -14.0891
  33   2.0000      -0.511384       -13.9155
  34   2.0000      -0.510382       -13.8882
  35   2.0000      -0.497735       -13.5441
  36   2.0000      -0.489053       -13.3078
  37   2.0000      -0.475143       -12.9293
  38   2.0000      -0.449837       -12.2407
  39   2.0000      -0.448671       -12.2090
  40   2.0000      -0.434155       -11.8140
  41   2.0000      -0.421778       -11.4772
  42   2.0000      -0.397402       -10.8139
  43   2.0000      -0.385099       -10.4791
  44   2.0000      -0.367353        -9.9962
  45   2.0000      -0.359551        -9.7839
  46   2.0000      -0.345938        -9.4135
  47   2.0000      -0.344645        -9.3783
  48   2.0000      -0.317375        -8.6362
  49   2.0000      -0.312562        -8.5052
  50   2.0000      -0.292415        -7.9570
  51   2.0000      -0.287723        -7.8293
  52   2.0000      -0.260651        -7.0927
  53   0.0000      -0.078130        -2.1260
  54   0.0000      -0.042454        -1.1552
  55   0.0000       0.014027         0.3817
  56   0.0000       0.016968         0.4617
  57   0.0000       0.048657         1.3240

MULLIKEN ATOMIC CHARGES
-----------------------
   0 C :   -0.193842
   1 C :   -0.225334
   2 C :   -0.222009
   3 C :   -0.218907
   4 C :   -0.318423
   5 C :   -0.191732
   6 H :    0.216909
   7 H :    0.221604
   8 H :    0.221871
   9 H :    0.243162
  10 H :    0.223721
  11 Pd:    0.416888
  12 O :   -0.447758
  13 O :   -0.493284
  14 O :   -0.310618
  15 C :    0.397528
  16 O :   -0.581618
  17 H :    0.471390
  18 C :    0.373253
  19 H :    0.176329
  20 H :    0.240871
Sum of atomic charges:    0.0000000

LOEWDIN ATOMIC CHARGES
----------------------
   0 C :   -0.117569
   1 C :   -0.134590
   2 C :   -0.126156
   3 C :   -0.128426
   4 C :   -0.113962
   5 C :   -0.096487
   6 H :    0.139561
   7 H :    0.137587
   8 H :    0.137599
   9 H :    0.152614
  10 H :    0.139500
  11 Pd:   -0.280166
  12 O :   -0.204061
  13 O :   -0.177069
  14 O :    0.035635
  15 C :    0.207140
  16 O :   -0.324182
  17 H :    0.390759
  18 C :    0.122809
  19 H :    0.103863
  20 H :    0.135601

  Mayer bond orders larger than 0.100000
B(  0-C ,  1-C ) :   1.4383 B(  0-C ,  4-C ) :   1.3437 B(  0-C ,  6-H ) :   0.9095
B(  1-C ,  2-C ) :   1.4226 B(  1-C ,  7-H ) :   0.9159 B(  2-C ,  3-C ) :   1.4167
B(  2-C ,  8-H ) :   0.9176 B(  3-C ,  5-C ) :   1.4359 B(  3-C , 10-H ) :   0.9155
B(  4-C ,  5-C ) :   1.3918 B(  4-C , 11-Pd) :   0.8211 B(  5-C ,  9-H ) :   0.9033
B( 11-Pd, 12-O ) :   0.3349 B( 11-Pd, 13-O ) :   0.5661 B( 11-Pd, 14-O ) :   0.3866
B( 12-O , 13-O ) :   0.1139 B( 12-O , 18-C ) :   1.6491 B( 13-O , 18-C ) :   1.4054
B( 14-O , 15-C ) :   1.8359 B( 15-C , 16-O ) :   1.1227 B( 15-C , 20-H ) :   0.8723
B( 16-O , 17-H ) :   0.6603 B( 18-C , 19-H ) :   0.8823

Dispersion correction           -0.013432872
FINAL SINGLE POINT ENERGY      -737.041806062662
Dispersion correction            ... done

DIPOLE MOMENT
-------------
                                X             Y             Z
Electronic contribution:     45.23915      37.51895       0.89038
Nuclear contribution   :    -46.73948     -36.87100      -0.12553
                        -----------------------------------------
Total Dipole Moment    :     -1.50032       0.64794       0.76485
                        -----------------------------------------
Magnitude (a.u.)       :      1.80438
Magnitude (Debye)      :      4.58638

Rotational constants in cm-1:     0.028472     0.018684     0.013623
Rotational constants in MHz :   853.557179   560.130403   408.406779

                             ****ORCA TERMINATED NORMALLY****
TOTAL RUN TIME: 0 days 0 hours 4 minutes 26 seconds 432 msec
