                         Program Version 5.0.3 -  RELEASE  -
|  1> ! EnGrad PBEh-3c
|  2> %output
|  3> xyzfile=True
|  4> end
|  5> %scf
|  6> maxiter 250
|  7> end
|  8> %output
|  9> Print[P_Hirshfeld] = 1
| 10> end
| 11> % maxcore
| 12> 4000
| 13> *xyz 0 1
| 14> C   -1.55658911   0.19745891  -0.43507599
| 15> C   -2.05090923  -0.85031246  -1.22457187
| 16> C   -1.63237561  -2.16005197  -0.98751957
| 17> C   -0.77703199  -2.40047937   0.08099895
| 18> C   -0.61754864  -0.03800856   0.55504185
| 19> C   -0.30575495  -1.34504655   0.85521901
| 20> H   -1.88222384   1.19260996  -0.70289810
| 21> H   -2.68790404  -0.65566838  -2.08432718
| 22> H   -2.01017906  -2.99964615  -1.61433917
| 23> H    0.38190933  -1.57885484   1.64853291
| 24> H   -0.41396919  -3.41357435   0.24209179
| 25> Pd   1.24816200   0.98991147   0.02496227
| 26> O    3.16466385   1.27434200  -1.29067394
| 27> O    2.56022453  -0.53379857  -0.21769310
| 28> O    0.38653566   2.75091002   0.20438391
| 29> C   -0.08564560   2.92832806   1.28719551
| 30> O    0.05533588   1.96392361   2.32373850
| 31> H   -0.69562643   1.23754530   2.17425452
| 32> C    3.34237100   0.09625408  -0.99240598
| 33> H    4.21081735  -0.46481323  -1.39519102
| 34> H   -0.63957546   3.79348860   1.53282010
| 35> *
| 36>
| 37>                          ****END OF INPUT****

CARTESIAN COORDINATES (ANGSTROEM)
---------------------------------
  C     -1.556589    0.197459   -0.435076
  C     -2.050909   -0.850312   -1.224572
  C     -1.632376   -2.160052   -0.987520
  C     -0.777032   -2.400479    0.080999
  C     -0.617549   -0.038009    0.555042
  C     -0.305755   -1.345047    0.855219
  H     -1.882224    1.192610   -0.702898
  H     -2.687904   -0.655668   -2.084327
  H     -2.010179   -2.999646   -1.614339
  H      0.381909   -1.578855    1.648533
  H     -0.413969   -3.413574    0.242092
  Pd     1.248162    0.989911    0.024962
  O      3.164664    1.274342   -1.290674
  O      2.560225   -0.533799   -0.217693
  O      0.386536    2.750910    0.204384
  C     -0.085646    2.928328    1.287196
  O      0.055336    1.963924    2.323739
  H     -0.695626    1.237545    2.174255
  C      3.342371    0.096254   -0.992406
  H      4.210817   -0.464813   -1.395191
  H     -0.639575    3.793489    1.532820

 Total Charge           Charge          ....    0
 Multiplicity           Mult            ....    1
 Number of Electrons    NEL             ....  106
 Basis Dimension        Dim             ....  227

ORBITAL ENERGIES
----------------

  NO   OCC          E(Eh)            E(eV)
   0   2.0000     -19.607481      -533.5467
   1   2.0000     -19.556841      -532.1687
   2   2.0000     -19.495165      -530.4904
   3   2.0000     -19.485415      -530.2251
   4   2.0000     -10.648602      -289.7632
   5   2.0000     -10.555902      -287.2407
   6   2.0000     -10.454957      -284.4938
   7   2.0000     -10.454392      -284.4785
   8   2.0000     -10.451284      -284.3939
   9   2.0000     -10.450822      -284.3813
  10   2.0000     -10.447016      -284.2778
  11   2.0000     -10.446166      -284.2546
  12   2.0000      -3.659729       -99.5863
  13   2.0000      -2.311350       -62.8950
  14   2.0000      -2.301082       -62.6156
  15   2.0000      -2.271472       -61.8099
  16   2.0000      -1.286426       -35.0054
  17   2.0000      -1.193842       -32.4861
  18   2.0000      -1.154652       -31.4197
  19   2.0000      -1.085823       -29.5467
  20   2.0000      -0.954434       -25.9715
  21   2.0000      -0.835424       -22.7330
  22   2.0000      -0.832341       -22.6492
  23   2.0000      -0.770251       -20.9596
  24   2.0000      -0.680543       -18.5185
  25   2.0000      -0.668170       -18.1818
  26   2.0000      -0.661392       -17.9974
  27   2.0000      -0.653337       -17.7782
  28   2.0000      -0.638325       -17.3697
  29   2.0000      -0.588727       -16.0201
  30   2.0000      -0.572912       -15.5897
  31   2.0000      -0.553885       -15.0720
  32   2.0000      -0.523884       -14.2556
  33   2.0000      -0.513752       -13.9799
  34   2.0000      -0.511200       -13.9105
  35   2.0000      -0.502026       -13.6608
  36   2.0000      -0.494434       -13.4542
  37   2.0000      -0.477528       -12.9942
  38   2.0000      -0.452328       -12.3085
  39   2.0000      -0.448922       -12.2158
  40   2.0000      -0.432953       -11.7813
  41   2.0000      -0.420234       -11.4352
  42   2.0000      -0.398426       -10.8417
  43   2.0000      -0.388010       -10.5583
  44   2.0000      -0.370224       -10.0743
  45   2.0000      -0.364931        -9.9303
  46   2.0000      -0.350340        -9.5332
  47   2.0000      -0.347881        -9.4663
  48   2.0000      -0.321007        -8.7350
  49   2.0000      -0.316742        -8.6190
  50   2.0000      -0.294180        -8.0050
  51   2.0000      -0.288950        -7.8627
  52   2.0000      -0.261752        -7.1226
  53   0.0000      -0.083634        -2.2758
  54   0.0000      -0.048711        -1.3255
  55   0.0000       0.016361         0.4452
  56   0.0000       0.017531         0.4771
  57   0.0000       0.051860         1.4112

MULLIKEN ATOMIC CHARGES
-----------------------
   0 C :   -0.178964
   1 C :   -0.228094
   2 C :   -0.218395
   3 C :   -0.220144
   4 C :   -0.375208
   5 C :   -0.181554
   6 H :    0.216602
   7 H :    0.221160
   8 H :    0.222430
   9 H :    0.245167
  10 H :    0.223165
  11 Pd:    0.445252
  12 O :   -0.442751
  13 O :   -0.494096
  14 O :   -0.332943
  15 C :    0.396919
  16 O :   -0.593620
  17 H :    0.479081
  18 C :    0.380107
  19 H :    0.178961
  20 H :    0.256924
Sum of atomic charges:   -0.0000000

LOEWDIN ATOMIC CHARGES
----------------------
   0 C :   -0.113309
   1 C :   -0.135212
   2 C :   -0.121133
   3 C :   -0.128801
   4 C :   -0.144640
   5 C :   -0.092987
   6 H :    0.138850
   7 H :    0.137153
   8 H :    0.138540
   9 H :    0.152271
  10 H :    0.138948
  11 Pd:   -0.266202
  12 O :   -0.192491
  13 O :   -0.175549
  14 O :    0.020836
  15 C :    0.236203
  16 O :   -0.342058
  17 H :    0.371165
  18 C :    0.128376
  19 H :    0.105388
  20 H :    0.144654

  Mayer bond orders larger than 0.100000
B(  0-C ,  1-C ) :   1.4396 B(  0-C ,  4-C ) :   1.3402 B(  0-C ,  6-H ) :   0.9105
B(  1-C ,  2-C ) :   1.4207 B(  1-C ,  7-H ) :   0.9160 B(  2-C ,  3-C ) :   1.4138
B(  2-C ,  8-H ) :   0.9179 B(  3-C ,  5-C ) :   1.4398 B(  3-C , 10-H ) :   0.9154
B(  4-C ,  5-C ) :   1.3925 B(  4-C , 11-Pd) :   0.7719 B(  5-C ,  9-H ) :   0.9035
B( 11-Pd, 12-O ) :   0.3487 B( 11-Pd, 13-O ) :   0.5730 B( 11-Pd, 14-O ) :   0.4020
B( 12-O , 13-O ) :   0.1139 B( 12-O , 18-C ) :   1.6433 B( 13-O , 18-C ) :   1.3993
B( 14-O , 15-C ) :   1.8020 B( 15-C , 16-O ) :   1.1248 B( 15-C , 20-H ) :   0.8682
B( 16-O , 17-H ) :   0.6345 B( 18-C , 19-H ) :   0.8836

Dispersion correction           -0.013505018
FINAL SINGLE POINT ENERGY      -737.049300670864
Dispersion correction            ... done

DIPOLE MOMENT
-------------
                                X             Y             Z
Electronic contribution:     45.71481      37.57054       0.48978
Nuclear contribution   :    -46.99294     -36.91397      -0.02300
                        -----------------------------------------
Total Dipole Moment    :     -1.27813       0.65657       0.46677
                        -----------------------------------------
Magnitude (a.u.)       :      1.51082
Magnitude (Debye)      :      3.84019

Rotational constants in cm-1:     0.028467     0.018918     0.013779
Rotational constants in MHz :   853.408751   567.150115   413.071819

                             ****ORCA TERMINATED NORMALLY****
TOTAL RUN TIME: 0 days 0 hours 3 minutes 43 seconds 696 msec
