                         Program Version 5.0.3 -  RELEASE  -
|  1> ! EnGrad PBEh-3c
|  2> %output
|  3> xyzfile=True
|  4> end
|  5> %scf
|  6> maxiter 250
|  7> end
|  8> %output
|  9> Print[P_Hirshfeld] = 1
| 10> end
| 11> % maxcore
| 12> 4000
| 13> *xyz 1 1
| 14> Ir   0.43893650  -0.70203013   1.01051673
| 15> C   -0.02160139  -2.60713923   1.92492033
| 16> C    1.13503090  -2.05969711   2.56884698
| 17> C    1.60281137  -2.33019214   0.32621737
| 18> C    0.28400113  -2.81339564   0.56231354
| 19> C    2.12730223  -1.89957144   1.57687159
| 20> N   -0.91229619   0.05781283  -0.38556721
| 21> C   -2.34333983   0.17149005  -0.00283526
| 22> C   -2.82869606   1.60637627   0.05529905
| 23> H   -3.84563601   1.65983738   0.44144161
| 24> H   -2.80489147   2.09199860  -0.92119107
| 25> H   -2.22846201   2.22238623   0.71998209
| 26> C   -3.27093780  -0.65730959  -0.87528329
| 27> H   -2.41006042  -0.21935214   1.01038453
| 28> H   -4.26832972  -0.69122330  -0.44064128
| 29> H   -3.38360870  -0.25647773  -1.88388306
| 30> H   -2.92286425  -1.68656532  -0.96480426
| 31> C   -0.61394817   0.28153888  -1.61025432
| 32> C    0.66949057   0.20437318  -2.24649426
| 33> H   -1.42313664   0.55517052  -2.28596606
| 34> C    1.94006075   0.24581480  -1.74750501
| 35> C    2.96423938   0.15829048  -2.70126242
| 36> S    0.75957788  -0.03755883  -3.95292088
| 37> C    2.45385268  -0.07156585  -3.94701412
| 38> H    2.29431319   0.91228886  -0.75595709
| 39> H    4.02481406   0.16123723  -2.49726774
| 40> H    3.01471787  -0.23975263  -4.85359637
| 41> H   -0.89359981  -2.99950436   2.42718459
| 42> H    1.23411575  -1.91216482   3.63439045
| 43> H    3.12652948  -1.51235203   1.72717020
| 44> O    1.46537370   1.47463547   0.99547451
| 45> O   -0.21626758   0.94307899   2.18783239
| 46> C    0.59394684   1.83397192   1.83637277
| 47> C    0.59176941   3.22917698   2.34199494
| 48> H    0.76688912   3.94373565   1.53946871
| 49> H    1.39263493   3.36970923   3.07001641
| 50> H   -0.35397616   3.44258091   2.83261441
| 51> H    2.18464629  -2.51200797  -0.56814259
| 52> H   -0.32339111  -3.35763487  -0.14871923
| 53> *
| 54>
| 55>                          ****END OF INPUT****

CARTESIAN COORDINATES (ANGSTROEM)
---------------------------------
  Ir     0.438936   -0.702030    1.010517
  C     -0.021601   -2.607139    1.924920
  C      1.135031   -2.059697    2.568847
  C      1.602811   -2.330192    0.326217
  C      0.284001   -2.813396    0.562314
  C      2.127302   -1.899571    1.576872
  N     -0.912296    0.057813   -0.385567
  C     -2.343340    0.171490   -0.002835
  C     -2.828696    1.606376    0.055299
  H     -3.845636    1.659837    0.441442
  H     -2.804891    2.091999   -0.921191
  H     -2.228462    2.222386    0.719982
  C     -3.270938   -0.657310   -0.875283
  H     -2.410060   -0.219352    1.010385
  H     -4.268330   -0.691223   -0.440641
  H     -3.383609   -0.256478   -1.883883
  H     -2.922864   -1.686565   -0.964804
  C     -0.613948    0.281539   -1.610254
  C      0.669491    0.204373   -2.246494
  H     -1.423137    0.555171   -2.285966
  C      1.940061    0.245815   -1.747505
  C      2.964239    0.158290   -2.701262
  S      0.759578   -0.037559   -3.952921
  C      2.453853   -0.071566   -3.947014
  H      2.294313    0.912289   -0.755957
  H      4.024814    0.161237   -2.497268
  H      3.014718   -0.239753   -4.853596
  H     -0.893600   -2.999504    2.427185
  H      1.234116   -1.912165    3.634390
  H      3.126529   -1.512352    1.727170
  O      1.465374    1.474635    0.995475
  O     -0.216268    0.943079    2.187832
  C      0.593947    1.833972    1.836373
  C      0.591769    3.229177    2.341995
  H      0.766889    3.943736    1.539469
  H      1.392635    3.369709    3.070016
  H     -0.353976    3.442581    2.832614
  H      2.184646   -2.512008   -0.568143
  H     -0.323391   -3.357635   -0.148719

 Total Charge           Charge          ....    1
 Multiplicity           Mult            ....    1
 Number of Electrons    NEL             ....  164
 Basis Dimension        Dim             ....  358

ORBITAL ENERGIES
----------------

  NO   OCC          E(Eh)            E(eV)
   0   2.0000     -89.745302     -2442.0938
   1   2.0000     -19.626878      -534.0745
   2   2.0000     -19.610065      -533.6170
   3   2.0000     -14.827834      -403.4859
   4   2.0000     -10.687901      -290.8326
   5   2.0000     -10.654304      -289.9184
   6   2.0000     -10.635223      -289.3991
   7   2.0000     -10.634380      -289.3762
   8   2.0000     -10.631369      -289.2943
   9   2.0000     -10.630480      -289.2701
  10   2.0000     -10.622083      -289.0416
  11   2.0000     -10.610038      -288.7138
  12   2.0000     -10.607945      -288.6569
  13   2.0000     -10.600301      -288.4489
  14   2.0000     -10.586206      -288.0653
  15   2.0000     -10.568920      -287.5949
  16   2.0000     -10.548320      -287.0344
  17   2.0000     -10.546977      -286.9978
  18   2.0000     -10.540130      -286.8115
  19   2.0000      -8.385090      -228.1699
  20   2.0000      -6.275136      -170.7551
  21   2.0000      -6.271670      -170.6608
  22   2.0000      -6.269685      -170.6068
  23   2.0000      -4.033077      -109.7456
  24   2.0000      -2.352961       -64.0273
  25   2.0000      -2.316829       -63.0441
  26   2.0000      -2.314807       -62.9891
  27   2.0000      -1.327164       -36.1140
  28   2.0000      -1.202391       -32.7187
  29   2.0000      -1.196661       -32.5628
  30   2.0000      -1.175795       -31.9950
  31   2.0000      -1.118294       -30.4303
  32   2.0000      -1.012124       -27.5413
  33   2.0000      -0.985547       -26.8181
  34   2.0000      -0.980050       -26.6685
  35   2.0000      -0.961211       -26.1559
  36   2.0000      -0.945696       -25.7337
  37   2.0000      -0.944097       -25.6902
  38   2.0000      -0.891076       -24.2474
  39   2.0000      -0.866285       -23.5728
  40   2.0000      -0.792871       -21.5751
  41   2.0000      -0.786693       -21.4070
  42   2.0000      -0.785577       -21.3766
  43   2.0000      -0.775580       -21.1046
  44   2.0000      -0.768024       -20.8990
  45   2.0000      -0.738630       -20.0991
  46   2.0000      -0.730181       -19.8692
  47   2.0000      -0.702625       -19.1194
  48   2.0000      -0.683242       -18.5920
  49   2.0000      -0.669987       -18.2313
  50   2.0000      -0.666019       -18.1233
  51   2.0000      -0.655075       -17.8255
  52   2.0000      -0.647862       -17.6292
  53   2.0000      -0.644198       -17.5295
  54   2.0000      -0.640708       -17.4346
  55   2.0000      -0.631429       -17.1820
  56   2.0000      -0.621936       -16.9237
  57   2.0000      -0.610264       -16.6061
  58   2.0000      -0.607549       -16.5322
  59   2.0000      -0.605265       -16.4701
  60   2.0000      -0.590122       -16.0580
  61   2.0000      -0.582207       -15.8427
  62   2.0000      -0.567245       -15.4355
  63   2.0000      -0.566421       -15.4131
  64   2.0000      -0.560365       -15.2483
  65   2.0000      -0.557290       -15.1646
  66   2.0000      -0.546493       -14.8708
  67   2.0000      -0.539581       -14.6827
  68   2.0000      -0.533697       -14.5226
  69   2.0000      -0.522414       -14.2156
  70   2.0000      -0.518627       -14.1126
  71   2.0000      -0.511798       -13.9267
  72   2.0000      -0.507356       -13.8059
  73   2.0000      -0.503053       -13.6888
  74   2.0000      -0.485971       -13.2239
  75   2.0000      -0.474455       -12.9106
  76   2.0000      -0.471834       -12.8392
  77   2.0000      -0.456555       -12.4235
  78   2.0000      -0.448791       -12.2122
  79   2.0000      -0.426335       -11.6012
  80   2.0000      -0.414167       -11.2701
  81   2.0000      -0.399013       -10.8577
  82   0.0000      -0.193828        -5.2743
  83   0.0000      -0.175745        -4.7823
  84   0.0000      -0.146541        -3.9876
  85   0.0000      -0.081272        -2.2115
  86   0.0000      -0.074843        -2.0366

MULLIKEN ATOMIC CHARGES
-----------------------
   0 Ir:    0.612883
   1 C :   -0.274828
   2 C :   -0.210264
   3 C :   -0.300951
   4 C :   -0.172938
   5 C :   -0.170706
   6 N :   -0.473913
   7 C :   -0.150979
   8 C :   -0.631288
   9 H :    0.254295
  10 H :    0.219811
  11 H :    0.253942
  12 C :   -0.651276
  13 H :    0.272187
  14 H :    0.264551
  15 H :    0.225599
  16 H :    0.237133
  17 C :    0.090976
  18 C :   -0.211406
  19 H :    0.268881
  20 C :   -0.257215
  21 C :   -0.137866
  22 S :    0.301158
  23 C :   -0.418498
  24 H :    0.311612
  25 H :    0.266067
  26 H :    0.295715
  27 H :    0.291351
  28 H :    0.294699
  29 H :    0.298740
  30 O :   -0.490820
  31 O :   -0.488649
  32 C :    0.653702
  33 C :   -0.768359
  34 H :    0.276210
  35 H :    0.280573
  36 H :    0.263945
  37 H :    0.289290
  38 H :    0.286635
Sum of atomic charges:    1.0000000

LOEWDIN ATOMIC CHARGES
----------------------
   0 Ir:   -0.162375
   1 C :   -0.043535
   2 C :   -0.043527
   3 C :   -0.075718
   4 C :   -0.030023
   5 C :   -0.024316
   6 N :   -0.037632
   7 C :   -0.067429
   8 C :   -0.351004
   9 H :    0.150422
  10 H :    0.131967
  11 H :    0.141302
  12 C :   -0.355058
  13 H :    0.152031
  14 H :    0.154223
  15 H :    0.132769
  16 H :    0.134658
  17 C :    0.041091
  18 C :   -0.236123
  19 H :    0.153117
  20 C :   -0.139162
  21 C :   -0.171024
  22 S :    0.457791
  23 C :   -0.253898
  24 H :    0.212189
  25 H :    0.159154
  26 H :    0.167461
  27 H :    0.186149
  28 H :    0.190136
  29 H :    0.190125
  30 O :   -0.240351
  31 O :   -0.184547
  32 C :    0.161953
  33 C :   -0.375130
  34 H :    0.169084
  35 H :    0.175216
  36 H :    0.158979
  37 H :    0.185941
  38 H :    0.185094

  Mayer bond orders larger than 0.100000
B(  0-Ir,  1-C ) :   0.5311 B(  0-Ir,  2-C ) :   0.4273 B(  0-Ir,  3-C ) :   0.5252
B(  0-Ir,  4-C ) :   0.4359 B(  0-Ir,  5-C ) :   0.4535 B(  0-Ir,  6-N ) :   0.4858
B(  0-Ir, 30-O ) :   0.4173 B(  0-Ir, 31-O ) :   0.5190 B(  1-C ,  2-C ) :   1.1258
B(  1-C ,  4-C ) :   1.1539 B(  1-C , 27-H ) :   0.9130 B(  2-C ,  5-C ) :   1.2256
B(  2-C , 28-H ) :   0.9104 B(  3-C ,  4-C ) :   1.1688 B(  3-C ,  5-C ) :   1.1062
B(  3-C , 37-H ) :   0.9129 B(  4-C , 38-H ) :   0.9131 B(  5-C , 29-H ) :   0.9028
B(  6-N ,  7-C ) :   0.8826 B(  6-N , 17-C ) :   1.6383 B(  7-C ,  8-C ) :   0.9806
B(  7-C , 12-C ) :   0.9810 B(  7-C , 13-H ) :   0.8878 B(  8-C ,  9-H ) :   0.9079
B(  8-C , 10-H ) :   0.9174 B(  8-C , 11-H ) :   0.9102 B( 12-C , 14-H ) :   0.9059
B( 12-C , 15-H ) :   0.9146 B( 12-C , 16-H ) :   0.9188 B( 17-C , 18-C ) :   1.1088
B( 17-C , 19-H ) :   0.8800 B( 18-C , 20-C ) :   1.4065 B( 18-C , 22-S ) :   1.1561
B( 20-C , 21-C ) :   1.3108 B( 20-C , 24-H ) :   0.8388 B( 21-C , 23-C ) :   1.4800
B( 21-C , 25-H ) :   0.9028 B( 22-S , 23-C ) :   1.2692 B( 23-C , 26-H ) :   0.8912
B( 30-O , 32-C ) :   1.4836 B( 31-O , 32-C ) :   1.4042 B( 32-C , 33-C ) :   0.9568
B( 33-C , 34-H ) :   0.8990 B( 33-C , 35-H ) :   0.8921 B( 33-C , 36-H ) :   0.9047

Dispersion correction           -0.029576736
FINAL SINGLE POINT ENERGY     -1288.387122709917
Dispersion correction            ... done

DIPOLE MOMENT
-------------
                                X             Y             Z
Electronic contribution:     23.58128     -66.47743     122.74830
Nuclear contribution   :    -23.64269      65.59811    -123.06337
                        -----------------------------------------
Total Dipole Moment    :     -0.06141      -0.87932      -0.31507
                        -----------------------------------------
Magnitude (a.u.)       :      0.93608
Magnitude (Debye)      :      2.37933

Rotational constants in cm-1:     0.011323     0.007683     0.006917
Rotational constants in MHz :   339.460596   230.336497   207.374338

                             ****ORCA TERMINATED NORMALLY****
TOTAL RUN TIME: 0 days 0 hours 18 minutes 33 seconds 821 msec
