                         Program Version 5.0.3 -  RELEASE  -
|  1> ! EnGrad PBEh-3c
|  2> %output
|  3> xyzfile=True
|  4> end
|  5> %scf
|  6> maxiter 250
|  7> end
|  8> %output
|  9> Print[P_Hirshfeld] = 1
| 10> end
| 11> % maxcore
| 12> 4000
| 13> *xyz 1 1
| 14> Ir   0.43927742  -0.64384360   1.03029685
| 15> C   -0.03057574  -2.61561278   1.91569262
| 16> C    1.12890174  -2.06991963   2.56382617
| 17> C    1.61585273  -2.36212580   0.32050788
| 18> C    0.32108994  -2.82443061   0.53844198
| 19> C    2.13216172  -1.89506898   1.62417516
| 20> N   -0.91260035   0.04528620  -0.39446336
| 21> C   -2.36020391   0.16951271   0.01465421
| 22> C   -2.82147621   1.61860217   0.07125004
| 23> H   -3.85186575   1.64366359   0.45209725
| 24> H   -2.81207143   2.09216943  -0.90314829
| 25> H   -2.23028552   2.20512989   0.74569043
| 26> C   -3.27070653  -0.66655167  -0.88946616
| 27> H   -2.41136771  -0.23780975   1.00823982
| 28> H   -4.27276235  -0.68904879  -0.44144258
| 29> H   -3.39241495  -0.24156773  -1.88359284
| 30> H   -2.93057892  -1.68351898  -0.98141223
| 31> C   -0.61863448   0.29348760  -1.62659308
| 32> C    0.66399422   0.19138295  -2.24920353
| 33> H   -1.43131386   0.55547340  -2.28514210
| 34> C    2.01728713   0.36527075  -1.62042965
| 35> C    2.94848530   0.11835449  -2.71409880
| 36> S    0.74705241  -0.03932717  -3.97049144
| 37> C    2.45367367  -0.06593454  -3.95050789
| 38> H    2.23923947   0.82766226  -0.84293232
| 39> H    4.01750212   0.16198650  -2.48678202
| 40> H    3.01131419  -0.23337801  -4.85362431
| 41> H   -0.90628793  -3.00464497   2.39784929
| 42> H    1.19611258  -1.90303412   3.63485957
| 43> H    3.11300328  -1.50601576   1.76605818
| 44> O    1.46094134   1.45851661   0.98653097
| 45> O   -0.23749031   0.93544370   2.19983986
| 46> C    0.65053110   1.82669750   1.77932177
| 47> C    0.58569517   3.23958765   2.34496113
| 48> H    0.76920465   3.94974493   1.52767471
| 49> H    1.40532598   3.37661096   3.05551288
| 50> H   -0.34184302   3.45354416   2.82918178
| 51> H    2.21131271  -2.49592922  -0.54418985
| 52> H   -0.29625766  -3.35057432  -0.16873694
| 53> *
| 54>
| 55>                          ****END OF INPUT****

CARTESIAN COORDINATES (ANGSTROEM)
---------------------------------
  Ir     0.439277   -0.643844    1.030297
  C     -0.030576   -2.615613    1.915693
  C      1.128902   -2.069920    2.563826
  C      1.615853   -2.362126    0.320508
  C      0.321090   -2.824431    0.538442
  C      2.132162   -1.895069    1.624175
  N     -0.912600    0.045286   -0.394463
  C     -2.360204    0.169513    0.014654
  C     -2.821476    1.618602    0.071250
  H     -3.851866    1.643664    0.452097
  H     -2.812071    2.092169   -0.903148
  H     -2.230286    2.205130    0.745690
  C     -3.270707   -0.666552   -0.889466
  H     -2.411368   -0.237810    1.008240
  H     -4.272762   -0.689049   -0.441443
  H     -3.392415   -0.241568   -1.883593
  H     -2.930579   -1.683519   -0.981412
  C     -0.618634    0.293488   -1.626593
  C      0.663994    0.191383   -2.249204
  H     -1.431314    0.555473   -2.285142
  C      2.017287    0.365271   -1.620430
  C      2.948485    0.118354   -2.714099
  S      0.747052   -0.039327   -3.970491
  C      2.453674   -0.065935   -3.950508
  H      2.239239    0.827662   -0.842932
  H      4.017502    0.161987   -2.486782
  H      3.011314   -0.233378   -4.853624
  H     -0.906288   -3.004645    2.397849
  H      1.196113   -1.903034    3.634860
  H      3.113003   -1.506016    1.766058
  O      1.460941    1.458517    0.986531
  O     -0.237490    0.935444    2.199840
  C      0.650531    1.826697    1.779322
  C      0.585695    3.239588    2.344961
  H      0.769205    3.949745    1.527675
  H      1.405326    3.376611    3.055513
  H     -0.341843    3.453544    2.829182
  H      2.211313   -2.495929   -0.544190
  H     -0.296258   -3.350574   -0.168737

 Total Charge           Charge          ....    1
 Multiplicity           Mult            ....    1
 Number of Electrons    NEL             ....  164
 Basis Dimension        Dim             ....  358

ORBITAL ENERGIES
----------------

  NO   OCC          E(Eh)            E(eV)
   0   2.0000     -89.753196     -2442.3086
   1   2.0000     -19.634916      -534.2932
   2   2.0000     -19.623957      -533.9950
   3   2.0000     -14.826100      -403.4387
   4   2.0000     -10.696368      -291.0630
   5   2.0000     -10.650035      -289.8022
   6   2.0000     -10.633768      -289.3595
   7   2.0000     -10.631940      -289.3098
   8   2.0000     -10.628760      -289.2233
   9   2.0000     -10.624609      -289.1103
  10   2.0000     -10.623959      -289.0926
  11   2.0000     -10.618971      -288.9569
  12   2.0000     -10.607003      -288.6312
  13   2.0000     -10.601985      -288.4947
  14   2.0000     -10.589286      -288.1491
  15   2.0000     -10.576362      -287.7974
  16   2.0000     -10.550124      -287.0835
  17   2.0000     -10.547055      -286.9999
  18   2.0000     -10.538561      -286.7688
  19   2.0000      -8.391982      -228.3574
  20   2.0000      -6.282081      -170.9441
  21   2.0000      -6.278583      -170.8489
  22   2.0000      -6.276603      -170.7950
  23   2.0000      -4.026281      -109.5607
  24   2.0000      -2.344579       -63.7992
  25   2.0000      -2.310850       -62.8814
  26   2.0000      -2.307625       -62.7937
  27   2.0000      -1.347138       -36.6575
  28   2.0000      -1.210852       -32.9489
  29   2.0000      -1.186374       -32.2829
  30   2.0000      -1.165795       -31.7229
  31   2.0000      -1.103947       -30.0399
  32   2.0000      -1.008107       -27.4320
  33   2.0000      -0.983786       -26.7702
  34   2.0000      -0.967857       -26.3367
  35   2.0000      -0.959361       -26.1056
  36   2.0000      -0.948755       -25.8169
  37   2.0000      -0.939711       -25.5708
  38   2.0000      -0.890528       -24.2325
  39   2.0000      -0.864294       -23.5186
  40   2.0000      -0.795459       -21.6455
  41   2.0000      -0.784886       -21.3578
  42   2.0000      -0.781900       -21.2766
  43   2.0000      -0.770692       -20.9716
  44   2.0000      -0.762740       -20.7552
  45   2.0000      -0.757366       -20.6090
  46   2.0000      -0.734651       -19.9909
  47   2.0000      -0.710240       -19.3266
  48   2.0000      -0.681719       -18.5505
  49   2.0000      -0.680885       -18.5278
  50   2.0000      -0.673312       -18.3217
  51   2.0000      -0.656927       -17.8759
  52   2.0000      -0.645844       -17.5743
  53   2.0000      -0.640759       -17.4359
  54   2.0000      -0.634437       -17.2639
  55   2.0000      -0.628697       -17.1077
  56   2.0000      -0.616451       -16.7745
  57   2.0000      -0.608968       -16.5709
  58   2.0000      -0.605578       -16.4786
  59   2.0000      -0.601316       -16.3626
  60   2.0000      -0.599312       -16.3081
  61   2.0000      -0.588900       -16.0248
  62   2.0000      -0.573935       -15.6176
  63   2.0000      -0.572140       -15.5687
  64   2.0000      -0.558753       -15.2045
  65   2.0000      -0.557118       -15.1600
  66   2.0000      -0.546925       -14.8826
  67   2.0000      -0.539637       -14.6843
  68   2.0000      -0.533261       -14.5108
  69   2.0000      -0.527809       -14.3624
  70   2.0000      -0.523104       -14.2344
  71   2.0000      -0.515800       -14.0356
  72   2.0000      -0.509925       -13.8758
  73   2.0000      -0.504737       -13.7346
  74   2.0000      -0.493209       -13.4209
  75   2.0000      -0.481222       -13.0947
  76   2.0000      -0.473813       -12.8931
  77   2.0000      -0.452939       -12.3251
  78   2.0000      -0.441793       -12.0218
  79   2.0000      -0.421931       -11.4813
  80   2.0000      -0.415595       -11.3089
  81   2.0000      -0.391094       -10.6422
  82   0.0000      -0.191141        -5.2012
  83   0.0000      -0.181504        -4.9390
  84   0.0000      -0.146045        -3.9741
  85   0.0000      -0.081091        -2.2066
  86   0.0000      -0.074601        -2.0300

MULLIKEN ATOMIC CHARGES
-----------------------
   0 Ir:    0.601894
   1 C :   -0.279274
   2 C :   -0.210983
   3 C :   -0.287580
   4 C :   -0.155632
   5 C :   -0.193504
   6 N :   -0.473598
   7 C :   -0.145863
   8 C :   -0.630597
   9 H :    0.249128
  10 H :    0.220575
  11 H :    0.259811
  12 C :   -0.653263
  13 H :    0.275833
  14 H :    0.259585
  15 H :    0.225906
  16 H :    0.242114
  17 C :    0.088336
  18 C :   -0.296252
  19 H :    0.269636
  20 C :   -0.185990
  21 C :   -0.176201
  22 S :    0.312349
  23 C :   -0.397313
  24 H :    0.334736
  25 H :    0.259720
  26 H :    0.295924
  27 H :    0.288490
  28 H :    0.294857
  29 H :    0.294884
  30 O :   -0.421135
  31 O :   -0.530755
  32 C :    0.638477
  33 C :   -0.764088
  34 H :    0.265273
  35 H :    0.276299
  36 H :    0.277696
  37 H :    0.286092
  38 H :    0.284412
Sum of atomic charges:    1.0000000

LOEWDIN ATOMIC CHARGES
----------------------
   0 Ir:   -0.169577
   1 C :   -0.049784
   2 C :   -0.054670
   3 C :   -0.081318
   4 C :   -0.025236
   5 C :   -0.031655
   6 N :   -0.041695
   7 C :   -0.059141
   8 C :   -0.350726
   9 H :    0.149722
  10 H :    0.132310
  11 H :    0.143266
  12 C :   -0.356768
  13 H :    0.152873
  14 H :    0.152935
  15 H :    0.132697
  16 H :    0.136065
  17 C :    0.026097
  18 C :   -0.220630
  19 H :    0.152343
  20 C :   -0.102753
  21 C :   -0.161114
  22 S :    0.462266
  23 C :   -0.259701
  24 H :    0.161712
  25 H :    0.155334
  26 H :    0.170203
  27 H :    0.184279
  28 H :    0.189015
  29 H :    0.185920
  30 O :   -0.146870
  31 O :   -0.229884
  32 C :    0.169868
  33 C :   -0.376578
  34 H :    0.164271
  35 H :    0.171997
  36 H :    0.161471
  37 H :    0.181152
  38 H :    0.182305

  Mayer bond orders larger than 0.100000
B(  0-Ir,  1-C ) :   0.5382 B(  0-Ir,  2-C ) :   0.3928 B(  0-Ir,  3-C ) :   0.4670
B(  0-Ir,  4-C ) :   0.3861 B(  0-Ir,  5-C ) :   0.4484 B(  0-Ir,  6-N ) :   0.5027
B(  0-Ir, 30-O ) :   0.3787 B(  0-Ir, 31-O ) :   0.5962 B(  1-C ,  2-C ) :   1.1379
B(  1-C ,  4-C ) :   1.1455 B(  1-C , 27-H ) :   0.9155 B(  2-C ,  5-C ) :   1.2489
B(  2-C , 28-H ) :   0.9090 B(  3-C ,  4-C ) :   1.2214 B(  3-C ,  5-C ) :   1.1105
B(  3-C , 37-H ) :   0.9155 B(  4-C , 38-H ) :   0.9141 B(  5-C , 29-H ) :   0.9046
B(  6-N ,  7-C ) :   0.8686 B(  6-N , 17-C ) :   1.6296 B(  7-C ,  8-C ) :   0.9829
B(  7-C , 12-C ) :   0.9817 B(  7-C , 13-H ) :   0.8876 B(  8-C ,  9-H ) :   0.9094
B(  8-C , 10-H ) :   0.9175 B(  8-C , 11-H ) :   0.9067 B( 12-C , 14-H ) :   0.9080
B( 12-C , 15-H ) :   0.9151 B( 12-C , 16-H ) :   0.9168 B( 17-C , 18-C ) :   1.1213
B( 17-C , 19-H ) :   0.8807 B( 18-C , 20-C ) :   1.3989 B( 18-C , 22-S ) :   1.1869
B( 20-C , 21-C ) :   1.3285 B( 20-C , 24-H ) :   0.8365 B( 21-C , 23-C ) :   1.5030
B( 21-C , 25-H ) :   0.9045 B( 22-S , 23-C ) :   1.2336 B( 23-C , 26-H ) :   0.8937
B( 30-O , 32-C ) :   1.6108 B( 31-O , 32-C ) :   1.2719 B( 32-C , 33-C ) :   0.9506
B( 33-C , 34-H ) :   0.9019 B( 33-C , 35-H ) :   0.8943 B( 33-C , 36-H ) :   0.9010

Dispersion correction           -0.029557090
FINAL SINGLE POINT ENERGY     -1288.364924739885
Dispersion correction            ... done

DIPOLE MOMENT
-------------
                                X             Y             Z
Electronic contribution:     23.60645     -60.66929     124.47030
Nuclear contribution   :    -23.57519      59.91103    -124.99664
                        -----------------------------------------
Total Dipole Moment    :      0.03125      -0.75826      -0.52635
                        -----------------------------------------
Magnitude (a.u.)       :      0.92357
Magnitude (Debye)      :      2.34752

Rotational constants in cm-1:     0.011314     0.007660     0.006907
Rotational constants in MHz :   339.170210   229.631360   207.061431

                             ****ORCA TERMINATED NORMALLY****
TOTAL RUN TIME: 0 days 0 hours 18 minutes 27 seconds 552 msec
