                         Program Version 5.0.3 -  RELEASE  -
|  1> ! EnGrad PBEh-3c
|  2> %output
|  3> xyzfile=True
|  4> end
|  5> %scf
|  6> maxiter 250
|  7> end
|  8> %output
|  9> Print[P_Hirshfeld] = 1
| 10> end
| 11> % maxcore
| 12> 4000
| 13> *xyz 1 1
| 14> Ir   0.43936774  -0.65290602   1.02937017
| 15> C   -0.02694710  -2.61300813   1.90952105
| 16> C    1.12451414  -2.06990244   2.56989351
| 17> C    1.62012793  -2.35627998   0.33203083
| 18> C    0.31830817  -2.82447806   0.54229346
| 19> C    2.12792598  -1.89739482   1.61429195
| 20> N   -0.91395779   0.04736260  -0.39477699
| 21> C   -2.35776221   0.16950278   0.00957770
| 22> C   -2.82527923   1.61443260   0.07250085
| 23> H   -3.85064280   1.64356902   0.45226979
| 24> H   -2.81195881   2.09294692  -0.90302498
| 25> H   -2.22885410   2.20593113   0.74851388
| 26> C   -3.27326526  -0.66271831  -0.88668898
| 27> H   -2.41170681  -0.23936915   1.01022284
| 28> H   -4.27183176  -0.68941760  -0.44247252
| 29> H   -3.39267342  -0.24078938  -1.88407798
| 30> H   -2.93008247  -1.68547422  -0.98258237
| 31> C   -0.61882785   0.29119138  -1.62299227
| 32> C    0.68023423   0.19753899  -2.23878387
| 33> H   -1.43319048   0.55597620  -2.28640537
| 34> C    1.98547474   0.32733783  -1.69674270
| 35> C    2.95329407   0.12551076  -2.69642018
| 36> S    0.74932675  -0.03868030  -3.96475544
| 37> C    2.44895705  -0.06743673  -3.95171952
| 38> H    2.25344259   0.85475790  -0.79660547
| 39> H    4.01576655   0.16082667  -2.48895830
| 40> H    3.01195937  -0.23333878  -4.85391915
| 41> H   -0.90794471  -3.00539075   2.39676810
| 42> H    1.19408292  -1.90303701   3.63385250
| 43> H    3.11540509  -1.50469027   1.76924911
| 44> O    1.47569750   1.45230541   0.97139176
| 45> O   -0.22642875   0.94331467   2.19320756
| 46> C    0.62399114   1.83110849   1.80264786
| 47> C    0.59267836   3.23659422   2.33807233
| 48> H    0.76876516   3.94995776   1.52863983
| 49> H    1.40547340   3.37711292   3.05478703
| 50> H   -0.34433623   3.45346002   2.83015916
| 51> H    2.21514163  -2.49604105  -0.54699670
| 52> H   -0.29507610  -3.35061180  -0.17092185
| 53> *
| 54>
| 55>                          ****END OF INPUT****

CARTESIAN COORDINATES (ANGSTROEM)
---------------------------------
  Ir     0.439368   -0.652906    1.029370
  C     -0.026947   -2.613008    1.909521
  C      1.124514   -2.069902    2.569894
  C      1.620128   -2.356280    0.332031
  C      0.318308   -2.824478    0.542293
  C      2.127926   -1.897395    1.614292
  N     -0.913958    0.047363   -0.394777
  C     -2.357762    0.169503    0.009578
  C     -2.825279    1.614433    0.072501
  H     -3.850643    1.643569    0.452270
  H     -2.811959    2.092947   -0.903025
  H     -2.228854    2.205931    0.748514
  C     -3.273265   -0.662718   -0.886689
  H     -2.411707   -0.239369    1.010223
  H     -4.271832   -0.689418   -0.442473
  H     -3.392673   -0.240789   -1.884078
  H     -2.930082   -1.685474   -0.982582
  C     -0.618828    0.291191   -1.622992
  C      0.680234    0.197539   -2.238784
  H     -1.433190    0.555976   -2.286405
  C      1.985475    0.327338   -1.696743
  C      2.953294    0.125511   -2.696420
  S      0.749327   -0.038680   -3.964755
  C      2.448957   -0.067437   -3.951720
  H      2.253443    0.854758   -0.796605
  H      4.015767    0.160827   -2.488958
  H      3.011959   -0.233339   -4.853919
  H     -0.907945   -3.005391    2.396768
  H      1.194083   -1.903037    3.633852
  H      3.115405   -1.504690    1.769249
  O      1.475698    1.452305    0.971392
  O     -0.226429    0.943315    2.193208
  C      0.623991    1.831108    1.802648
  C      0.592678    3.236594    2.338072
  H      0.768765    3.949958    1.528640
  H      1.405473    3.377113    3.054787
  H     -0.344336    3.453460    2.830159
  H      2.215142   -2.496041   -0.546997
  H     -0.295076   -3.350612   -0.170922

 Total Charge           Charge          ....    1
 Multiplicity           Mult            ....    1
 Number of Electrons    NEL             ....  164
 Basis Dimension        Dim             ....  358

ORBITAL ENERGIES
----------------

  NO   OCC          E(Eh)            E(eV)
   0   2.0000     -89.747944     -2442.1657
   1   2.0000     -19.632779      -534.2351
   2   2.0000     -19.626765      -534.0714
   3   2.0000     -14.826132      -403.4396
   4   2.0000     -10.698838      -291.1302
   5   2.0000     -10.651954      -289.8544
   6   2.0000     -10.634131      -289.3694
   7   2.0000     -10.631258      -289.2912
   8   2.0000     -10.629044      -289.2310
   9   2.0000     -10.625690      -289.1397
  10   2.0000     -10.620251      -288.9917
  11   2.0000     -10.614622      -288.8386
  12   2.0000     -10.608014      -288.6587
  13   2.0000     -10.600923      -288.4658
  14   2.0000     -10.582587      -287.9668
  15   2.0000     -10.569429      -287.6088
  16   2.0000     -10.552390      -287.1451
  17   2.0000     -10.547810      -287.0205
  18   2.0000     -10.540035      -286.8089
  19   2.0000      -8.387030      -228.2227
  20   2.0000      -6.277101      -170.8086
  21   2.0000      -6.273630      -170.7141
  22   2.0000      -6.271663      -170.6606
  23   2.0000      -4.027892      -109.6045
  24   2.0000      -2.346520       -63.8521
  25   2.0000      -2.312123       -62.9161
  26   2.0000      -2.309225       -62.8372
  27   2.0000      -1.330177       -36.1960
  28   2.0000      -1.211915       -32.9779
  29   2.0000      -1.188990       -32.3541
  30   2.0000      -1.169437       -31.8220
  31   2.0000      -1.109115       -30.1805
  32   2.0000      -1.008567       -27.4445
  33   2.0000      -0.983261       -26.7559
  34   2.0000      -0.971218       -26.4282
  35   2.0000      -0.957111       -26.0443
  36   2.0000      -0.947697       -25.7881
  37   2.0000      -0.945046       -25.7160
  38   2.0000      -0.891025       -24.2460
  39   2.0000      -0.861635       -23.4463
  40   2.0000      -0.790058       -21.4986
  41   2.0000      -0.784093       -21.3363
  42   2.0000      -0.782552       -21.2943
  43   2.0000      -0.771455       -20.9923
  44   2.0000      -0.765243       -20.8233
  45   2.0000      -0.746628       -20.3168
  46   2.0000      -0.731787       -19.9129
  47   2.0000      -0.711795       -19.3689
  48   2.0000      -0.681775       -18.5520
  49   2.0000      -0.676279       -18.4025
  50   2.0000      -0.670997       -18.2587
  51   2.0000      -0.654055       -17.7977
  52   2.0000      -0.645872       -17.5751
  53   2.0000      -0.641129       -17.4460
  54   2.0000      -0.634220       -17.2580
  55   2.0000      -0.629327       -17.1248
  56   2.0000      -0.617351       -16.7990
  57   2.0000      -0.606336       -16.4992
  58   2.0000      -0.603759       -16.4291
  59   2.0000      -0.602422       -16.3927
  60   2.0000      -0.589394       -16.0382
  61   2.0000      -0.585609       -15.9352
  62   2.0000      -0.571651       -15.5554
  63   2.0000      -0.567015       -15.4293
  64   2.0000      -0.560219       -15.2443
  65   2.0000      -0.560059       -15.2400
  66   2.0000      -0.555434       -15.1141
  67   2.0000      -0.540574       -14.7098
  68   2.0000      -0.533995       -14.5307
  69   2.0000      -0.526235       -14.3196
  70   2.0000      -0.521352       -14.1867
  71   2.0000      -0.516899       -14.0655
  72   2.0000      -0.508608       -13.8399
  73   2.0000      -0.506279       -13.7766
  74   2.0000      -0.494070       -13.4443
  75   2.0000      -0.479487       -13.0475
  76   2.0000      -0.473595       -12.8872
  77   2.0000      -0.455655       -12.3990
  78   2.0000      -0.443209       -12.0603
  79   2.0000      -0.423791       -11.5319
  80   2.0000      -0.414812       -11.2876
  81   2.0000      -0.392997       -10.6940
  82   0.0000      -0.189436        -5.1548
  83   0.0000      -0.175441        -4.7740
  84   0.0000      -0.147678        -4.0185
  85   0.0000      -0.082583        -2.2472
  86   0.0000      -0.078752        -2.1429

MULLIKEN ATOMIC CHARGES
-----------------------
   0 Ir:    0.610613
   1 C :   -0.287761
   2 C :   -0.207707
   3 C :   -0.286499
   4 C :   -0.155519
   5 C :   -0.193371
   6 N :   -0.471393
   7 C :   -0.147604
   8 C :   -0.628977
   9 H :    0.251235
  10 H :    0.220669
  11 H :    0.255828
  12 C :   -0.652408
  13 H :    0.273284
  14 H :    0.261330
  15 H :    0.225691
  16 H :    0.240529
  17 C :    0.080825
  18 C :   -0.262146
  19 H :    0.270562
  20 C :   -0.217746
  21 C :   -0.160122
  22 S :    0.302891
  23 C :   -0.409444
  24 H :    0.336194
  25 H :    0.263583
  26 H :    0.294732
  27 H :    0.288844
  28 H :    0.294662
  29 H :    0.296628
  30 O :   -0.472754
  31 O :   -0.505840
  32 C :    0.658142
  33 C :   -0.767191
  34 H :    0.273257
  35 H :    0.280574
  36 H :    0.272645
  37 H :    0.288270
  38 H :    0.285496
Sum of atomic charges:    1.0000000

LOEWDIN ATOMIC CHARGES
----------------------
   0 Ir:   -0.165999
   1 C :   -0.054057
   2 C :   -0.051393
   3 C :   -0.078790
   4 C :   -0.025614
   5 C :   -0.031769
   6 N :   -0.041407
   7 C :   -0.061573
   8 C :   -0.350401
   9 H :    0.149966
  10 H :    0.132560
  11 H :    0.142115
  12 C :   -0.356319
  13 H :    0.152073
  14 H :    0.153173
  15 H :    0.132699
  16 H :    0.135981
  17 C :    0.032938
  18 C :   -0.227028
  19 H :    0.153003
  20 C :   -0.123428
  21 C :   -0.168807
  22 S :    0.455696
  23 C :   -0.255290
  24 H :    0.191336
  25 H :    0.156783
  26 H :    0.168055
  27 H :    0.184584
  28 H :    0.188660
  29 H :    0.187608
  30 O :   -0.207794
  31 O :   -0.197541
  32 C :    0.184255
  33 C :   -0.375607
  34 H :    0.167990
  35 H :    0.174864
  36 H :    0.161767
  37 H :    0.183384
  38 H :    0.183325

  Mayer bond orders larger than 0.100000
B(  0-Ir,  1-C ) :   0.5290 B(  0-Ir,  2-C ) :   0.4036 B(  0-Ir,  3-C ) :   0.4798
B(  0-Ir,  4-C ) :   0.3945 B(  0-Ir,  5-C ) :   0.4462 B(  0-Ir,  6-N ) :   0.4967
B(  0-Ir, 30-O ) :   0.4099 B(  0-Ir, 31-O ) :   0.5590 B(  1-C ,  2-C ) :   1.1353
B(  1-C ,  4-C ) :   1.1521 B(  1-C , 27-H ) :   0.9147 B(  2-C ,  5-C ) :   1.2426
B(  2-C , 28-H ) :   0.9093 B(  3-C ,  4-C ) :   1.2069 B(  3-C ,  5-C ) :   1.1141
B(  3-C , 37-H ) :   0.9135 B(  4-C , 38-H ) :   0.9135 B(  5-C , 29-H ) :   0.9039
B(  6-N ,  7-C ) :   0.8721 B(  6-N , 17-C ) :   1.6392 B(  7-C ,  8-C ) :   0.9820
B(  7-C , 12-C ) :   0.9816 B(  7-C , 13-H ) :   0.8881 B(  8-C ,  9-H ) :   0.9085
B(  8-C , 10-H ) :   0.9175 B(  8-C , 11-H ) :   0.9087 B( 12-C , 14-H ) :   0.9071
B( 12-C , 15-H ) :   0.9148 B( 12-C , 16-H ) :   0.9177 B( 17-C , 18-C ) :   1.1135
B( 17-C , 19-H ) :   0.8800 B( 18-C , 20-C ) :   1.4067 B( 18-C , 22-S ) :   1.1695
B( 20-C , 21-C ) :   1.3321 B( 20-C , 24-H ) :   0.8332 B( 21-C , 23-C ) :   1.4805
B( 21-C , 25-H ) :   0.9036 B( 22-S , 23-C ) :   1.2592 B( 23-C , 26-H ) :   0.8935
B( 30-O , 32-C ) :   1.5164 B( 31-O , 32-C ) :   1.3450 B( 32-C , 33-C ) :   0.9560
B( 33-C , 34-H ) :   0.8987 B( 33-C , 35-H ) :   0.8915 B( 33-C , 36-H ) :   0.9019

Dispersion correction           -0.029522758
FINAL SINGLE POINT ENERGY     -1288.410417035249
Dispersion correction            ... done

DIPOLE MOMENT
-------------
                                X             Y             Z
Electronic contribution:     23.52070     -61.50058     124.63243
Nuclear contribution   :    -23.57695      60.75808    -124.98848
                        -----------------------------------------
Total Dipole Moment    :     -0.05626      -0.74250      -0.35606
                        -----------------------------------------
Magnitude (a.u.)       :      0.82538
Magnitude (Debye)      :      2.09794

Rotational constants in cm-1:     0.011320     0.007665     0.006907
Rotational constants in MHz :   339.364850   229.796646   207.052822

                             ****ORCA TERMINATED NORMALLY****
TOTAL RUN TIME: 0 days 0 hours 17 minutes 54 seconds 280 msec
