                         Program Version 5.0.3 -  RELEASE  -
|  1> ! EnGrad PBEh-3c
|  2> %output
|  3> xyzfile=True
|  4> end
|  5> %scf
|  6> maxiter 250
|  7> end
|  8> %output
|  9> Print[P_Hirshfeld] = 1
| 10> end
| 11> % maxcore
| 12> 4000
| 13> *xyz 1 1
| 14> Ir   0.44081589  -0.65094880   1.03194256
| 15> C   -0.02701151  -2.61261621   1.90315880
| 16> C    1.11958473  -2.07171886   2.57295800
| 17> C    1.62760280  -2.35679506   0.34020683
| 18> C    0.32262317  -2.82646891   0.54153599
| 19> C    2.12579731  -1.89811175   1.61544548
| 20> N   -0.91576728   0.04717597  -0.39636974
| 21> C   -2.35841758   0.16863653   0.00851302
| 22> C   -2.82695830   1.61299050   0.07671704
| 23> H   -3.85089006   1.64037177   0.45448045
| 24> H   -2.81327444   2.09374820  -0.89935021
| 25> H   -2.22782997   2.20333177   0.75605947
| 26> C   -3.27530086  -0.66115244  -0.88697134
| 27> H   -2.41226777  -0.24429147   1.01132043
| 28> H   -4.27195585  -0.68934560  -0.44351085
| 29> H   -3.39460029  -0.23721003  -1.88442723
| 30> H   -2.93117037  -1.68647343  -0.98687550
| 31> C   -0.61767006   0.29140253  -1.62257002
| 32> C    0.68983166   0.20012801  -2.23317712
| 33> H   -1.43616149   0.55640658  -2.28762014
| 34> C    1.97703481   0.33078888  -1.71313811
| 35> C    2.95478693   0.12277675  -2.69196560
| 36> S    0.74927840  -0.03868125  -3.96216678
| 37> C    2.44601750  -0.06780875  -3.95083463
| 38> H    2.24965681   0.85017991  -0.79178959
| 39> H    4.01345952   0.16017118  -2.48824917
| 40> H    3.01172978  -0.23206810  -4.85436243
| 41> H   -0.91134049  -3.00622660   2.38942274
| 42> H    1.18490626  -1.90086470   3.63382801
| 43> H    3.11447611  -1.50240725   1.77970038
| 44> O    1.47833243   1.44580135   0.96481387
| 45> O   -0.22094923   0.94984100   2.19016140
| 46> C    0.62010650   1.82928669   1.80372663
| 47> C    0.59643169   3.23590442   2.33326637
| 48> H    0.76885655   3.95115279   1.52695401
| 49> H    1.40808363   3.37867756   3.05121166
| 50> H   -0.34339381   3.45546123   2.82999565
| 51> H    2.22328961  -2.49247014  -0.54441876
| 52> H   -0.28881820  -3.34884508  -0.17710746
| 53> *
| 54>
| 55>                          ****END OF INPUT****

CARTESIAN COORDINATES (ANGSTROEM)
---------------------------------
  Ir     0.440816   -0.650949    1.031943
  C     -0.027012   -2.612616    1.903159
  C      1.119585   -2.071719    2.572958
  C      1.627603   -2.356795    0.340207
  C      0.322623   -2.826469    0.541536
  C      2.125797   -1.898112    1.615445
  N     -0.915767    0.047176   -0.396370
  C     -2.358418    0.168637    0.008513
  C     -2.826958    1.612990    0.076717
  H     -3.850890    1.640372    0.454480
  H     -2.813274    2.093748   -0.899350
  H     -2.227830    2.203332    0.756059
  C     -3.275301   -0.661152   -0.886971
  H     -2.412268   -0.244291    1.011320
  H     -4.271956   -0.689346   -0.443511
  H     -3.394600   -0.237210   -1.884427
  H     -2.931170   -1.686473   -0.986876
  C     -0.617670    0.291403   -1.622570
  C      0.689832    0.200128   -2.233177
  H     -1.436161    0.556407   -2.287620
  C      1.977035    0.330789   -1.713138
  C      2.954787    0.122777   -2.691966
  S      0.749278   -0.038681   -3.962167
  C      2.446017   -0.067809   -3.950835
  H      2.249657    0.850180   -0.791790
  H      4.013460    0.160171   -2.488249
  H      3.011730   -0.232068   -4.854362
  H     -0.911340   -3.006227    2.389423
  H      1.184906   -1.900865    3.633828
  H      3.114476   -1.502407    1.779700
  O      1.478332    1.445801    0.964814
  O     -0.220949    0.949841    2.190161
  C      0.620107    1.829287    1.803727
  C      0.596432    3.235904    2.333266
  H      0.768857    3.951153    1.526954
  H      1.408084    3.378678    3.051212
  H     -0.343394    3.455461    2.829996
  H      2.223290   -2.492470   -0.544419
  H     -0.288818   -3.348845   -0.177107

 Total Charge           Charge          ....    1
 Multiplicity           Mult            ....    1
 Number of Electrons    NEL             ....  164
 Basis Dimension        Dim             ....  358

ORBITAL ENERGIES
----------------

  NO   OCC          E(Eh)            E(eV)
   0   2.0000     -89.746088     -2442.1152
   1   2.0000     -19.635708      -534.3148
   2   2.0000     -19.625852      -534.0466
   3   2.0000     -14.826455      -403.4483
   4   2.0000     -10.699513      -291.1486
   5   2.0000     -10.652978      -289.8823
   6   2.0000     -10.634410      -289.3770
   7   2.0000     -10.630662      -289.2750
   8   2.0000     -10.628961      -289.2287
   9   2.0000     -10.625882      -289.1449
  10   2.0000     -10.620797      -289.0066
  11   2.0000     -10.612144      -288.7711
  12   2.0000     -10.608716      -288.6778
  13   2.0000     -10.600284      -288.4484
  14   2.0000     -10.579574      -287.8848
  15   2.0000     -10.567752      -287.5632
  16   2.0000     -10.553205      -287.1673
  17   2.0000     -10.548284      -287.0334
  18   2.0000     -10.540837      -286.8308
  19   2.0000      -8.385290      -228.1753
  20   2.0000      -6.275371      -170.7615
  21   2.0000      -6.271899      -170.6670
  22   2.0000      -6.269889      -170.6124
  23   2.0000      -4.028205      -109.6130
  24   2.0000      -2.346883       -63.8619
  25   2.0000      -2.312353       -62.9223
  26   2.0000      -2.309509       -62.8449
  27   2.0000      -1.331850       -36.2415
  28   2.0000      -1.212891       -33.0044
  29   2.0000      -1.189616       -32.3711
  30   2.0000      -1.170614       -31.8540
  31   2.0000      -1.110597       -30.2209
  32   2.0000      -1.008691       -27.4479
  33   2.0000      -0.982883       -26.7456
  34   2.0000      -0.972161       -26.4538
  35   2.0000      -0.955998       -26.0140
  36   2.0000      -0.948592       -25.8125
  37   2.0000      -0.945665       -25.7329
  38   2.0000      -0.891229       -24.2516
  39   2.0000      -0.861306       -23.4373
  40   2.0000      -0.789228       -21.4760
  41   2.0000      -0.783686       -21.3252
  42   2.0000      -0.782840       -21.3022
  43   2.0000      -0.771321       -20.9887
  44   2.0000      -0.765543       -20.8315
  45   2.0000      -0.747255       -20.3339
  46   2.0000      -0.731364       -19.9014
  47   2.0000      -0.712469       -19.3873
  48   2.0000      -0.681896       -18.5553
  49   2.0000      -0.676420       -18.4063
  50   2.0000      -0.672109       -18.2890
  51   2.0000      -0.654998       -17.8234
  52   2.0000      -0.646088       -17.5810
  53   2.0000      -0.641031       -17.4433
  54   2.0000      -0.634153       -17.2562
  55   2.0000      -0.629464       -17.1286
  56   2.0000      -0.617744       -16.8097
  57   2.0000      -0.606771       -16.5111
  58   2.0000      -0.604217       -16.4416
  59   2.0000      -0.602614       -16.3980
  60   2.0000      -0.588798       -16.0220
  61   2.0000      -0.583852       -15.8874
  62   2.0000      -0.571481       -15.5508
  63   2.0000      -0.565618       -15.3912
  64   2.0000      -0.561492       -15.2790
  65   2.0000      -0.561067       -15.2674
  66   2.0000      -0.555935       -15.1278
  67   2.0000      -0.540637       -14.7115
  68   2.0000      -0.534357       -14.5406
  69   2.0000      -0.526123       -14.3165
  70   2.0000      -0.520419       -14.1613
  71   2.0000      -0.517733       -14.0882
  72   2.0000      -0.509062       -13.8523
  73   2.0000      -0.506080       -13.7711
  74   2.0000      -0.494759       -13.4631
  75   2.0000      -0.479087       -13.0366
  76   2.0000      -0.473595       -12.8872
  77   2.0000      -0.456696       -12.4273
  78   2.0000      -0.443066       -12.0564
  79   2.0000      -0.424304       -11.5459
  80   2.0000      -0.414252       -11.2724
  81   2.0000      -0.393686       -10.7127
  82   0.0000      -0.188837        -5.1385
  83   0.0000      -0.173276        -4.7151
  84   0.0000      -0.148871        -4.0510
  85   0.0000      -0.083214        -2.2644
  86   0.0000      -0.079317        -2.1583

MULLIKEN ATOMIC CHARGES
-----------------------
   0 Ir:    0.610011
   1 C :   -0.292588
   2 C :   -0.205844
   3 C :   -0.283397
   4 C :   -0.153805
   5 C :   -0.197250
   6 N :   -0.468439
   7 C :   -0.147827
   8 C :   -0.628016
   9 H :    0.251995
  10 H :    0.220638
  11 H :    0.254642
  12 C :   -0.652090
  13 H :    0.272260
  14 H :    0.262005
  15 H :    0.225574
  16 H :    0.239933
  17 C :    0.075078
  18 C :   -0.252940
  19 H :    0.270709
  20 C :   -0.219549
  21 C :   -0.158170
  22 S :    0.298938
  23 C :   -0.413132
  24 H :    0.336210
  25 H :    0.264184
  26 H :    0.294179
  27 H :    0.288718
  28 H :    0.294861
  29 H :    0.297240
  30 O :   -0.482205
  31 O :   -0.496235
  32 C :    0.660374
  33 C :   -0.768630
  34 H :    0.274947
  35 H :    0.281257
  36 H :    0.271111
  37 H :    0.289324
  38 H :    0.285933
Sum of atomic charges:    1.0000000

LOEWDIN ATOMIC CHARGES
----------------------
   0 Ir:   -0.165048
   1 C :   -0.057159
   2 C :   -0.050429
   3 C :   -0.077991
   4 C :   -0.025136
   5 C :   -0.033406
   6 N :   -0.041171
   7 C :   -0.062168
   8 C :   -0.350115
   9 H :    0.150041
  10 H :    0.132701
  11 H :    0.141974
  12 C :   -0.356254
  13 H :    0.151792
  14 H :    0.153220
  15 H :    0.132685
  16 H :    0.136046
  17 C :    0.034804
  18 C :   -0.226898
  19 H :    0.153237
  20 C :   -0.125449
  21 C :   -0.170092
  22 S :    0.452066
  23 C :   -0.254740
  24 H :    0.193274
  25 H :    0.156816
  26 H :    0.167641
  27 H :    0.184516
  28 H :    0.188479
  29 H :    0.188139
  30 O :   -0.217639
  31 O :   -0.184915
  32 C :    0.183877
  33 C :   -0.375759
  34 H :    0.168392
  35 H :    0.175160
  36 H :    0.161782
  37 H :    0.184132
  38 H :    0.183597

  Mayer bond orders larger than 0.100000
B(  0-Ir,  1-C ) :   0.5250 B(  0-Ir,  2-C ) :   0.4064 B(  0-Ir,  3-C ) :   0.4787
B(  0-Ir,  4-C ) :   0.3932 B(  0-Ir,  5-C ) :   0.4452 B(  0-Ir,  6-N ) :   0.4946
B(  0-Ir, 30-O ) :   0.4209 B(  0-Ir, 31-O ) :   0.5508 B(  1-C ,  2-C ) :   1.1356
B(  1-C ,  4-C ) :   1.1541 B(  1-C , 27-H ) :   0.9147 B(  2-C ,  5-C ) :   1.2410
B(  2-C , 28-H ) :   0.9091 B(  3-C ,  4-C ) :   1.2061 B(  3-C ,  5-C ) :   1.1168
B(  3-C , 37-H ) :   0.9123 B(  4-C , 38-H ) :   0.9130 B(  5-C , 29-H ) :   0.9036
B(  6-N ,  7-C ) :   0.8724 B(  6-N , 17-C ) :   1.6454 B(  7-C ,  8-C ) :   0.9815
B(  7-C , 12-C ) :   0.9814 B(  7-C , 13-H ) :   0.8883 B(  8-C ,  9-H ) :   0.9080
B(  8-C , 10-H ) :   0.9174 B(  8-C , 11-H ) :   0.9093 B( 12-C , 14-H ) :   0.9067
B( 12-C , 15-H ) :   0.9147 B( 12-C , 16-H ) :   0.9180 B( 17-C , 18-C ) :   1.1073
B( 17-C , 19-H ) :   0.8797 B( 18-C , 20-C ) :   1.4165 B( 18-C , 22-S ) :   1.1637
B( 20-C , 21-C ) :   1.3296 B( 20-C , 24-H ) :   0.8321 B( 21-C , 23-C ) :   1.4796
B( 21-C , 25-H ) :   0.9036 B( 22-S , 23-C ) :   1.2629 B( 23-C , 26-H ) :   0.8935
B( 30-O , 32-C ) :   1.4939 B( 31-O , 32-C ) :   1.3664 B( 32-C , 33-C ) :   0.9561
B( 33-C , 34-H ) :   0.8980 B( 33-C , 35-H ) :   0.8911 B( 33-C , 36-H ) :   0.9024

Dispersion correction           -0.029500804
FINAL SINGLE POINT ENERGY     -1288.412817745095
Dispersion correction            ... done

DIPOLE MOMENT
-------------
                                X             Y             Z
Electronic contribution:     23.60379     -61.29493     124.94851
Nuclear contribution   :    -23.69381      60.55808    -125.25431
                        -----------------------------------------
Total Dipole Moment    :     -0.09002      -0.73685      -0.30579
                        -----------------------------------------
Magnitude (a.u.)       :      0.80284
Magnitude (Debye)      :      2.04066

Rotational constants in cm-1:     0.011321     0.007668     0.006907
Rotational constants in MHz :   339.399310   229.890289   207.069528

                             ****ORCA TERMINATED NORMALLY****
TOTAL RUN TIME: 0 days 0 hours 17 minutes 36 seconds 928 msec
