                         Program Version 5.0.3 -  RELEASE  -
|  1> ! EnGrad PBEh-3c
|  2> %output
|  3> xyzfile=True
|  4> end
|  5> %scf
|  6> maxiter 250
|  7> end
|  8> %output
|  9> Print[P_Hirshfeld] = 1
| 10> end
| 11> % maxcore
| 12> 4000
| 13> *xyz 1 1
| 14> Ir   0.45261838  -0.64289315   1.04268276
| 15> C   -0.03684032  -2.61398901   1.87610535
| 16> C    1.09247060  -2.08053717   2.57953926
| 17> C    1.66921366  -2.36321145   0.37023454
| 18> C    0.35117636  -2.83600197   0.53285026
| 19> C    2.12239651  -1.89582303   1.64031708
| 20> N   -0.92475549   0.04614095  -0.40246517
| 21> C   -2.36281945   0.16050843   0.00789446
| 22> C   -2.83111538   1.60665450   0.10117448
| 23> H   -3.85498991   1.62142444   0.46920457
| 24> H   -2.82087579   2.09820935  -0.87483306
| 25> H   -2.22453987   2.18551852   0.79838095
| 26> C   -3.28368719  -0.65586506  -0.89258864
| 27> H   -2.41520475  -0.27189570   1.01285310
| 28> H   -4.27529313  -0.68888839  -0.44847604
| 29> H   -3.40625442  -0.21616330  -1.88542613
| 30> H   -2.93920793  -1.68787095  -1.01217527
| 31> C   -0.60873715   0.29489565  -1.62304880
| 32> C    0.70249331   0.21273297  -2.22069097
| 33> H   -1.44713063   0.55727621  -2.29274522
| 34> C    1.96136683   0.36530755  -1.75322678
| 35> C    2.95617775   0.10591957  -2.69290895
| 36> S    0.74698927  -0.03900423  -3.94736551
| 37> C    2.44027340  -0.07124549  -3.94265572
| 38> H    2.22143569   0.81321575  -0.78220202
| 39> H    4.00594979   0.15604684  -2.48081749
| 40> H    3.00774726  -0.22419948  -4.85414648
| 41> H   -0.92825693  -3.00929352   2.34229993
| 42> H    1.12987802  -1.88782736   3.63817649
| 43> H    3.10357542  -1.49114735   1.84083489
| 44> O    1.47534620   1.41238950   0.94332529
| 45> O   -0.20601606   0.97384399   2.18148996
| 46> C    0.63174716   1.82783695   1.78488262
| 47> C    0.61026763   3.23340432   2.31185125
| 48> H    0.77024952   3.95858523   1.51415744
| 49> H    1.42384968   3.38710726   3.02884243
| 50> H   -0.33089153   3.46577830   2.82523049
| 51> H    2.26880427  -2.46957666  -0.52184432
| 52> H   -0.24987371  -3.33782225  -0.21365531
| 53> *
| 54>
| 55>                          ****END OF INPUT****

CARTESIAN COORDINATES (ANGSTROEM)
---------------------------------
  Ir     0.452618   -0.642893    1.042683
  C     -0.036840   -2.613989    1.876105
  C      1.092471   -2.080537    2.579539
  C      1.669214   -2.363211    0.370235
  C      0.351176   -2.836002    0.532850
  C      2.122397   -1.895823    1.640317
  N     -0.924755    0.046141   -0.402465
  C     -2.362819    0.160508    0.007894
  C     -2.831115    1.606654    0.101174
  H     -3.854990    1.621424    0.469205
  H     -2.820876    2.098209   -0.874833
  H     -2.224540    2.185519    0.798381
  C     -3.283687   -0.655865   -0.892589
  H     -2.415205   -0.271896    1.012853
  H     -4.275293   -0.688888   -0.448476
  H     -3.406254   -0.216163   -1.885426
  H     -2.939208   -1.687871   -1.012175
  C     -0.608737    0.294896   -1.623049
  C      0.702493    0.212733   -2.220691
  H     -1.447131    0.557276   -2.292745
  C      1.961367    0.365308   -1.753227
  C      2.956178    0.105920   -2.692909
  S      0.746989   -0.039004   -3.947366
  C      2.440273   -0.071245   -3.942656
  H      2.221436    0.813216   -0.782202
  H      4.005950    0.156047   -2.480817
  H      3.007747   -0.224199   -4.854146
  H     -0.928257   -3.009294    2.342300
  H      1.129878   -1.887827    3.638176
  H      3.103575   -1.491147    1.840835
  O      1.475346    1.412389    0.943325
  O     -0.206016    0.973844    2.181490
  C      0.631747    1.827837    1.784883
  C      0.610268    3.233404    2.311851
  H      0.770250    3.958585    1.514157
  H      1.423850    3.387107    3.028842
  H     -0.330892    3.465778    2.825230
  H      2.268804   -2.469577   -0.521844
  H     -0.249874   -3.337822   -0.213655

 Total Charge           Charge          ....    1
 Multiplicity           Mult            ....    1
 Number of Electrons    NEL             ....  164
 Basis Dimension        Dim             ....  358

ORBITAL ENERGIES
----------------

  NO   OCC          E(Eh)            E(eV)
   0   2.0000     -89.741348     -2441.9862
   1   2.0000     -19.638914      -534.4020
   2   2.0000     -19.629339      -534.1415
   3   2.0000     -14.826470      -403.4488
   4   2.0000     -10.701324      -291.1978
   5   2.0000     -10.654914      -289.9349
   6   2.0000     -10.635673      -289.4114
   7   2.0000     -10.628149      -289.2066
   8   2.0000     -10.627961      -289.2015
   9   2.0000     -10.626431      -289.1599
  10   2.0000     -10.622577      -289.0550
  11   2.0000     -10.610124      -288.7162
  12   2.0000     -10.606495      -288.6174
  13   2.0000     -10.598272      -288.3936
  14   2.0000     -10.573847      -287.7290
  15   2.0000     -10.564356      -287.4708
  16   2.0000     -10.556023      -287.2440
  17   2.0000     -10.549145      -287.0568
  18   2.0000     -10.542720      -286.8820
  19   2.0000      -8.380956      -228.0574
  20   2.0000      -6.271072      -170.6445
  21   2.0000      -6.267591      -170.5498
  22   2.0000      -6.265440      -170.4913
  23   2.0000      -4.028284      -109.6152
  24   2.0000      -2.346894       -63.8622
  25   2.0000      -2.312152       -62.9168
  26   2.0000      -2.309592       -62.8472
  27   2.0000      -1.341691       -36.5093
  28   2.0000      -1.218145       -33.1474
  29   2.0000      -1.189300       -32.3625
  30   2.0000      -1.171535       -31.8791
  31   2.0000      -1.115609       -30.3573
  32   2.0000      -1.009256       -27.4632
  33   2.0000      -0.981153       -26.6985
  34   2.0000      -0.973784       -26.4980
  35   2.0000      -0.956223       -26.0202
  36   2.0000      -0.950083       -25.8531
  37   2.0000      -0.947324       -25.7780
  38   2.0000      -0.890654       -24.2359
  39   2.0000      -0.861664       -23.4471
  40   2.0000      -0.788446       -21.4547
  41   2.0000      -0.783124       -21.3099
  42   2.0000      -0.782937       -21.3048
  43   2.0000      -0.770723       -20.9724
  44   2.0000      -0.765683       -20.8353
  45   2.0000      -0.750614       -20.4252
  46   2.0000      -0.729898       -19.8615
  47   2.0000      -0.714570       -19.4444
  48   2.0000      -0.682227       -18.5643
  49   2.0000      -0.679091       -18.4790
  50   2.0000      -0.677028       -18.4229
  51   2.0000      -0.659130       -17.9358
  52   2.0000      -0.646074       -17.5806
  53   2.0000      -0.639396       -17.3989
  54   2.0000      -0.634897       -17.2764
  55   2.0000      -0.629329       -17.1249
  56   2.0000      -0.618340       -16.8259
  57   2.0000      -0.607910       -16.5421
  58   2.0000      -0.605052       -16.4643
  59   2.0000      -0.602701       -16.4003
  60   2.0000      -0.587734       -15.9930
  61   2.0000      -0.582452       -15.8493
  62   2.0000      -0.571856       -15.5610
  63   2.0000      -0.564867       -15.3708
  64   2.0000      -0.563300       -15.3282
  65   2.0000      -0.560851       -15.2615
  66   2.0000      -0.557186       -15.1618
  67   2.0000      -0.540699       -14.7132
  68   2.0000      -0.534514       -14.5449
  69   2.0000      -0.527239       -14.3469
  70   2.0000      -0.522058       -14.2059
  71   2.0000      -0.516789       -14.0625
  72   2.0000      -0.509222       -13.8566
  73   2.0000      -0.505011       -13.7420
  74   2.0000      -0.497994       -13.5511
  75   2.0000      -0.479569       -13.0497
  76   2.0000      -0.474101       -12.9009
  77   2.0000      -0.458989       -12.4897
  78   2.0000      -0.440951       -11.9989
  79   2.0000      -0.425332       -11.5739
  80   2.0000      -0.413292       -11.2463
  81   2.0000      -0.396165       -10.7802
  82   0.0000      -0.186137        -5.0650
  83   0.0000      -0.169475        -4.6116
  84   0.0000      -0.152465        -4.1488
  85   0.0000      -0.083052        -2.2600
  86   0.0000      -0.079475        -2.1626

MULLIKEN ATOMIC CHARGES
-----------------------
   0 Ir:    0.602835
   1 C :   -0.302958
   2 C :   -0.201211
   3 C :   -0.269280
   4 C :   -0.151081
   5 C :   -0.215455
   6 N :   -0.458803
   7 C :   -0.145742
   8 C :   -0.625365
   9 H :    0.252729
  10 H :    0.220110
  11 H :    0.252363
  12 C :   -0.651805
  13 H :    0.269276
  14 H :    0.263184
  15 H :    0.225345
  16 H :    0.238312
  17 C :    0.057567
  18 C :   -0.227032
  19 H :    0.268484
  20 C :   -0.225949
  21 C :   -0.146741
  22 S :    0.290303
  23 C :   -0.424356
  24 H :    0.335913
  25 H :    0.265204
  26 H :    0.293227
  27 H :    0.287706
  28 H :    0.296486
  29 H :    0.298232
  30 O :   -0.488903
  31 O :   -0.482688
  32 C :    0.666233
  33 C :   -0.776095
  34 H :    0.276707
  35 H :    0.282214
  36 H :    0.272044
  37 H :    0.291824
  38 H :    0.287169
Sum of atomic charges:    1.0000000

LOEWDIN ATOMIC CHARGES
----------------------
   0 Ir:   -0.163243
   1 C :   -0.066999
   2 C :   -0.047021
   3 C :   -0.074831
   4 C :   -0.022470
   5 C :   -0.041311
   6 N :   -0.042025
   7 C :   -0.063323
   8 C :   -0.349254
   9 H :    0.149675
  10 H :    0.132866
  11 H :    0.142235
  12 C :   -0.356527
  13 H :    0.151057
  14 H :    0.153166
  15 H :    0.132615
  16 H :    0.136269
  17 C :    0.036929
  18 C :   -0.228776
  19 H :    0.153588
  20 C :   -0.123910
  21 C :   -0.173175
  22 S :    0.444212
  23 C :   -0.251404
  24 H :    0.190639
  25 H :    0.157174
  26 H :    0.167338
  27 H :    0.183751
  28 H :    0.188666
  29 H :    0.188665
  30 O :   -0.214663
  31 O :   -0.168107
  32 C :    0.178698
  33 C :   -0.376991
  34 H :    0.168248
  35 H :    0.175534
  36 H :    0.163624
  37 H :    0.185130
  38 H :    0.183950

  Mayer bond orders larger than 0.100000
B(  0-Ir,  1-C ) :   0.5171 B(  0-Ir,  2-C ) :   0.4133 B(  0-Ir,  3-C ) :   0.4672
B(  0-Ir,  4-C ) :   0.3853 B(  0-Ir,  5-C ) :   0.4464 B(  0-Ir,  6-N ) :   0.4896
B(  0-Ir, 30-O ) :   0.4398 B(  0-Ir, 31-O ) :   0.5462 B(  1-C ,  2-C ) :   1.1371
B(  1-C ,  4-C ) :   1.1560 B(  1-C , 27-H ) :   0.9158 B(  2-C ,  5-C ) :   1.2368
B(  2-C , 28-H ) :   0.9068 B(  3-C ,  4-C ) :   1.2128 B(  3-C ,  5-C ) :   1.1230
B(  3-C , 37-H ) :   0.9089 B(  4-C , 38-H ) :   0.9111 B(  5-C , 29-H ) :   0.9032
B(  6-N ,  7-C ) :   0.8739 B(  6-N , 17-C ) :   1.6580 B(  7-C ,  8-C ) :   0.9793
B(  7-C , 12-C ) :   0.9806 B(  7-C , 13-H ) :   0.8888 B(  8-C ,  9-H ) :   0.9069
B(  8-C , 10-H ) :   0.9173 B(  8-C , 11-H ) :   0.9101 B( 12-C , 14-H ) :   0.9057
B( 12-C , 15-H ) :   0.9143 B( 12-C , 16-H ) :   0.9191 B( 17-C , 18-C ) :   1.0949
B( 17-C , 19-H ) :   0.8802 B( 18-C , 20-C ) :   1.4345 B( 18-C , 22-S ) :   1.1514
B( 20-C , 21-C ) :   1.3214 B( 20-C , 24-H ) :   0.8309 B( 21-C , 23-C ) :   1.4801
B( 21-C , 25-H ) :   0.9035 B( 22-S , 23-C ) :   1.2670 B( 23-C , 26-H ) :   0.8938
B( 30-O , 32-C ) :   1.4694 B( 31-O , 32-C ) :   1.3896 B( 32-C , 33-C ) :   0.9551
B( 33-C , 34-H ) :   0.8966 B( 33-C , 35-H ) :   0.8902 B( 33-C , 36-H ) :   0.9028

Dispersion correction           -0.029411379
FINAL SINGLE POINT ENERGY     -1288.413941473377
Dispersion correction            ... done

DIPOLE MOMENT
-------------
                                X             Y             Z
Electronic contribution:     24.63877     -60.40738     126.11726
Nuclear contribution   :    -24.75444      59.72831    -126.33010
                        -----------------------------------------
Total Dipole Moment    :     -0.11567      -0.67908      -0.21284
                        -----------------------------------------
Magnitude (a.u.)       :      0.72099
Magnitude (Debye)      :      1.83261

Rotational constants in cm-1:     0.011313     0.007684     0.006910
Rotational constants in MHz :   339.167164   230.352149   207.152855

                             ****ORCA TERMINATED NORMALLY****
TOTAL RUN TIME: 0 days 0 hours 17 minutes 38 seconds 754 msec
