                         Program Version 5.0.3 -  RELEASE  -
|  1> ! EnGrad PBEh-3c
|  2> %output
|  3> xyzfile=True
|  4> end
|  5> %scf
|  6> maxiter 250
|  7> end
|  8> %output
|  9> Print[P_Hirshfeld] = 1
| 10> end
| 11> % maxcore
| 12> 4000
| 13> *xyz 1 1
| 14> Ir   0.45926297  -0.65370496   1.04188169
| 15> C   -0.04096886  -2.61364871   1.86059819
| 16> C    1.07486378  -2.08158285   2.58504435
| 17> C    1.68968481  -2.36092520   0.38701855
| 18> C    0.36676355  -2.83779986   0.52822417
| 19> C    2.12044074  -1.89340757   1.65558335
| 20> N   -0.92593467   0.04769498  -0.40223194
| 21> C   -2.36221102   0.15405675   0.00640175
| 22> C   -2.83265174   1.59949345   0.11532027
| 23> H   -3.85761326   1.61159544   0.47892948
| 24> H   -2.82392623   2.10116667  -0.85824450
| 25> H   -2.22449935   2.17419038   0.82070029
| 26> C   -3.28793164  -0.65229015  -0.89610175
| 27> H   -2.41651897  -0.28648243   1.01065617
| 28> H   -4.27827976  -0.68917447  -0.45123453
| 29> H   -3.41274947  -0.20445066  -1.88534347
| 30> H   -2.94451695  -1.68584417  -1.02672380
| 31> C   -0.61333107   0.29673467  -1.61910695
| 32> C    0.69665743   0.22368084  -2.22450125
| 33> H   -1.44641483   0.55621667  -2.29382363
| 34> C    1.95180740   0.36676420  -1.77314805
| 35> C    2.96006766   0.10845169  -2.69164727
| 36> S    0.74608727  -0.03938306  -3.93778034
| 37> C    2.43806208  -0.07775619  -3.94493370
| 38> H    2.21187847   0.80101318  -0.77110486
| 39> H    4.00467486   0.15183634  -2.47723226
| 40> H    3.00381212  -0.22026877  -4.85207582
| 41> H   -0.93956315  -3.01089945   2.31435864
| 42> H    1.09736799  -1.88156447   3.64037840
| 43> H    3.09817861  -1.48478777   1.87702467
| 44> O    1.47629929   1.39593226   0.93050202
| 45> O   -0.19590872   0.98603089   2.17539041
| 46> C    0.62928287   1.83094527   1.78310020
| 47> C    0.62081682   3.23361596   2.29789417
| 48> H    0.77125810   3.96269838   1.50638053
| 49> H    1.43220130   3.39097944   3.01454537
| 50> H   -0.32074954   3.46799109   2.81959557
| 51> H    2.29626608  -2.45647868  -0.50808908
| 52> H   -0.22516619  -3.33118004  -0.23484499
| 53> *
| 54>
| 55>                          ****END OF INPUT****

CARTESIAN COORDINATES (ANGSTROEM)
---------------------------------
  Ir     0.459263   -0.653705    1.041882
  C     -0.040969   -2.613649    1.860598
  C      1.074864   -2.081583    2.585044
  C      1.689685   -2.360925    0.387019
  C      0.366764   -2.837800    0.528224
  C      2.120441   -1.893408    1.655583
  N     -0.925935    0.047695   -0.402232
  C     -2.362211    0.154057    0.006402
  C     -2.832652    1.599493    0.115320
  H     -3.857613    1.611595    0.478929
  H     -2.823926    2.101167   -0.858244
  H     -2.224499    2.174190    0.820700
  C     -3.287932   -0.652290   -0.896102
  H     -2.416519   -0.286482    1.010656
  H     -4.278280   -0.689174   -0.451235
  H     -3.412749   -0.204451   -1.885343
  H     -2.944517   -1.685844   -1.026724
  C     -0.613331    0.296735   -1.619107
  C      0.696657    0.223681   -2.224501
  H     -1.446415    0.556217   -2.293824
  C      1.951807    0.366764   -1.773148
  C      2.960068    0.108452   -2.691647
  S      0.746087   -0.039383   -3.937780
  C      2.438062   -0.077756   -3.944934
  H      2.211878    0.801013   -0.771105
  H      4.004675    0.151836   -2.477232
  H      3.003812   -0.220269   -4.852076
  H     -0.939563   -3.010899    2.314359
  H      1.097368   -1.881564    3.640378
  H      3.098179   -1.484788    1.877025
  O      1.476299    1.395932    0.930502
  O     -0.195909    0.986031    2.175390
  C      0.629283    1.830945    1.783100
  C      0.620817    3.233616    2.297894
  H      0.771258    3.962698    1.506381
  H      1.432201    3.390979    3.014545
  H     -0.320750    3.467991    2.819596
  H      2.296266   -2.456479   -0.508089
  H     -0.225166   -3.331180   -0.234845

 Total Charge           Charge          ....    1
 Multiplicity           Mult            ....    1
 Number of Electrons    NEL             ....  164
 Basis Dimension        Dim             ....  358

ORBITAL ENERGIES
----------------

  NO   OCC          E(Eh)            E(eV)
   0   2.0000     -89.739836     -2441.9451
   1   2.0000     -19.640265      -534.4388
   2   2.0000     -19.626185      -534.0557
   3   2.0000     -14.826172      -403.4407
   4   2.0000     -10.700912      -291.1866
   5   2.0000     -10.654718      -289.9296
   6   2.0000     -10.636396      -289.4311
   7   2.0000     -10.628425      -289.2142
   8   2.0000     -10.627942      -289.2010
   9   2.0000     -10.627545      -289.1902
  10   2.0000     -10.624335      -289.1029
  11   2.0000     -10.610499      -288.7264
  12   2.0000     -10.603630      -288.5394
  13   2.0000     -10.597353      -288.3686
  14   2.0000     -10.571674      -287.6699
  15   2.0000     -10.563359      -287.4436
  16   2.0000     -10.556442      -287.2554
  17   2.0000     -10.549461      -287.0654
  18   2.0000     -10.543426      -286.9012
  19   2.0000      -8.379670      -228.0224
  20   2.0000      -6.269749      -170.6085
  21   2.0000      -6.266290      -170.5144
  22   2.0000      -6.264206      -170.4577
  23   2.0000      -4.029329      -109.6436
  24   2.0000      -2.348189       -63.8975
  25   2.0000      -2.312975       -62.9392
  26   2.0000      -2.310661       -62.8763
  27   2.0000      -1.343515       -36.5589
  28   2.0000      -1.214287       -33.0424
  29   2.0000      -1.190972       -32.4080
  30   2.0000      -1.173544       -31.9338
  31   2.0000      -1.117141       -30.3989
  32   2.0000      -1.009367       -27.4663
  33   2.0000      -0.981865       -26.7179
  34   2.0000      -0.975937       -26.5566
  35   2.0000      -0.956816       -26.0363
  36   2.0000      -0.950381       -25.8612
  37   2.0000      -0.947427       -25.7808
  38   2.0000      -0.890394       -24.2288
  39   2.0000      -0.861955       -23.4550
  40   2.0000      -0.788723       -21.4622
  41   2.0000      -0.784209       -21.3394
  42   2.0000      -0.783191       -21.3117
  43   2.0000      -0.771377       -20.9902
  44   2.0000      -0.766172       -20.8486
  45   2.0000      -0.750958       -20.4346
  46   2.0000      -0.729497       -19.8506
  47   2.0000      -0.713248       -19.4085
  48   2.0000      -0.682360       -18.5680
  49   2.0000      -0.678278       -18.4569
  50   2.0000      -0.676865       -18.4184
  51   2.0000      -0.659792       -17.9539
  52   2.0000      -0.647491       -17.6191
  53   2.0000      -0.640188       -17.4204
  54   2.0000      -0.636164       -17.3109
  55   2.0000      -0.630114       -17.1463
  56   2.0000      -0.619273       -16.8513
  57   2.0000      -0.608803       -16.5664
  58   2.0000      -0.606190       -16.4953
  59   2.0000      -0.602998       -16.4084
  60   2.0000      -0.587974       -15.9996
  61   2.0000      -0.580957       -15.8086
  62   2.0000      -0.571061       -15.5394
  63   2.0000      -0.565752       -15.3949
  64   2.0000      -0.564279       -15.3548
  65   2.0000      -0.559611       -15.2278
  66   2.0000      -0.555579       -15.1181
  67   2.0000      -0.540137       -14.6979
  68   2.0000      -0.534531       -14.5453
  69   2.0000      -0.527026       -14.3411
  70   2.0000      -0.523156       -14.2358
  71   2.0000      -0.514627       -14.0037
  72   2.0000      -0.509159       -13.8549
  73   2.0000      -0.503406       -13.6984
  74   2.0000      -0.497000       -13.5241
  75   2.0000      -0.478838       -13.0299
  76   2.0000      -0.473173       -12.8757
  77   2.0000      -0.460987       -12.5441
  78   2.0000      -0.441256       -12.0072
  79   2.0000      -0.426701       -11.6111
  80   2.0000      -0.412645       -11.2287
  81   2.0000      -0.396350       -10.7852
  82   0.0000      -0.185258        -5.0411
  83   0.0000      -0.167779        -4.5655
  84   0.0000      -0.153702        -4.1824
  85   0.0000      -0.082644        -2.2489
  86   0.0000      -0.079659        -2.1676

MULLIKEN ATOMIC CHARGES
-----------------------
   0 Ir:    0.600759
   1 C :   -0.308246
   2 C :   -0.196767
   3 C :   -0.265203
   4 C :   -0.151446
   5 C :   -0.219723
   6 N :   -0.456009
   7 C :   -0.145822
   8 C :   -0.624876
   9 H :    0.252913
  10 H :    0.220098
  11 H :    0.251105
  12 C :   -0.652322
  13 H :    0.267543
  14 H :    0.263734
  15 H :    0.225719
  16 H :    0.237713
  17 C :    0.056260
  18 C :   -0.214561
  19 H :    0.267845
  20 C :   -0.237900
  21 C :   -0.142145
  22 S :    0.289984
  23 C :   -0.429276
  24 H :    0.334737
  25 H :    0.265868
  26 H :    0.293110
  27 H :    0.287824
  28 H :    0.297335
  29 H :    0.299203
  30 O :   -0.503842
  31 O :   -0.469510
  32 C :    0.669155
  33 C :   -0.779435
  34 H :    0.279572
  35 H :    0.283764
  36 H :    0.270779
  37 H :    0.293739
  38 H :    0.288323
Sum of atomic charges:    1.0000000

LOEWDIN ATOMIC CHARGES
----------------------
   0 Ir:   -0.162056
   1 C :   -0.070010
   2 C :   -0.042432
   3 C :   -0.070848
   4 C :   -0.022188
   5 C :   -0.043098
   6 N :   -0.041563
   7 C :   -0.064169
   8 C :   -0.349152
   9 H :    0.149425
  10 H :    0.132903
  11 H :    0.142013
  12 C :   -0.356672
  13 H :    0.150326
  14 H :    0.153372
  15 H :    0.132753
  16 H :    0.136209
  17 C :    0.038224
  18 C :   -0.234703
  19 H :    0.153090
  20 C :   -0.127588
  21 C :   -0.173517
  22 S :    0.447437
  23 C :   -0.251777
  24 H :    0.192562
  25 H :    0.157379
  26 H :    0.166535
  27 H :    0.183941
  28 H :    0.188905
  29 H :    0.189486
  30 O :   -0.230845
  31 O :   -0.155963
  32 C :    0.178170
  33 C :   -0.377061
  34 H :    0.169149
  35 H :    0.176344
  36 H :    0.164027
  37 H :    0.186588
  38 H :    0.184805

  Mayer bond orders larger than 0.100000
B(  0-Ir,  1-C ) :   0.5158 B(  0-Ir,  2-C ) :   0.4227 B(  0-Ir,  3-C ) :   0.4729
B(  0-Ir,  4-C ) :   0.3905 B(  0-Ir,  5-C ) :   0.4497 B(  0-Ir,  6-N ) :   0.4839
B(  0-Ir, 30-O ) :   0.4539 B(  0-Ir, 31-O ) :   0.5298 B(  1-C ,  2-C ) :   1.1344
B(  1-C ,  4-C ) :   1.1566 B(  1-C , 27-H ) :   0.9157 B(  2-C ,  5-C ) :   1.2312
B(  2-C , 28-H ) :   0.9059 B(  3-C ,  4-C ) :   1.2078 B(  3-C ,  5-C ) :   1.1230
B(  3-C , 37-H ) :   0.9068 B(  4-C , 38-H ) :   0.9099 B(  5-C , 29-H ) :   0.9029
B(  6-N ,  7-C ) :   0.8765 B(  6-N , 17-C ) :   1.6640 B(  7-C ,  8-C ) :   0.9784
B(  7-C , 12-C ) :   0.9808 B(  7-C , 13-H ) :   0.8893 B(  8-C ,  9-H ) :   0.9067
B(  8-C , 10-H ) :   0.9173 B(  8-C , 11-H ) :   0.9106 B( 12-C , 14-H ) :   0.9054
B( 12-C , 15-H ) :   0.9141 B( 12-C , 16-H ) :   0.9195 B( 17-C , 18-C ) :   1.0918
B( 17-C , 19-H ) :   0.8799 B( 18-C , 20-C ) :   1.4304 B( 18-C , 22-S ) :   1.1501
B( 20-C , 21-C ) :   1.3270 B( 20-C , 24-H ) :   0.8289 B( 21-C , 23-C ) :   1.4705
B( 21-C , 25-H ) :   0.9036 B( 22-S , 23-C ) :   1.2746 B( 23-C , 26-H ) :   0.8942
B( 30-O , 32-C ) :   1.4359 B( 31-O , 32-C ) :   1.4218 B( 32-C , 33-C ) :   0.9563
B( 33-C , 34-H ) :   0.8954 B( 33-C , 35-H ) :   0.8892 B( 33-C , 36-H ) :   0.9031

Dispersion correction           -0.029389996
FINAL SINGLE POINT ENERGY     -1288.411238848410
Dispersion correction            ... done

DIPOLE MOMENT
-------------
                                X             Y             Z
Electronic contribution:     25.23325     -61.45193     126.11528
Nuclear contribution   :    -25.37848      60.77358    -126.26089
                        -----------------------------------------
Total Dipole Moment    :     -0.14524      -0.67835      -0.14561
                        -----------------------------------------
Magnitude (a.u.)       :      0.70884
Magnitude (Debye)      :      1.80172

Rotational constants in cm-1:     0.011302     0.007695     0.006913
Rotational constants in MHz :   338.828000   230.679098   207.249882

                             ****ORCA TERMINATED NORMALLY****
TOTAL RUN TIME: 0 days 0 hours 17 minutes 25 seconds 859 msec
