                         Program Version 5.0.3 -  RELEASE  -
|  1> ! EnGrad PBEh-3c
|  2> %output
|  3> xyzfile=True
|  4> end
|  5> %scf
|  6> maxiter 250
|  7> end
|  8> %output
|  9> Print[P_Hirshfeld] = 1
| 10> end
| 11> % maxcore
| 12> 4000
| 13> *xyz 1 1
| 14> Ir   0.46531587  -0.65213209   1.04372461
| 15> C   -0.04772845  -2.61603085   1.84412121
| 16> C    1.05603114  -2.08378052   2.58832422
| 17> C    1.71209803  -2.36511358   0.39984333
| 18> C    0.39131563  -2.84129742   0.51650302
| 19> C    2.12002124  -1.88921482   1.68524081
| 20> N   -0.92630849   0.04587340  -0.40172455
| 21> C   -2.36525833   0.14687899   0.00975020
| 22> C   -2.83194438   1.59459165   0.13329810
| 23> H   -3.86170725   1.59803421   0.49185074
| 24> H   -2.82807498   2.10411023  -0.83592677
| 25> H   -2.22592194   2.15786692   0.84821976
| 26> C   -3.29177708  -0.65112744  -0.90351563
| 27> H   -2.41790634  -0.30514631   1.00666764
| 28> H   -4.28262403  -0.68905077  -0.45407654
| 29> H   -3.42132979  -0.18917247  -1.88498922
| 30> H   -2.95203608  -1.68187673  -1.04535071
| 31> C   -0.62044116   0.30165475  -1.61999077
| 32> C    0.68523594   0.23225592  -2.23099718
| 33> H   -1.44668674   0.55501384  -2.29426024
| 34> C    1.96204542   0.38842992  -1.76254678
| 35> C    2.95784613   0.10464205  -2.69434050
| 36> S    0.74164784  -0.04057554  -3.93531885
| 37> C    2.43592677  -0.08320248  -3.94658957
| 38> H    2.19224314   0.77434563  -0.77638364
| 39> H    4.00364718   0.14730201  -2.47107666
| 40> H    2.99929330  -0.21553998  -4.85125066
| 41> H   -0.95427507  -3.01359120   2.27868350
| 42> H    1.05503686  -1.87349472   3.64311338
| 43> H    3.08930383  -1.47703716   1.92291302
| 44> O    1.47661943   1.37823028   0.91672406
| 45> O   -0.19492259   0.99149344   2.17422427
| 46> C    0.64324234   1.83416154   1.76584081
| 47> C    0.62945233   3.23767538   2.28542425
| 48> H    0.77316457   3.96848700   1.49480951
| 49> H    1.44387566   3.39619230   2.99635304
| 50> H   -0.30627590   3.47158390   2.81186644
| 51> H    2.33022033  -2.43941275  -0.48701579
| 52> H   -0.19244682  -3.32265434  -0.26039372
| 53> *
| 54>
| 55>                          ****END OF INPUT****

CARTESIAN COORDINATES (ANGSTROEM)
---------------------------------
  Ir     0.465316   -0.652132    1.043725
  C     -0.047728   -2.616031    1.844121
  C      1.056031   -2.083781    2.588324
  C      1.712098   -2.365114    0.399843
  C      0.391316   -2.841297    0.516503
  C      2.120021   -1.889215    1.685241
  N     -0.926308    0.045873   -0.401725
  C     -2.365258    0.146879    0.009750
  C     -2.831944    1.594592    0.133298
  H     -3.861707    1.598034    0.491851
  H     -2.828075    2.104110   -0.835927
  H     -2.225922    2.157867    0.848220
  C     -3.291777   -0.651127   -0.903516
  H     -2.417906   -0.305146    1.006668
  H     -4.282624   -0.689051   -0.454077
  H     -3.421330   -0.189172   -1.884989
  H     -2.952036   -1.681877   -1.045351
  C     -0.620441    0.301655   -1.619991
  C      0.685236    0.232256   -2.230997
  H     -1.446687    0.555014   -2.294260
  C      1.962045    0.388430   -1.762547
  C      2.957846    0.104642   -2.694341
  S      0.741648   -0.040576   -3.935319
  C      2.435927   -0.083202   -3.946590
  H      2.192243    0.774346   -0.776384
  H      4.003647    0.147302   -2.471077
  H      2.999293   -0.215540   -4.851251
  H     -0.954275   -3.013591    2.278684
  H      1.055037   -1.873495    3.643113
  H      3.089304   -1.477037    1.922913
  O      1.476619    1.378230    0.916724
  O     -0.194923    0.991493    2.174224
  C      0.643242    1.834162    1.765841
  C      0.629452    3.237675    2.285424
  H      0.773165    3.968487    1.494810
  H      1.443876    3.396192    2.996353
  H     -0.306276    3.471584    2.811866
  H      2.330220   -2.439413   -0.487016
  H     -0.192447   -3.322654   -0.260394

 Total Charge           Charge          ....    1
 Multiplicity           Mult            ....    1
 Number of Electrons    NEL             ....  164
 Basis Dimension        Dim             ....  358

ORBITAL ENERGIES
----------------

  NO   OCC          E(Eh)            E(eV)
   0   2.0000     -89.741022     -2441.9773
   1   2.0000     -19.639740      -534.4245
   2   2.0000     -19.629940      -534.1578
   3   2.0000     -14.825327      -403.4177
   4   2.0000     -10.703333      -291.2525
   5   2.0000     -10.653309      -289.8913
   6   2.0000     -10.636389      -289.4309
   7   2.0000     -10.628322      -289.2113
   8   2.0000     -10.627740      -289.1955
   9   2.0000     -10.627031      -289.1762
  10   2.0000     -10.625093      -289.1235
  11   2.0000     -10.610105      -288.7156
  12   2.0000     -10.604936      -288.5750
  13   2.0000     -10.597435      -288.3709
  14   2.0000     -10.571890      -287.6757
  15   2.0000     -10.564545      -287.4759
  16   2.0000     -10.557650      -287.2883
  17   2.0000     -10.549176      -287.0577
  18   2.0000     -10.543188      -286.8947
  19   2.0000      -8.380773      -228.0524
  20   2.0000      -6.270825      -170.6378
  21   2.0000      -6.267371      -170.5438
  22   2.0000      -6.265391      -170.4900
  23   2.0000      -4.028750      -109.6279
  24   2.0000      -2.347436       -63.8770
  25   2.0000      -2.312445       -62.9248
  26   2.0000      -2.310078       -62.8604
  27   2.0000      -1.341503       -36.5042
  28   2.0000      -1.215164       -33.0663
  29   2.0000      -1.189248       -32.3611
  30   2.0000      -1.171795       -31.8862
  31   2.0000      -1.114587       -30.3294
  32   2.0000      -1.008225       -27.4352
  33   2.0000      -0.981802       -26.7162
  34   2.0000      -0.974285       -26.5116
  35   2.0000      -0.957036       -26.0423
  36   2.0000      -0.951304       -25.8863
  37   2.0000      -0.946429       -25.7536
  38   2.0000      -0.889732       -24.2108
  39   2.0000      -0.861120       -23.4323
  40   2.0000      -0.788746       -21.4629
  41   2.0000      -0.783840       -21.3294
  42   2.0000      -0.783075       -21.3086
  43   2.0000      -0.770600       -20.9691
  44   2.0000      -0.765644       -20.8342
  45   2.0000      -0.752037       -20.4640
  46   2.0000      -0.730603       -19.8807
  47   2.0000      -0.713933       -19.4271
  48   2.0000      -0.681946       -18.5567
  49   2.0000      -0.679219       -18.4825
  50   2.0000      -0.677160       -18.4265
  51   2.0000      -0.659189       -17.9375
  52   2.0000      -0.646847       -17.6016
  53   2.0000      -0.639442       -17.4001
  54   2.0000      -0.635626       -17.2963
  55   2.0000      -0.628877       -17.1126
  56   2.0000      -0.617958       -16.8155
  57   2.0000      -0.607688       -16.5360
  58   2.0000      -0.605122       -16.4662
  59   2.0000      -0.603053       -16.4099
  60   2.0000      -0.588037       -16.0013
  61   2.0000      -0.580854       -15.8058
  62   2.0000      -0.572593       -15.5810
  63   2.0000      -0.565513       -15.3884
  64   2.0000      -0.564494       -15.3607
  65   2.0000      -0.560247       -15.2451
  66   2.0000      -0.557351       -15.1663
  67   2.0000      -0.540369       -14.7042
  68   2.0000      -0.534114       -14.5340
  69   2.0000      -0.527677       -14.3588
  70   2.0000      -0.523118       -14.2348
  71   2.0000      -0.515904       -14.0385
  72   2.0000      -0.509302       -13.8588
  73   2.0000      -0.503709       -13.7066
  74   2.0000      -0.498435       -13.5631
  75   2.0000      -0.479677       -13.0527
  76   2.0000      -0.473321       -12.8797
  77   2.0000      -0.460727       -12.5370
  78   2.0000      -0.440507       -11.9868
  79   2.0000      -0.426521       -11.6062
  80   2.0000      -0.413031       -11.2392
  81   2.0000      -0.394659       -10.7392
  82   0.0000      -0.183382        -4.9901
  83   0.0000      -0.168578        -4.5872
  84   0.0000      -0.154212        -4.1963
  85   0.0000      -0.083610        -2.2752
  86   0.0000      -0.080782        -2.1982

MULLIKEN ATOMIC CHARGES
-----------------------
   0 Ir:    0.599041
   1 C :   -0.311971
   2 C :   -0.193371
   3 C :   -0.261199
   4 C :   -0.149824
   5 C :   -0.227048
   6 N :   -0.455704
   7 C :   -0.144352
   8 C :   -0.625084
   9 H :    0.251509
  10 H :    0.220292
  11 H :    0.251979
  12 C :   -0.653659
  13 H :    0.267132
  14 H :    0.262833
  15 H :    0.226032
  16 H :    0.238683
  17 C :    0.059051
  18 C :   -0.229654
  19 H :    0.267616
  20 C :   -0.229653
  21 C :   -0.146312
  22 S :    0.295691
  23 C :   -0.427201
  24 H :    0.335993
  25 H :    0.264789
  26 H :    0.293585
  27 H :    0.287270
  28 H :    0.298350
  29 H :    0.299005
  30 O :   -0.501562
  31 O :   -0.476163
  32 C :    0.672734
  33 C :   -0.779883
  34 H :    0.279402
  35 H :    0.284246
  36 H :    0.274161
  37 H :    0.294486
  38 H :    0.288760
Sum of atomic charges:    1.0000000

LOEWDIN ATOMIC CHARGES
----------------------
   0 Ir:   -0.162643
   1 C :   -0.073026
   2 C :   -0.040875
   3 C :   -0.069061
   4 C :   -0.021693
   5 C :   -0.045891
   6 N :   -0.042904
   7 C :   -0.063035
   8 C :   -0.349352
   9 H :    0.148973
  10 H :    0.132906
  11 H :    0.142461
  12 C :   -0.357343
  13 H :    0.149973
  14 H :    0.153252
  15 H :    0.132785
  16 H :    0.136496
  17 C :    0.035871
  18 C :   -0.237233
  19 H :    0.152589
  20 C :   -0.123794
  21 C :   -0.172370
  22 S :    0.452760
  23 C :   -0.253243
  24 H :    0.186158
  25 H :    0.157142
  26 H :    0.166711
  27 H :    0.183710
  28 H :    0.189186
  29 H :    0.189081
  30 O :   -0.222781
  31 O :   -0.165367
  32 C :    0.185822
  33 C :   -0.377181
  34 H :    0.168959
  35 H :    0.176420
  36 H :    0.165406
  37 H :    0.186400
  38 H :    0.184730

  Mayer bond orders larger than 0.100000
B(  0-Ir,  1-C ) :   0.5194 B(  0-Ir,  2-C ) :   0.4211 B(  0-Ir,  3-C ) :   0.4661
B(  0-Ir,  4-C ) :   0.3851 B(  0-Ir,  5-C ) :   0.4525 B(  0-Ir,  6-N ) :   0.4832
B(  0-Ir, 30-O ) :   0.4516 B(  0-Ir, 31-O ) :   0.5375 B(  1-C ,  2-C ) :   1.1344
B(  1-C ,  4-C ) :   1.1526 B(  1-C , 27-H ) :   0.9161 B(  2-C ,  5-C ) :   1.2319
B(  2-C , 28-H ) :   0.9048 B(  3-C ,  4-C ) :   1.2170 B(  3-C ,  5-C ) :   1.1213
B(  3-C , 37-H ) :   0.9055 B(  4-C , 38-H ) :   0.9091 B(  5-C , 29-H ) :   0.9031
B(  6-N ,  7-C ) :   0.8759 B(  6-N , 17-C ) :   1.6628 B(  7-C ,  8-C ) :   0.9782
B(  7-C , 12-C ) :   0.9811 B(  7-C , 13-H ) :   0.8897 B(  8-C ,  9-H ) :   0.9071
B(  8-C , 10-H ) :   0.9172 B(  8-C , 11-H ) :   0.9100 B( 12-C , 14-H ) :   0.9057
B( 12-C , 15-H ) :   0.9141 B( 12-C , 16-H ) :   0.9191 B( 17-C , 18-C ) :   1.0964
B( 17-C , 19-H ) :   0.8800 B( 18-C , 20-C ) :   1.4195 B( 18-C , 22-S ) :   1.1578
B( 20-C , 21-C ) :   1.3344 B( 20-C , 24-H ) :   0.8307 B( 21-C , 23-C ) :   1.4646
B( 21-C , 25-H ) :   0.9042 B( 22-S , 23-C ) :   1.2743 B( 23-C , 26-H ) :   0.8947
B( 30-O , 32-C ) :   1.4420 B( 31-O , 32-C ) :   1.4053 B( 32-C , 33-C ) :   0.9571
B( 33-C , 34-H ) :   0.8950 B( 33-C , 35-H ) :   0.8887 B( 33-C , 36-H ) :   0.9020

Dispersion correction           -0.029399755
FINAL SINGLE POINT ENERGY     -1288.415620474643
Dispersion correction            ... done

DIPOLE MOMENT
-------------
                                X             Y             Z
Electronic contribution:     25.81585     -61.23400     126.30873
Nuclear contribution   :    -25.94311      60.59753    -126.46588
                        -----------------------------------------
Total Dipole Moment    :     -0.12726      -0.63647      -0.15715
                        -----------------------------------------
Magnitude (a.u.)       :      0.66782
Magnitude (Debye)      :      1.69746

Rotational constants in cm-1:     0.011287     0.007698     0.006913
Rotational constants in MHz :   338.381143   230.766485   207.247629

                             ****ORCA TERMINATED NORMALLY****
TOTAL RUN TIME: 0 days 0 hours 18 minutes 20 seconds 50 msec
