                         Program Version 5.0.3 -  RELEASE  -
|  1> ! EnGrad PBEh-3c
|  2> %output
|  3> xyzfile=True
|  4> end
|  5> %scf
|  6> maxiter 250
|  7> end
|  8> %output
|  9> Print[P_Hirshfeld] = 1
| 10> end
| 11> % maxcore
| 12> 4000
| 13> *xyz 1 1
| 14> Ir   0.47830510  -0.65679920   1.04245852
| 15> C   -0.06417520  -2.62273274   1.80533857
| 16> C    1.00995585  -2.08578487   2.59458524
| 17> C    1.76759059  -2.36661362   0.43187977
| 18> C    0.44627138  -2.84645976   0.48998683
| 19> C    2.11721717  -1.87998223   1.75391981
| 20> N   -0.92736290   0.04238433  -0.39650517
| 21> C   -2.36946285   0.12891123   0.01649347
| 22> C   -2.83177959   1.57858450   0.17640025
| 23> H   -3.86987110   1.56660446   0.52396984
| 24> H   -2.83574001   2.11139850  -0.77967193
| 25> H   -2.23113616   2.11763958   0.91165585
| 26> C   -3.30151183  -0.64603764  -0.91982959
| 27> H   -2.42079891  -0.34894463   0.99507517
| 28> H   -4.29254678  -0.68929341  -0.46125285
| 29> H   -3.44141855  -0.15294150  -1.88392647
| 30> H   -2.97018713  -1.67061520  -1.09015390
| 31> C   -0.63366897   0.31099428  -1.61989450
| 32> C    0.66898490   0.25871664  -2.24366943
| 33> H   -1.44845356   0.55246894  -2.29606940
| 34> C    1.96162138   0.41834483  -1.74900544
| 35> C    2.95066784   0.10602594  -2.70453818
| 36> S    0.73235014  -0.04381419  -3.93333620
| 37> C    2.42979918  -0.09650993  -3.94249901
| 38> H    2.15386418   0.71948618  -0.77855917
| 39> H    4.00430672   0.13485987  -2.45772380
| 40> H    2.98953678  -0.20674016  -4.85327354
| 41> H   -0.98930870  -3.01844389   2.19122140
| 42> H    0.95259739  -1.85519762   3.65081144
| 43> H    3.06814149  -1.45868563   2.03368152
| 44> O    1.46919325   1.34682653   0.89604343
| 45> O   -0.18775378   1.00517991   2.16888046
| 46> C    0.67592980   1.83176626   1.72226475
| 47> C    0.65044093   3.24781019   2.25457028
| 48> H    0.77859314   3.98284464   1.46479658
| 49> H    1.47285001   3.40775718   2.95250170
| 50> H   -0.26940135   3.47660793   2.79066422
| 51> H    2.41123434  -2.39828532  -0.43359880
| 52> H   -0.11101686  -3.30196765  -0.32102952
| 53> *
| 54>
| 55>                          ****END OF INPUT****

CARTESIAN COORDINATES (ANGSTROEM)
---------------------------------
  Ir     0.478305   -0.656799    1.042459
  C     -0.064175   -2.622733    1.805339
  C      1.009956   -2.085785    2.594585
  C      1.767591   -2.366614    0.431880
  C      0.446271   -2.846460    0.489987
  C      2.117217   -1.879982    1.753920
  N     -0.927363    0.042384   -0.396505
  C     -2.369463    0.128911    0.016493
  C     -2.831780    1.578585    0.176400
  H     -3.869871    1.566604    0.523970
  H     -2.835740    2.111398   -0.779672
  H     -2.231136    2.117640    0.911656
  C     -3.301512   -0.646038   -0.919830
  H     -2.420799   -0.348945    0.995075
  H     -4.292547   -0.689293   -0.461253
  H     -3.441419   -0.152942   -1.883926
  H     -2.970187   -1.670615   -1.090154
  C     -0.633669    0.310994   -1.619894
  C      0.668985    0.258717   -2.243669
  H     -1.448454    0.552469   -2.296069
  C      1.961621    0.418345   -1.749005
  C      2.950668    0.106026   -2.704538
  S      0.732350   -0.043814   -3.933336
  C      2.429799   -0.096510   -3.942499
  H      2.153864    0.719486   -0.778559
  H      4.004307    0.134860   -2.457724
  H      2.989537   -0.206740   -4.853274
  H     -0.989309   -3.018444    2.191221
  H      0.952597   -1.855198    3.650811
  H      3.068141   -1.458686    2.033682
  O      1.469193    1.346827    0.896043
  O     -0.187754    1.005180    2.168880
  C      0.675930    1.831766    1.722265
  C      0.650441    3.247810    2.254570
  H      0.778593    3.982845    1.464797
  H      1.472850    3.407757    2.952502
  H     -0.269401    3.476608    2.790664
  H      2.411234   -2.398285   -0.433599
  H     -0.111017   -3.301968   -0.321030

 Total Charge           Charge          ....    1
 Multiplicity           Mult            ....    1
 Number of Electrons    NEL             ....  164
 Basis Dimension        Dim             ....  358

ORBITAL ENERGIES
----------------

  NO   OCC          E(Eh)            E(eV)
   0   2.0000     -89.741576     -2441.9924
   1   2.0000     -19.636867      -534.3463
   2   2.0000     -19.635208      -534.3012
   3   2.0000     -14.825796      -403.4304
   4   2.0000     -10.704218      -291.2766
   5   2.0000     -10.652882      -289.8797
   6   2.0000     -10.637767      -289.4683
   7   2.0000     -10.630335      -289.2661
   8   2.0000     -10.629159      -289.2341
   9   2.0000     -10.628401      -289.2135
  10   2.0000     -10.627814      -289.1975
  11   2.0000     -10.609777      -288.7067
  12   2.0000     -10.606589      -288.6200
  13   2.0000     -10.596698      -288.3508
  14   2.0000     -10.572002      -287.6788
  15   2.0000     -10.567119      -287.5459
  16   2.0000     -10.557690      -287.2894
  17   2.0000     -10.549186      -287.0580
  18   2.0000     -10.542580      -286.8782
  19   2.0000      -8.381356      -228.0683
  20   2.0000      -6.271413      -170.6538
  21   2.0000      -6.267932      -170.5591
  22   2.0000      -6.266007      -170.5067
  23   2.0000      -4.029069      -109.6365
  24   2.0000      -2.347553       -63.8802
  25   2.0000      -2.312885       -62.9368
  26   2.0000      -2.310442       -62.8703
  27   2.0000      -1.346243       -36.6331
  28   2.0000      -1.219515       -33.1847
  29   2.0000      -1.186947       -32.2985
  30   2.0000      -1.168625       -31.7999
  31   2.0000      -1.112563       -30.2744
  32   2.0000      -1.006622       -27.3916
  33   2.0000      -0.982720       -26.7412
  34   2.0000      -0.972175       -26.4542
  35   2.0000      -0.957352       -26.0509
  36   2.0000      -0.948906       -25.8210
  37   2.0000      -0.945296       -25.7228
  38   2.0000      -0.888745       -24.1840
  39   2.0000      -0.861422       -23.4405
  40   2.0000      -0.789822       -21.4922
  41   2.0000      -0.784593       -21.3499
  42   2.0000      -0.783193       -21.3118
  43   2.0000      -0.770051       -20.9542
  44   2.0000      -0.765033       -20.8176
  45   2.0000      -0.754006       -20.5176
  46   2.0000      -0.732590       -19.9348
  47   2.0000      -0.713030       -19.4025
  48   2.0000      -0.683351       -18.5949
  49   2.0000      -0.680562       -18.5190
  50   2.0000      -0.678843       -18.4722
  51   2.0000      -0.660062       -17.9612
  52   2.0000      -0.646827       -17.6011
  53   2.0000      -0.638732       -17.3808
  54   2.0000      -0.635786       -17.3006
  55   2.0000      -0.627633       -17.0788
  56   2.0000      -0.616378       -16.7725
  57   2.0000      -0.606932       -16.5155
  58   2.0000      -0.604357       -16.4454
  59   2.0000      -0.602740       -16.4014
  60   2.0000      -0.587981       -15.9998
  61   2.0000      -0.582937       -15.8625
  62   2.0000      -0.573880       -15.6161
  63   2.0000      -0.568695       -15.4750
  64   2.0000      -0.564837       -15.3700
  65   2.0000      -0.559633       -15.2284
  66   2.0000      -0.556163       -15.1340
  67   2.0000      -0.540372       -14.7043
  68   2.0000      -0.533521       -14.5179
  69   2.0000      -0.527205       -14.3460
  70   2.0000      -0.523652       -14.2493
  71   2.0000      -0.516948       -14.0669
  72   2.0000      -0.509092       -13.8531
  73   2.0000      -0.505372       -13.7519
  74   2.0000      -0.499361       -13.5883
  75   2.0000      -0.480863       -13.0850
  76   2.0000      -0.474291       -12.9061
  77   2.0000      -0.460954       -12.5432
  78   2.0000      -0.441153       -12.0044
  79   2.0000      -0.427544       -11.6341
  80   2.0000      -0.413259       -11.2453
  81   2.0000      -0.394526       -10.7356
  82   0.0000      -0.181795        -4.9469
  83   0.0000      -0.170056        -4.6275
  84   0.0000      -0.155108        -4.2207
  85   0.0000      -0.082536        -2.2459
  86   0.0000      -0.079543        -2.1645

MULLIKEN ATOMIC CHARGES
-----------------------
   0 Ir:    0.591383
   1 C :   -0.313662
   2 C :   -0.188996
   3 C :   -0.255521
   4 C :   -0.150701
   5 C :   -0.236169
   6 N :   -0.456674
   7 C :   -0.141390
   8 C :   -0.626935
   9 H :    0.249264
  10 H :    0.220761
  11 H :    0.255457
  12 C :   -0.657115
  13 H :    0.266357
  14 H :    0.261808
  15 H :    0.226917
  16 H :    0.240430
  17 C :    0.062503
  18 C :   -0.241910
  19 H :    0.267926
  20 C :   -0.213433
  21 C :   -0.150400
  22 S :    0.298897
  23 C :   -0.425904
  24 H :    0.329560
  25 H :    0.262995
  26 H :    0.293748
  27 H :    0.287052
  28 H :    0.301420
  29 H :    0.299250
  30 O :   -0.481628
  31 O :   -0.488518
  32 C :    0.666461
  33 C :   -0.778065
  34 H :    0.276276
  35 H :    0.282255
  36 H :    0.279501
  37 H :    0.296437
  38 H :    0.290362
Sum of atomic charges:    1.0000000

LOEWDIN ATOMIC CHARGES
----------------------
   0 Ir:   -0.165370
   1 C :   -0.075869
   2 C :   -0.036288
   3 C :   -0.063924
   4 C :   -0.021779
   5 C :   -0.050813
   6 N :   -0.044147
   7 C :   -0.061540
   8 C :   -0.350087
   9 H :    0.148169
  10 H :    0.132905
  11 H :    0.144005
  12 C :   -0.358724
  13 H :    0.149291
  14 H :    0.153311
  15 H :    0.132984
  16 H :    0.136873
  17 C :    0.035308
  18 C :   -0.238591
  19 H :    0.152243
  20 C :   -0.120115
  21 C :   -0.170357
  22 S :    0.454894
  23 C :   -0.256056
  24 H :    0.176039
  25 H :    0.157323
  26 H :    0.167563
  27 H :    0.183743
  28 H :    0.190894
  29 H :    0.188970
  30 O :   -0.190190
  31 O :   -0.185274
  32 C :    0.183784
  33 C :   -0.377844
  34 H :    0.166706
  35 H :    0.174471
  36 H :    0.166200
  37 H :    0.186338
  38 H :    0.184953

  Mayer bond orders larger than 0.100000
B(  0-Ir,  1-C ) :   0.5301 B(  0-Ir,  2-C ) :   0.4211 B(  0-Ir,  3-C ) :   0.4578
B(  0-Ir,  4-C ) :   0.3808 B(  0-Ir,  5-C ) :   0.4585 B(  0-Ir,  6-N ) :   0.4805
B(  0-Ir, 30-O ) :   0.4383 B(  0-Ir, 31-O ) :   0.5539 B(  1-C ,  2-C ) :   1.1324
B(  1-C ,  4-C ) :   1.1421 B(  1-C , 27-H ) :   0.9164 B(  2-C ,  5-C ) :   1.2310
B(  2-C , 28-H ) :   0.9018 B(  3-C ,  4-C ) :   1.2315 B(  3-C ,  5-C ) :   1.1156
B(  3-C , 37-H ) :   0.9027 B(  4-C , 38-H ) :   0.9069 B(  5-C , 29-H ) :   0.9029
B(  6-N ,  7-C ) :   0.8758 B(  6-N , 17-C ) :   1.6641 B(  7-C ,  8-C ) :   0.9775
B(  7-C , 12-C ) :   0.9817 B(  7-C , 13-H ) :   0.8904 B(  8-C ,  9-H ) :   0.9078
B(  8-C , 10-H ) :   0.9170 B(  8-C , 11-H ) :   0.9078 B( 12-C , 14-H ) :   0.9061
B( 12-C , 15-H ) :   0.9142 B( 12-C , 16-H ) :   0.9185 B( 17-C , 18-C ) :   1.0973
B( 17-C , 19-H ) :   0.8798 B( 18-C , 20-C ) :   1.4167 B( 18-C , 22-S ) :   1.1647
B( 20-C , 21-C ) :   1.3313 B( 20-C , 24-H ) :   0.8378 B( 21-C , 23-C ) :   1.4707
B( 21-C , 25-H ) :   0.9048 B( 22-S , 23-C ) :   1.2656 B( 23-C , 26-H ) :   0.8951
B( 30-O , 32-C ) :   1.4806 B( 31-O , 32-C ) :   1.3689 B( 32-C , 33-C ) :   0.9548
B( 33-C , 34-H ) :   0.8961 B( 33-C , 35-H ) :   0.8901 B( 33-C , 36-H ) :   0.9004

Dispersion correction           -0.029410774
FINAL SINGLE POINT ENERGY     -1288.413808673962
Dispersion correction            ... done

DIPOLE MOMENT
-------------
                                X             Y             Z
Electronic contribution:     27.10031     -61.63344     126.22600
Nuclear contribution   :    -27.18795      61.01326    -126.40741
                        -----------------------------------------
Total Dipole Moment    :     -0.08764      -0.62018      -0.18141
                        -----------------------------------------
Magnitude (a.u.)       :      0.65208
Magnitude (Debye)      :      1.65746

Rotational constants in cm-1:     0.011262     0.007708     0.006917
Rotational constants in MHz :   337.627415   231.091518   207.376870

                             ****ORCA TERMINATED NORMALLY****
TOTAL RUN TIME: 0 days 0 hours 18 minutes 28 seconds 653 msec
