                         Program Version 5.0.3 -  RELEASE  -
|  1> ! EnGrad PBEh-3c
|  2> %output
|  3> xyzfile=True
|  4> end
|  5> %scf
|  6> maxiter 250
|  7> end
|  8> %output
|  9> Print[P_Hirshfeld] = 1
| 10> end
| 11> % maxcore
| 12> 4000
| 13> *xyz 1 1
| 14> Ir   0.46861078  -0.65331597   1.04340345
| 15> C   -0.05190040  -2.61773088   1.83428343
| 16> C    1.04434347  -2.08428895   2.58991242
| 17> C    1.72617453  -2.36549408   0.40796984
| 18> C    0.40525596  -2.84260692   0.50977680
| 19> C    2.11930994  -1.88687284   1.70266225
| 20> N   -0.92657596   0.04498835  -0.40040058
| 21> C   -2.36632487   0.14232120   0.01146073
| 22> C   -2.83190258   1.59053120   0.14423159
| 23> H   -3.86377813   1.59006159   0.49999822
| 24> H   -2.83001932   2.10595900  -0.82165690
| 25> H   -2.22724460   2.14766267   0.86431125
| 26> C   -3.29424644  -0.64983634  -0.90765390
| 27> H   -2.41864008  -0.31625640   1.00372704
| 28> H   -4.28514108  -0.68911232  -0.45589691
| 29> H   -3.42642559  -0.17998195  -1.88471964
| 30> H   -2.95664036  -1.67902008  -1.05671569
| 31> C   -0.62379659   0.30402385  -1.61996635
| 32> C    0.68111363   0.23896807  -2.23421168
| 33> H   -1.44713492   0.55436829  -2.29471916
| 34> C    1.96193786   0.39601828  -1.75911182
| 35> C    2.95602525   0.10499309  -2.69692729
| 36> S    0.73928934  -0.04139707  -3.93481592
| 37> C    2.43437242  -0.08657811  -3.94555194
| 38> H    2.18250775   0.76042972  -0.77693549
| 39> H    4.00381448   0.14414588  -2.46768951
| 40> H    2.99681842  -0.21330778  -4.85176379
| 41> H   -0.96316186  -3.01482216   2.25649745
| 42> H    1.02905159  -1.86885339   3.64506611
| 43> H    3.08393569  -1.47238202   1.95101107
| 44> O    1.47473567   1.37026426   0.91147812
| 45> O   -0.19310411   0.99496521   2.17286874
| 46> C    0.65153400   1.83355394   1.75478711
| 47> C    0.63477640   3.24024622   2.27759769
| 48> H    0.77454160   3.97212903   1.48719629
| 49> H    1.45122542   3.39912591   2.98522950
| 50> H   -0.29692213   3.47285832   2.80648818
| 51> H    2.35077072  -2.42898017  -0.47346579
| 52> H   -0.17179092  -3.31740686  -0.27577488
| 53> *
| 54>
| 55>                          ****END OF INPUT****

CARTESIAN COORDINATES (ANGSTROEM)
---------------------------------
  Ir     0.468611   -0.653316    1.043403
  C     -0.051900   -2.617731    1.834283
  C      1.044343   -2.084289    2.589912
  C      1.726175   -2.365494    0.407970
  C      0.405256   -2.842607    0.509777
  C      2.119310   -1.886873    1.702662
  N     -0.926576    0.044988   -0.400401
  C     -2.366325    0.142321    0.011461
  C     -2.831903    1.590531    0.144232
  H     -3.863778    1.590062    0.499998
  H     -2.830019    2.105959   -0.821657
  H     -2.227245    2.147663    0.864311
  C     -3.294246   -0.649836   -0.907654
  H     -2.418640   -0.316256    1.003727
  H     -4.285141   -0.689112   -0.455897
  H     -3.426426   -0.179982   -1.884720
  H     -2.956640   -1.679020   -1.056716
  C     -0.623797    0.304024   -1.619966
  C      0.681114    0.238968   -2.234212
  H     -1.447135    0.554368   -2.294719
  C      1.961938    0.396018   -1.759112
  C      2.956025    0.104993   -2.696927
  S      0.739289   -0.041397   -3.934816
  C      2.434372   -0.086578   -3.945552
  H      2.182508    0.760430   -0.776935
  H      4.003814    0.144146   -2.467690
  H      2.996818   -0.213308   -4.851764
  H     -0.963162   -3.014822    2.256497
  H      1.029052   -1.868853    3.645066
  H      3.083936   -1.472382    1.951011
  O      1.474736    1.370264    0.911478
  O     -0.193104    0.994965    2.172869
  C      0.651534    1.833554    1.754787
  C      0.634776    3.240246    2.277598
  H      0.774542    3.972129    1.487196
  H      1.451225    3.399126    2.985229
  H     -0.296922    3.472858    2.806488
  H      2.350771   -2.428980   -0.473466
  H     -0.171791   -3.317407   -0.275775

 Total Charge           Charge          ....    1
 Multiplicity           Mult            ....    1
 Number of Electrons    NEL             ....  164
 Basis Dimension        Dim             ....  358

ORBITAL ENERGIES
----------------

  NO   OCC          E(Eh)            E(eV)
   0   2.0000     -89.741157     -2441.9810
   1   2.0000     -19.638580      -534.3929
   2   2.0000     -19.631687      -534.2054
   3   2.0000     -14.825432      -403.4205
   4   2.0000     -10.703526      -291.2577
   5   2.0000     -10.653191      -289.8881
   6   2.0000     -10.636682      -289.4388
   7   2.0000     -10.628719      -289.2221
   8   2.0000     -10.628047      -289.2039
   9   2.0000     -10.627169      -289.1800
  10   2.0000     -10.625874      -289.1447
  11   2.0000     -10.609992      -288.7126
  12   2.0000     -10.605337      -288.5859
  13   2.0000     -10.597246      -288.3657
  14   2.0000     -10.571880      -287.6755
  15   2.0000     -10.565166      -287.4928
  16   2.0000     -10.557617      -287.2874
  17   2.0000     -10.549148      -287.0569
  18   2.0000     -10.543005      -286.8898
  19   2.0000      -8.380915      -228.0563
  20   2.0000      -6.270968      -170.6417
  21   2.0000      -6.267508      -170.5476
  22   2.0000      -6.265542      -170.4941
  23   2.0000      -4.028838      -109.6303
  24   2.0000      -2.347482       -63.8782
  25   2.0000      -2.312561       -62.9280
  26   2.0000      -2.310174       -62.8630
  27   2.0000      -1.342253       -36.5246
  28   2.0000      -1.216745       -33.1093
  29   2.0000      -1.188678       -32.3456
  30   2.0000      -1.171174       -31.8693
  31   2.0000      -1.114061       -30.3152
  32   2.0000      -1.007830       -27.4245
  33   2.0000      -0.982114       -26.7247
  34   2.0000      -0.973861       -26.5001
  35   2.0000      -0.957113       -26.0444
  36   2.0000      -0.950655       -25.8686
  37   2.0000      -0.946136       -25.7457
  38   2.0000      -0.889497       -24.2044
  39   2.0000      -0.861168       -23.4336
  40   2.0000      -0.788985       -21.4694
  41   2.0000      -0.783971       -21.3329
  42   2.0000      -0.783312       -21.3150
  43   2.0000      -0.770580       -20.9686
  44   2.0000      -0.765366       -20.8267
  45   2.0000      -0.752397       -20.4738
  46   2.0000      -0.731119       -19.8948
  47   2.0000      -0.713903       -19.4263
  48   2.0000      -0.682065       -18.5599
  49   2.0000      -0.679714       -18.4960
  50   2.0000      -0.677608       -18.4387
  51   2.0000      -0.659302       -17.9405
  52   2.0000      -0.646836       -17.6013
  53   2.0000      -0.639298       -17.3962
  54   2.0000      -0.635692       -17.2981
  55   2.0000      -0.628616       -17.1055
  56   2.0000      -0.617550       -16.8044
  57   2.0000      -0.607480       -16.5304
  58   2.0000      -0.604846       -16.4587
  59   2.0000      -0.603245       -16.4151
  60   2.0000      -0.588018       -16.0008
  61   2.0000      -0.581033       -15.8107
  62   2.0000      -0.573107       -15.5950
  63   2.0000      -0.565945       -15.4001
  64   2.0000      -0.564231       -15.3535
  65   2.0000      -0.560741       -15.2585
  66   2.0000      -0.557202       -15.1622
  67   2.0000      -0.540501       -14.7078
  68   2.0000      -0.533968       -14.5300
  69   2.0000      -0.527681       -14.3589
  70   2.0000      -0.523320       -14.2403
  71   2.0000      -0.516247       -14.0478
  72   2.0000      -0.509273       -13.8580
  73   2.0000      -0.504071       -13.7165
  74   2.0000      -0.498913       -13.5761
  75   2.0000      -0.480097       -13.0641
  76   2.0000      -0.473663       -12.8890
  77   2.0000      -0.460809       -12.5393
  78   2.0000      -0.440689       -11.9918
  79   2.0000      -0.426810       -11.6141
  80   2.0000      -0.413088       -11.2407
  81   2.0000      -0.394645       -10.7388
  82   0.0000      -0.182954        -4.9784
  83   0.0000      -0.168930        -4.5968
  84   0.0000      -0.154453        -4.2029
  85   0.0000      -0.083292        -2.2665
  86   0.0000      -0.080434        -2.1887

MULLIKEN ATOMIC CHARGES
-----------------------
   0 Ir:    0.597071
   1 C :   -0.312520
   2 C :   -0.192129
   3 C :   -0.259690
   4 C :   -0.149892
   5 C :   -0.229441
   6 N :   -0.455996
   7 C :   -0.143634
   8 C :   -0.625532
   9 H :    0.250947
  10 H :    0.220406
  11 H :    0.252842
  12 C :   -0.654543
  13 H :    0.266961
  14 H :    0.262569
  15 H :    0.226271
  16 H :    0.239127
  17 C :    0.059694
  18 C :   -0.232698
  19 H :    0.267694
  20 C :   -0.226311
  21 C :   -0.147095
  22 S :    0.296620
  23 C :   -0.427070
  24 H :    0.335114
  25 H :    0.264345
  26 H :    0.293633
  27 H :    0.287203
  28 H :    0.299126
  29 H :    0.299070
  30 O :   -0.496731
  31 O :   -0.479334
  32 C :    0.671438
  33 C :   -0.779477
  34 H :    0.278575
  35 H :    0.283725
  36 H :    0.275529
  37 H :    0.294989
  38 H :    0.289143
Sum of atomic charges:    1.0000000

LOEWDIN ATOMIC CHARGES
----------------------
   0 Ir:   -0.163096
   1 C :   -0.073774
   2 C :   -0.039657
   3 C :   -0.067724
   4 C :   -0.021631
   5 C :   -0.047187
   6 N :   -0.043244
   7 C :   -0.062669
   8 C :   -0.349525
   9 H :    0.148774
  10 H :    0.132900
  11 H :    0.142835
  12 C :   -0.357693
  13 H :    0.149802
  14 H :    0.153270
  15 H :    0.132832
  16 H :    0.136589
  17 C :    0.035733
  18 C :   -0.237624
  19 H :    0.152496
  20 C :   -0.122845
  21 C :   -0.171879
  22 S :    0.453316
  23 C :   -0.253916
  24 H :    0.183650
  25 H :    0.157191
  26 H :    0.166914
  27 H :    0.183695
  28 H :    0.189580
  29 H :    0.189025
  30 O :   -0.214595
  31 O :   -0.170390
  32 C :    0.185234
  33 C :   -0.377388
  34 H :    0.168363
  35 H :    0.175910
  36 H :    0.165613
  37 H :    0.186362
  38 H :    0.184751

  Mayer bond orders larger than 0.100000
B(  0-Ir,  1-C ) :   0.5221 B(  0-Ir,  2-C ) :   0.4211 B(  0-Ir,  3-C ) :   0.4641
B(  0-Ir,  4-C ) :   0.3840 B(  0-Ir,  5-C ) :   0.4540 B(  0-Ir,  6-N ) :   0.4826
B(  0-Ir, 30-O ) :   0.4482 B(  0-Ir, 31-O ) :   0.5416 B(  1-C ,  2-C ) :   1.1339
B(  1-C ,  4-C ) :   1.1500 B(  1-C , 27-H ) :   0.9162 B(  2-C ,  5-C ) :   1.2319
B(  2-C , 28-H ) :   0.9040 B(  3-C ,  4-C ) :   1.2207 B(  3-C ,  5-C ) :   1.1199
B(  3-C , 37-H ) :   0.9049 B(  4-C , 38-H ) :   0.9085 B(  5-C , 29-H ) :   0.9030
B(  6-N ,  7-C ) :   0.8759 B(  6-N , 17-C ) :   1.6631 B(  7-C ,  8-C ) :   0.9780
B(  7-C , 12-C ) :   0.9813 B(  7-C , 13-H ) :   0.8899 B(  8-C ,  9-H ) :   0.9073
B(  8-C , 10-H ) :   0.9172 B(  8-C , 11-H ) :   0.9094 B( 12-C , 14-H ) :   0.9058
B( 12-C , 15-H ) :   0.9141 B( 12-C , 16-H ) :   0.9190 B( 17-C , 18-C ) :   1.0967
B( 17-C , 19-H ) :   0.8800 B( 18-C , 20-C ) :   1.4184 B( 18-C , 22-S ) :   1.1596
B( 20-C , 21-C ) :   1.3338 B( 20-C , 24-H ) :   0.8321 B( 21-C , 23-C ) :   1.4660
B( 21-C , 25-H ) :   0.9044 B( 22-S , 23-C ) :   1.2721 B( 23-C , 26-H ) :   0.8948
B( 30-O , 32-C ) :   1.4516 B( 31-O , 32-C ) :   1.3961 B( 32-C , 33-C ) :   0.9565
B( 33-C , 34-H ) :   0.8953 B( 33-C , 35-H ) :   0.8891 B( 33-C , 36-H ) :   0.9016

Dispersion correction           -0.029402876
FINAL SINGLE POINT ENERGY     -1288.416395599130
Dispersion correction            ... done

DIPOLE MOMENT
-------------
                                X             Y             Z
Electronic contribution:     26.14190     -61.33623     126.28768
Nuclear contribution   :    -26.25888      60.70298    -126.45105
                        -----------------------------------------
Total Dipole Moment    :     -0.11698      -0.63324      -0.16337
                        -----------------------------------------
Magnitude (a.u.)       :      0.66436
Magnitude (Debye)      :      1.68867

Rotational constants in cm-1:     0.011281     0.007701     0.006914
Rotational constants in MHz :   338.198355   230.855688   207.286322

                             ****ORCA TERMINATED NORMALLY****
TOTAL RUN TIME: 0 days 0 hours 18 minutes 33 seconds 566 msec
