                         Program Version 5.0.3 -  RELEASE  -
|  1> ! EnGrad PBEh-3c
|  2> %output
|  3> xyzfile=True
|  4> end
|  5> %scf
|  6> maxiter 250
|  7> end
|  8> %output
|  9> Print[P_Hirshfeld] = 1
| 10> end
| 11> % maxcore
| 12> 4000
| 13> *xyz 0 1
| 14> Lu   0.36466704   0.33243862  -0.21346055
| 15> C    0.43538466   1.00616103   2.47369114
| 16> C    1.38292673  -0.01329506   2.22017108
| 17> C    2.31095225   0.45213833   1.26817846
| 18> C    1.95651873   1.79092220   0.97882922
| 19> C    0.72198355   2.07797486   1.61145935
| 20> H    2.50428700   2.45663678   0.32636305
| 21> H    0.20687601   3.02783756   1.60832512
| 22> H   -0.36377431   0.97864211   3.20227123
| 23> H    1.41223825  -0.98213929   2.70180397
| 24> H    3.19691831  -0.06606297   0.93039427
| 25> C    1.02538724  -0.08213007  -2.58900299
| 26> C   -0.29021788  -0.59806632  -2.56196964
| 27> C    1.04521691  -1.95160159  -1.30431053
| 28> C    1.84099440  -0.87888119  -1.75482616
| 29> H    1.33726139   0.80551729  -3.12002442
| 30> C   -0.22083014  -1.84935017  -1.92936842
| 31> H   -1.12436950  -0.25565813  -3.15545078
| 32> H    2.89505818  -0.74510909  -1.56164560
| 33> H    1.37765300  -2.77036338  -0.67967149
| 34> H   -1.04132549  -2.55316438  -1.86970389
| 35> C   -2.66204421  -1.63947673   1.41393088
| 36> H   -2.57765095  -1.44354990   2.47245761
| 37> H   -2.98234383  -2.63294259   1.14151971
| 38> H   -3.07338189  -0.84934645   0.80933383
| 39> C   -1.92295995   1.73271817  -0.70178419
| 40> H   -1.18117528  -1.33318620   0.89540322
| 41> H   -1.45147128   2.51871084  -1.30228721
| 42> H   -2.51104608   2.25967204   0.05247239
| 43> H   -2.61174286   1.20495715  -1.36309877
| 44> *
| 45>
| 46>                          ****END OF INPUT****

CARTESIAN COORDINATES (ANGSTROEM)
---------------------------------
  Lu     0.364667    0.332439   -0.213461
  C      0.435385    1.006161    2.473691
  C      1.382927   -0.013295    2.220171
  C      2.310952    0.452138    1.268178
  C      1.956519    1.790922    0.978829
  C      0.721984    2.077975    1.611459
  H      2.504287    2.456637    0.326363
  H      0.206876    3.027838    1.608325
  H     -0.363774    0.978642    3.202271
  H      1.412238   -0.982139    2.701804
  H      3.196918   -0.066063    0.930394
  C      1.025387   -0.082130   -2.589003
  C     -0.290218   -0.598066   -2.561970
  C      1.045217   -1.951602   -1.304311
  C      1.840994   -0.878881   -1.754826
  H      1.337261    0.805517   -3.120024
  C     -0.220830   -1.849350   -1.929368
  H     -1.124369   -0.255658   -3.155451
  H      2.895058   -0.745109   -1.561646
  H      1.377653   -2.770363   -0.679671
  H     -1.041325   -2.553164   -1.869704
  C     -2.662044   -1.639477    1.413931
  H     -2.577651   -1.443550    2.472458
  H     -2.982344   -2.632943    1.141520
  H     -3.073382   -0.849346    0.809334
  C     -1.922960    1.732718   -0.701784
  H     -1.181175   -1.333186    0.895403
  H     -1.451471    2.518711   -1.302287
  H     -2.511046    2.259672    0.052472
  H     -2.611743    1.204957   -1.363099

 Total Charge           Charge          ....    0
 Multiplicity           Mult            ....    1
 Number of Electrons    NEL             ....  132
 Basis Dimension        Dim             ....  295

ORBITAL ENERGIES
----------------

  NO   OCC          E(Eh)            E(eV)
   0   2.0000     -19.254543      -523.9427
   1   2.0000     -12.627215      -343.6040
   2   2.0000     -12.624310      -343.5249
   3   2.0000     -12.624144      -343.5204
   4   2.0000     -10.486525      -285.3529
   5   2.0000     -10.451086      -284.3885
   6   2.0000     -10.450426      -284.3705
   7   2.0000     -10.450098      -284.3616
   8   2.0000     -10.447995      -284.3044
   9   2.0000     -10.447231      -284.2836
  10   2.0000     -10.447050      -284.2787
  11   2.0000     -10.446161      -284.2545
  12   2.0000     -10.445087      -284.2253
  13   2.0000     -10.444980      -284.2224
  14   2.0000     -10.441379      -284.1244
  15   2.0000     -10.356028      -281.8019
  16   2.0000      -5.896176      -160.4431
  17   2.0000      -5.895753      -160.4316
  18   2.0000      -5.895406      -160.4221
  19   2.0000      -5.893675      -160.3750
  20   2.0000      -5.893567      -160.3721
  21   2.0000      -2.438097       -66.3440
  22   2.0000      -1.277859       -34.7723
  23   2.0000      -1.276284       -34.7294
  24   2.0000      -1.264242       -34.4018
  25   2.0000      -0.982874       -26.7454
  26   2.0000      -0.972557       -26.4646
  27   2.0000      -0.798039       -21.7157
  28   2.0000      -0.795648       -21.6507
  29   2.0000      -0.794486       -21.6191
  30   2.0000      -0.791797       -21.5459
  31   2.0000      -0.782473       -21.2922
  32   2.0000      -0.679895       -18.5009
  33   2.0000      -0.618436       -16.8285
  34   2.0000      -0.614406       -16.7188
  35   2.0000      -0.612043       -16.6545
  36   2.0000      -0.610276       -16.6065
  37   2.0000      -0.598750       -16.2928
  38   2.0000      -0.593414       -16.1476
  39   2.0000      -0.564070       -15.3491
  40   2.0000      -0.562647       -15.3104
  41   2.0000      -0.561925       -15.2907
  42   2.0000      -0.561064       -15.2673
  43   2.0000      -0.560900       -15.2629
  44   2.0000      -0.558790       -15.2054
  45   2.0000      -0.557987       -15.1836
  46   2.0000      -0.492191       -13.3932
  47   2.0000      -0.489320       -13.3151
  48   2.0000      -0.468392       -12.7456
  49   2.0000      -0.458565       -12.4782
  50   2.0000      -0.454793       -12.3755
  51   2.0000      -0.451444       -12.2844
  52   2.0000      -0.449235       -12.2243
  53   2.0000      -0.435730       -11.8568
  54   2.0000      -0.435174       -11.8417
  55   2.0000      -0.434168       -11.8143
  56   2.0000      -0.431345       -11.7375
  57   2.0000      -0.429431       -11.6854
  58   2.0000      -0.379797       -10.3348
  59   2.0000      -0.378057       -10.2875
  60   2.0000      -0.375097       -10.2069
  61   2.0000      -0.289480        -7.8771
  62   2.0000      -0.285900        -7.7797
  63   2.0000      -0.279991        -7.6189
  64   2.0000      -0.272730        -7.4214
  65   2.0000      -0.217744        -5.9251
  66   0.0000      -0.047350        -1.2885
  67   0.0000      -0.001024        -0.0279
  68   0.0000       0.027773         0.7557
  69   0.0000       0.044924         1.2225
  70   0.0000       0.052435         1.4268

MULLIKEN ATOMIC CHARGES
-----------------------
   0 Lu:    0.778128
   1 C :   -0.191366
   2 C :   -0.279638
   3 C :   -0.361149
   4 C :   -0.261119
   5 C :   -0.341476
   6 H :    0.247710
   7 H :    0.245036
   8 H :    0.232372
   9 H :    0.237788
  10 H :    0.247303
  11 C :   -0.266441
  12 C :   -0.350104
  13 C :   -0.341651
  14 C :   -0.336115
  15 H :    0.247458
  16 C :   -0.144376
  17 H :    0.235824
  18 H :    0.247166
  19 H :    0.237961
  20 H :    0.231246
  21 C :   -0.745142
  22 H :    0.253534
  23 H :    0.246903
  24 H :    0.298019
  25 C :   -0.983119
  26 H :    0.055515
  27 H :    0.182510
  28 H :    0.190614
  29 H :    0.186610
Sum of atomic charges:   -0.0000000

LOEWDIN ATOMIC CHARGES
----------------------
   0 Lu:   -0.059433
   1 C :   -0.112941
   2 C :   -0.139594
   3 C :   -0.149795
   4 C :   -0.147150
   5 C :   -0.128501
   6 H :    0.160495
   7 H :    0.162608
   8 H :    0.152356
   9 H :    0.152263
  10 H :    0.160536
  11 C :   -0.144136
  12 C :   -0.132562
  13 C :   -0.153180
  14 C :   -0.150910
  15 H :    0.159353
  16 C :   -0.109898
  17 H :    0.158895
  18 H :    0.160299
  19 H :    0.153390
  20 H :    0.149111
  21 C :   -0.387795
  22 H :    0.145116
  23 H :    0.142753
  24 H :    0.164592
  25 C :   -0.659179
  26 H :    0.110615
  27 H :    0.117435
  28 H :    0.113330
  29 H :    0.111927

  Mayer bond orders larger than 0.100000
B(  0-Lu,  1-C ) :   0.2065 B(  0-Lu,  2-C ) :   0.2471 B(  0-Lu,  3-C ) :   0.3136
B(  0-Lu,  4-C ) :   0.3099 B(  0-Lu,  5-C ) :   0.2503 B(  0-Lu, 11-C ) :   0.2966
B(  0-Lu, 12-C ) :   0.2291 B(  0-Lu, 13-C ) :   0.2632 B(  0-Lu, 14-C ) :   0.3133
B(  0-Lu, 16-C ) :   0.1980 B(  0-Lu, 21-C ) :   0.1081 B(  0-Lu, 25-C ) :   0.7945
B(  0-Lu, 26-H ) :   0.1195 B(  1-C ,  2-C ) :   1.3155 B(  1-C ,  5-C ) :   1.3204
B(  1-C ,  8-H ) :   0.9209 B(  2-C ,  3-C ) :   1.2772 B(  2-C ,  9-H ) :   0.9159
B(  3-C ,  4-C ) :   1.2391 B(  3-C , 10-H ) :   0.9123 B(  4-C ,  5-C ) :   1.2595
B(  4-C ,  6-H ) :   0.9064 B(  5-C ,  7-H ) :   0.9223 B( 11-C , 12-C ) :   1.2698
B( 11-C , 14-C ) :   1.2569 B( 11-C , 15-H ) :   0.9081 B( 12-C , 16-C ) :   1.3248
B( 12-C , 17-H ) :   0.9272 B( 13-C , 14-C ) :   1.2603 B( 13-C , 16-C ) :   1.3074
B( 13-C , 19-H ) :   0.9166 B( 14-C , 18-H ) :   0.9101 B( 16-C , 20-H ) :   0.9178
B( 21-C , 22-H ) :   0.9063 B( 21-C , 23-H ) :   0.9090 B( 21-C , 24-H ) :   0.8814
B( 21-C , 26-H ) :   0.8666 B( 25-C , 27-H ) :   0.9112 B( 25-C , 28-H ) :   0.9297
B( 25-C , 29-H ) :   0.9252

Dispersion correction           -0.017266223
FINAL SINGLE POINT ENERGY     -1702.280110340178
Dispersion correction            ... done

DIPOLE MOMENT
-------------
                                X             Y             Z
Electronic contribution:     11.23480      15.62151      -8.99963
Nuclear contribution   :    -10.88882     -16.45732       9.48116
                        -----------------------------------------
Total Dipole Moment    :      0.34598      -0.83581       0.48152
                        -----------------------------------------
Magnitude (a.u.)       :      1.02477
Magnitude (Debye)      :      2.60475

Rotational constants in cm-1:     0.026570     0.019069     0.016209
Rotational constants in MHz :   796.544070   571.671620   485.921004

                             ****ORCA TERMINATED NORMALLY****
TOTAL RUN TIME: 0 days 0 hours 9 minutes 17 seconds 307 msec
