                         Program Version 5.0.3 -  RELEASE  -
|  1> ! EnGrad PBEh-3c
|  2> %output
|  3> xyzfile=True
|  4> end
|  5> %scf
|  6> maxiter 250
|  7> end
|  8> %output
|  9> Print[P_Hirshfeld] = 1
| 10> end
| 11> % maxcore
| 12> 4000
| 13> *xyz 0 1
| 14> Lu   0.09895969   0.35209932  -0.18735207
| 15> C    0.40447847   0.96937921   2.40640023
| 16> C    1.35423520  -0.04858562   2.15701663
| 17> C    2.30432664   0.45050247   1.25016686
| 18> C    1.94946449   1.77909677   0.93979493
| 19> C    0.75520764   2.08901308   1.63185796
| 20> H    2.51763363   2.45565737   0.31533936
| 21> H    0.24864463   3.04421529   1.63790140
| 22> H   -0.39151895   0.91906960   3.13367145
| 23> H    1.38916601  -1.01170794   2.64633848
| 24> H    3.20503729  -0.06069367   0.94141398
| 25> C    1.02969908  -0.05953000  -2.56945520
| 26> C   -0.27049844  -0.60936438  -2.59307327
| 27> C    1.04265320  -1.92104375  -1.26168242
| 28> C    1.83430861  -0.86072228  -1.73514882
| 29> H    1.35932204   0.81456381  -3.11500207
| 30> C   -0.24540822  -1.78735287  -1.82382027
| 31> H   -1.09982174  -0.25614448  -3.18906464
| 32> H    2.89328900  -0.74407615  -1.55894620
| 33> H    1.38765592  -2.75922028  -0.67188797
| 34> H   -1.04790279  -2.50252663  -1.72137963
| 35> C   -2.55964045  -1.55690481   1.35298450
| 36> H   -2.43156609  -1.44304132   2.43492769
| 37> H   -2.61384241  -2.61057947   1.06606427
| 38> H   -3.41631170  -0.96509224   0.97699729
| 39> C   -1.79623666   1.70496146  -0.73530987
| 40> H   -1.62620669  -1.22507261   0.88323942
| 41> H   -1.42786729   2.54893678  -1.34597401
| 42> H   -2.37152730   2.16611123   0.08441084
| 43> H   -2.52543682   1.18881661  -1.37981337
| 44> *
| 45>
| 46>                          ****END OF INPUT****

CARTESIAN COORDINATES (ANGSTROEM)
---------------------------------
  Lu     0.098960    0.352099   -0.187352
  C      0.404478    0.969379    2.406400
  C      1.354235   -0.048586    2.157017
  C      2.304327    0.450502    1.250167
  C      1.949464    1.779097    0.939795
  C      0.755208    2.089013    1.631858
  H      2.517634    2.455657    0.315339
  H      0.248645    3.044215    1.637901
  H     -0.391519    0.919070    3.133671
  H      1.389166   -1.011708    2.646338
  H      3.205037   -0.060694    0.941414
  C      1.029699   -0.059530   -2.569455
  C     -0.270498   -0.609364   -2.593073
  C      1.042653   -1.921044   -1.261682
  C      1.834309   -0.860722   -1.735149
  H      1.359322    0.814564   -3.115002
  C     -0.245408   -1.787353   -1.823820
  H     -1.099822   -0.256144   -3.189065
  H      2.893289   -0.744076   -1.558946
  H      1.387656   -2.759220   -0.671888
  H     -1.047903   -2.502527   -1.721380
  C     -2.559640   -1.556905    1.352985
  H     -2.431566   -1.443041    2.434928
  H     -2.613842   -2.610579    1.066064
  H     -3.416312   -0.965092    0.976997
  C     -1.796237    1.704961   -0.735310
  H     -1.626207   -1.225073    0.883239
  H     -1.427867    2.548937   -1.345974
  H     -2.371527    2.166111    0.084411
  H     -2.525437    1.188817   -1.379813

 Total Charge           Charge          ....    0
 Multiplicity           Mult            ....    1
 Number of Electrons    NEL             ....  132
 Basis Dimension        Dim             ....  295

ORBITAL ENERGIES
----------------

  NO   OCC          E(Eh)            E(eV)
   0   2.0000     -19.255342      -523.9645
   1   2.0000     -12.627979      -343.6248
   2   2.0000     -12.625399      -343.5546
   3   2.0000     -12.624750      -343.5369
   4   2.0000     -10.447970      -284.3037
   5   2.0000     -10.445639      -284.2403
   6   2.0000     -10.445256      -284.2299
   7   2.0000     -10.445058      -284.2245
   8   2.0000     -10.444830      -284.2183
   9   2.0000     -10.444232      -284.2020
  10   2.0000     -10.443761      -284.1892
  11   2.0000     -10.443136      -284.1722
  12   2.0000     -10.442568      -284.1567
  13   2.0000     -10.442551      -284.1563
  14   2.0000     -10.440375      -284.0971
  15   2.0000     -10.362808      -281.9863
  16   2.0000      -5.897053      -160.4670
  17   2.0000      -5.896744      -160.4586
  18   2.0000      -5.896067      -160.4401
  19   2.0000      -5.894593      -160.4000
  20   2.0000      -5.894388      -160.3945
  21   2.0000      -2.438720       -66.3609
  22   2.0000      -1.277114       -34.7521
  23   2.0000      -1.275124       -34.6979
  24   2.0000      -1.264143       -34.3991
  25   2.0000      -0.978264       -26.6199
  26   2.0000      -0.970704       -26.4142
  27   2.0000      -0.799363       -21.7518
  28   2.0000      -0.793503       -21.5923
  29   2.0000      -0.791278       -21.5318
  30   2.0000      -0.790454       -21.5093
  31   2.0000      -0.789306       -21.4781
  32   2.0000      -0.696162       -18.9435
  33   2.0000      -0.613092       -16.6831
  34   2.0000      -0.611204       -16.6317
  35   2.0000      -0.608861       -16.5680
  36   2.0000      -0.607499       -16.5309
  37   2.0000      -0.595255       -16.1977
  38   2.0000      -0.590292       -16.0627
  39   2.0000      -0.564902       -15.3718
  40   2.0000      -0.563436       -15.3319
  41   2.0000      -0.563225       -15.3261
  42   2.0000      -0.562172       -15.2975
  43   2.0000      -0.561504       -15.2793
  44   2.0000      -0.560172       -15.2431
  45   2.0000      -0.558544       -15.1988
  46   2.0000      -0.479696       -13.0532
  47   2.0000      -0.470312       -12.7978
  48   2.0000      -0.467843       -12.7306
  49   2.0000      -0.458079       -12.4650
  50   2.0000      -0.452322       -12.3083
  51   2.0000      -0.449828       -12.2405
  52   2.0000      -0.448706       -12.2099
  53   2.0000      -0.448586       -12.2066
  54   2.0000      -0.432514       -11.7693
  55   2.0000      -0.432408       -11.7664
  56   2.0000      -0.430612       -11.7175
  57   2.0000      -0.428730       -11.6663
  58   2.0000      -0.428040       -11.6476
  59   2.0000      -0.391174       -10.6444
  60   2.0000      -0.389720       -10.6048
  61   2.0000      -0.290618        -7.9081
  62   2.0000      -0.282109        -7.6766
  63   2.0000      -0.276973        -7.5368
  64   2.0000      -0.263686        -7.1753
  65   2.0000      -0.255588        -6.9549
  66   0.0000      -0.022898        -0.6231
  67   0.0000       0.008855         0.2410
  68   0.0000       0.043406         1.1811
  69   0.0000       0.054723         1.4891
  70   0.0000       0.056925         1.5490

MULLIKEN ATOMIC CHARGES
-----------------------
   0 Lu:    0.859469
   1 C :   -0.275234
   2 C :   -0.288222
   3 C :   -0.279605
   4 C :   -0.298056
   5 C :   -0.292749
   6 H :    0.241673
   7 H :    0.246228
   8 H :    0.233685
   9 H :    0.232917
  10 H :    0.231378
  11 C :   -0.291915
  12 C :   -0.296496
  13 C :   -0.299256
  14 C :   -0.285858
  15 H :    0.242825
  16 C :   -0.256914
  17 H :    0.241379
  18 H :    0.232950
  19 H :    0.231060
  20 H :    0.231478
  21 C :   -0.868959
  22 H :    0.242124
  23 H :    0.242068
  24 H :    0.257930
  25 C :   -1.055003
  26 H :    0.185088
  27 H :    0.210784
  28 H :    0.214286
  29 H :    0.210947
Sum of atomic charges:   -0.0000000

LOEWDIN ATOMIC CHARGES
----------------------
   0 Lu:    0.037408
   1 C :   -0.142742
   2 C :   -0.151968
   3 C :   -0.134463
   4 C :   -0.150765
   5 C :   -0.136403
   6 H :    0.155904
   7 H :    0.159929
   8 H :    0.152536
   9 H :    0.150553
  10 H :    0.151625
  11 C :   -0.147730
  12 C :   -0.135945
  13 C :   -0.151993
  14 C :   -0.139191
  15 H :    0.156310
  16 C :   -0.143543
  17 H :    0.158494
  18 H :    0.151866
  19 H :    0.150658
  20 H :    0.149994
  21 C :   -0.464069
  22 H :    0.141308
  23 H :    0.139475
  24 H :    0.153902
  25 C :   -0.646544
  26 H :    0.134805
  27 H :    0.138445
  28 H :    0.130851
  29 H :    0.131291

  Mayer bond orders larger than 0.100000
B(  0-Lu,  1-C ) :   0.2493 B(  0-Lu,  2-C ) :   0.2540 B(  0-Lu,  3-C ) :   0.2475
B(  0-Lu,  4-C ) :   0.2860 B(  0-Lu,  5-C ) :   0.2442 B(  0-Lu, 11-C ) :   0.2837
B(  0-Lu, 12-C ) :   0.2357 B(  0-Lu, 13-C ) :   0.2538 B(  0-Lu, 14-C ) :   0.2576
B(  0-Lu, 16-C ) :   0.2483 B(  0-Lu, 25-C ) :   0.8336 B(  1-C ,  2-C ) :   1.2814
B(  1-C ,  5-C ) :   1.3135 B(  1-C ,  8-H ) :   0.9210 B(  2-C ,  3-C ) :   1.3099
B(  2-C ,  9-H ) :   0.9189 B(  3-C ,  4-C ) :   1.2861 B(  3-C , 10-H ) :   0.9219
B(  4-C ,  5-C ) :   1.2739 B(  4-C ,  6-H ) :   0.9145 B(  5-C ,  7-H ) :   0.9163
B( 11-C , 12-C ) :   1.2841 B( 11-C , 14-C ) :   1.2851 B( 11-C , 15-H ) :   0.9126
B( 12-C , 16-C ) :   1.3119 B( 12-C , 17-H ) :   0.9196 B( 13-C , 14-C ) :   1.3000
B( 13-C , 16-C ) :   1.2874 B( 13-C , 19-H ) :   0.9211 B( 14-C , 18-H ) :   0.9198
B( 16-C , 20-H ) :   0.9201 B( 21-C , 22-H ) :   0.9201 B( 21-C , 23-H ) :   0.9197
B( 21-C , 24-H ) :   0.9157 B( 21-C , 26-H ) :   0.8819 B( 25-C , 27-H ) :   0.8983
B( 25-C , 28-H ) :   0.9112 B( 25-C , 29-H ) :   0.9071

Dispersion correction           -0.017047571
FINAL SINGLE POINT ENERGY     -1702.383647572905
Dispersion correction            ... done

DIPOLE MOMENT
-------------
                                X             Y             Z
Electronic contribution:     -2.33985      16.55990      -7.59524
Nuclear contribution   :      2.48717     -17.23324       8.01500
                        -----------------------------------------
Total Dipole Moment    :      0.14732      -0.67334       0.41975
                        -----------------------------------------
Magnitude (a.u.)       :      0.80702
Magnitude (Debye)      :      2.05128

Rotational constants in cm-1:     0.027174     0.019575     0.016754
Rotational constants in MHz :   814.641272   586.852462   502.273274

                             ****ORCA TERMINATED NORMALLY****
TOTAL RUN TIME: 0 days 0 hours 10 minutes 16 seconds 85 msec
