                         Program Version 5.0.3 -  RELEASE  -
|  1> ! EnGrad PBEh-3c
|  2> %output
|  3> xyzfile=True
|  4> end
|  5> %scf
|  6> maxiter 250
|  7> end
|  8> %output
|  9> Print[P_Hirshfeld] = 1
| 10> end
| 11> % maxcore
| 12> 4000
| 13> *xyz 0 1
| 14> Lu   0.23184379   0.36490402  -0.22124545
| 15> C    0.44286635   0.98267630   2.44967981
| 16> C    1.36356304  -0.02777018   2.22389907
| 17> C    2.33243464   0.47540203   1.29675409
| 18> C    1.95403661   1.79007471   0.95394784
| 19> C    0.76599862   2.10247133   1.65132365
| 20> H    2.50977320   2.45991692   0.32880639
| 21> H    0.20867760   3.02390322   1.60287872
| 22> H   -0.35938526   0.97277980   3.19873671
| 23> H    1.40319193  -0.98637630   2.69299339
| 24> H    3.19802555  -0.06715094   0.93394798
| 25> C    1.03350790  -0.05671672  -2.57554767
| 26> C   -0.26156323  -0.63478215  -2.62024805
| 27> C    1.03646024  -1.97461550  -1.30999189
| 28> C    1.84799039  -0.88344155  -1.77901424
| 29> H    1.34098560   0.80737505  -3.12330841
| 30> C   -0.22506605  -1.82622953  -1.87568432
| 31> H   -1.12121521  -0.24924500  -3.15055073
| 32> H    2.89708984  -0.74737676  -1.56260620
| 33> H    1.37422044  -2.76840925  -0.67637229
| 34> H   -1.03328049  -2.55513319  -1.85779347
| 35> C   -2.47617605  -1.58722498   1.34994072
| 36> H   -2.56226312  -1.45319471   2.47990897
| 37> H   -2.93565390  -2.65675529   1.13441500
| 38> H   -3.13997277  -0.86207803   0.84096724
| 39> C   -1.85226343   1.70210117  -0.69696783
| 40> H   -1.40593578  -1.31659515   0.92720948
| 41> H   -1.45732017   2.52519932  -1.31077004
| 42> H   -2.50801870   2.24797370   0.06042743
| 43> H   -2.61195591   1.20181067  -1.36591414
| 44> *
| 45>
| 46>                          ****END OF INPUT****

CARTESIAN COORDINATES (ANGSTROEM)
---------------------------------
  Lu     0.231844    0.364904   -0.221245
  C      0.442866    0.982676    2.449680
  C      1.363563   -0.027770    2.223899
  C      2.332435    0.475402    1.296754
  C      1.954037    1.790075    0.953948
  C      0.765999    2.102471    1.651324
  H      2.509773    2.459917    0.328806
  H      0.208678    3.023903    1.602879
  H     -0.359385    0.972780    3.198737
  H      1.403192   -0.986376    2.692993
  H      3.198026   -0.067151    0.933948
  C      1.033508   -0.056717   -2.575548
  C     -0.261563   -0.634782   -2.620248
  C      1.036460   -1.974615   -1.309992
  C      1.847990   -0.883442   -1.779014
  H      1.340986    0.807375   -3.123308
  C     -0.225066   -1.826230   -1.875684
  H     -1.121215   -0.249245   -3.150551
  H      2.897090   -0.747377   -1.562606
  H      1.374220   -2.768409   -0.676372
  H     -1.033280   -2.555133   -1.857793
  C     -2.476176   -1.587225    1.349941
  H     -2.562263   -1.453195    2.479909
  H     -2.935654   -2.656755    1.134415
  H     -3.139973   -0.862078    0.840967
  C     -1.852263    1.702101   -0.696968
  H     -1.405936   -1.316595    0.927209
  H     -1.457320    2.525199   -1.310770
  H     -2.508019    2.247974    0.060427
  H     -2.611956    1.201811   -1.365914

 Total Charge           Charge          ....    0
 Multiplicity           Mult            ....    1
 Number of Electrons    NEL             ....  132
 Basis Dimension        Dim             ....  295

ORBITAL ENERGIES
----------------

  NO   OCC          E(Eh)            E(eV)
   0   2.0000     -19.264326      -524.2090
   1   2.0000     -12.637116      -343.8734
   2   2.0000     -12.634250      -343.7954
   3   2.0000     -12.633811      -343.7835
   4   2.0000     -10.463194      -284.7180
   5   2.0000     -10.450389      -284.3696
   6   2.0000     -10.450225      -284.3651
   7   2.0000     -10.448914      -284.3294
   8   2.0000     -10.448869      -284.3282
   9   2.0000     -10.448186      -284.3096
  10   2.0000     -10.448046      -284.3058
  11   2.0000     -10.446425      -284.2617
  12   2.0000     -10.445793      -284.2445
  13   2.0000     -10.444277      -284.2032
  14   2.0000     -10.443749      -284.1889
  15   2.0000     -10.370987      -282.2089
  16   2.0000      -5.906133      -160.7140
  17   2.0000      -5.905760      -160.7039
  18   2.0000      -5.905237      -160.6897
  19   2.0000      -5.903532      -160.6433
  20   2.0000      -5.903377      -160.6391
  21   2.0000      -2.447563       -66.6016
  22   2.0000      -1.285850       -34.9898
  23   2.0000      -1.283502       -34.9259
  24   2.0000      -1.271975       -34.6122
  25   2.0000      -0.981222       -26.7004
  26   2.0000      -0.973374       -26.4869
  27   2.0000      -0.799423       -21.7534
  28   2.0000      -0.799032       -21.7428
  29   2.0000      -0.791759       -21.5448
  30   2.0000      -0.789275       -21.4773
  31   2.0000      -0.773738       -21.0545
  32   2.0000      -0.687470       -18.7070
  33   2.0000      -0.619752       -16.8643
  34   2.0000      -0.615886       -16.7591
  35   2.0000      -0.611643       -16.6436
  36   2.0000      -0.610191       -16.6041
  37   2.0000      -0.598808       -16.2944
  38   2.0000      -0.593383       -16.1468
  39   2.0000      -0.574011       -15.6196
  40   2.0000      -0.572431       -15.5766
  41   2.0000      -0.572067       -15.5667
  42   2.0000      -0.570988       -15.5374
  43   2.0000      -0.570688       -15.5292
  44   2.0000      -0.568747       -15.4764
  45   2.0000      -0.567428       -15.4405
  46   2.0000      -0.478032       -13.0079
  47   2.0000      -0.462372       -12.5818
  48   2.0000      -0.459159       -12.4943
  49   2.0000      -0.458584       -12.4787
  50   2.0000      -0.451262       -12.2795
  51   2.0000      -0.448849       -12.2138
  52   2.0000      -0.447643       -12.1810
  53   2.0000      -0.437888       -11.9155
  54   2.0000      -0.436277       -11.8717
  55   2.0000      -0.434769       -11.8307
  56   2.0000      -0.433428       -11.7942
  57   2.0000      -0.430592       -11.7170
  58   2.0000      -0.427202       -11.6248
  59   2.0000      -0.383393       -10.4326
  60   2.0000      -0.372179       -10.1275
  61   2.0000      -0.291629        -7.9356
  62   2.0000      -0.285767        -7.7761
  63   2.0000      -0.283095        -7.7034
  64   2.0000      -0.267656        -7.2833
  65   2.0000      -0.250545        -6.8177
  66   0.0000      -0.032588        -0.8868
  67   0.0000       0.003760         0.1023
  68   0.0000       0.039876         1.0851
  69   0.0000       0.050819         1.3829
  70   0.0000       0.054568         1.4849

MULLIKEN ATOMIC CHARGES
-----------------------
   0 Lu:    0.842985
   1 C :   -0.256997
   2 C :   -0.291966
   3 C :   -0.280459
   4 C :   -0.344435
   5 C :   -0.271286
   6 H :    0.249060
   7 H :    0.254447
   8 H :    0.231880
   9 H :    0.237549
  10 H :    0.238033
  11 C :   -0.346010
  12 C :   -0.260579
  13 C :   -0.294088
  14 C :   -0.291376
  15 H :    0.250631
  16 C :   -0.254689
  17 H :    0.249673
  18 H :    0.240145
  19 H :    0.238169
  20 H :    0.232221
  21 C :   -0.840469
  22 H :    0.232075
  23 H :    0.219391
  24 H :    0.270461
  25 C :   -1.017299
  26 H :    0.174221
  27 H :    0.199173
  28 H :    0.196104
  29 H :    0.193435
Sum of atomic charges:   -0.0000000

LOEWDIN ATOMIC CHARGES
----------------------
   0 Lu:    0.053252
   1 C :   -0.129845
   2 C :   -0.151832
   3 C :   -0.139464
   4 C :   -0.158448
   5 C :   -0.135923
   6 H :    0.159046
   7 H :    0.162472
   8 H :    0.153041
   9 H :    0.152015
  10 H :    0.153866
  11 C :   -0.157024
  12 C :   -0.132919
  13 C :   -0.152116
  14 C :   -0.142009
  15 H :    0.160006
  16 C :   -0.133896
  17 H :    0.160135
  18 H :    0.154930
  19 H :    0.152292
  20 H :    0.152132
  21 C :   -0.469660
  22 H :    0.138797
  23 H :    0.138317
  24 H :    0.152874
  25 C :   -0.649164
  26 H :    0.140613
  27 H :    0.127898
  28 H :    0.120786
  29 H :    0.119830

  Mayer bond orders larger than 0.100000
B(  0-Lu,  1-C ) :   0.2243 B(  0-Lu,  2-C ) :   0.2486 B(  0-Lu,  3-C ) :   0.2766
B(  0-Lu,  4-C ) :   0.3076 B(  0-Lu,  5-C ) :   0.2458 B(  0-Lu, 11-C ) :   0.3055
B(  0-Lu, 12-C ) :   0.2319 B(  0-Lu, 13-C ) :   0.2541 B(  0-Lu, 14-C ) :   0.2850
B(  0-Lu, 16-C ) :   0.2243 B(  0-Lu, 25-C ) :   0.8180 B(  1-C ,  2-C ) :   1.3096
B(  1-C ,  5-C ) :   1.3188 B(  1-C ,  8-H ) :   0.9229 B(  2-C ,  3-C ) :   1.2871
B(  2-C ,  9-H ) :   0.9179 B(  3-C ,  4-C ) :   1.2710 B(  3-C , 10-H ) :   0.9139
B(  4-C ,  5-C ) :   1.2662 B(  4-C ,  6-H ) :   0.9115 B(  5-C ,  7-H ) :   0.9089
B( 11-C , 12-C ) :   1.2753 B( 11-C , 14-C ) :   1.2677 B( 11-C , 15-H ) :   0.9116
B( 12-C , 16-C ) :   1.3250 B( 12-C , 17-H ) :   0.9110 B( 13-C , 14-C ) :   1.2804
B( 13-C , 16-C ) :   1.3061 B( 13-C , 19-H ) :   0.9158 B( 14-C , 18-H ) :   0.9134
B( 16-C , 20-H ) :   0.9232 B( 21-C , 22-H ) :   0.9188 B( 21-C , 23-H ) :   0.9271
B( 21-C , 24-H ) :   0.8982 B( 21-C , 26-H ) :   0.8923 B( 25-C , 27-H ) :   0.8964
B( 25-C , 28-H ) :   0.9240 B( 25-C , 29-H ) :   0.9169

Dispersion correction           -0.016826889
FINAL SINGLE POINT ENERGY     -1702.353677553727
Dispersion correction            ... done

DIPOLE MOMENT
-------------
                                X             Y             Z
Electronic contribution:      4.20642      17.42327      -9.49398
Nuclear contribution   :     -3.86474     -18.04738       9.79459
                        -----------------------------------------
Total Dipole Moment    :      0.34169      -0.62411       0.30061
                        -----------------------------------------
Magnitude (a.u.)       :      0.77242
Magnitude (Debye)      :      1.96332

Rotational constants in cm-1:     0.027210     0.018980     0.016445
Rotational constants in MHz :   815.734231   569.010558   493.013388

                             ****ORCA TERMINATED NORMALLY****
TOTAL RUN TIME: 0 days 0 hours 9 minutes 2 seconds 208 msec
