                         Program Version 5.0.3 -  RELEASE  -
|  1> ! EnGrad PBEh-3c
|  2> %output
|  3> xyzfile=True
|  4> end
|  5> %scf
|  6> maxiter 250
|  7> end
|  8> %output
|  9> Print[P_Hirshfeld] = 1
| 10> end
| 11> % maxcore
| 12> 4000
| 13> *xyz 0 1
| 14> Lu   0.12105473   0.39266078  -0.22452630
| 15> C    0.42264256   0.98335902   2.44185864
| 16> C    1.37409521  -0.03476173   2.20336650
| 17> C    2.33890922   0.48135930   1.32037369
| 18> C    1.95174643   1.78558092   0.94098953
| 19> C    0.79731908   2.11243849   1.68127150
| 20> H    2.51779540   2.46651387   0.32580257
| 21> H    0.21111976   3.02247378   1.60101329
| 22> H   -0.34969278   0.96569687   3.18603351
| 23> H    1.39513606  -0.99863229   2.68995700
| 24> H    3.19744427  -0.06562516   0.93826592
| 25> C    1.03169901  -0.05029202  -2.56537063
| 26> C   -0.23779432  -0.65675757  -2.65963310
| 27> C    1.05344909  -1.96674545  -1.31786092
| 28> C    1.84502450  -0.89958600  -1.78443386
| 29> H    1.34733147   0.81682319  -3.12980991
| 30> C   -0.24751867  -1.81046338  -1.84292811
| 31> H   -1.11656541  -0.24633707  -3.14799815
| 32> H    2.89870433  -0.74892030  -1.56369101
| 33> H    1.37346126  -2.77345834  -0.66987527
| 34> H   -1.02496575  -2.55153872  -1.84250252
| 35> C   -2.36826387  -1.56367818   1.30933999
| 36> H   -2.53774870  -1.46102926   2.45200432
| 37> H   -2.86316662  -2.63256136   1.13122432
| 38> H   -3.18587125  -0.88488634   0.87748198
| 39> C   -1.81914636   1.67981972  -0.68956090
| 40> H   -1.60303827  -1.31489838   0.96211786
| 41> H   -1.46031546   2.53091476  -1.31912037
| 42> H   -2.48581988   2.22491172   0.05387776
| 43> H   -2.59533374   1.20573034  -1.35889365
| 44> *
| 45>
| 46>                          ****END OF INPUT****

CARTESIAN COORDINATES (ANGSTROEM)
---------------------------------
  Lu     0.121055    0.392661   -0.224526
  C      0.422643    0.983359    2.441859
  C      1.374095   -0.034762    2.203367
  C      2.338909    0.481359    1.320374
  C      1.951746    1.785581    0.940990
  C      0.797319    2.112438    1.681271
  H      2.517795    2.466514    0.325803
  H      0.211120    3.022474    1.601013
  H     -0.349693    0.965697    3.186034
  H      1.395136   -0.998632    2.689957
  H      3.197444   -0.065625    0.938266
  C      1.031699   -0.050292   -2.565371
  C     -0.237794   -0.656758   -2.659633
  C      1.053449   -1.966745   -1.317861
  C      1.845024   -0.899586   -1.784434
  H      1.347331    0.816823   -3.129810
  C     -0.247519   -1.810463   -1.842928
  H     -1.116565   -0.246337   -3.147998
  H      2.898704   -0.748920   -1.563691
  H      1.373461   -2.773458   -0.669875
  H     -1.024966   -2.551539   -1.842503
  C     -2.368264   -1.563678    1.309340
  H     -2.537749   -1.461029    2.452004
  H     -2.863167   -2.632561    1.131224
  H     -3.185871   -0.884886    0.877482
  C     -1.819146    1.679820   -0.689561
  H     -1.603038   -1.314898    0.962118
  H     -1.460315    2.530915   -1.319120
  H     -2.485820    2.224912    0.053878
  H     -2.595334    1.205730   -1.358894

 Total Charge           Charge          ....    0
 Multiplicity           Mult            ....    1
 Number of Electrons    NEL             ....  132
 Basis Dimension        Dim             ....  295

ORBITAL ENERGIES
----------------

  NO   OCC          E(Eh)            E(eV)
   0   2.0000     -19.267677      -524.3001
   1   2.0000     -12.640272      -343.9593
   2   2.0000     -12.637757      -343.8909
   3   2.0000     -12.637243      -343.8769
   4   2.0000     -10.448266      -284.3118
   5   2.0000     -10.447886      -284.3014
   6   2.0000     -10.447450      -284.2896
   7   2.0000     -10.446095      -284.2527
   8   2.0000     -10.445214      -284.2287
   9   2.0000     -10.444653      -284.2134
  10   2.0000     -10.444310      -284.2041
  11   2.0000     -10.443851      -284.1916
  12   2.0000     -10.443714      -284.1879
  13   2.0000     -10.443232      -284.1748
  14   2.0000     -10.439035      -284.0606
  15   2.0000     -10.376961      -282.3715
  16   2.0000      -5.909396      -160.8028
  17   2.0000      -5.909104      -160.7949
  18   2.0000      -5.908544      -160.7796
  19   2.0000      -5.907079      -160.7398
  20   2.0000      -5.906867      -160.7340
  21   2.0000      -2.450864       -66.6914
  22   2.0000      -1.288588       -35.0643
  23   2.0000      -1.284779       -34.9606
  24   2.0000      -1.275759       -34.7152
  25   2.0000      -0.978082       -26.6150
  26   2.0000      -0.971796       -26.4439
  27   2.0000      -0.806705       -21.9515
  28   2.0000      -0.793470       -21.5914
  29   2.0000      -0.792528       -21.5658
  30   2.0000      -0.791911       -21.5490
  31   2.0000      -0.788732       -21.4625
  32   2.0000      -0.699894       -19.0451
  33   2.0000      -0.614248       -16.7145
  34   2.0000      -0.611270       -16.6335
  35   2.0000      -0.609732       -16.5917
  36   2.0000      -0.609148       -16.5757
  37   2.0000      -0.595179       -16.1956
  38   2.0000      -0.590450       -16.0670
  39   2.0000      -0.577209       -15.7067
  40   2.0000      -0.575664       -15.6646
  41   2.0000      -0.575370       -15.6566
  42   2.0000      -0.574518       -15.6334
  43   2.0000      -0.573969       -15.6185
  44   2.0000      -0.572465       -15.5776
  45   2.0000      -0.570914       -15.5353
  46   2.0000      -0.532842       -14.4994
  47   2.0000      -0.464037       -12.6271
  48   2.0000      -0.452933       -12.3249
  49   2.0000      -0.452392       -12.3102
  50   2.0000      -0.449425       -12.2295
  51   2.0000      -0.445693       -12.1279
  52   2.0000      -0.439755       -11.9663
  53   2.0000      -0.434302       -11.8179
  54   2.0000      -0.432471       -11.7681
  55   2.0000      -0.429631       -11.6909
  56   2.0000      -0.428318       -11.6551
  57   2.0000      -0.426370       -11.6021
  58   2.0000      -0.423171       -11.5151
  59   2.0000      -0.389786       -10.6066
  60   2.0000      -0.381297       -10.3756
  61   2.0000      -0.287552        -7.8247
  62   2.0000      -0.286396        -7.7932
  63   2.0000      -0.280369        -7.6292
  64   2.0000      -0.272577        -7.4172
  65   2.0000      -0.262658        -7.1473
  66   0.0000      -0.028738        -0.7820
  67   0.0000       0.007396         0.2013
  68   0.0000       0.042263         1.1500
  69   0.0000       0.052394         1.4257
  70   0.0000       0.055553         1.5117

MULLIKEN ATOMIC CHARGES
-----------------------
   0 Lu:    0.915253
   1 C :   -0.311829
   2 C :   -0.306757
   3 C :   -0.214542
   4 C :   -0.409576
   5 C :   -0.220230
   6 H :    0.245593
   7 H :    0.253425
   8 H :    0.232825
   9 H :    0.233931
  10 H :    0.231896
  11 C :   -0.407855
  12 C :   -0.195235
  13 C :   -0.260862
  14 C :   -0.252754
  15 H :    0.248647
  16 C :   -0.347191
  17 H :    0.251188
  18 H :    0.234591
  19 H :    0.235451
  20 H :    0.231198
  21 C :   -0.938338
  22 H :    0.227722
  23 H :    0.221031
  24 H :    0.247920
  25 C :   -1.070396
  26 H :    0.288491
  27 H :    0.209770
  28 H :    0.215409
  29 H :    0.211222
Sum of atomic charges:    0.0000000

LOEWDIN ATOMIC CHARGES
----------------------
   0 Lu:    0.120915
   1 C :   -0.149984
   2 C :   -0.157312
   3 C :   -0.131782
   4 C :   -0.173433
   5 C :   -0.133779
   6 H :    0.157681
   7 H :    0.160001
   8 H :    0.152258
   9 H :    0.150459
  10 H :    0.149931
  11 C :   -0.171322
  12 C :   -0.127069
  13 C :   -0.147423
  14 C :   -0.138409
  15 H :    0.159802
  16 C :   -0.159031
  17 H :    0.158486
  18 H :    0.151898
  19 H :    0.150516
  20 H :    0.152403
  21 C :   -0.490201
  22 H :    0.142873
  23 H :    0.142773
  24 H :    0.153358
  25 C :   -0.644123
  26 H :    0.117934
  27 H :    0.139379
  28 H :    0.131710
  29 H :    0.131491

  Mayer bond orders larger than 0.100000
B(  0-Lu,  1-C ) :   0.2394 B(  0-Lu,  2-C ) :   0.2412 B(  0-Lu,  3-C ) :   0.2340
B(  0-Lu,  4-C ) :   0.3049 B(  0-Lu,  5-C ) :   0.2327 B(  0-Lu, 11-C ) :   0.3087
B(  0-Lu, 12-C ) :   0.2217 B(  0-Lu, 13-C ) :   0.2323 B(  0-Lu, 14-C ) :   0.2474
B(  0-Lu, 16-C ) :   0.2482 B(  0-Lu, 25-C ) :   0.8226 B(  1-C ,  2-C ) :   1.2826
B(  1-C ,  5-C ) :   1.3259 B(  1-C ,  8-H ) :   0.9248 B(  2-C ,  3-C ) :   1.3264
B(  2-C ,  9-H ) :   0.9189 B(  3-C ,  4-C ) :   1.2721 B(  3-C , 10-H ) :   0.9147
B(  4-C ,  5-C ) :   1.2656 B(  4-C ,  6-H ) :   0.9152 B(  5-C ,  7-H ) :   0.9031
B( 11-C , 12-C ) :   1.2796 B( 11-C , 14-C ) :   1.2578 B( 11-C , 15-H ) :   0.9132
B( 12-C , 16-C ) :   1.3170 B( 12-C , 17-H ) :   0.9036 B( 13-C , 14-C ) :   1.3275
B( 13-C , 16-C ) :   1.2834 B( 13-C , 19-H ) :   0.9152 B( 14-C , 18-H ) :   0.9154
B( 16-C , 20-H ) :   0.9277 B( 21-C , 22-H ) :   0.9306 B( 21-C , 23-H ) :   0.9358
B( 21-C , 24-H ) :   0.9205 B( 21-C , 26-H ) :   0.8450 B( 25-C , 27-H ) :   0.8891
B( 25-C , 28-H ) :   0.9142 B( 25-C , 29-H ) :   0.9064

Dispersion correction           -0.016863705
FINAL SINGLE POINT ENERGY     -1702.309919439532
Dispersion correction            ... done

DIPOLE MOMENT
-------------
                                X             Y             Z
Electronic contribution:     -1.75395      18.92602      -9.67715
Nuclear contribution   :      1.86180     -19.42341       9.91696
                        -----------------------------------------
Total Dipole Moment    :      0.10785      -0.49738       0.23982
                        -----------------------------------------
Magnitude (a.u.)       :      0.56262
Magnitude (Debye)      :      1.43005

Rotational constants in cm-1:     0.027433     0.018925     0.016531
Rotational constants in MHz :   822.430890   567.355206   495.579573

                             ****ORCA TERMINATED NORMALLY****
TOTAL RUN TIME: 0 days 0 hours 9 minutes 12 seconds 839 msec
