                         Program Version 5.0.3 -  RELEASE  -
|  1> ! EnGrad PBEh-3c
|  2> %output
|  3> xyzfile=True
|  4> end
|  5> %scf
|  6> maxiter 250
|  7> end
|  8> %output
|  9> Print[P_Hirshfeld] = 1
| 10> end
| 11> % maxcore
| 12> 4000
| 13> *xyz 0 1
| 14> Lu   0.11819719   0.39313005  -0.22166698
| 15> C    0.41439039   0.99339528   2.44272888
| 16> C    1.38406890  -0.03182492   2.19268605
| 17> C    2.33479914   0.47232284   1.31601703
| 18> C    1.95243451   1.78379359   0.94515828
| 19> C    0.78992088   2.10803141   1.67942317
| 20> H    2.51981076   2.46840103   0.32278421
| 21> H    0.21364084   3.02294288   1.60306240
| 22> H   -0.35024950   0.96361755   3.18160732
| 23> H    1.39499228  -1.00262879   2.69105541
| 24> H    3.19557924  -0.06325652   0.94007962
| 25> C    1.02788955  -0.05685917  -2.56835610
| 26> C   -0.24258915  -0.65187966  -2.65269081
| 27> C    1.06356564  -1.95443171  -1.31685989
| 28> C    1.84396059  -0.90374397  -1.77464298
| 29> H    1.34937670   0.82025241  -3.13095326
| 30> C   -0.25250588  -1.80758303  -1.85060912
| 31> H   -1.11349155  -0.24795480  -3.14951541
| 32> H    2.89674666  -0.74905919  -1.56424640
| 33> H    1.37481202  -2.77563086  -0.66923313
| 34> H   -1.02649298  -2.54935708  -1.83687216
| 35> C   -2.51668688  -1.60683468   1.36687747
| 36> H   -2.52393655  -1.45988125   2.42252952
| 37> H   -2.83185111  -2.59801720   1.13070160
| 38> H   -3.17332144  -0.89623698   0.88688446
| 39> C   -1.83731399   1.68530482  -0.68995472
| 40> H   -1.51470823  -1.29647283   0.92584411
| 41> H   -1.45979565   2.52858996  -1.31860769
| 42> H   -2.46925761   2.21297080   0.04577446
| 43> H   -2.58173997   1.20922012  -1.35127935
| 44> *
| 45>
| 46>                          ****END OF INPUT****

CARTESIAN COORDINATES (ANGSTROEM)
---------------------------------
  Lu     0.118197    0.393130   -0.221667
  C      0.414390    0.993395    2.442729
  C      1.384069   -0.031825    2.192686
  C      2.334799    0.472323    1.316017
  C      1.952435    1.783794    0.945158
  C      0.789921    2.108031    1.679423
  H      2.519811    2.468401    0.322784
  H      0.213641    3.022943    1.603062
  H     -0.350249    0.963618    3.181607
  H      1.394992   -1.002629    2.691055
  H      3.195579   -0.063257    0.940080
  C      1.027890   -0.056859   -2.568356
  C     -0.242589   -0.651880   -2.652691
  C      1.063566   -1.954432   -1.316860
  C      1.843961   -0.903744   -1.774643
  H      1.349377    0.820252   -3.130953
  C     -0.252506   -1.807583   -1.850609
  H     -1.113492   -0.247955   -3.149515
  H      2.896747   -0.749059   -1.564246
  H      1.374812   -2.775631   -0.669233
  H     -1.026493   -2.549357   -1.836872
  C     -2.516687   -1.606835    1.366877
  H     -2.523937   -1.459881    2.422530
  H     -2.831851   -2.598017    1.130702
  H     -3.173321   -0.896237    0.886884
  C     -1.837314    1.685305   -0.689955
  H     -1.514708   -1.296473    0.925844
  H     -1.459796    2.528590   -1.318608
  H     -2.469258    2.212971    0.045774
  H     -2.581740    1.209220   -1.351279

 Total Charge           Charge          ....    0
 Multiplicity           Mult            ....    1
 Number of Electrons    NEL             ....  132
 Basis Dimension        Dim             ....  295

ORBITAL ENERGIES
----------------

  NO   OCC          E(Eh)            E(eV)
   0   2.0000     -19.265591      -524.2434
   1   2.0000     -12.638076      -343.8995
   2   2.0000     -12.635708      -343.8351
   3   2.0000     -12.635230      -343.8221
   4   2.0000     -10.446700      -284.2692
   5   2.0000     -10.446617      -284.2669
   6   2.0000     -10.445926      -284.2481
   7   2.0000     -10.445893      -284.2472
   8   2.0000     -10.444121      -284.1990
   9   2.0000     -10.443859      -284.1919
  10   2.0000     -10.443385      -284.1789
  11   2.0000     -10.443082      -284.1707
  12   2.0000     -10.442832      -284.1639
  13   2.0000     -10.442785      -284.1626
  14   2.0000     -10.439066      -284.0614
  15   2.0000     -10.370150      -282.1861
  16   2.0000      -5.907231      -160.7439
  17   2.0000      -5.906968      -160.7368
  18   2.0000      -5.906434      -160.7223
  19   2.0000      -5.905069      -160.6851
  20   2.0000      -5.904855      -160.6793
  21   2.0000      -2.448738       -66.6335
  22   2.0000      -1.286107       -34.9967
  23   2.0000      -1.282900       -34.9095
  24   2.0000      -1.273707       -34.6593
  25   2.0000      -0.978032       -26.6136
  26   2.0000      -0.971666       -26.4404
  27   2.0000      -0.798609       -21.7313
  28   2.0000      -0.795466       -21.6457
  29   2.0000      -0.792462       -21.5640
  30   2.0000      -0.788596       -21.4588
  31   2.0000      -0.787981       -21.4420
  32   2.0000      -0.703513       -19.1436
  33   2.0000      -0.613092       -16.6831
  34   2.0000      -0.610940       -16.6245
  35   2.0000      -0.609168       -16.5763
  36   2.0000      -0.607804       -16.5392
  37   2.0000      -0.594205       -16.1692
  38   2.0000      -0.590237       -16.0612
  39   2.0000      -0.575000       -15.6466
  40   2.0000      -0.573512       -15.6060
  41   2.0000      -0.573192       -15.5973
  42   2.0000      -0.572422       -15.5764
  43   2.0000      -0.571887       -15.5618
  44   2.0000      -0.570554       -15.5256
  45   2.0000      -0.569027       -15.4840
  46   2.0000      -0.486719       -13.2443
  47   2.0000      -0.472263       -12.8509
  48   2.0000      -0.464496       -12.6396
  49   2.0000      -0.453895       -12.3511
  50   2.0000      -0.450083       -12.2474
  51   2.0000      -0.449317       -12.2265
  52   2.0000      -0.448283       -12.1984
  53   2.0000      -0.445463       -12.1217
  54   2.0000      -0.439025       -11.9465
  55   2.0000      -0.432824       -11.7777
  56   2.0000      -0.427081       -11.6215
  57   2.0000      -0.426913       -11.6169
  58   2.0000      -0.424306       -11.5459
  59   2.0000      -0.391252       -10.6465
  60   2.0000      -0.389015       -10.5856
  61   2.0000      -0.290089        -7.8937
  62   2.0000      -0.282105        -7.6765
  63   2.0000      -0.275677        -7.5016
  64   2.0000      -0.268463        -7.3053
  65   2.0000      -0.265464        -7.2236
  66   0.0000      -0.029654        -0.8069
  67   0.0000       0.008285         0.2255
  68   0.0000       0.042343         1.1522
  69   0.0000       0.053696         1.4611
  70   0.0000       0.056143         1.5277

MULLIKEN ATOMIC CHARGES
-----------------------
   0 Lu:    0.902249
   1 C :   -0.308047
   2 C :   -0.307161
   3 C :   -0.214920
   4 C :   -0.403548
   5 C :   -0.225162
   6 H :    0.244342
   7 H :    0.252910
   8 H :    0.231637
   9 H :    0.231589
  10 H :    0.232942
  11 C :   -0.400927
  12 C :   -0.201758
  13 C :   -0.264757
  14 C :   -0.253395
  15 H :    0.246788
  16 C :   -0.338304
  17 H :    0.250721
  18 H :    0.234561
  19 H :    0.233244
  20 H :    0.229384
  21 C :   -0.879874
  22 H :    0.247321
  23 H :    0.246561
  24 H :    0.266042
  25 C :   -1.073319
  26 H :    0.176455
  27 H :    0.206468
  28 H :    0.222073
  29 H :    0.215887
Sum of atomic charges:    0.0000000

LOEWDIN ATOMIC CHARGES
----------------------
   0 Lu:    0.095640
   1 C :   -0.151091
   2 C :   -0.155816
   3 C :   -0.131110
   4 C :   -0.174465
   5 C :   -0.131586
   6 H :    0.157513
   7 H :    0.159639
   8 H :    0.151448
   9 H :    0.149789
  10 H :    0.150593
  11 C :   -0.172008
  12 C :   -0.126381
  13 C :   -0.146965
  14 C :   -0.138902
  15 H :    0.159240
  16 C :   -0.159152
  17 H :    0.158138
  18 H :    0.152143
  19 H :    0.150087
  20 H :    0.151115
  21 C :   -0.469829
  22 H :    0.140104
  23 H :    0.139956
  24 H :    0.151522
  25 C :   -0.649843
  26 H :    0.137371
  27 H :    0.138892
  28 H :    0.132131
  29 H :    0.131828

  Mayer bond orders larger than 0.100000
B(  0-Lu,  1-C ) :   0.2410 B(  0-Lu,  2-C ) :   0.2415 B(  0-Lu,  3-C ) :   0.2304
B(  0-Lu,  4-C ) :   0.3087 B(  0-Lu,  5-C ) :   0.2304 B(  0-Lu, 11-C ) :   0.3105
B(  0-Lu, 12-C ) :   0.2186 B(  0-Lu, 13-C ) :   0.2315 B(  0-Lu, 14-C ) :   0.2442
B(  0-Lu, 16-C ) :   0.2497 B(  0-Lu, 25-C ) :   0.8274 B(  1-C ,  2-C ) :   1.2720
B(  1-C ,  5-C ) :   1.3345 B(  1-C ,  8-H ) :   0.9254 B(  2-C ,  3-C ) :   1.3388
B(  2-C ,  9-H ) :   0.9188 B(  3-C ,  4-C ) :   1.2662 B(  3-C , 10-H ) :   0.9155
B(  4-C ,  5-C ) :   1.2660 B(  4-C ,  6-H ) :   0.9147 B(  5-C ,  7-H ) :   0.9041
B( 11-C , 12-C ) :   1.2831 B( 11-C , 14-C ) :   1.2527 B( 11-C , 15-H ) :   0.9126
B( 12-C , 16-C ) :   1.3236 B( 12-C , 17-H ) :   0.9051 B( 13-C , 14-C ) :   1.3390
B( 13-C , 16-C ) :   1.2757 B( 13-C , 19-H ) :   0.9159 B( 14-C , 18-H ) :   0.9160
B( 16-C , 20-H ) :   0.9277 B( 21-C , 22-H ) :   0.9173 B( 21-C , 23-H ) :   0.9193
B( 21-C , 24-H ) :   0.9075 B( 21-C , 26-H ) :   0.8957 B( 25-C , 27-H ) :   0.8927
B( 25-C , 28-H ) :   0.9131 B( 25-C , 29-H ) :   0.9061

Dispersion correction           -0.016834941
FINAL SINGLE POINT ENERGY     -1702.372100639168
Dispersion correction            ... done

DIPOLE MOMENT
-------------
                                X             Y             Z
Electronic contribution:     -1.68576      18.94025      -9.55753
Nuclear contribution   :      1.77040     -19.48352       9.84103
                        -----------------------------------------
Total Dipole Moment    :      0.08464      -0.54327       0.28350
                        -----------------------------------------
Magnitude (a.u.)       :      0.61861
Magnitude (Debye)      :      1.57238

Rotational constants in cm-1:     0.026873     0.018933     0.016357
Rotational constants in MHz :   805.637268   567.609664   490.361063

                             ****ORCA TERMINATED NORMALLY****
TOTAL RUN TIME: 0 days 0 hours 8 minutes 6 seconds 833 msec
