                         Program Version 5.0.3 -  RELEASE  -
|  1> ! EnGrad PBEh-3c
|  2> %output
|  3> xyzfile=True
|  4> end
|  5> %scf
|  6> maxiter 250
|  7> end
|  8> %output
|  9> Print[P_Hirshfeld] = 1
| 10> end
| 11> % maxcore
| 12> 4000
| 13> *xyz 0 1
| 14> Lu   0.09779498   0.39717772  -0.22047242
| 15> C    0.42132951   0.98904672   2.43338856
| 16> C    1.37624768  -0.03470084   2.19579553
| 17> C    2.33867329   0.47347765   1.31252152
| 18> C    1.95326951   1.78388679   0.94250468
| 19> C    0.79008857   2.11177466   1.68270401
| 20> H    2.52058607   2.46834490   0.32272807
| 21> H    0.21649703   3.02247085   1.60391943
| 22> H   -0.35444143   0.96110865   3.18174705
| 23> H    1.39405521  -1.00229694   2.68766492
| 24> H    3.19522731  -0.06249194   0.94161070
| 25> C    1.03039238  -0.05311616  -2.56962123
| 26> C   -0.24465792  -0.65465878  -2.65603727
| 27> C    1.05847993  -1.96016425  -1.31296115
| 28> C    1.84846265  -0.89928657  -1.77526709
| 29> H    1.35020672   0.81942643  -3.13004678
| 30> C   -0.24735777  -1.80041336  -1.84511871
| 31> H   -1.11110080  -0.24779286  -3.15068996
| 32> H    2.89517705  -0.74972524  -1.56460840
| 33> H    1.37486601  -2.77353134  -0.67043265
| 34> H   -1.02831552  -2.54945817  -1.83047701
| 35> C   -2.52293831  -1.59961685   1.36461182
| 36> H   -2.51581191  -1.45985839   2.42060880
| 37> H   -2.81239433  -2.59747006   1.12648075
| 38> H   -3.18562908  -0.90212884   0.89615589
| 39> C   -1.83183062   1.68567786  -0.69264782
| 40> H   -1.53232013  -1.29452471   0.92505783
| 41> H   -1.46055121   2.52667972  -1.31851861
| 42> H   -2.46072447   2.20582738   0.04561543
| 43> H   -2.57555629   1.20908514  -1.34940926
| 44> *
| 45>
| 46>                          ****END OF INPUT****

CARTESIAN COORDINATES (ANGSTROEM)
---------------------------------
  Lu     0.097795    0.397178   -0.220472
  C      0.421330    0.989047    2.433389
  C      1.376248   -0.034701    2.195796
  C      2.338673    0.473478    1.312522
  C      1.953270    1.783887    0.942505
  C      0.790089    2.111775    1.682704
  H      2.520586    2.468345    0.322728
  H      0.216497    3.022471    1.603919
  H     -0.354441    0.961109    3.181747
  H      1.394055   -1.002297    2.687665
  H      3.195227   -0.062492    0.941611
  C      1.030392   -0.053116   -2.569621
  C     -0.244658   -0.654659   -2.656037
  C      1.058480   -1.960164   -1.312961
  C      1.848463   -0.899287   -1.775267
  H      1.350207    0.819426   -3.130047
  C     -0.247358   -1.800413   -1.845119
  H     -1.111101   -0.247793   -3.150690
  H      2.895177   -0.749725   -1.564608
  H      1.374866   -2.773531   -0.670433
  H     -1.028316   -2.549458   -1.830477
  C     -2.522938   -1.599617    1.364612
  H     -2.515812   -1.459858    2.420609
  H     -2.812394   -2.597470    1.126481
  H     -3.185629   -0.902129    0.896156
  C     -1.831831    1.685678   -0.692648
  H     -1.532320   -1.294525    0.925058
  H     -1.460551    2.526680   -1.318519
  H     -2.460724    2.205827    0.045615
  H     -2.575556    1.209085   -1.349409

 Total Charge           Charge          ....    0
 Multiplicity           Mult            ....    1
 Number of Electrons    NEL             ....  132
 Basis Dimension        Dim             ....  295

ORBITAL ENERGIES
----------------

  NO   OCC          E(Eh)            E(eV)
   0   2.0000     -19.265378      -524.2376
   1   2.0000     -12.637872      -343.8940
   2   2.0000     -12.635509      -343.8297
   3   2.0000     -12.634988      -343.8155
   4   2.0000     -10.446249      -284.2569
   5   2.0000     -10.446079      -284.2523
   6   2.0000     -10.445549      -284.2378
   7   2.0000     -10.445081      -284.2251
   8   2.0000     -10.443984      -284.1953
   9   2.0000     -10.443231      -284.1748
  10   2.0000     -10.443182      -284.1734
  11   2.0000     -10.442972      -284.1677
  12   2.0000     -10.442345      -284.1506
  13   2.0000     -10.442230      -284.1475
  14   2.0000     -10.437516      -284.0193
  15   2.0000     -10.369338      -282.1640
  16   2.0000      -5.907032      -160.7385
  17   2.0000      -5.906769      -160.7314
  18   2.0000      -5.906208      -160.7161
  19   2.0000      -5.904850      -160.6791
  20   2.0000      -5.904631      -160.6732
  21   2.0000      -2.448530       -66.6279
  22   2.0000      -1.285925       -34.9918
  23   2.0000      -1.282462       -34.8976
  24   2.0000      -1.273551       -34.6551
  25   2.0000      -0.976326       -26.5672
  26   2.0000      -0.970221       -26.4011
  27   2.0000      -0.801328       -21.8053
  28   2.0000      -0.793535       -21.5932
  29   2.0000      -0.790338       -21.5062
  30   2.0000      -0.788804       -21.4645
  31   2.0000      -0.788297       -21.4506
  32   2.0000      -0.706475       -19.2242
  33   2.0000      -0.613645       -16.6981
  34   2.0000      -0.609973       -16.5982
  35   2.0000      -0.608242       -16.5511
  36   2.0000      -0.607315       -16.5259
  37   2.0000      -0.593905       -16.1610
  38   2.0000      -0.589827       -16.0500
  39   2.0000      -0.574793       -15.6409
  40   2.0000      -0.573281       -15.5998
  41   2.0000      -0.573038       -15.5932
  42   2.0000      -0.572255       -15.5719
  43   2.0000      -0.571653       -15.5555
  44   2.0000      -0.570350       -15.5200
  45   2.0000      -0.568827       -15.4786
  46   2.0000      -0.486881       -13.2487
  47   2.0000      -0.473143       -12.8749
  48   2.0000      -0.464030       -12.6269
  49   2.0000      -0.453500       -12.3404
  50   2.0000      -0.450745       -12.2654
  51   2.0000      -0.448682       -12.2093
  52   2.0000      -0.447375       -12.1737
  53   2.0000      -0.446744       -12.1565
  54   2.0000      -0.437331       -11.9004
  55   2.0000      -0.430500       -11.7145
  56   2.0000      -0.429572       -11.6892
  57   2.0000      -0.427221       -11.6253
  58   2.0000      -0.424656       -11.5555
  59   2.0000      -0.394018       -10.7218
  60   2.0000      -0.391419       -10.6511
  61   2.0000      -0.288590        -7.8529
  62   2.0000      -0.282030        -7.6744
  63   2.0000      -0.276500        -7.5239
  64   2.0000      -0.270312        -7.3556
  65   2.0000      -0.262921        -7.1545
  66   0.0000      -0.029203        -0.7947
  67   0.0000       0.009624         0.2619
  68   0.0000       0.042569         1.1584
  69   0.0000       0.052894         1.4393
  70   0.0000       0.056840         1.5467

MULLIKEN ATOMIC CHARGES
-----------------------
   0 Lu:    0.911897
   1 C :   -0.314406
   2 C :   -0.303799
   3 C :   -0.214935
   4 C :   -0.405432
   5 C :   -0.222692
   6 H :    0.243223
   7 H :    0.252973
   8 H :    0.230779
   9 H :    0.231682
  10 H :    0.231975
  11 C :   -0.401953
  12 C :   -0.199842
  13 C :   -0.260457
  14 C :   -0.254054
  15 H :    0.246130
  16 C :   -0.345398
  17 H :    0.250683
  18 H :    0.233761
  19 H :    0.233374
  20 H :    0.228551
  21 C :   -0.883460
  22 H :    0.247450
  23 H :    0.246895
  24 H :    0.267265
  25 C :   -1.083569
  26 H :    0.178569
  27 H :    0.210841
  28 H :    0.225140
  29 H :    0.218811
Sum of atomic charges:    0.0000000

LOEWDIN ATOMIC CHARGES
----------------------
   0 Lu:    0.102197
   1 C :   -0.151532
   2 C :   -0.157662
   3 C :   -0.130948
   4 C :   -0.172898
   5 C :   -0.135393
   6 H :    0.156598
   7 H :    0.159552
   8 H :    0.151440
   9 H :    0.149752
  10 H :    0.149538
  11 C :   -0.171063
  12 C :   -0.129608
  13 C :   -0.148454
  14 C :   -0.138165
  15 H :    0.158369
  16 C :   -0.159547
  17 H :    0.157965
  18 H :    0.151033
  19 H :    0.149842
  20 H :    0.151006
  21 C :   -0.469516
  22 H :    0.140526
  23 H :    0.140136
  24 H :    0.151152
  25 C :   -0.650136
  26 H :    0.136722
  27 H :    0.141320
  28 H :    0.133904
  29 H :    0.133870

  Mayer bond orders larger than 0.100000
B(  0-Lu,  1-C ) :   0.2409 B(  0-Lu,  2-C ) :   0.2402 B(  0-Lu,  3-C ) :   0.2272
B(  0-Lu,  4-C ) :   0.3042 B(  0-Lu,  5-C ) :   0.2315 B(  0-Lu, 11-C ) :   0.3079
B(  0-Lu, 12-C ) :   0.2198 B(  0-Lu, 13-C ) :   0.2293 B(  0-Lu, 14-C ) :   0.2411
B(  0-Lu, 16-C ) :   0.2494 B(  0-Lu, 25-C ) :   0.8286 B(  1-C ,  2-C ) :   1.2772
B(  1-C ,  5-C ) :   1.3304 B(  1-C ,  8-H ) :   0.9247 B(  2-C ,  3-C ) :   1.3330
B(  2-C ,  9-H ) :   0.9192 B(  3-C ,  4-C ) :   1.2762 B(  3-C , 10-H ) :   0.9160
B(  4-C ,  5-C ) :   1.2635 B(  4-C ,  6-H ) :   0.9155 B(  5-C ,  7-H ) :   0.9037
B( 11-C , 12-C ) :   1.2793 B( 11-C , 14-C ) :   1.2609 B( 11-C , 15-H ) :   0.9134
B( 12-C , 16-C ) :   1.3208 B( 12-C , 17-H ) :   0.9048 B( 13-C , 14-C ) :   1.3352
B( 13-C , 16-C ) :   1.2792 B( 13-C , 19-H ) :   0.9162 B( 14-C , 18-H ) :   0.9167
B( 16-C , 20-H ) :   0.9273 B( 21-C , 22-H ) :   0.9181 B( 21-C , 23-H ) :   0.9199
B( 21-C , 24-H ) :   0.9072 B( 21-C , 26-H ) :   0.8946 B( 25-C , 27-H ) :   0.8913
B( 25-C , 28-H ) :   0.9116 B( 25-C , 29-H ) :   0.9046

Dispersion correction           -0.016843934
FINAL SINGLE POINT ENERGY     -1702.374652027977
Dispersion correction            ... done

DIPOLE MOMENT
-------------
                                X             Y             Z
Electronic contribution:     -2.75667      19.13234      -9.48009
Nuclear contribution   :      2.79182     -19.66616       9.76789
                        -----------------------------------------
Total Dipole Moment    :      0.03515      -0.53382       0.28780
                        -----------------------------------------
Magnitude (a.u.)       :      0.60748
Magnitude (Debye)      :      1.54408

Rotational constants in cm-1:     0.026814     0.018943     0.016356
Rotational constants in MHz :   803.867662   567.887699   490.349740

                             ****ORCA TERMINATED NORMALLY****
TOTAL RUN TIME: 0 days 0 hours 8 minutes 52 seconds 732 msec
