                         Program Version 5.0.3 -  RELEASE  -
|  1> ! EnGrad PBEh-3c
|  2> %output
|  3> xyzfile=True
|  4> end
|  5> %scf
|  6> maxiter 250
|  7> end
|  8> %output
|  9> Print[P_Hirshfeld] = 1
| 10> end
| 11> % maxcore
| 12> 4000
| 13> *xyz 0 1
| 14> Lu   0.02638532   0.40791247  -0.21273408
| 15> C    0.42121851   0.97547205   2.41888314
| 16> C    1.36543012  -0.04070083   2.18737918
| 17> C    2.33276315   0.47449980   1.30349888
| 18> C    1.95468076   1.78407483   0.93759228
| 19> C    0.79754890   2.11772419   1.68144030
| 20> H    2.52420439   2.46815233   0.32091333
| 21> H    0.22664120   3.02651636   1.61043345
| 22> H   -0.36160265   0.94914830   3.16779425
| 23> H    1.38892894  -1.00520054   2.67535690
| 24> H    3.19997779  -0.06213255   0.94537613
| 25> C    1.03491377  -0.05101852  -2.57213104
| 26> C   -0.24204414  -0.65250785  -2.65920877
| 27> C    1.05293218  -1.95551012  -1.30287813
| 28> C    1.84434538  -0.89035051  -1.77147739
| 29> H    1.35555841   0.81994701  -3.12810034
| 30> C   -0.24457804  -1.78952540  -1.82625876
| 31> H   -1.10487405  -0.24745196  -3.16032719
| 32> H    2.89664960  -0.75072047  -1.56436213
| 33> H    1.37669119  -2.77068837  -0.67144852
| 34> H   -1.02894003  -2.53860443  -1.79878416
| 35> C   -2.54088976  -1.57066658   1.35485472
| 36> H   -2.47946775  -1.45762894   2.41924477
| 37> H   -2.72659810  -2.60046920   1.10481371
| 38> H   -3.25464048  -0.91983857   0.93136861
| 39> C   -1.81335221   1.69023230  -0.70646739
| 40> H   -1.60466287  -1.28797810   0.92230089
| 41> H   -1.46092011   2.52052347  -1.31991014
| 42> H   -2.42162860   2.17558333   0.04838198
| 43> H   -2.54803057   1.20646883  -1.34393528
| 44> *
| 45>
| 46>                          ****END OF INPUT****

CARTESIAN COORDINATES (ANGSTROEM)
---------------------------------
  Lu     0.026385    0.407912   -0.212734
  C      0.421219    0.975472    2.418883
  C      1.365430   -0.040701    2.187379
  C      2.332763    0.474500    1.303499
  C      1.954681    1.784075    0.937592
  C      0.797549    2.117724    1.681440
  H      2.524204    2.468152    0.320913
  H      0.226641    3.026516    1.610433
  H     -0.361603    0.949148    3.167794
  H      1.388929   -1.005201    2.675357
  H      3.199978   -0.062133    0.945376
  C      1.034914   -0.051019   -2.572131
  C     -0.242044   -0.652508   -2.659209
  C      1.052932   -1.955510   -1.302878
  C      1.844345   -0.890351   -1.771477
  H      1.355558    0.819947   -3.128100
  C     -0.244578   -1.789525   -1.826259
  H     -1.104874   -0.247452   -3.160327
  H      2.896650   -0.750720   -1.564362
  H      1.376691   -2.770688   -0.671449
  H     -1.028940   -2.538604   -1.798784
  C     -2.540890   -1.570667    1.354855
  H     -2.479468   -1.457629    2.419245
  H     -2.726598   -2.600469    1.104814
  H     -3.254640   -0.919839    0.931369
  C     -1.813352    1.690232   -0.706467
  H     -1.604663   -1.287978    0.922301
  H     -1.460920    2.520523   -1.319910
  H     -2.421629    2.175583    0.048382
  H     -2.548031    1.206469   -1.343935

 Total Charge           Charge          ....    0
 Multiplicity           Mult            ....    1
 Number of Electrons    NEL             ....  132
 Basis Dimension        Dim             ....  295

ORBITAL ENERGIES
----------------

  NO   OCC          E(Eh)            E(eV)
   0   2.0000     -19.264488      -524.2134
   1   2.0000     -12.636977      -343.8696
   2   2.0000     -12.634646      -343.8062
   3   2.0000     -12.634045      -343.7898
   4   2.0000     -10.443591      -284.1846
   5   2.0000     -10.443555      -284.1836
   6   2.0000     -10.442687      -284.1600
   7   2.0000     -10.442417      -284.1526
   8   2.0000     -10.441815      -284.1362
   9   2.0000     -10.441754      -284.1346
  10   2.0000     -10.441548      -284.1290
  11   2.0000     -10.441255      -284.1210
  12   2.0000     -10.440577      -284.1025
  13   2.0000     -10.440489      -284.1001
  14   2.0000     -10.434437      -283.9355
  15   2.0000     -10.365047      -282.0473
  16   2.0000      -5.906153      -160.7146
  17   2.0000      -5.905885      -160.7073
  18   2.0000      -5.905277      -160.6908
  19   2.0000      -5.903968      -160.6551
  20   2.0000      -5.903713      -160.6482
  21   2.0000      -2.447726       -66.6060
  22   2.0000      -1.285191       -34.9718
  23   2.0000      -1.281050       -34.8592
  24   2.0000      -1.273389       -34.6507
  25   2.0000      -0.973917       -26.5016
  26   2.0000      -0.968364       -26.3505
  27   2.0000      -0.809174       -22.0187
  28   2.0000      -0.789336       -21.4789
  29   2.0000      -0.788930       -21.4679
  30   2.0000      -0.788366       -21.4525
  31   2.0000      -0.785219       -21.3669
  32   2.0000      -0.716878       -19.5072
  33   2.0000      -0.611041       -16.6273
  34   2.0000      -0.608132       -16.5481
  35   2.0000      -0.606543       -16.5049
  36   2.0000      -0.605157       -16.4672
  37   2.0000      -0.592053       -16.1106
  38   2.0000      -0.587607       -15.9896
  39   2.0000      -0.573888       -15.6163
  40   2.0000      -0.572388       -15.5755
  41   2.0000      -0.572309       -15.5733
  42   2.0000      -0.571470       -15.5505
  43   2.0000      -0.570729       -15.5303
  44   2.0000      -0.569504       -15.4970
  45   2.0000      -0.567965       -15.4551
  46   2.0000      -0.484853       -13.1935
  47   2.0000      -0.475460       -12.9379
  48   2.0000      -0.472346       -12.8532
  49   2.0000      -0.457654       -12.4534
  50   2.0000      -0.448896       -12.2151
  51   2.0000      -0.448401       -12.2016
  52   2.0000      -0.446580       -12.1521
  53   2.0000      -0.443250       -12.0615
  54   2.0000      -0.434395       -11.8205
  55   2.0000      -0.428459       -11.6590
  56   2.0000      -0.427754       -11.6398
  57   2.0000      -0.425350       -11.5744
  58   2.0000      -0.423346       -11.5198
  59   2.0000      -0.404658       -11.0113
  60   2.0000      -0.401142       -10.9156
  61   2.0000      -0.287414        -7.8209
  62   2.0000      -0.280335        -7.6283
  63   2.0000      -0.277124        -7.5409
  64   2.0000      -0.274679        -7.4744
  65   2.0000      -0.256342        -6.9754
  66   0.0000      -0.026805        -0.7294
  67   0.0000       0.012818         0.3488
  68   0.0000       0.042930         1.1682
  69   0.0000       0.050683         1.3792
  70   0.0000       0.053633         1.4594

MULLIKEN ATOMIC CHARGES
-----------------------
   0 Lu:    0.940482
   1 C :   -0.334718
   2 C :   -0.292867
   3 C :   -0.215575
   4 C :   -0.396033
   5 C :   -0.226134
   6 H :    0.239940
   7 H :    0.250744
   8 H :    0.230116
   9 H :    0.230202
  10 H :    0.227760
  11 C :   -0.390311
  12 C :   -0.207251
  13 C :   -0.250171
  14 C :   -0.254132
  15 H :    0.243319
  16 C :   -0.362882
  17 H :    0.248045
  18 H :    0.229453
  19 H :    0.230974
  20 H :    0.227695
  21 C :   -0.896985
  22 H :    0.246296
  23 H :    0.245877
  24 H :    0.266737
  25 C :   -1.116398
  26 H :    0.194433
  27 H :    0.226260
  28 H :    0.235694
  29 H :    0.229430
Sum of atomic charges:   -0.0000000

LOEWDIN ATOMIC CHARGES
----------------------
   0 Lu:    0.123859
   1 C :   -0.158733
   2 C :   -0.158811
   3 C :   -0.132739
   4 C :   -0.169685
   5 C :   -0.141809
   6 H :    0.154880
   7 H :    0.158206
   8 H :    0.150625
   9 H :    0.149077
  10 H :    0.147448
  11 C :   -0.168780
  12 C :   -0.136560
  13 C :   -0.149889
  14 C :   -0.139133
  15 H :    0.156524
  16 C :   -0.165559
  17 H :    0.156694
  18 H :    0.148796
  19 H :    0.148738
  20 H :    0.149990
  21 C :   -0.471488
  22 H :    0.142023
  23 H :    0.141192
  24 H :    0.150668
  25 C :   -0.651208
  26 H :    0.134619
  27 H :    0.149350
  28 H :    0.140369
  29 H :    0.141336

  Mayer bond orders larger than 0.100000
B(  0-Lu,  1-C ) :   0.2493 B(  0-Lu,  2-C ) :   0.2331 B(  0-Lu,  3-C ) :   0.2131
B(  0-Lu,  4-C ) :   0.2885 B(  0-Lu,  5-C ) :   0.2343 B(  0-Lu, 11-C ) :   0.2955
B(  0-Lu, 12-C ) :   0.2231 B(  0-Lu, 13-C ) :   0.2199 B(  0-Lu, 14-C ) :   0.2271
B(  0-Lu, 16-C ) :   0.2562 B(  0-Lu, 25-C ) :   0.8365 B(  1-C ,  2-C ) :   1.2812
B(  1-C ,  5-C ) :   1.3169 B(  1-C ,  8-H ) :   0.9238 B(  2-C ,  3-C ) :   1.3348
B(  2-C ,  9-H ) :   0.9199 B(  3-C ,  4-C ) :   1.2919 B(  3-C , 10-H ) :   0.9182
B(  4-C ,  5-C ) :   1.2696 B(  4-C ,  6-H ) :   0.9175 B(  5-C ,  7-H ) :   0.9039
B( 11-C , 12-C ) :   1.2825 B( 11-C , 14-C ) :   1.2759 B( 11-C , 15-H ) :   0.9146
B( 12-C , 16-C ) :   1.3102 B( 12-C , 17-H ) :   0.9054 B( 13-C , 14-C ) :   1.3391
B( 13-C , 16-C ) :   1.2826 B( 13-C , 19-H ) :   0.9177 B( 14-C , 18-H ) :   0.9188
B( 16-C , 20-H ) :   0.9264 B( 21-C , 22-H ) :   0.9213 B( 21-C , 23-H ) :   0.9225
B( 21-C , 24-H ) :   0.9097 B( 21-C , 26-H ) :   0.8854 B( 25-C , 27-H ) :   0.8876
B( 25-C , 28-H ) :   0.9056 B( 25-C , 29-H ) :   0.8989

Dispersion correction           -0.016892961
FINAL SINGLE POINT ENERGY     -1702.375636886148
Dispersion correction            ... done

DIPOLE MOMENT
-------------
                                X             Y             Z
Electronic contribution:     -6.42855      19.62452      -9.02658
Nuclear contribution   :      6.31806     -20.12120       9.33291
                        -----------------------------------------
Total Dipole Moment    :     -0.11050      -0.49667       0.30633
                        -----------------------------------------
Magnitude (a.u.)       :      0.59391
Magnitude (Debye)      :      1.50961

Rotational constants in cm-1:     0.026689     0.019027     0.016385
Rotational constants in MHz :   800.105899   570.408901   491.215330

                             ****ORCA TERMINATED NORMALLY****
TOTAL RUN TIME: 0 days 0 hours 8 minutes 9 seconds 511 msec
