                         Program Version 5.0.3 -  RELEASE  -
|  1> ! EnGrad PBEh-3c
|  2> %output
|  3> xyzfile=True
|  4> end
|  5> %scf
|  6> maxiter 250
|  7> end
|  8> %output
|  9> Print[P_Hirshfeld] = 1
| 10> end
| 11> % maxcore
| 12> 4000
| 13> *xyz 0 1
| 14> Lu   0.03960961   0.39874014  -0.20771775
| 15> C    0.42499588   0.97651559   2.41339577
| 16> C    1.36021164  -0.04302145   2.18877304
| 17> C    2.33279755   0.46920188   1.29102375
| 18> C    1.95570772   1.78585201   0.93930145
| 19> C    0.78768166   2.11123349   1.67454164
| 20> H    2.52296473   2.46559296   0.32092986
| 21> H    0.22992784   3.02916771   1.61446916
| 22> H   -0.36770471   0.94525002   3.16671451
| 23> H    1.38959724  -1.00428593   2.67075964
| 24> H    3.19951371  -0.06102031   0.94607683
| 25> C    1.03513944  -0.05160960  -2.57573459
| 26> C   -0.25010737  -0.64666461  -2.64590727
| 27> C    1.04774902  -1.95640642  -1.29439171
| 28> C    1.84947300  -0.88248963  -1.76586834
| 29> H    1.35567010   0.81744336  -3.12513150
| 30> C   -0.24010554  -1.78737804  -1.83021492
| 31> H   -1.10369987  -0.24906797  -3.16483995
| 32> H    2.89366362  -0.75083761  -1.56426240
| 33> H    1.37802227  -2.76762690  -0.67315330
| 34> H   -1.03257721  -2.53551884  -1.78907242
| 35> C   -2.54238920  -1.56733629   1.35336134
| 36> H   -2.47277533  -1.45489317   2.42649246
| 37> H   -2.71240590  -2.60637780   1.09809817
| 38> H   -3.27978443  -0.92175126   0.93466463
| 39> C   -1.81453075   1.69553446  -0.71234660
| 40> H   -1.60355344  -1.28158932   0.91730200
| 41> H   -1.45639452   2.52325184  -1.32259902
| 42> H   -2.41618345   2.17550805   0.05385697
| 43> H   -2.54549045   1.20382987  -1.34926443
| 44> *
| 45>
| 46>                          ****END OF INPUT****

CARTESIAN COORDINATES (ANGSTROEM)
---------------------------------
  Lu     0.039610    0.398740   -0.207718
  C      0.424996    0.976516    2.413396
  C      1.360212   -0.043021    2.188773
  C      2.332798    0.469202    1.291024
  C      1.955708    1.785852    0.939301
  C      0.787682    2.111233    1.674542
  H      2.522965    2.465593    0.320930
  H      0.229928    3.029168    1.614469
  H     -0.367705    0.945250    3.166715
  H      1.389597   -1.004286    2.670760
  H      3.199514   -0.061020    0.946077
  C      1.035139   -0.051610   -2.575735
  C     -0.250107   -0.646665   -2.645907
  C      1.047749   -1.956406   -1.294392
  C      1.849473   -0.882490   -1.765868
  H      1.355670    0.817443   -3.125132
  C     -0.240106   -1.787378   -1.830215
  H     -1.103700   -0.249068   -3.164840
  H      2.893664   -0.750838   -1.564262
  H      1.378022   -2.767627   -0.673153
  H     -1.032577   -2.535519   -1.789072
  C     -2.542389   -1.567336    1.353361
  H     -2.472775   -1.454893    2.426492
  H     -2.712406   -2.606378    1.098098
  H     -3.279784   -0.921751    0.934665
  C     -1.814531    1.695534   -0.712347
  H     -1.603553   -1.281589    0.917302
  H     -1.456395    2.523252   -1.322599
  H     -2.416183    2.175508    0.053857
  H     -2.545490    1.203830   -1.349264

 Total Charge           Charge          ....    0
 Multiplicity           Mult            ....    1
 Number of Electrons    NEL             ....  132
 Basis Dimension        Dim             ....  295

ORBITAL ENERGIES
----------------

  NO   OCC          E(Eh)            E(eV)
   0   2.0000     -19.263416      -524.1842
   1   2.0000     -12.635957      -343.8419
   2   2.0000     -12.633555      -343.7765
   3   2.0000     -12.632938      -343.7597
   4   2.0000     -10.444329      -284.2047
   5   2.0000     -10.444108      -284.1986
   6   2.0000     -10.443124      -284.1719
   7   2.0000     -10.443031      -284.1693
   8   2.0000     -10.442555      -284.1564
   9   2.0000     -10.442531      -284.1557
  10   2.0000     -10.442235      -284.1477
  11   2.0000     -10.442147      -284.1453
  12   2.0000     -10.440498      -284.1004
  13   2.0000     -10.439998      -284.0868
  14   2.0000     -10.438094      -284.0350
  15   2.0000     -10.363874      -282.0154
  16   2.0000      -5.905114      -160.6863
  17   2.0000      -5.904833      -160.6787
  18   2.0000      -5.904208      -160.6617
  19   2.0000      -5.902849      -160.6247
  20   2.0000      -5.902606      -160.6181
  21   2.0000      -2.446644       -66.5766
  22   2.0000      -1.284248       -34.9462
  23   2.0000      -1.280377       -34.8408
  24   2.0000      -1.271980       -34.6123
  25   2.0000      -0.973925       -26.5018
  26   2.0000      -0.967917       -26.3384
  27   2.0000      -0.806481       -21.9455
  28   2.0000      -0.789701       -21.4889
  29   2.0000      -0.789516       -21.4838
  30   2.0000      -0.789053       -21.4712
  31   2.0000      -0.785772       -21.3819
  32   2.0000      -0.713496       -19.4152
  33   2.0000      -0.613418       -16.6919
  34   2.0000      -0.609422       -16.5832
  35   2.0000      -0.606757       -16.5107
  36   2.0000      -0.605285       -16.4706
  37   2.0000      -0.592862       -16.1326
  38   2.0000      -0.588446       -16.0124
  39   2.0000      -0.572856       -15.5882
  40   2.0000      -0.571369       -15.5477
  41   2.0000      -0.571271       -15.5451
  42   2.0000      -0.570392       -15.5211
  43   2.0000      -0.569640       -15.5007
  44   2.0000      -0.568382       -15.4665
  45   2.0000      -0.566836       -15.4244
  46   2.0000      -0.481803       -13.1105
  47   2.0000      -0.475461       -12.9380
  48   2.0000      -0.470971       -12.8158
  49   2.0000      -0.457475       -12.4485
  50   2.0000      -0.449912       -12.2427
  51   2.0000      -0.449113       -12.2210
  52   2.0000      -0.447993       -12.1905
  53   2.0000      -0.444992       -12.1089
  54   2.0000      -0.433052       -11.7840
  55   2.0000      -0.431055       -11.7296
  56   2.0000      -0.429089       -11.6761
  57   2.0000      -0.425538       -11.5795
  58   2.0000      -0.422549       -11.4981
  59   2.0000      -0.402828       -10.9615
  60   2.0000      -0.399521       -10.8715
  61   2.0000      -0.287203        -7.8152
  62   2.0000      -0.280691        -7.6380
  63   2.0000      -0.277094        -7.5401
  64   2.0000      -0.271231        -7.3806
  65   2.0000      -0.256967        -6.9924
  66   0.0000      -0.026207        -0.7131
  67   0.0000       0.012366         0.3365
  68   0.0000       0.043008         1.1703
  69   0.0000       0.051393         1.3985
  70   0.0000       0.054814         1.4916

MULLIKEN ATOMIC CHARGES
-----------------------
   0 Lu:    0.921978
   1 C :   -0.323111
   2 C :   -0.290045
   3 C :   -0.231900
   4 C :   -0.377052
   5 C :   -0.237679
   6 H :    0.240261
   7 H :    0.251195
   8 H :    0.229960
   9 H :    0.231209
  10 H :    0.228785
  11 C :   -0.371150
  12 C :   -0.223578
  13 C :   -0.258813
  14 C :   -0.263755
  15 H :    0.243250
  16 C :   -0.342003
  17 H :    0.248197
  18 H :    0.230481
  19 H :    0.231487
  20 H :    0.227986
  21 C :   -0.891293
  22 H :    0.244761
  23 H :    0.244597
  24 H :    0.265372
  25 C :   -1.103992
  26 H :    0.193493
  27 H :    0.224020
  28 H :    0.231461
  29 H :    0.225877
Sum of atomic charges:    0.0000000

LOEWDIN ATOMIC CHARGES
----------------------
   0 Lu:    0.112281
   1 C :   -0.154218
   2 C :   -0.158501
   3 C :   -0.132908
   4 C :   -0.165212
   5 C :   -0.143041
   6 H :    0.154756
   7 H :    0.159017
   8 H :    0.151052
   9 H :    0.149390
  10 H :    0.147800
  11 C :   -0.163996
  12 C :   -0.139069
  13 C :   -0.151581
  14 C :   -0.138915
  15 H :    0.156026
  16 C :   -0.159582
  17 H :    0.157377
  18 H :    0.148861
  19 H :    0.148961
  20 H :    0.149967
  21 C :   -0.470044
  22 H :    0.141996
  23 H :    0.140916
  24 H :    0.151386
  25 C :   -0.651852
  26 H :    0.134394
  27 H :    0.147132
  28 H :    0.138386
  29 H :    0.139221

  Mayer bond orders larger than 0.100000
B(  0-Lu,  1-C ) :   0.2474 B(  0-Lu,  2-C ) :   0.2380 B(  0-Lu,  3-C ) :   0.2210
B(  0-Lu,  4-C ) :   0.2884 B(  0-Lu,  5-C ) :   0.2367 B(  0-Lu, 11-C ) :   0.2937
B(  0-Lu, 12-C ) :   0.2260 B(  0-Lu, 13-C ) :   0.2273 B(  0-Lu, 14-C ) :   0.2347
B(  0-Lu, 16-C ) :   0.2521 B(  0-Lu, 25-C ) :   0.8379 B(  1-C ,  2-C ) :   1.2843
B(  1-C ,  5-C ) :   1.3174 B(  1-C ,  8-H ) :   0.9229 B(  2-C ,  3-C ) :   1.3251
B(  2-C ,  9-H ) :   0.9197 B(  3-C ,  4-C ) :   1.2969 B(  3-C , 10-H ) :   0.9191
B(  4-C ,  5-C ) :   1.2678 B(  4-C ,  6-H ) :   0.9171 B(  5-C ,  7-H ) :   0.9055
B( 11-C , 12-C ) :   1.2800 B( 11-C , 14-C ) :   1.2832 B( 11-C , 15-H ) :   0.9144
B( 12-C , 16-C ) :   1.3128 B( 12-C , 17-H ) :   0.9075 B( 13-C , 14-C ) :   1.3257
B( 13-C , 16-C ) :   1.2881 B( 13-C , 19-H ) :   0.9184 B( 14-C , 18-H ) :   0.9193
B( 16-C , 20-H ) :   0.9251 B( 21-C , 22-H ) :   0.9213 B( 21-C , 23-H ) :   0.9221
B( 21-C , 24-H ) :   0.9104 B( 21-C , 26-H ) :   0.8839 B( 25-C , 27-H ) :   0.8896
B( 25-C , 28-H ) :   0.9072 B( 25-C , 29-H ) :   0.9009

Dispersion correction           -0.016909019
FINAL SINGLE POINT ENERGY     -1702.378170991526
Dispersion correction            ... done

DIPOLE MOMENT
-------------
                                X             Y             Z
Electronic contribution:     -5.70042      19.11433      -8.73769
Nuclear contribution   :      5.63812     -19.64585       9.06903
                        -----------------------------------------
Total Dipole Moment    :     -0.06230      -0.53151       0.33134
                        -----------------------------------------
Magnitude (a.u.)       :      0.62942
Magnitude (Debye)      :      1.59986

Rotational constants in cm-1:     0.026746     0.019100     0.016434
Rotational constants in MHz :   801.810298   572.601297   492.677999

                             ****ORCA TERMINATED NORMALLY****
TOTAL RUN TIME: 0 days 0 hours 8 minutes 11 seconds 709 msec
