                         Program Version 5.0.3 -  RELEASE  -
|  1> ! EnGrad PBEh-3c
|  2> %output
|  3> xyzfile=True
|  4> end
|  5> %scf
|  6> maxiter 250
|  7> end
|  8> %output
|  9> Print[P_Hirshfeld] = 1
| 10> end
| 11> % maxcore
| 12> 4000
| 13> *xyz 0 1
| 14> Lu   0.05221941   0.38833032  -0.20196966
| 15> C    0.42016158   0.97586900   2.41389306
| 16> C    1.36028287  -0.04352287   2.18209729
| 17> C    2.32485172   0.46484321   1.28085520
| 18> C    1.95585176   1.78517395   0.94151127
| 19> C    0.78022305   2.10535283   1.66330326
| 20> H    2.52212244   2.46344409   0.32001988
| 21> H    0.23390303   3.03300870   1.61986262
| 22> H   -0.37195198   0.93998456   3.16014436
| 23> H    1.38950416  -1.00567542   2.66597965
| 24> H    3.20187736  -0.06126393   0.94557877
| 25> C    1.03471981  -0.05557413  -2.57632952
| 26> C   -0.25476436  -0.63674192  -2.63186071
| 27> C    1.04669201  -1.94767164  -1.28761767
| 28> C    1.84499488  -0.87715594  -1.75909344
| 29> H    1.35666685   0.81660939  -3.12291333
| 30> C   -0.24080631  -1.78974644  -1.83152043
| 31> H   -1.10309643  -0.25073282  -3.17107389
| 32> H    2.89444970  -0.74996889  -1.56325917
| 33> H    1.38017240  -2.76654060  -0.67313998
| 34> H   -1.03490168  -2.52839166  -1.77525696
| 35> C   -2.54411717  -1.56399742   1.35290230
| 36> H   -2.46319468  -1.45173096   2.43240973
| 37> H   -2.69076289  -2.61118894   1.08955470
| 38> H   -3.31385389  -0.92579627   0.94109905
| 39> C   -1.81284488   1.69950122  -0.71855014
| 40> H   -1.60679550  -1.27286015   0.91090697
| 41> H   -1.45050105   2.52802160  -1.32724458
| 42> H   -2.40738457   2.17371312   0.06139127
| 43> H   -2.54146751   1.19994843  -1.35587866
| 44> *
| 45>
| 46>                          ****END OF INPUT****

CARTESIAN COORDINATES (ANGSTROEM)
---------------------------------
  Lu     0.052219    0.388330   -0.201970
  C      0.420162    0.975869    2.413893
  C      1.360283   -0.043523    2.182097
  C      2.324852    0.464843    1.280855
  C      1.955852    1.785174    0.941511
  C      0.780223    2.105353    1.663303
  H      2.522122    2.463444    0.320020
  H      0.233903    3.033009    1.619863
  H     -0.371952    0.939985    3.160144
  H      1.389504   -1.005675    2.665980
  H      3.201877   -0.061264    0.945579
  C      1.034720   -0.055574   -2.576330
  C     -0.254764   -0.636742   -2.631861
  C      1.046692   -1.947672   -1.287618
  C      1.844995   -0.877156   -1.759093
  H      1.356667    0.816609   -3.122913
  C     -0.240806   -1.789746   -1.831520
  H     -1.103096   -0.250733   -3.171074
  H      2.894450   -0.749969   -1.563259
  H      1.380172   -2.766541   -0.673140
  H     -1.034902   -2.528392   -1.775257
  C     -2.544117   -1.563997    1.352902
  H     -2.463195   -1.451731    2.432410
  H     -2.690763   -2.611189    1.089555
  H     -3.313854   -0.925796    0.941099
  C     -1.812845    1.699501   -0.718550
  H     -1.606796   -1.272860    0.910907
  H     -1.450501    2.528022   -1.327245
  H     -2.407385    2.173713    0.061391
  H     -2.541468    1.199948   -1.355879

 Total Charge           Charge          ....    0
 Multiplicity           Mult            ....    1
 Number of Electrons    NEL             ....  132
 Basis Dimension        Dim             ....  295

ORBITAL ENERGIES
----------------

  NO   OCC          E(Eh)            E(eV)
   0   2.0000     -19.261926      -524.1437
   1   2.0000     -12.634505      -343.8024
   2   2.0000     -12.632043      -343.7354
   3   2.0000     -12.631420      -343.7184
   4   2.0000     -10.444617      -284.2125
   5   2.0000     -10.443860      -284.1919
   6   2.0000     -10.443649      -284.1861
   7   2.0000     -10.443275      -284.1760
   8   2.0000     -10.443030      -284.1693
   9   2.0000     -10.442865      -284.1648
  10   2.0000     -10.442647      -284.1589
  11   2.0000     -10.442130      -284.1448
  12   2.0000     -10.441607      -284.1306
  13   2.0000     -10.440989      -284.1138
  14   2.0000     -10.439773      -284.0807
  15   2.0000     -10.363200      -281.9970
  16   2.0000      -5.903642      -160.6463
  17   2.0000      -5.903350      -160.6383
  18   2.0000      -5.902714      -160.6210
  19   2.0000      -5.901316      -160.5830
  20   2.0000      -5.901082      -160.5766
  21   2.0000      -2.445169       -66.5364
  22   2.0000      -1.282933       -34.9104
  23   2.0000      -1.279388       -34.8139
  24   2.0000      -1.270389       -34.5691
  25   2.0000      -0.975119       -26.5343
  26   2.0000      -0.968848       -26.3637
  27   2.0000      -0.803890       -21.8750
  28   2.0000      -0.790580       -21.5128
  29   2.0000      -0.790025       -21.4977
  30   2.0000      -0.789458       -21.4822
  31   2.0000      -0.786572       -21.4037
  32   2.0000      -0.709557       -19.3080
  33   2.0000      -0.613064       -16.6823
  34   2.0000      -0.609300       -16.5799
  35   2.0000      -0.607515       -16.5313
  36   2.0000      -0.606109       -16.4931
  37   2.0000      -0.593537       -16.1510
  38   2.0000      -0.588987       -16.0272
  39   2.0000      -0.571403       -15.5487
  40   2.0000      -0.569938       -15.5088
  41   2.0000      -0.569801       -15.5051
  42   2.0000      -0.568874       -15.4798
  43   2.0000      -0.568140       -15.4599
  44   2.0000      -0.566852       -15.4248
  45   2.0000      -0.565280       -15.3821
  46   2.0000      -0.479935       -13.0597
  47   2.0000      -0.473741       -12.8912
  48   2.0000      -0.470100       -12.7921
  49   2.0000      -0.457995       -12.4627
  50   2.0000      -0.450090       -12.2476
  51   2.0000      -0.449048       -12.2192
  52   2.0000      -0.448600       -12.2070
  53   2.0000      -0.445867       -12.1327
  54   2.0000      -0.433056       -11.7840
  55   2.0000      -0.431130       -11.7316
  56   2.0000      -0.429094       -11.6762
  57   2.0000      -0.427253       -11.6261
  58   2.0000      -0.424511       -11.5515
  59   2.0000      -0.400351       -10.8941
  60   2.0000      -0.397756       -10.8235
  61   2.0000      -0.287804        -7.8316
  62   2.0000      -0.280824        -7.6416
  63   2.0000      -0.276948        -7.5361
  64   2.0000      -0.267498        -7.2790
  65   2.0000      -0.258582        -7.0364
  66   0.0000      -0.025284        -0.6880
  67   0.0000       0.011565         0.3147
  68   0.0000       0.043053         1.1715
  69   0.0000       0.052252         1.4218
  70   0.0000       0.056268         1.5311

MULLIKEN ATOMIC CHARGES
-----------------------
   0 Lu:    0.904622
   1 C :   -0.311549
   2 C :   -0.288148
   3 C :   -0.246089
   4 C :   -0.353771
   5 C :   -0.253903
   6 H :    0.240665
   7 H :    0.250616
   8 H :    0.231078
   9 H :    0.231607
  10 H :    0.229266
  11 C :   -0.347439
  12 C :   -0.245747
  13 C :   -0.269019
  14 C :   -0.271089
  15 H :    0.243026
  16 C :   -0.318807
  17 H :    0.246976
  18 H :    0.230841
  19 H :    0.231126
  20 H :    0.229092
  21 C :   -0.885571
  22 H :    0.243578
  23 H :    0.243419
  24 H :    0.262616
  25 C :   -1.091449
  26 H :    0.193273
  27 H :    0.221352
  28 H :    0.227104
  29 H :    0.222324
Sum of atomic charges:    0.0000000

LOEWDIN ATOMIC CHARGES
----------------------
   0 Lu:    0.097606
   1 C :   -0.151755
   2 C :   -0.156738
   3 C :   -0.133708
   4 C :   -0.161386
   5 C :   -0.141964
   6 H :    0.155088
   7 H :    0.159283
   8 H :    0.151487
   9 H :    0.149608
  10 H :    0.148776
  11 C :   -0.159732
  12 C :   -0.139612
  13 C :   -0.152047
  14 C :   -0.139592
  15 H :    0.156053
  16 C :   -0.155463
  17 H :    0.157654
  18 H :    0.149594
  19 H :    0.149267
  20 H :    0.149913
  21 C :   -0.468834
  22 H :    0.141890
  23 H :    0.140557
  24 H :    0.152290
  25 C :   -0.651306
  26 H :    0.134233
  27 H :    0.145021
  28 H :    0.136530
  29 H :    0.137288

  Mayer bond orders larger than 0.100000
B(  0-Lu,  1-C ) :   0.2485 B(  0-Lu,  2-C ) :   0.2419 B(  0-Lu,  3-C ) :   0.2274
B(  0-Lu,  4-C ) :   0.2876 B(  0-Lu,  5-C ) :   0.2392 B(  0-Lu, 11-C ) :   0.2906
B(  0-Lu, 12-C ) :   0.2290 B(  0-Lu, 13-C ) :   0.2338 B(  0-Lu, 14-C ) :   0.2404
B(  0-Lu, 16-C ) :   0.2510 B(  0-Lu, 25-C ) :   0.8386 B(  1-C ,  2-C ) :   1.2833
B(  1-C ,  5-C ) :   1.3167 B(  1-C ,  8-H ) :   0.9226 B(  2-C ,  3-C ) :   1.3223
B(  2-C ,  9-H ) :   0.9194 B(  3-C ,  4-C ) :   1.2948 B(  3-C , 10-H ) :   0.9201
B(  4-C ,  5-C ) :   1.2709 B(  4-C ,  6-H ) :   0.9163 B(  5-C ,  7-H ) :   0.9078
B( 11-C , 12-C ) :   1.2827 B( 11-C , 14-C ) :   1.2849 B( 11-C , 15-H ) :   0.9138
B( 12-C , 16-C ) :   1.3138 B( 12-C , 17-H ) :   0.9103 B( 13-C , 14-C ) :   1.3193
B( 13-C , 16-C ) :   1.2893 B( 13-C , 19-H ) :   0.9191 B( 14-C , 18-H ) :   0.9195
B( 16-C , 20-H ) :   0.9239 B( 21-C , 22-H ) :   0.9211 B( 21-C , 23-H ) :   0.9217
B( 21-C , 24-H ) :   0.9121 B( 21-C , 26-H ) :   0.8820 B( 25-C , 27-H ) :   0.8917
B( 25-C , 28-H ) :   0.9084 B( 25-C , 29-H ) :   0.9026

Dispersion correction           -0.016933631
FINAL SINGLE POINT ENERGY     -1702.381347527717
Dispersion correction            ... done

DIPOLE MOMENT
-------------
                                X             Y             Z
Electronic contribution:     -4.97873      18.54062      -8.41532
Nuclear contribution   :      4.96806     -19.10518       8.77132
                        -----------------------------------------
Total Dipole Moment    :     -0.01066      -0.56457       0.35600
                        -----------------------------------------
Magnitude (a.u.)       :      0.66752
Magnitude (Debye)      :      1.69671

Rotational constants in cm-1:     0.026845     0.019198     0.016501
Rotational constants in MHz :   804.803169   575.535635   494.685074

                             ****ORCA TERMINATED NORMALLY****
TOTAL RUN TIME: 0 days 0 hours 8 minutes 9 seconds 692 msec
