                         Program Version 5.0.3 -  RELEASE  -
|  1> ! EnGrad PBEh-3c
|  2> %output
|  3> xyzfile=True
|  4> end
|  5> %scf
|  6> maxiter 250
|  7> end
|  8> %output
|  9> Print[P_Hirshfeld] = 1
| 10> end
| 11> % maxcore
| 12> 4000
| 13> *xyz 0 1
| 14> Lu   0.09028814   0.35787640  -0.18824378
| 15> C    0.40516042   0.97195485   2.41060777
| 16> C    1.35711708  -0.04560990   2.15954832
| 17> C    2.30689414   0.44994261   1.25413069
| 18> C    1.95195094   1.78237087   0.94164230
| 19> C    0.75906607   2.08985623   1.63499983
| 20> H    2.51911143   2.45694717   0.31653436
| 21> H    0.24624531   3.04399404   1.63528008
| 22> H   -0.38663096   0.92325606   3.13775749
| 23> H    1.38902126  -1.01086711   2.65041616
| 24> H    3.20482258  -0.06029021   0.94325126
| 25> C    1.03036927  -0.05960679  -2.57406841
| 26> C   -0.26772591  -0.61174535  -2.59683515
| 27> C    1.04485810  -1.92296686  -1.26613964
| 28> C    1.83702714  -0.86440263  -1.73692929
| 29> H    1.35946065   0.81443891  -3.11635439
| 30> C   -0.24570592  -1.79031239  -1.82827981
| 31> H   -1.10057230  -0.25515612  -3.18795357
| 32> H    2.89306675  -0.74581492  -1.56025307
| 33> H    1.38633938  -2.76111758  -0.67277473
| 34> H   -1.04437604  -2.50663506  -1.73128036
| 35> C   -2.55878130  -1.55706794   1.35358980
| 36> H   -2.43598046  -1.44410452   2.43772775
| 37> H   -2.62589475  -2.61374308   1.06846915
| 38> H   -3.40343923  -0.95273278   0.96915907
| 39> C   -1.80046134   1.70355383  -0.73207504
| 40> H   -1.61937252  -1.23854587   0.88881221
| 41> H   -1.43180726   2.54674515  -1.34412730
| 42> H   -2.37833791   2.16700015   0.08330191
| 43> H   -2.52919298   1.18854110  -1.37614473
| 44> *
| 45>
| 46>                          ****END OF INPUT****

CARTESIAN COORDINATES (ANGSTROEM)
---------------------------------
  Lu     0.090288    0.357876   -0.188244
  C      0.405160    0.971955    2.410608
  C      1.357117   -0.045610    2.159548
  C      2.306894    0.449943    1.254131
  C      1.951951    1.782371    0.941642
  C      0.759066    2.089856    1.635000
  H      2.519111    2.456947    0.316534
  H      0.246245    3.043994    1.635280
  H     -0.386631    0.923256    3.137757
  H      1.389021   -1.010867    2.650416
  H      3.204823   -0.060290    0.943251
  C      1.030369   -0.059607   -2.574068
  C     -0.267726   -0.611745   -2.596835
  C      1.044858   -1.922967   -1.266140
  C      1.837027   -0.864403   -1.736929
  H      1.359461    0.814439   -3.116354
  C     -0.245706   -1.790312   -1.828280
  H     -1.100572   -0.255156   -3.187954
  H      2.893067   -0.745815   -1.560253
  H      1.386339   -2.761118   -0.672775
  H     -1.044376   -2.506635   -1.731280
  C     -2.558781   -1.557068    1.353590
  H     -2.435980   -1.444105    2.437728
  H     -2.625895   -2.613743    1.068469
  H     -3.403439   -0.952733    0.969159
  C     -1.800461    1.703554   -0.732075
  H     -1.619373   -1.238546    0.888812
  H     -1.431807    2.546745   -1.344127
  H     -2.378338    2.167000    0.083302
  H     -2.529193    1.188541   -1.376145

 Total Charge           Charge          ....    0
 Multiplicity           Mult            ....    1
 Number of Electrons    NEL             ....  132
 Basis Dimension        Dim             ....  295

ORBITAL ENERGIES
----------------

  NO   OCC          E(Eh)            E(eV)
   0   2.0000     -19.256469      -523.9952
   1   2.0000     -12.629097      -343.6552
   2   2.0000     -12.626539      -343.5856
   3   2.0000     -12.625893      -343.5680
   4   2.0000     -10.448497      -284.3180
   5   2.0000     -10.445553      -284.2379
   6   2.0000     -10.444949      -284.2215
   7   2.0000     -10.444627      -284.2127
   8   2.0000     -10.444570      -284.2112
   9   2.0000     -10.444168      -284.2003
  10   2.0000     -10.443647      -284.1861
  11   2.0000     -10.443068      -284.1703
  12   2.0000     -10.442617      -284.1580
  13   2.0000     -10.442485      -284.1545
  14   2.0000     -10.440356      -284.0965
  15   2.0000     -10.363361      -282.0014
  16   2.0000      -5.898184      -160.4977
  17   2.0000      -5.897878      -160.4894
  18   2.0000      -5.897207      -160.4712
  19   2.0000      -5.895746      -160.4314
  20   2.0000      -5.895537      -160.4257
  21   2.0000      -2.439816       -66.3908
  22   2.0000      -1.278067       -34.7780
  23   2.0000      -1.275799       -34.7163
  24   2.0000      -1.265173       -34.4271
  25   2.0000      -0.977484       -26.5987
  26   2.0000      -0.970140       -26.3989
  27   2.0000      -0.799166       -21.7464
  28   2.0000      -0.793303       -21.5869
  29   2.0000      -0.790745       -21.5173
  30   2.0000      -0.789761       -21.4905
  31   2.0000      -0.789189       -21.4749
  32   2.0000      -0.697694       -18.9852
  33   2.0000      -0.613109       -16.6836
  34   2.0000      -0.611056       -16.6277
  35   2.0000      -0.608731       -16.5644
  36   2.0000      -0.607414       -16.5286
  37   2.0000      -0.594862       -16.1870
  38   2.0000      -0.590084       -16.0570
  39   2.0000      -0.566014       -15.4020
  40   2.0000      -0.564565       -15.3626
  41   2.0000      -0.564355       -15.3569
  42   2.0000      -0.563313       -15.3285
  43   2.0000      -0.562645       -15.3104
  44   2.0000      -0.561326       -15.2745
  45   2.0000      -0.559690       -15.2299
  46   2.0000      -0.479358       -13.0440
  47   2.0000      -0.469794       -12.7837
  48   2.0000      -0.468104       -12.7378
  49   2.0000      -0.457942       -12.4612
  50   2.0000      -0.452302       -12.3078
  51   2.0000      -0.449690       -12.2367
  52   2.0000      -0.448500       -12.2043
  53   2.0000      -0.448310       -12.1991
  54   2.0000      -0.432395       -11.7661
  55   2.0000      -0.432143       -11.7592
  56   2.0000      -0.430204       -11.7064
  57   2.0000      -0.428273       -11.6539
  58   2.0000      -0.427718       -11.6388
  59   2.0000      -0.392223       -10.6729
  60   2.0000      -0.390943       -10.6381
  61   2.0000      -0.290607        -7.9078
  62   2.0000      -0.281346        -7.6558
  63   2.0000      -0.276309        -7.5188
  64   2.0000      -0.263212        -7.1624
  65   2.0000      -0.257364        -7.0032
  66   0.0000      -0.023211        -0.6316
  67   0.0000       0.009164         0.2494
  68   0.0000       0.043247         1.1768
  69   0.0000       0.054249         1.4762
  70   0.0000       0.057315         1.5596

MULLIKEN ATOMIC CHARGES
-----------------------
   0 Lu:    0.865961
   1 C :   -0.278494
   2 C :   -0.287300
   3 C :   -0.277989
   4 C :   -0.300660
   5 C :   -0.292116
   6 H :    0.241557
   7 H :    0.246767
   8 H :    0.233783
   9 H :    0.232384
  10 H :    0.231105
  11 C :   -0.294369
  12 C :   -0.295936
  13 C :   -0.296632
  14 C :   -0.285716
  15 H :    0.242725
  16 C :   -0.261026
  17 H :    0.241843
  18 H :    0.232570
  19 H :    0.230713
  20 H :    0.231472
  21 C :   -0.869804
  22 H :    0.242178
  23 H :    0.241769
  24 H :    0.258224
  25 C :   -1.059247
  26 H :    0.186169
  27 H :    0.211696
  28 H :    0.215848
  29 H :    0.212527
Sum of atomic charges:   -0.0000000

LOEWDIN ATOMIC CHARGES
----------------------
   0 Lu:    0.046811
   1 C :   -0.144974
   2 C :   -0.151747
   3 C :   -0.134966
   4 C :   -0.152038
   5 C :   -0.136935
   6 H :    0.155742
   7 H :    0.159789
   8 H :    0.152514
   9 H :    0.150207
  10 H :    0.151300
  11 C :   -0.149350
  12 C :   -0.136750
  13 C :   -0.151774
  14 C :   -0.139820
  15 H :    0.156086
  16 C :   -0.145702
  17 H :    0.158287
  18 H :    0.151450
  19 H :    0.150240
  20 H :    0.149931
  21 C :   -0.464614
  22 H :    0.141436
  23 H :    0.139677
  24 H :    0.154101
  25 C :   -0.646916
  26 H :    0.134720
  27 H :    0.139399
  28 H :    0.131683
  29 H :    0.132213

  Mayer bond orders larger than 0.100000
B(  0-Lu,  1-C ) :   0.2499 B(  0-Lu,  2-C ) :   0.2518 B(  0-Lu,  3-C ) :   0.2446
B(  0-Lu,  4-C ) :   0.2860 B(  0-Lu,  5-C ) :   0.2439 B(  0-Lu, 11-C ) :   0.2841
B(  0-Lu, 12-C ) :   0.2347 B(  0-Lu, 13-C ) :   0.2505 B(  0-Lu, 14-C ) :   0.2548
B(  0-Lu, 16-C ) :   0.2487 B(  0-Lu, 25-C ) :   0.8344 B(  1-C ,  2-C ) :   1.2801
B(  1-C ,  5-C ) :   1.3133 B(  1-C ,  8-H ) :   0.9213 B(  2-C ,  3-C ) :   1.3146
B(  2-C ,  9-H ) :   0.9188 B(  3-C ,  4-C ) :   1.2848 B(  3-C , 10-H ) :   0.9221
B(  4-C ,  5-C ) :   1.2755 B(  4-C ,  6-H ) :   0.9146 B(  5-C ,  7-H ) :   0.9152
B( 11-C , 12-C ) :   1.2858 B( 11-C , 14-C ) :   1.2832 B( 11-C , 15-H ) :   0.9126
B( 12-C , 16-C ) :   1.3120 B( 12-C , 17-H ) :   0.9187 B( 13-C , 14-C ) :   1.3054
B( 13-C , 16-C ) :   1.2866 B( 13-C , 19-H ) :   0.9209 B( 14-C , 18-H ) :   0.9200
B( 16-C , 20-H ) :   0.9205 B( 21-C , 22-H ) :   0.9200 B( 21-C , 23-H ) :   0.9199
B( 21-C , 24-H ) :   0.9152 B( 21-C , 26-H ) :   0.8814 B( 25-C , 27-H ) :   0.8975
B( 25-C , 28-H ) :   0.9107 B( 25-C , 29-H ) :   0.9063

Dispersion correction           -0.017024799
FINAL SINGLE POINT ENERGY     -1702.383240405762
Dispersion correction            ... done

DIPOLE MOMENT
-------------
                                X             Y             Z
Electronic contribution:     -2.82007      16.87309      -7.64809
Nuclear contribution   :      2.94266     -17.53048       8.06350
                        -----------------------------------------
Total Dipole Moment    :      0.12260      -0.65739       0.41540
                        -----------------------------------------
Magnitude (a.u.)       :      0.78724
Magnitude (Debye)      :      2.00101

Rotational constants in cm-1:     0.027110     0.019511     0.016703
Rotational constants in MHz :   812.725765   584.931456   500.742256

                             ****ORCA TERMINATED NORMALLY****
TOTAL RUN TIME: 0 days 0 hours 8 minutes 29 seconds 747 msec
