                         Program Version 5.0.3 -  RELEASE  -
|  1> ! EnGrad PBEh-3c
|  2> %output
|  3> xyzfile=True
|  4> end
|  5> %scf
|  6> maxiter 250
|  7> end
|  8> %output
|  9> Print[P_Hirshfeld] = 1
| 10> end
| 11> % maxcore
| 12> 4000
| 13> *xyz 0 1
| 14> Lu   0.12052565   0.33773185  -0.18513442
| 15> C    0.40278250   0.96297365   2.39593615
| 16> C    1.34706800  -0.05598618   2.15072035
| 17> C    2.29794132   0.45189485   1.24030890
| 18> C    1.94328073   1.77095414   0.93520054
| 19> C    0.74561181   2.08691616   1.62404419
| 20> H    2.51395836   2.45244966   0.31236740
| 21> H    0.25461168   3.04476555   1.64442054
| 22> H   -0.40367528   0.90865796   3.12350954
| 23> H    1.38952598  -1.01379908   2.63619737
| 24> H    3.20557128  -0.06169707   0.93684470
| 25> C    1.02803233  -0.05933903  -2.55798224
| 26> C   -0.27739369  -0.60344294  -2.58371756
| 27> C    1.03716967  -1.91626103  -1.25059743
| 28> C    1.82754767  -0.85156933  -1.73072084
| 29> H    1.35897734   0.81487444  -3.11163887
| 30> C   -0.24466785  -1.77999260  -1.81272948
| 31> H   -1.09795511  -0.25860249  -3.19182785
| 32> H    2.89384173  -0.73975186  -1.55569604
| 33> H    1.39093011  -2.75450174  -0.66968262
| 34> H   -1.05667372  -2.49230905  -1.69675673
| 35> C   -2.56177714  -1.55649911   1.35147914
| 36> H   -2.42058764  -1.44039715   2.42796398
| 37> H   -2.58386849  -2.60271163   1.06008337
| 38> H   -3.44832524  -0.99582993   0.99649076
| 39> C   -1.78572998   1.70846220  -0.74335481
| 40> H   -1.64320313  -1.19156492   0.86938002
| 41> H   -1.41806866   2.55438730  -1.35056676
| 42> H   -2.35458946   2.16390049   0.08716874
| 43> H   -2.51609533   1.18950180  -1.38893719
| 44> *
| 45>
| 46>                          ****END OF INPUT****

CARTESIAN COORDINATES (ANGSTROEM)
---------------------------------
  Lu     0.120526    0.337732   -0.185134
  C      0.402782    0.962974    2.395936
  C      1.347068   -0.055986    2.150720
  C      2.297941    0.451895    1.240309
  C      1.943281    1.770954    0.935201
  C      0.745612    2.086916    1.624044
  H      2.513958    2.452450    0.312367
  H      0.254612    3.044766    1.644421
  H     -0.403675    0.908658    3.123510
  H      1.389526   -1.013799    2.636197
  H      3.205571   -0.061697    0.936845
  C      1.028032   -0.059339   -2.557982
  C     -0.277394   -0.603443   -2.583718
  C      1.037170   -1.916261   -1.250597
  C      1.827548   -0.851569   -1.730721
  H      1.358977    0.814874   -3.111639
  C     -0.244668   -1.779993   -1.812729
  H     -1.097955   -0.258602   -3.191828
  H      2.893842   -0.739752   -1.555696
  H      1.390930   -2.754502   -0.669683
  H     -1.056674   -2.492309   -1.696757
  C     -2.561777   -1.556499    1.351479
  H     -2.420588   -1.440397    2.427964
  H     -2.583868   -2.602712    1.060083
  H     -3.448325   -0.995830    0.996491
  C     -1.785730    1.708462   -0.743355
  H     -1.643203   -1.191565    0.869380
  H     -1.418069    2.554387   -1.350567
  H     -2.354589    2.163900    0.087169
  H     -2.516095    1.189502   -1.388937

 Total Charge           Charge          ....    0
 Multiplicity           Mult            ....    1
 Number of Electrons    NEL             ....  132
 Basis Dimension        Dim             ....  295

ORBITAL ENERGIES
----------------

  NO   OCC          E(Eh)            E(eV)
   0   2.0000     -19.252555      -523.8887
   1   2.0000     -12.625213      -343.5495
   2   2.0000     -12.622581      -343.4779
   3   2.0000     -12.621925      -343.4600
   4   2.0000     -10.446963      -284.2763
   5   2.0000     -10.446617      -284.2669
   6   2.0000     -10.446155      -284.2543
   7   2.0000     -10.445825      -284.2453
   8   2.0000     -10.444895      -284.2200
   9   2.0000     -10.444354      -284.2053
  10   2.0000     -10.444047      -284.1970
  11   2.0000     -10.443208      -284.1742
  12   2.0000     -10.442739      -284.1614
  13   2.0000     -10.442444      -284.1534
  14   2.0000     -10.440470      -284.0996
  15   2.0000     -10.361526      -281.9515
  16   2.0000      -5.894256      -160.3909
  17   2.0000      -5.893940      -160.3823
  18   2.0000      -5.893246      -160.3634
  19   2.0000      -5.891742      -160.3225
  20   2.0000      -5.891546      -160.3171
  21   2.0000      -2.436021       -66.2875
  22   2.0000      -1.274787       -34.6887
  23   2.0000      -1.273534       -34.6546
  24   2.0000      -1.261646       -34.3311
  25   2.0000      -0.980247       -26.6739
  26   2.0000      -0.972040       -26.4506
  27   2.0000      -0.799614       -21.7586
  28   2.0000      -0.794236       -21.6123
  29   2.0000      -0.792984       -21.5782
  30   2.0000      -0.791656       -21.5421
  31   2.0000      -0.789563       -21.4851
  32   2.0000      -0.692447       -18.8425
  33   2.0000      -0.613084       -16.6829
  34   2.0000      -0.611724       -16.6458
  35   2.0000      -0.609302       -16.5800
  36   2.0000      -0.607582       -16.5331
  37   2.0000      -0.596061       -16.2197
  38   2.0000      -0.590663       -16.0728
  39   2.0000      -0.562153       -15.2970
  40   2.0000      -0.560639       -15.2558
  41   2.0000      -0.560427       -15.2500
  42   2.0000      -0.559351       -15.2207
  43   2.0000      -0.558682       -15.2025
  44   2.0000      -0.557317       -15.1654
  45   2.0000      -0.555713       -15.1217
  46   2.0000      -0.480393       -13.0722
  47   2.0000      -0.471541       -12.8313
  48   2.0000      -0.467153       -12.7119
  49   2.0000      -0.458353       -12.4724
  50   2.0000      -0.452576       -12.3152
  51   2.0000      -0.450955       -12.2711
  52   2.0000      -0.449631       -12.2351
  53   2.0000      -0.449354       -12.2276
  54   2.0000      -0.432859       -11.7787
  55   2.0000      -0.432159       -11.7597
  56   2.0000      -0.431343       -11.7374
  57   2.0000      -0.430088       -11.7033
  58   2.0000      -0.427741       -11.6394
  59   2.0000      -0.388636       -10.5753
  60   2.0000      -0.386783       -10.5249
  61   2.0000      -0.290786        -7.9127
  62   2.0000      -0.284196        -7.7334
  63   2.0000      -0.278370        -7.5748
  64   2.0000      -0.264817        -7.2060
  65   2.0000      -0.251190        -6.8352
  66   0.0000      -0.022193        -0.6039
  67   0.0000       0.008015         0.2181
  68   0.0000       0.043739         1.1902
  69   0.0000       0.055680         1.5151
  70   0.0000       0.056018         1.5243

MULLIKEN ATOMIC CHARGES
-----------------------
   0 Lu:    0.843832
   1 C :   -0.267107
   2 C :   -0.290515
   3 C :   -0.283722
   4 C :   -0.291684
   5 C :   -0.294048
   6 H :    0.241958
   7 H :    0.244647
   8 H :    0.233343
   9 H :    0.234160
  10 H :    0.232077
  11 C :   -0.285891
  12 C :   -0.297684
  13 C :   -0.305875
  14 C :   -0.286268
  15 H :    0.243050
  16 C :   -0.246694
  17 H :    0.240118
  18 H :    0.233891
  19 H :    0.231912
  20 H :    0.231397
  21 C :   -0.866819
  22 H :    0.242071
  23 H :    0.242735
  24 H :    0.256905
  25 C :   -1.044649
  26 H :    0.182686
  27 H :    0.208572
  28 H :    0.210484
  29 H :    0.207117
Sum of atomic charges:   -0.0000000

LOEWDIN ATOMIC CHARGES
----------------------
   0 Lu:    0.013800
   1 C :   -0.137196
   2 C :   -0.152515
   3 C :   -0.133279
   4 C :   -0.147572
   5 C :   -0.135015
   6 H :    0.156310
   7 H :    0.160238
   8 H :    0.152539
   9 H :    0.151386
  10 H :    0.152452
  11 C :   -0.143675
  12 C :   -0.133857
  13 C :   -0.152589
  14 C :   -0.137665
  15 H :    0.156860
  16 C :   -0.138198
  17 H :    0.158979
  18 H :    0.152911
  19 H :    0.151717
  20 H :    0.150126
  21 C :   -0.462881
  22 H :    0.140968
  23 H :    0.138971
  24 H :    0.153475
  25 C :   -0.645489
  26 H :    0.135160
  27 H :    0.136140
  28 H :    0.128837
  29 H :    0.129060

  Mayer bond orders larger than 0.100000
B(  0-Lu,  1-C ) :   0.2481 B(  0-Lu,  2-C ) :   0.2592 B(  0-Lu,  3-C ) :   0.2546
B(  0-Lu,  4-C ) :   0.2857 B(  0-Lu,  5-C ) :   0.2452 B(  0-Lu, 11-C ) :   0.2825
B(  0-Lu, 12-C ) :   0.2381 B(  0-Lu, 13-C ) :   0.2619 B(  0-Lu, 14-C ) :   0.2643
B(  0-Lu, 16-C ) :   0.2473 B(  0-Lu, 25-C ) :   0.8312 B(  1-C ,  2-C ) :   1.2844
B(  1-C ,  5-C ) :   1.3136 B(  1-C ,  8-H ) :   0.9203 B(  2-C ,  3-C ) :   1.2985
B(  2-C ,  9-H ) :   0.9190 B(  3-C ,  4-C ) :   1.2892 B(  3-C , 10-H ) :   0.9215
B(  4-C ,  5-C ) :   1.2700 B(  4-C ,  6-H ) :   0.9142 B(  5-C ,  7-H ) :   0.9191
B( 11-C , 12-C ) :   1.2801 B( 11-C , 14-C ) :   1.2897 B( 11-C , 15-H ) :   0.9127
B( 12-C , 16-C ) :   1.3116 B( 12-C , 17-H ) :   0.9218 B( 13-C , 14-C ) :   1.2869
B( 13-C , 16-C ) :   1.2889 B( 13-C , 19-H ) :   0.9216 B( 14-C , 18-H ) :   0.9190
B( 16-C , 20-H ) :   0.9191 B( 21-C , 22-H ) :   0.9202 B( 21-C , 23-H ) :   0.9190
B( 21-C , 24-H ) :   0.9171 B( 21-C , 26-H ) :   0.8831 B( 25-C , 27-H ) :   0.9003
B( 25-C , 28-H ) :   0.9124 B( 25-C , 29-H ) :   0.9090

Dispersion correction           -0.017105067
FINAL SINGLE POINT ENERGY     -1702.383345849139
Dispersion correction            ... done

DIPOLE MOMENT
-------------
                                X             Y             Z
Electronic contribution:     -1.14662      15.78245      -7.46448
Nuclear contribution   :      1.35437     -16.49401       7.89438
                        -----------------------------------------
Total Dipole Moment    :      0.20775      -0.71156       0.42990
                        -----------------------------------------
Magnitude (a.u.)       :      0.85691
Magnitude (Debye)      :      2.17809

Rotational constants in cm-1:     0.027329     0.019735     0.016881
Rotational constants in MHz :   819.290648   591.650759   506.067742

                             ****ORCA TERMINATED NORMALLY****
TOTAL RUN TIME: 0 days 0 hours 8 minutes 23 seconds 713 msec
