                         Program Version 5.0.3 -  RELEASE  -
|  1> ! EnGrad PBEh-3c
|  2> %output
|  3> xyzfile=True
|  4> end
|  5> %scf
|  6> maxiter 250
|  7> end
|  8> %output
|  9> Print[P_Hirshfeld] = 1
| 10> end
| 11> % maxcore
| 12> 4000
| 13> *xyz 0 1
| 14> C   -1.65646920   0.19569256  -0.38379595
| 15> C   -1.88676100  -0.80656494  -1.31736269
| 16> C   -1.41703248  -2.08818477  -1.08541188
| 17> C   -0.61202799  -2.35064798   0.01041803
| 18> C   -0.97617575  -0.14697747   0.76996746
| 19> C   -0.36907053  -1.37147782   0.96218331
| 20> H   -2.12261539   1.14522529  -0.61304784
| 21> H   -2.52208966  -0.62215170  -2.17193802
| 22> H   -1.69232516  -2.88783658  -1.76195798
| 23> H    0.26451423  -1.63499323   1.79837581
| 24> H   -0.24556621  -3.35510969   0.16974310
| 25> Pd   1.41540621   1.14374769  -0.04122960
| 26> O    2.96752924   1.10578572  -1.45312631
| 27> O    2.64222083  -0.50145103  -0.05079048
| 28> O    0.35924485   2.87954315   0.06116885
| 29> C    0.07319353   3.00136718   1.25702320
| 30> O    0.53519854   2.17087743   2.11059826
| 31> H   -1.44268143   1.02022643   2.69197506
| 32> C    3.23921925  -0.05242275  -1.06496499
| 33> H    4.07199230  -0.61996223  -1.48641457
| 34> H   -0.62569958   3.77530474   1.59859640
| 35> *
| 36>
| 37>                          ****END OF INPUT****

CARTESIAN COORDINATES (ANGSTROEM)
---------------------------------
  C     -1.656469    0.195693   -0.383796
  C     -1.886761   -0.806565   -1.317363
  C     -1.417032   -2.088185   -1.085412
  C     -0.612028   -2.350648    0.010418
  C     -0.976176   -0.146977    0.769967
  C     -0.369071   -1.371478    0.962183
  H     -2.122615    1.145225   -0.613048
  H     -2.522090   -0.622152   -2.171938
  H     -1.692325   -2.887837   -1.761958
  H      0.264514   -1.634993    1.798376
  H     -0.245566   -3.355110    0.169743
  Pd     1.415406    1.143748   -0.041230
  O      2.967529    1.105786   -1.453126
  O      2.642221   -0.501451   -0.050790
  O      0.359245    2.879543    0.061169
  C      0.073194    3.001367    1.257023
  O      0.535199    2.170877    2.110598
  H     -1.442681    1.020226    2.691975
  C      3.239219   -0.052423   -1.064965
  H      4.071992   -0.619962   -1.486415
  H     -0.625700    3.775305    1.598596

 Total Charge           Charge          ....    0
 Multiplicity           Mult            ....    1
 Number of Electrons    NEL             ....  106
 Basis Dimension        Dim             ....  227

ORBITAL ENERGIES
----------------

  NO   OCC          E(Eh)            E(eV)
   0   2.0000     -19.542309      -531.7733
   1   2.0000     -19.537107      -531.6317
   2   2.0000     -19.522230      -531.2269
   3   2.0000     -19.477004      -529.9962
   4   2.0000     -10.597986      -288.3859
   5   2.0000     -10.562877      -287.4305
   6   2.0000     -10.514316      -286.1091
   7   2.0000     -10.475337      -285.0484
   8   2.0000     -10.472954      -284.9836
   9   2.0000     -10.468178      -284.8536
  10   2.0000     -10.467115      -284.8247
  11   2.0000     -10.464898      -284.7644
  12   2.0000      -3.696926      -100.5985
  13   2.0000      -2.352208       -64.0068
  14   2.0000      -2.333237       -63.4906
  15   2.0000      -2.307020       -62.7772
  16   2.0000      -1.242882       -33.8205
  17   2.0000      -1.204314       -32.7710
  18   2.0000      -1.125857       -30.6361
  19   2.0000      -1.075718       -29.2718
  20   2.0000      -0.980788       -26.6886
  21   2.0000      -0.862984       -23.4830
  22   2.0000      -0.849399       -23.1133
  23   2.0000      -0.706580       -19.2270
  24   2.0000      -0.699122       -19.0241
  25   2.0000      -0.688087       -18.7238
  26   2.0000      -0.674711       -18.3598
  27   2.0000      -0.599697       -16.3186
  28   2.0000      -0.597656       -16.2630
  29   2.0000      -0.573420       -15.6035
  30   2.0000      -0.564744       -15.3675
  31   2.0000      -0.541027       -14.7221
  32   2.0000      -0.536969       -14.6117
  33   2.0000      -0.529655       -14.4126
  34   2.0000      -0.523644       -14.2491
  35   2.0000      -0.508954       -13.8494
  36   2.0000      -0.501474       -13.6458
  37   2.0000      -0.458099       -12.4655
  38   2.0000      -0.450232       -12.2514
  39   2.0000      -0.439043       -11.9470
  40   2.0000      -0.424512       -11.5515
  41   2.0000      -0.419003       -11.4016
  42   2.0000      -0.408390       -11.1129
  43   2.0000      -0.396752       -10.7962
  44   2.0000      -0.388811       -10.5801
  45   2.0000      -0.364067        -9.9068
  46   2.0000      -0.360004        -9.7962
  47   2.0000      -0.344232        -9.3670
  48   2.0000      -0.338234        -9.2038
  49   2.0000      -0.327886        -8.9222
  50   2.0000      -0.314325        -8.5532
  51   2.0000      -0.305053        -8.3009
  52   2.0000      -0.277535        -7.5521
  53   0.0000      -0.117941        -3.2094
  54   0.0000      -0.087458        -2.3798
  55   0.0000      -0.001972        -0.0537
  56   0.0000       0.005471         0.1489
  57   0.0000       0.014785         0.4023

MULLIKEN ATOMIC CHARGES
-----------------------
   0 C :   -0.236300
   1 C :   -0.221781
   2 C :   -0.217127
   3 C :   -0.219457
   4 C :   -0.100749
   5 C :   -0.237593
   6 H :    0.259362
   7 H :    0.238674
   8 H :    0.233039
   9 H :    0.268799
  10 H :    0.236309
  11 Pd:    0.549239
  12 O :   -0.446572
  13 O :   -0.455222
  14 O :   -0.453268
  15 C :    0.361274
  16 O :   -0.462311
  17 H :    0.078888
  18 C :    0.418878
  19 H :    0.212676
  20 H :    0.193242
Sum of atomic charges:   -0.0000000

LOEWDIN ATOMIC CHARGES
----------------------
   0 C :   -0.120831
   1 C :   -0.124017
   2 C :   -0.126490
   3 C :   -0.120244
   4 C :   -0.017225
   5 C :   -0.114749
   6 H :    0.162065
   7 H :    0.144470
   8 H :    0.141810
   9 H :    0.165669
  10 H :    0.144476
  11 Pd:   -0.099254
  12 O :   -0.138124
  13 O :   -0.136852
  14 O :   -0.128228
  15 C :    0.119763
  16 O :   -0.251985
  17 H :    0.094634
  18 C :    0.167380
  19 H :    0.125664
  20 H :    0.112067

  Mayer bond orders larger than 0.100000
B(  0-C ,  1-C ) :   1.4041 B(  0-C ,  4-C ) :   1.3890 B(  0-C ,  6-H ) :   0.9006
B(  1-C ,  2-C ) :   1.4285 B(  1-C ,  7-H ) :   0.9093 B(  2-C ,  3-C ) :   1.4246
B(  2-C ,  8-H ) :   0.9156 B(  3-C ,  5-C ) :   1.4067 B(  3-C , 10-H ) :   0.9105
B(  4-C ,  5-C ) :   1.4149 B(  4-C , 11-Pd) :   0.1427 B(  4-C , 17-H ) :   0.7733
B(  5-C ,  9-H ) :   0.8964 B( 11-Pd, 12-O ) :   0.5367 B( 11-Pd, 13-O ) :   0.5906
B( 11-Pd, 14-O ) :   0.6075 B( 11-Pd, 16-O ) :   0.2951 B( 12-O , 13-O ) :   0.1132
B( 12-O , 18-C ) :   1.5105 B( 13-O , 18-C ) :   1.4301 B( 14-O , 15-C ) :   1.4094
B( 14-O , 16-O ) :   0.1048 B( 15-C , 16-O ) :   1.6451 B( 15-C , 20-H ) :   0.8811
B( 18-C , 19-H ) :   0.8856

Dispersion correction           -0.013605608
FINAL SINGLE POINT ENERGY      -736.923618018131
Dispersion correction            ... done

DIPOLE MOMENT
-------------
                                X             Y             Z
Electronic contribution:     53.12649      42.33616      -2.92980
Nuclear contribution   :    -53.58988     -43.39379       2.16515
                        -----------------------------------------
Total Dipole Moment    :     -0.46339      -1.05762      -0.76465
                        -----------------------------------------
Magnitude (a.u.)       :      1.38491
Magnitude (Debye)      :      3.52017

Rotational constants in cm-1:     0.027852     0.018365     0.013659
Rotational constants in MHz :   834.967052   550.574573   409.487122

                             ****ORCA TERMINATED NORMALLY****
TOTAL RUN TIME: 0 days 0 hours 4 minutes 41 seconds 991 msec
