                         Program Version 5.0.3 -  RELEASE  -
|  1> ! EnGrad PBEh-3c
|  2> %output
|  3> xyzfile=True
|  4> end
|  5> %scf
|  6> maxiter 250
|  7> end
|  8> %output
|  9> Print[P_Hirshfeld] = 1
| 10> end
| 11> % maxcore
| 12> 4000
| 13> *xyz 0 1
| 14> C   -1.59171365   0.20956444  -0.38500364
| 15> C   -2.04003765  -0.83924296  -1.20458992
| 16> C   -1.68324973  -2.15891468  -0.94764259
| 17> C   -0.77628264  -2.37893675   0.07449610
| 18> C   -0.80840892   0.02781273   0.81989525
| 19> C   -0.34658027  -1.33034603   0.90107426
| 20> H   -1.86801109   1.21379072  -0.68042512
| 21> H   -2.68888704  -0.64591580  -2.04796840
| 22> H   -2.07301566  -2.98704318  -1.54485117
| 23> H    0.37423142  -1.56811926   1.66883981
| 24> H   -0.43290895  -3.38573972   0.25544855
| 25> Pd   1.30528315   1.00767438  -0.00402887
| 26> O    3.18499581   1.32764676  -1.24624030
| 27> O    2.55173142  -0.51601129  -0.23754708
| 28> O    0.36968351   2.71898955   0.12714347
| 29> C    0.03326396   2.91417619   1.35171766
| 30> O    0.32927561   2.18788659   2.30415244
| 31> H   -0.80155183   0.68038125   1.64406838
| 32> C    3.36059118   0.12261554  -0.99457677
| 33> H    4.24507699  -0.41518165  -1.35622175
| 34> H   -0.65202566   3.79252759   1.48376044
| 35> *
| 36>
| 37>                          ****END OF INPUT****

CARTESIAN COORDINATES (ANGSTROEM)
---------------------------------
  C     -1.591714    0.209564   -0.385004
  C     -2.040038   -0.839243   -1.204590
  C     -1.683250   -2.158915   -0.947643
  C     -0.776283   -2.378937    0.074496
  C     -0.808409    0.027813    0.819895
  C     -0.346580   -1.330346    0.901074
  H     -1.868011    1.213791   -0.680425
  H     -2.688887   -0.645916   -2.047968
  H     -2.073016   -2.987043   -1.544851
  H      0.374231   -1.568119    1.668840
  H     -0.432909   -3.385740    0.255449
  Pd     1.305283    1.007674   -0.004029
  O      3.184996    1.327647   -1.246240
  O      2.551731   -0.516011   -0.237547
  O      0.369684    2.718990    0.127143
  C      0.033264    2.914176    1.351718
  O      0.329276    2.187887    2.304152
  H     -0.801552    0.680381    1.644068
  C      3.360591    0.122616   -0.994577
  H      4.245077   -0.415182   -1.356222
  H     -0.652026    3.792528    1.483760

 Total Charge           Charge          ....    0
 Multiplicity           Mult            ....    1
 Number of Electrons    NEL             ....  106
 Basis Dimension        Dim             ....  227

ORBITAL ENERGIES
----------------

  NO   OCC          E(Eh)            E(eV)
   0   2.0000     -19.529380      -531.4215
   1   2.0000     -19.520260      -531.1733
   2   2.0000     -19.518980      -531.1384
   3   2.0000     -19.473549      -529.9022
   4   2.0000     -10.586703      -288.0788
   5   2.0000     -10.563124      -287.4372
   6   2.0000     -10.491378      -285.4849
   7   2.0000     -10.488614      -285.4097
   8   2.0000     -10.485693      -285.3302
   9   2.0000     -10.485147      -285.3154
  10   2.0000     -10.476196      -285.0718
  11   2.0000     -10.474012      -285.0123
  12   2.0000      -3.692472      -100.4773
  13   2.0000      -2.349001       -63.9196
  14   2.0000      -2.326428       -63.3053
  15   2.0000      -2.305836       -62.7450
  16   2.0000      -1.221752       -33.2456
  17   2.0000      -1.189025       -32.3550
  18   2.0000      -1.112941       -30.2847
  19   2.0000      -1.091340       -29.6969
  20   2.0000      -0.978376       -26.6230
  21   2.0000      -0.869414       -23.6580
  22   2.0000      -0.857429       -23.3318
  23   2.0000      -0.713479       -19.4147
  24   2.0000      -0.702635       -19.1197
  25   2.0000      -0.694270       -18.8921
  26   2.0000      -0.667906       -18.1746
  27   2.0000      -0.618177       -16.8215
  28   2.0000      -0.587783       -15.9944
  29   2.0000      -0.567795       -15.4505
  30   2.0000      -0.559161       -15.2156
  31   2.0000      -0.554720       -15.0947
  32   2.0000      -0.536567       -14.6007
  33   2.0000      -0.527076       -14.3425
  34   2.0000      -0.524421       -14.2702
  35   2.0000      -0.519396       -14.1335
  36   2.0000      -0.496338       -13.5060
  37   2.0000      -0.489508       -13.3202
  38   2.0000      -0.464246       -12.6328
  39   2.0000      -0.436772       -11.8852
  40   2.0000      -0.432991       -11.7823
  41   2.0000      -0.412796       -11.2327
  42   2.0000      -0.409834       -11.1522
  43   2.0000      -0.399592       -10.8734
  44   2.0000      -0.388639       -10.5754
  45   2.0000      -0.372679       -10.1411
  46   2.0000      -0.369459       -10.0535
  47   2.0000      -0.354966        -9.6591
  48   2.0000      -0.342198        -9.3117
  49   2.0000      -0.339150        -9.2287
  50   2.0000      -0.328271        -8.9327
  51   2.0000      -0.312588        -8.5060
  52   2.0000      -0.307508        -8.3677
  53   0.0000      -0.115865        -3.1529
  54   0.0000      -0.021710        -0.5908
  55   0.0000      -0.007943        -0.2161
  56   0.0000       0.026875         0.7313
  57   0.0000       0.049809         1.3554

MULLIKEN ATOMIC CHARGES
-----------------------
   0 C :   -0.177469
   1 C :   -0.219312
   2 C :   -0.200270
   3 C :   -0.213762
   4 C :   -0.471671
   5 C :   -0.175388
   6 H :    0.265442
   7 H :    0.239014
   8 H :    0.243700
   9 H :    0.267857
  10 H :    0.238661
  11 Pd:    0.597212
  12 O :   -0.427850
  13 O :   -0.495785
  14 O :   -0.498656
  15 C :    0.340380
  16 O :   -0.450840
  17 H :    0.361301
  18 C :    0.400310
  19 H :    0.202432
  20 H :    0.174693
Sum of atomic charges:    0.0000000

LOEWDIN ATOMIC CHARGES
----------------------
   0 C :   -0.065522
   1 C :   -0.138604
   2 C :   -0.089384
   3 C :   -0.134651
   4 C :   -0.132454
   5 C :   -0.058753
   6 H :    0.160026
   7 H :    0.146514
   8 H :    0.147096
   9 H :    0.160720
  10 H :    0.146868
  11 Pd:   -0.097840
  12 O :   -0.162415
  13 O :   -0.160780
  14 O :   -0.158738
  15 C :    0.113147
  16 O :   -0.261153
  17 H :    0.204786
  18 C :    0.159650
  19 H :    0.118724
  20 H :    0.102763

  Mayer bond orders larger than 0.100000
B(  0-C ,  1-C ) :   1.4572 B(  0-C ,  4-C ) :   1.2641 B(  0-C ,  6-H ) :   0.8977
B(  1-C ,  2-C ) :   1.3939 B(  1-C ,  7-H ) :   0.9139 B(  2-C ,  3-C ) :   1.4106
B(  2-C ,  8-H ) :   0.9106 B(  3-C ,  5-C ) :   1.4452 B(  3-C , 10-H ) :   0.9135
B(  4-C ,  5-C ) :   1.3071 B(  4-C , 11-Pd) :   0.2419 B(  4-C , 17-H ) :   0.8079
B(  5-C ,  9-H ) :   0.8987 B( 11-Pd, 12-O ) :   0.4360 B( 11-Pd, 13-O ) :   0.5990
B( 11-Pd, 14-O ) :   0.6437 B( 11-Pd, 16-O ) :   0.1283 B( 12-O , 13-O ) :   0.1145
B( 12-O , 18-C ) :   1.6138 B( 13-O , 18-C ) :   1.3706 B( 14-O , 15-C ) :   1.3049
B( 14-O , 16-O ) :   0.1065 B( 15-C , 16-O ) :   1.7960 B( 15-C , 20-H ) :   0.8766
B( 18-C , 19-H ) :   0.8838

Dispersion correction           -0.013504270
FINAL SINGLE POINT ENERGY      -737.111168384853
Dispersion correction            ... done

DIPOLE MOMENT
-------------
                                X             Y             Z
Electronic contribution:     48.33723      35.49743      -2.52376
Nuclear contribution   :    -49.17793     -36.91752       1.78290
                        -----------------------------------------
Total Dipole Moment    :     -0.84070      -1.42009      -0.74086
                        -----------------------------------------
Magnitude (a.u.)       :      1.80896
Magnitude (Debye)      :      4.59800

Rotational constants in cm-1:     0.028894     0.018339     0.013544
Rotational constants in MHz :   866.215160   549.799344   406.036894

                             ****ORCA TERMINATED NORMALLY****
TOTAL RUN TIME: 0 days 0 hours 4 minutes 3 seconds 340 msec
