                         Program Version 5.0.3 -  RELEASE  -
|  1> ! EnGrad PBEh-3c
|  2> %output
|  3> xyzfile=True
|  4> end
|  5> %scf
|  6> maxiter 250
|  7> end
|  8> %output
|  9> Print[P_Hirshfeld] = 1
| 10> end
| 11> % maxcore
| 12> 4000
| 13> *xyz 0 1
| 14> C   -1.56854826   0.21843997  -0.39162586
| 15> C   -2.06704363  -0.83785601  -1.17696354
| 16> C   -1.73984352  -2.16089897  -0.90696406
| 17> C   -0.80817032  -2.37736210   0.09267286
| 18> C   -0.76487429  -0.01252686   0.73197384
| 19> C   -0.33414100  -1.32572851   0.89280227
| 20> H   -1.82172701   1.22882516  -0.69723558
| 21> H   -2.72278021  -0.64477943  -2.01438085
| 22> H   -2.14731198  -2.98871482  -1.48536844
| 23> H    0.40294224  -1.56057292   1.64937532
| 24> H   -0.47257248  -3.38577353   0.27927021
| 25> Pd   1.28007653   0.96997772  -0.03642176
| 26> O    3.21816878   1.36946430  -1.17120635
| 27> O    2.54544936  -0.53652747  -0.29220707
| 28> O    0.35866305   2.67758947   0.15365976
| 29> C    0.00726714   2.90458129   1.38097424
| 30> O    0.26542503   2.20020831   2.36284112
| 31> H   -0.64380812   0.64302936   1.44236005
| 32> C    3.38018703   0.15392523  -0.97448354
| 33> H    4.27830480  -0.37075408  -1.32483603
| 34> H   -0.65731721   3.80607357   1.46391646
| 35> *
| 36>
| 37>                          ****END OF INPUT****

CARTESIAN COORDINATES (ANGSTROEM)
---------------------------------
  C     -1.568548    0.218440   -0.391626
  C     -2.067044   -0.837856   -1.176964
  C     -1.739844   -2.160899   -0.906964
  C     -0.808170   -2.377362    0.092673
  C     -0.764874   -0.012527    0.731974
  C     -0.334141   -1.325729    0.892802
  H     -1.821727    1.228825   -0.697236
  H     -2.722780   -0.644779   -2.014381
  H     -2.147312   -2.988715   -1.485368
  H      0.402942   -1.560573    1.649375
  H     -0.472572   -3.385774    0.279270
  Pd     1.280077    0.969978   -0.036422
  O      3.218169    1.369464   -1.171206
  O      2.545449   -0.536527   -0.292207
  O      0.358663    2.677589    0.153660
  C      0.007267    2.904581    1.380974
  O      0.265425    2.200208    2.362841
  H     -0.643808    0.643029    1.442360
  C      3.380187    0.153925   -0.974484
  H      4.278305   -0.370754   -1.324836
  H     -0.657317    3.806074    1.463916

 Total Charge           Charge          ....    0
 Multiplicity           Mult            ....    1
 Number of Electrons    NEL             ....  106
 Basis Dimension        Dim             ....  227

ORBITAL ENERGIES
----------------

  NO   OCC          E(Eh)            E(eV)
   0   2.0000     -19.530296      -531.4464
   1   2.0000     -19.522590      -531.2367
   2   2.0000     -19.518694      -531.1307
   3   2.0000     -19.472776      -529.8812
   4   2.0000     -10.587928      -288.1122
   5   2.0000     -10.563555      -287.4490
   6   2.0000     -10.488972      -285.4194
   7   2.0000     -10.485938      -285.3369
   8   2.0000     -10.485732      -285.3313
   9   2.0000     -10.477151      -285.0978
  10   2.0000     -10.474833      -285.0347
  11   2.0000     -10.470928      -284.9284
  12   2.0000      -3.695351      -100.5556
  13   2.0000      -2.351243       -63.9806
  14   2.0000      -2.330452       -63.4148
  15   2.0000      -2.308448       -62.8161
  16   2.0000      -1.222459       -33.2648
  17   2.0000      -1.182530       -32.1783
  18   2.0000      -1.115467       -30.3534
  19   2.0000      -1.088791       -29.6275
  20   2.0000      -0.988367       -26.8948
  21   2.0000      -0.881345       -23.9826
  22   2.0000      -0.861010       -23.4293
  23   2.0000      -0.720360       -19.6020
  24   2.0000      -0.710089       -19.3225
  25   2.0000      -0.694572       -18.9003
  26   2.0000      -0.668012       -18.1775
  27   2.0000      -0.627742       -17.0817
  28   2.0000      -0.589131       -16.0311
  29   2.0000      -0.570883       -15.5345
  30   2.0000      -0.557444       -15.1688
  31   2.0000      -0.554966       -15.1014
  32   2.0000      -0.543157       -14.7801
  33   2.0000      -0.529221       -14.4008
  34   2.0000      -0.525831       -14.3086
  35   2.0000      -0.519040       -14.1238
  36   2.0000      -0.501347       -13.6423
  37   2.0000      -0.488485       -13.2924
  38   2.0000      -0.470137       -12.7931
  39   2.0000      -0.437663       -11.9094
  40   2.0000      -0.434409       -11.8209
  41   2.0000      -0.422007       -11.4834
  42   2.0000      -0.413167       -11.2428
  43   2.0000      -0.400803       -10.9064
  44   2.0000      -0.391505       -10.6534
  45   2.0000      -0.375070       -10.2062
  46   2.0000      -0.370186       -10.0733
  47   2.0000      -0.356091        -9.6897
  48   2.0000      -0.344600        -9.3770
  49   2.0000      -0.339814        -9.2468
  50   2.0000      -0.327692        -8.9170
  51   2.0000      -0.314343        -8.5537
  52   2.0000      -0.313533        -8.5317
  53   0.0000      -0.117178        -3.1886
  54   0.0000      -0.014841        -0.4039
  55   0.0000      -0.010453        -0.2844
  56   0.0000       0.026292         0.7154
  57   0.0000       0.049240         1.3399

MULLIKEN ATOMIC CHARGES
-----------------------
   0 C :   -0.185013
   1 C :   -0.229999
   2 C :   -0.191334
   3 C :   -0.225940
   4 C :   -0.467725
   5 C :   -0.176516
   6 H :    0.266856
   7 H :    0.238038
   8 H :    0.243724
   9 H :    0.266892
  10 H :    0.237846
  11 Pd:    0.587315
  12 O :   -0.423878
  13 O :   -0.497493
  14 O :   -0.509207
  15 C :    0.336308
  16 O :   -0.443676
  17 H :    0.396354
  18 C :    0.399941
  19 H :    0.201479
  20 H :    0.176027
Sum of atomic charges:    0.0000000

LOEWDIN ATOMIC CHARGES
----------------------
   0 C :   -0.063499
   1 C :   -0.131231
   2 C :   -0.091253
   3 C :   -0.127163
   4 C :   -0.133476
   5 C :   -0.057045
   6 H :    0.165268
   7 H :    0.145039
   8 H :    0.147999
   9 H :    0.164814
  10 H :    0.145379
  11 Pd:   -0.099881
  12 O :   -0.159710
  13 O :   -0.163604
  14 O :   -0.168644
  15 C :    0.116092
  16 O :   -0.265742
  17 H :    0.195583
  18 C :    0.159531
  19 H :    0.117924
  20 H :    0.103620

  Mayer bond orders larger than 0.100000
B(  0-C ,  1-C ) :   1.4422 B(  0-C ,  4-C ) :   1.2952 B(  0-C ,  6-H ) :   0.8983
B(  1-C ,  2-C ) :   1.3999 B(  1-C ,  7-H ) :   0.9148 B(  2-C ,  3-C ) :   1.4099
B(  2-C ,  8-H ) :   0.9117 B(  3-C ,  5-C ) :   1.4353 B(  3-C , 10-H ) :   0.9141
B(  4-C ,  5-C ) :   1.3338 B(  4-C , 11-Pd) :   0.2622 B(  4-C , 17-H ) :   0.7560
B(  5-C ,  9-H ) :   0.9014 B( 11-Pd, 12-O ) :   0.4358 B( 11-Pd, 13-O ) :   0.5972
B( 11-Pd, 14-O ) :   0.6484 B( 11-Pd, 16-O ) :   0.1095 B( 12-O , 13-O ) :   0.1148
B( 12-O , 18-C ) :   1.6171 B( 13-O , 18-C ) :   1.3707 B( 14-O , 15-C ) :   1.2842
B( 14-O , 16-O ) :   0.1080 B( 15-C , 16-O ) :   1.8189 B( 15-C , 20-H ) :   0.8745
B( 18-C , 19-H ) :   0.8836

Dispersion correction           -0.013463054
FINAL SINGLE POINT ENERGY      -737.109100318914
Dispersion correction            ... done

DIPOLE MOMENT
-------------
                                X             Y             Z
Electronic contribution:     47.40417      33.79644      -4.37550
Nuclear contribution   :    -48.22370     -35.26167       3.51798
                        -----------------------------------------
Total Dipole Moment    :     -0.81952      -1.46524      -0.85752
                        -----------------------------------------
Magnitude (a.u.)       :      1.88517
Magnitude (Debye)      :      4.79173

Rotational constants in cm-1:     0.028995     0.018392     0.013521
Rotational constants in MHz :   869.246585   551.373069   405.356168

                             ****ORCA TERMINATED NORMALLY****
TOTAL RUN TIME: 0 days 0 hours 4 minutes 1 seconds 150 msec
