                         Program Version 5.0.3 -  RELEASE  -
|  1> ! EnGrad PBEh-3c
|  2> %output
|  3> xyzfile=True
|  4> end
|  5> %scf
|  6> maxiter 250
|  7> end
|  8> %output
|  9> Print[P_Hirshfeld] = 1
| 10> end
| 11> % maxcore
| 12> 4000
| 13> *xyz 0 1
| 14> C   -1.58171728   0.21683388  -0.41290732
| 15> C   -2.06869336  -0.82726049  -1.16972344
| 16> C   -1.74268152  -2.14649355  -0.89115700
| 17> C   -0.80725855  -2.37249925   0.10680005
| 18> C   -0.77552048  -0.12403540   0.60135336
| 19> C   -0.33072674  -1.35303920   0.89505176
| 20> H   -1.82252233   1.23306132  -0.69232142
| 21> H   -2.72635618  -0.63473035  -2.00416360
| 22> H   -2.15687484  -2.97435809  -1.46477580
| 23> H    0.40488330  -1.56152364   1.65812646
| 24> H   -0.47446893  -3.38186329   0.28797302
| 25> Pd   1.28637836   0.97933307  -0.05549917
| 26> O    3.20472640   1.36453492  -1.14613695
| 27> O    2.55000956  -0.54065919  -0.31766421
| 28> O    0.35028322   2.66833633   0.16418514
| 29> C   -0.00407341   2.90792279   1.38681629
| 30> O    0.27029554   2.22255206   2.36228405
| 31> H   -0.61733009   0.69347123   1.48413416
| 32> C    3.39380897   0.15539730  -0.95571650
| 33> H    4.28502290  -0.36332928  -1.32457896
| 34> H   -0.64994451   3.80600321   1.46465513
| 35> *
| 36>
| 37>                          ****END OF INPUT****

CARTESIAN COORDINATES (ANGSTROEM)
---------------------------------
  C     -1.581717    0.216834   -0.412907
  C     -2.068693   -0.827260   -1.169723
  C     -1.742682   -2.146494   -0.891157
  C     -0.807259   -2.372499    0.106800
  C     -0.775520   -0.124035    0.601353
  C     -0.330727   -1.353039    0.895052
  H     -1.822522    1.233061   -0.692321
  H     -2.726356   -0.634730   -2.004164
  H     -2.156875   -2.974358   -1.464776
  H      0.404883   -1.561524    1.658126
  H     -0.474469   -3.381863    0.287973
  Pd     1.286378    0.979333   -0.055499
  O      3.204726    1.364535   -1.146137
  O      2.550010   -0.540659   -0.317664
  O      0.350283    2.668336    0.164185
  C     -0.004073    2.907923    1.386816
  O      0.270296    2.222552    2.362284
  H     -0.617330    0.693471    1.484134
  C      3.393809    0.155397   -0.955716
  H      4.285023   -0.363329   -1.324579
  H     -0.649945    3.806003    1.464655

 Total Charge           Charge          ....    0
 Multiplicity           Mult            ....    1
 Number of Electrons    NEL             ....  106
 Basis Dimension        Dim             ....  227

ORBITAL ENERGIES
----------------

  NO   OCC          E(Eh)            E(eV)
   0   2.0000     -19.529734      -531.4311
   1   2.0000     -19.523481      -531.2609
   2   2.0000     -19.516790      -531.0789
   3   2.0000     -19.473723      -529.9069
   4   2.0000     -10.586981      -288.0864
   5   2.0000     -10.561651      -287.3971
   6   2.0000     -10.480255      -285.1822
   7   2.0000     -10.476552      -285.0815
   8   2.0000     -10.474884      -285.0361
   9   2.0000     -10.473655      -285.0027
  10   2.0000     -10.471076      -284.9325
  11   2.0000     -10.469090      -284.8784
  12   2.0000      -3.694639      -100.5362
  13   2.0000      -2.350259       -63.9538
  14   2.0000      -2.330354       -63.4122
  15   2.0000      -2.307128       -62.7802
  16   2.0000      -1.229882       -33.4668
  17   2.0000      -1.186657       -32.2906
  18   2.0000      -1.118327       -30.4312
  19   2.0000      -1.092236       -29.7212
  20   2.0000      -1.000441       -27.2234
  21   2.0000      -0.873408       -23.7666
  22   2.0000      -0.872278       -23.7359
  23   2.0000      -0.713785       -19.4231
  24   2.0000      -0.706209       -19.2169
  25   2.0000      -0.696528       -18.9535
  26   2.0000      -0.671104       -18.2617
  27   2.0000      -0.625086       -17.0094
  28   2.0000      -0.590646       -16.0723
  29   2.0000      -0.567095       -15.4315
  30   2.0000      -0.557454       -15.1691
  31   2.0000      -0.549727       -14.9588
  32   2.0000      -0.541662       -14.7394
  33   2.0000      -0.530746       -14.4423
  34   2.0000      -0.523192       -14.2368
  35   2.0000      -0.521144       -14.1810
  36   2.0000      -0.513032       -13.9603
  37   2.0000      -0.484688       -13.1890
  38   2.0000      -0.475241       -12.9320
  39   2.0000      -0.437794       -11.9130
  40   2.0000      -0.428069       -11.6483
  41   2.0000      -0.418359       -11.3841
  42   2.0000      -0.411304       -11.1922
  43   2.0000      -0.397665       -10.8210
  44   2.0000      -0.389790       -10.6067
  45   2.0000      -0.374876       -10.2009
  46   2.0000      -0.368803       -10.0356
  47   2.0000      -0.356280        -9.6949
  48   2.0000      -0.343143        -9.3374
  49   2.0000      -0.337691        -9.1890
  50   2.0000      -0.325388        -8.8542
  51   2.0000      -0.320384        -8.7181
  52   2.0000      -0.313953        -8.5431
  53   0.0000      -0.113475        -3.0878
  54   0.0000      -0.007051        -0.1919
  55   0.0000      -0.003237        -0.0881
  56   0.0000       0.027633         0.7519
  57   0.0000       0.051159         1.3921

MULLIKEN ATOMIC CHARGES
-----------------------
   0 C :   -0.127787
   1 C :   -0.256335
   2 C :   -0.179307
   3 C :   -0.253520
   4 C :   -0.527296
   5 C :   -0.114488
   6 H :    0.267887
   7 H :    0.234671
   8 H :    0.239847
   9 H :    0.266308
  10 H :    0.234203
  11 Pd:    0.600647
  12 O :   -0.427445
  13 O :   -0.488446
  14 O :   -0.512733
  15 C :    0.332932
  16 O :   -0.434652
  17 H :    0.365967
  18 C :    0.399504
  19 H :    0.201384
  20 H :    0.178657
Sum of atomic charges:   -0.0000000

LOEWDIN ATOMIC CHARGES
----------------------
   0 C :   -0.085802
   1 C :   -0.120107
   2 C :   -0.099568
   3 C :   -0.115962
   4 C :   -0.135167
   5 C :   -0.080457
   6 H :    0.169220
   7 H :    0.141172
   8 H :    0.147281
   9 H :    0.168101
  10 H :    0.141458
  11 Pd:   -0.105317
  12 O :   -0.153245
  13 O :   -0.156163
  14 O :   -0.168855
  15 C :    0.107078
  16 O :   -0.257649
  17 H :    0.228812
  18 C :    0.152805
  19 H :    0.118051
  20 H :    0.104313

  Mayer bond orders larger than 0.100000
B(  0-C ,  1-C ) :   1.4226 B(  0-C ,  4-C ) :   1.3082 B(  0-C ,  6-H ) :   0.8984
B(  1-C ,  2-C ) :   1.4148 B(  1-C ,  7-H ) :   0.9145 B(  2-C ,  3-C ) :   1.4098
B(  2-C ,  8-H ) :   0.9150 B(  3-C ,  5-C ) :   1.4297 B(  3-C , 10-H ) :   0.9138
B(  4-C ,  5-C ) :   1.3293 B(  4-C , 11-Pd) :   0.2437 B(  4-C , 17-H ) :   0.7453
B(  5-C ,  9-H ) :   0.9027 B( 11-Pd, 12-O ) :   0.4601 B( 11-Pd, 13-O ) :   0.5868
B( 11-Pd, 14-O ) :   0.6481 B( 11-Pd, 16-O ) :   0.1001 B( 12-O , 13-O ) :   0.1137
B( 12-O , 18-C ) :   1.5941 B( 13-O , 18-C ) :   1.3957 B( 14-O , 15-C ) :   1.2854
B( 14-O , 16-O ) :   0.1065 B( 15-C , 16-O ) :   1.8266 B( 15-C , 20-H ) :   0.8746
B( 18-C , 19-H ) :   0.8842

Dispersion correction           -0.013423068
FINAL SINGLE POINT ENERGY      -737.106939563612
Dispersion correction            ... done

DIPOLE MOMENT
-------------
                                X             Y             Z
Electronic contribution:     47.82787      34.45302      -5.07838
Nuclear contribution   :    -48.56631     -35.82494       4.26752
                        -----------------------------------------
Total Dipole Moment    :     -0.73844      -1.37192      -0.81086
                        -----------------------------------------
Magnitude (a.u.)       :      1.75641
Magnitude (Debye)      :      4.46443

Rotational constants in cm-1:     0.029074     0.018333     0.013488
Rotational constants in MHz :   871.628911   549.598342   404.367818

                             ****ORCA TERMINATED NORMALLY****
TOTAL RUN TIME: 0 days 0 hours 4 minutes 14 seconds 283 msec
