                         Program Version 5.0.3 -  RELEASE  -
|  1> ! EnGrad PBEh-3c
|  2> %output
|  3> xyzfile=True
|  4> end
|  5> %scf
|  6> maxiter 250
|  7> end
|  8> %output
|  9> Print[P_Hirshfeld] = 1
| 10> end
| 11> % maxcore
| 12> 4000
| 13> *xyz 0 1
| 14> C   -1.61006012   0.21367540  -0.45208592
| 15> C   -2.08634164  -0.82669928  -1.17489207
| 16> C   -1.74910235  -2.13793511  -0.87698837
| 17> C   -0.81261052  -2.38853591   0.11718164
| 18> C   -0.75888291  -0.10680745   0.60747181
| 19> C   -0.32440729  -1.39857808   0.89242910
| 20> H   -1.81465110   1.23779113  -0.68674303
| 21> H   -2.73608178  -0.62894687  -1.99590576
| 22> H   -2.17832411  -2.97034920  -1.44497980
| 23> H    0.40523578  -1.55689714   1.66021761
| 24> H   -0.48134191  -3.38397672   0.29535124
| 25> Pd   1.29487119   0.98833603  -0.05877261
| 26> O    3.20217559   1.37294557  -1.12812662
| 27> O    2.54534188  -0.54048118  -0.33650318
| 28> O    0.34520748   2.66100687   0.17110938
| 29> C   -0.00374674   2.90854840   1.38971510
| 30> O    0.28482176   2.24632082   2.35565014
| 31> H   -0.60461842   0.66697389   1.44570842
| 32> C    3.41156979   0.15808640  -0.94423004
| 33> H    4.30007283  -0.34990306  -1.32169514
| 34> H   -0.64327159   3.80064141   1.46039298
| 35> *
| 36>
| 37>                          ****END OF INPUT****

CARTESIAN COORDINATES (ANGSTROEM)
---------------------------------
  C     -1.610060    0.213675   -0.452086
  C     -2.086342   -0.826699   -1.174892
  C     -1.749102   -2.137935   -0.876988
  C     -0.812611   -2.388536    0.117182
  C     -0.758883   -0.106807    0.607472
  C     -0.324407   -1.398578    0.892429
  H     -1.814651    1.237791   -0.686743
  H     -2.736082   -0.628947   -1.995906
  H     -2.178324   -2.970349   -1.444980
  H      0.405236   -1.556897    1.660218
  H     -0.481342   -3.383977    0.295351
  Pd     1.294871    0.988336   -0.058773
  O      3.202176    1.372946   -1.128127
  O      2.545342   -0.540481   -0.336503
  O      0.345207    2.661007    0.171109
  C     -0.003747    2.908548    1.389715
  O      0.284822    2.246321    2.355650
  H     -0.604618    0.666974    1.445708
  C      3.411570    0.158086   -0.944230
  H      4.300073   -0.349903   -1.321695
  H     -0.643272    3.800641    1.460393

 Total Charge           Charge          ....    0
 Multiplicity           Mult            ....    1
 Number of Electrons    NEL             ....  106
 Basis Dimension        Dim             ....  227

ORBITAL ENERGIES
----------------

  NO   OCC          E(Eh)            E(eV)
   0   2.0000     -19.528398      -531.3947
   1   2.0000     -19.521561      -531.2087
   2   2.0000     -19.511187      -530.9264
   3   2.0000     -19.469869      -529.8021
   4   2.0000     -10.586832      -288.0824
   5   2.0000     -10.554982      -287.2157
   6   2.0000     -10.485107      -285.3143
   7   2.0000     -10.480392      -285.1860
   8   2.0000     -10.479018      -285.1486
   9   2.0000     -10.477538      -285.1083
  10   2.0000     -10.469713      -284.8954
  11   2.0000     -10.468091      -284.8512
  12   2.0000      -3.690755      -100.4305
  13   2.0000      -2.346224       -63.8440
  14   2.0000      -2.326699       -63.3127
  15   2.0000      -2.303165       -62.6723
  16   2.0000      -1.226862       -33.3846
  17   2.0000      -1.189386       -32.3648
  18   2.0000      -1.113425       -30.2978
  19   2.0000      -1.093334       -29.7511
  20   2.0000      -0.995660       -27.0933
  21   2.0000      -0.879991       -23.9458
  22   2.0000      -0.865691       -23.5566
  23   2.0000      -0.713985       -19.4285
  24   2.0000      -0.710996       -19.3472
  25   2.0000      -0.697530       -18.9807
  26   2.0000      -0.669522       -18.2186
  27   2.0000      -0.626694       -17.0532
  28   2.0000      -0.588855       -16.0236
  29   2.0000      -0.567657       -15.4467
  30   2.0000      -0.555424       -15.1139
  31   2.0000      -0.549225       -14.9452
  32   2.0000      -0.546960       -14.8835
  33   2.0000      -0.527983       -14.3672
  34   2.0000      -0.523845       -14.2545
  35   2.0000      -0.520927       -14.1751
  36   2.0000      -0.516417       -14.0524
  37   2.0000      -0.484093       -13.1728
  38   2.0000      -0.470938       -12.8149
  39   2.0000      -0.437316       -11.9000
  40   2.0000      -0.426237       -11.5985
  41   2.0000      -0.422256       -11.4902
  42   2.0000      -0.411241       -11.1904
  43   2.0000      -0.399178       -10.8622
  44   2.0000      -0.390381       -10.6228
  45   2.0000      -0.373280       -10.1575
  46   2.0000      -0.366014        -9.9598
  47   2.0000      -0.353175        -9.6104
  48   2.0000      -0.339911        -9.2494
  49   2.0000      -0.333992        -9.0884
  50   2.0000      -0.327782        -8.9194
  51   2.0000      -0.321543        -8.7496
  52   2.0000      -0.311018        -8.4632
  53   0.0000      -0.110896        -3.0176
  54   0.0000      -0.011815        -0.3215
  55   0.0000      -0.002754        -0.0749
  56   0.0000       0.026002         0.7075
  57   0.0000       0.055564         1.5120

MULLIKEN ATOMIC CHARGES
-----------------------
   0 C :   -0.130897
   1 C :   -0.239516
   2 C :   -0.186934
   3 C :   -0.237567
   4 C :   -0.546774
   5 C :   -0.115051
   6 H :    0.270770
   7 H :    0.236516
   8 H :    0.239519
   9 H :    0.267359
  10 H :    0.236241
  11 Pd:    0.592458
  12 O :   -0.434693
  13 O :   -0.489526
  14 O :   -0.517568
  15 C :    0.325911
  16 O :   -0.423684
  17 H :    0.373218
  18 C :    0.401808
  19 H :    0.204833
  20 H :    0.173576
Sum of atomic charges:    0.0000000

LOEWDIN ATOMIC CHARGES
----------------------
   0 C :   -0.075067
   1 C :   -0.127777
   2 C :   -0.086181
   3 C :   -0.123615
   4 C :   -0.134053
   5 C :   -0.070571
   6 H :    0.168265
   7 H :    0.143066
   8 H :    0.147556
   9 H :    0.166643
  10 H :    0.143381
  11 Pd:   -0.117533
  12 O :   -0.158188
  13 O :   -0.157369
  14 O :   -0.170522
  15 C :    0.093293
  16 O :   -0.242759
  17 H :    0.221348
  18 C :    0.158899
  19 H :    0.120282
  20 H :    0.100902

  Mayer bond orders larger than 0.100000
B(  0-C ,  1-C ) :   1.4358 B(  0-C ,  4-C ) :   1.3000 B(  0-C ,  6-H ) :   0.8956
B(  1-C ,  2-C ) :   1.4083 B(  1-C ,  7-H ) :   0.9146 B(  2-C ,  3-C ) :   1.4019
B(  2-C ,  8-H ) :   0.9156 B(  3-C ,  5-C ) :   1.4448 B(  3-C , 10-H ) :   0.9138
B(  4-C ,  5-C ) :   1.3170 B(  4-C , 11-Pd) :   0.2549 B(  4-C , 17-H ) :   0.7547
B(  5-C ,  9-H ) :   0.9015 B( 11-Pd, 12-O ) :   0.4658 B( 11-Pd, 13-O ) :   0.5800
B( 11-Pd, 14-O ) :   0.6489 B( 11-Pd, 16-O ) :   0.1001 B( 12-O , 13-O ) :   0.1141
B( 12-O , 18-C ) :   1.5792 B( 13-O , 18-C ) :   1.4008 B( 14-O , 15-C ) :   1.2797
B( 14-O , 16-O ) :   0.1054 B( 15-C , 16-O ) :   1.8527 B( 15-C , 20-H ) :   0.8762
B( 18-C , 19-H ) :   0.8841

Dispersion correction           -0.013368542
FINAL SINGLE POINT ENERGY      -737.119794050798
Dispersion correction            ... done

DIPOLE MOMENT
-------------
                                X             Y             Z
Electronic contribution:     48.20055      34.74489      -5.22252
Nuclear contribution   :    -48.96676     -36.22331       4.40731
                        -----------------------------------------
Total Dipole Moment    :     -0.76621      -1.47842      -0.81521
                        -----------------------------------------
Magnitude (a.u.)       :      1.85401
Magnitude (Debye)      :      4.71253

Rotational constants in cm-1:     0.029041     0.018182     0.013414
Rotational constants in MHz :   870.617175   545.068967   402.139108

                             ****ORCA TERMINATED NORMALLY****
TOTAL RUN TIME: 0 days 0 hours 4 minutes 4 seconds 474 msec
