                         Program Version 5.0.3 -  RELEASE  -
|  1> ! EnGrad PBEh-3c
|  2> %output
|  3> xyzfile=True
|  4> end
|  5> %scf
|  6> maxiter 250
|  7> end
|  8> %output
|  9> Print[P_Hirshfeld] = 1
| 10> end
| 11> % maxcore
| 12> 4000
| 13> *xyz 0 1
| 14> C   -1.60814380   0.21030908  -0.45538937
| 15> C   -2.10580627  -0.84230659  -1.20096593
| 16> C   -1.74007589  -2.13345123  -0.87639833
| 17> C   -0.81923579  -2.42378955   0.10964975
| 18> C   -0.74272975  -0.06956492   0.64041394
| 19> C   -0.32273336  -1.39923155   0.89083102
| 20> H   -1.82584279   1.24498882  -0.68000427
| 21> H   -2.74536073  -0.62323145  -2.00581744
| 22> H   -2.17346719  -2.95603724  -1.43691469
| 23> H    0.40225687  -1.56012242   1.67492085
| 24> H   -0.47627448  -3.39948415   0.29755474
| 25> Pd   1.30950388   0.99996210  -0.06134194
| 26> O    3.18826881   1.36597234  -1.11896769
| 27> O    2.54287536  -0.54390088  -0.34495368
| 28> O    0.33723416   2.66438952   0.16465516
| 29> C   -0.00199833   2.91860912   1.38388208
| 30> O    0.30369193   2.26029246   2.35207772
| 31> H   -0.62329388   0.64309988   1.44250162
| 32> C    3.41189561   0.15546673  -0.93952990
| 33> H    4.30903576  -0.34803181  -1.32663586
| 34> H   -0.63542941   3.79957641   1.46199130
| 35> *
| 36>
| 37>                          ****END OF INPUT****

CARTESIAN COORDINATES (ANGSTROEM)
---------------------------------
  C     -1.608144    0.210309   -0.455389
  C     -2.105806   -0.842307   -1.200966
  C     -1.740076   -2.133451   -0.876398
  C     -0.819236   -2.423790    0.109650
  C     -0.742730   -0.069565    0.640414
  C     -0.322733   -1.399232    0.890831
  H     -1.825843    1.244989   -0.680004
  H     -2.745361   -0.623231   -2.005817
  H     -2.173467   -2.956037   -1.436915
  H      0.402257   -1.560122    1.674921
  H     -0.476274   -3.399484    0.297555
  Pd     1.309504    0.999962   -0.061342
  O      3.188269    1.365972   -1.118968
  O      2.542875   -0.543901   -0.344954
  O      0.337234    2.664390    0.164655
  C     -0.001998    2.918609    1.383882
  O      0.303692    2.260292    2.352078
  H     -0.623294    0.643100    1.442502
  C      3.411896    0.155467   -0.939530
  H      4.309036   -0.348032   -1.326636
  H     -0.635429    3.799576    1.461991

 Total Charge           Charge          ....    0
 Multiplicity           Mult            ....    1
 Number of Electrons    NEL             ....  106
 Basis Dimension        Dim             ....  227

ORBITAL ENERGIES
----------------

  NO   OCC          E(Eh)            E(eV)
   0   2.0000     -19.528821      -531.4062
   1   2.0000     -19.522495      -531.2341
   2   2.0000     -19.508969      -530.8660
   3   2.0000     -19.466507      -529.7106
   4   2.0000     -10.587837      -288.1097
   5   2.0000     -10.551858      -287.1306
   6   2.0000     -10.487549      -285.3807
   7   2.0000     -10.485091      -285.3138
   8   2.0000     -10.484715      -285.3036
   9   2.0000     -10.477989      -285.1206
  10   2.0000     -10.472283      -284.9653
  11   2.0000     -10.470988      -284.9301
  12   2.0000      -3.689401      -100.3937
  13   2.0000      -2.344695       -63.8024
  14   2.0000      -2.325725       -63.2862
  15   2.0000      -2.301496       -62.6269
  16   2.0000      -1.230956       -33.4960
  17   2.0000      -1.185766       -32.2663
  18   2.0000      -1.114994       -30.3405
  19   2.0000      -1.089349       -29.6427
  20   2.0000      -0.987249       -26.8644
  21   2.0000      -0.872664       -23.7464
  22   2.0000      -0.867085       -23.5946
  23   2.0000      -0.714563       -19.4443
  24   2.0000      -0.711448       -19.3595
  25   2.0000      -0.696921       -18.9642
  26   2.0000      -0.669653       -18.2222
  27   2.0000      -0.625348       -17.0166
  28   2.0000      -0.590048       -16.0560
  29   2.0000      -0.568749       -15.4765
  30   2.0000      -0.556775       -15.1506
  31   2.0000      -0.554798       -15.0968
  32   2.0000      -0.543360       -14.7856
  33   2.0000      -0.530325       -14.4309
  34   2.0000      -0.521414       -14.1884
  35   2.0000      -0.519011       -14.1230
  36   2.0000      -0.515388       -14.0244
  37   2.0000      -0.482613       -13.1326
  38   2.0000      -0.465655       -12.6711
  39   2.0000      -0.436983       -11.8909
  40   2.0000      -0.429939       -11.6992
  41   2.0000      -0.423560       -11.5256
  42   2.0000      -0.410316       -11.1653
  43   2.0000      -0.401533       -10.9263
  44   2.0000      -0.390672       -10.6307
  45   2.0000      -0.373391       -10.1605
  46   2.0000      -0.364817        -9.9272
  47   2.0000      -0.350932        -9.5494
  48   2.0000      -0.337686        -9.1889
  49   2.0000      -0.334079        -9.0908
  50   2.0000      -0.323218        -8.7952
  51   2.0000      -0.320815        -8.7298
  52   2.0000      -0.309293        -8.4163
  53   0.0000      -0.109352        -2.9756
  54   0.0000      -0.013040        -0.3548
  55   0.0000      -0.008533        -0.2322
  56   0.0000       0.025780         0.7015
  57   0.0000       0.057227         1.5572

MULLIKEN ATOMIC CHARGES
-----------------------
   0 C :   -0.163587
   1 C :   -0.213280
   2 C :   -0.205821
   3 C :   -0.211660
   4 C :   -0.519597
   5 C :   -0.149542
   6 H :    0.270762
   7 H :    0.241295
   8 H :    0.236326
   9 H :    0.267239
  10 H :    0.240923
  11 Pd:    0.586979
  12 O :   -0.435191
  13 O :   -0.484849
  14 O :   -0.518628
  15 C :    0.325591
  16 O :   -0.429440
  17 H :    0.379357
  18 C :    0.403371
  19 H :    0.204948
  20 H :    0.174804
Sum of atomic charges:    0.0000000

LOEWDIN ATOMIC CHARGES
----------------------
   0 C :   -0.061141
   1 C :   -0.134481
   2 C :   -0.081996
   3 C :   -0.130525
   4 C :   -0.143900
   5 C :   -0.056269
   6 H :    0.166210
   7 H :    0.146297
   8 H :    0.144910
   9 H :    0.164380
  10 H :    0.146592
  11 Pd:   -0.121553
  12 O :   -0.152164
  13 O :   -0.153037
  14 O :   -0.171899
  15 C :    0.093869
  16 O :   -0.247547
  17 H :    0.212268
  18 C :    0.157713
  19 H :    0.121152
  20 H :    0.101120

  Mayer bond orders larger than 0.100000
B(  0-C ,  1-C ) :   1.4418 B(  0-C ,  4-C ) :   1.2958 B(  0-C ,  6-H ) :   0.8942
B(  1-C ,  2-C ) :   1.4035 B(  1-C ,  7-H ) :   0.9136 B(  2-C ,  3-C ) :   1.4042
B(  2-C ,  8-H ) :   0.9168 B(  3-C ,  5-C ) :   1.4440 B(  3-C , 10-H ) :   0.9130
B(  4-C ,  5-C ) :   1.3192 B(  4-C , 11-Pd) :   0.2594 B(  4-C , 17-H ) :   0.7651
B(  5-C ,  9-H ) :   0.9004 B( 11-Pd, 12-O ) :   0.4786 B( 11-Pd, 13-O ) :   0.5783
B( 11-Pd, 14-O ) :   0.6461 B( 11-Pd, 16-O ) :   0.1032 B( 12-O , 13-O ) :   0.1136
B( 12-O , 18-C ) :   1.5661 B( 13-O , 18-C ) :   1.4060 B( 14-O , 15-C ) :   1.2820
B( 14-O , 16-O ) :   0.1061 B( 15-C , 16-O ) :   1.8531 B( 15-C , 20-H ) :   0.8779
B( 18-C , 19-H ) :   0.8839

Dispersion correction           -0.013298920
FINAL SINGLE POINT ENERGY      -737.125499639898
Dispersion correction            ... done

DIPOLE MOMENT
-------------
                                X             Y             Z
Electronic contribution:     48.87465      35.22027      -5.32781
Nuclear contribution   :    -49.62936     -36.73793       4.48914
                        -----------------------------------------
Total Dipole Moment    :     -0.75471      -1.51766      -0.83867
                        -----------------------------------------
Magnitude (a.u.)       :      1.89110
Magnitude (Debye)      :      4.80679

Rotational constants in cm-1:     0.028944     0.018078     0.013357
Rotational constants in MHz :   867.720971   541.970567   400.426748

                             ****ORCA TERMINATED NORMALLY****
TOTAL RUN TIME: 0 days 0 hours 3 minutes 58 seconds 117 msec
