                         Program Version 5.0.3 -  RELEASE  -
|  1> ! EnGrad PBEh-3c
|  2> %output
|  3> xyzfile=True
|  4> end
|  5> %scf
|  6> maxiter 250
|  7> end
|  8> %output
|  9> Print[P_Hirshfeld] = 1
| 10> end
| 11> % maxcore
| 12> 4000
| 13> *xyz 0 1
| 14> C   -1.59638389   0.20168549  -0.45337432
| 15> C   -2.10918657  -0.84539395  -1.21124541
| 16> C   -1.73299403  -2.13991160  -0.88718358
| 17> C   -0.81909421  -2.43636392   0.11096033
| 18> C   -0.72623271  -0.04355248   0.66172248
| 19> C   -0.32374528  -1.39360485   0.88252175
| 20> H   -1.84441056   1.25033417  -0.67146427
| 21> H   -2.76664780  -0.61640207  -2.03273512
| 22> H   -2.16224260  -2.93800564  -1.43125774
| 23> H    0.39578208  -1.56728747   1.69428795
| 24> H   -0.46628471  -3.43570200   0.30030302
| 25> Pd   1.32305754   1.00834565  -0.06504913
| 26> O    3.16954853   1.36134045  -1.10610475
| 27> O    2.53607998  -0.55600083  -0.35257968
| 28> O    0.32508266   2.67149623   0.15071490
| 29> C    0.00549972   2.92322804   1.38044859
| 30> O    0.31837640   2.27788573   2.35020941
| 31> H   -0.64198634   0.62826386   1.45316859
| 32> C    3.41089221   0.14672852  -0.93937481
| 33> H    4.31663254  -0.34498286  -1.33229761
| 34> H   -0.62962970   3.80872757   1.46553162
| 35> *
| 36>
| 37>                          ****END OF INPUT****

CARTESIAN COORDINATES (ANGSTROEM)
---------------------------------
  C     -1.596384    0.201685   -0.453374
  C     -2.109187   -0.845394   -1.211245
  C     -1.732994   -2.139912   -0.887184
  C     -0.819094   -2.436364    0.110960
  C     -0.726233   -0.043552    0.661722
  C     -0.323745   -1.393605    0.882522
  H     -1.844411    1.250334   -0.671464
  H     -2.766648   -0.616402   -2.032735
  H     -2.162243   -2.938006   -1.431258
  H      0.395782   -1.567287    1.694288
  H     -0.466285   -3.435702    0.300303
  Pd     1.323058    1.008346   -0.065049
  O      3.169549    1.361340   -1.106105
  O      2.536080   -0.556001   -0.352580
  O      0.325083    2.671496    0.150715
  C      0.005500    2.923228    1.380449
  O      0.318376    2.277886    2.350209
  H     -0.641986    0.628264    1.453169
  C      3.410892    0.146729   -0.939375
  H      4.316633   -0.344983   -1.332298
  H     -0.629630    3.808728    1.465532

 Total Charge           Charge          ....    0
 Multiplicity           Mult            ....    1
 Number of Electrons    NEL             ....  106
 Basis Dimension        Dim             ....  227

ORBITAL ENERGIES
----------------

  NO   OCC          E(Eh)            E(eV)
   0   2.0000     -19.530433      -531.4501
   1   2.0000     -19.524975      -531.3016
   2   2.0000     -19.506656      -530.8031
   3   2.0000     -19.465662      -529.6876
   4   2.0000     -10.590987      -288.1954
   5   2.0000     -10.550168      -287.0847
   6   2.0000     -10.491552      -285.4897
   7   2.0000     -10.489156      -285.4245
   8   2.0000     -10.484722      -285.3038
   9   2.0000     -10.477320      -285.1024
  10   2.0000     -10.476783      -285.0878
  11   2.0000     -10.475602      -285.0556
  12   2.0000      -3.687832      -100.3510
  13   2.0000      -2.342638       -63.7464
  14   2.0000      -2.324862       -63.2627
  15   2.0000      -2.299520       -62.5731
  16   2.0000      -1.231844       -33.5202
  17   2.0000      -1.182773       -32.1849
  18   2.0000      -1.114457       -30.3259
  19   2.0000      -1.088377       -29.6162
  20   2.0000      -0.983466       -26.7615
  21   2.0000      -0.868656       -23.6373
  22   2.0000      -0.867016       -23.5927
  23   2.0000      -0.716729       -19.5032
  24   2.0000      -0.706628       -19.2283
  25   2.0000      -0.698120       -18.9968
  26   2.0000      -0.665400       -18.1064
  27   2.0000      -0.622199       -16.9309
  28   2.0000      -0.590788       -16.0761
  29   2.0000      -0.568684       -15.4747
  30   2.0000      -0.558162       -15.1883
  31   2.0000      -0.553113       -15.0510
  32   2.0000      -0.541043       -14.7225
  33   2.0000      -0.530869       -14.4457
  34   2.0000      -0.520631       -14.1671
  35   2.0000      -0.515634       -14.0311
  36   2.0000      -0.512049       -13.9336
  37   2.0000      -0.482720       -13.1355
  38   2.0000      -0.464017       -12.6266
  39   2.0000      -0.437643       -11.9089
  40   2.0000      -0.426919       -11.6171
  41   2.0000      -0.422987       -11.5101
  42   2.0000      -0.410575       -11.1723
  43   2.0000      -0.402474       -10.9519
  44   2.0000      -0.391354       -10.6493
  45   2.0000      -0.372440       -10.1346
  46   2.0000      -0.363700        -9.8968
  47   2.0000      -0.349106        -9.4996
  48   2.0000      -0.335611        -9.1324
  49   2.0000      -0.334102        -9.0914
  50   2.0000      -0.321561        -8.7501
  51   2.0000      -0.320159        -8.7120
  52   2.0000      -0.308223        -8.3872
  53   0.0000      -0.107807        -2.9336
  54   0.0000      -0.014841        -0.4038
  55   0.0000      -0.009356        -0.2546
  56   0.0000       0.022394         0.6094
  57   0.0000       0.058530         1.5927

MULLIKEN ATOMIC CHARGES
-----------------------
   0 C :   -0.170822
   1 C :   -0.211028
   2 C :   -0.205913
   3 C :   -0.209637
   4 C :   -0.501969
   5 C :   -0.159186
   6 H :    0.269704
   7 H :    0.241384
   8 H :    0.240429
   9 H :    0.265020
  10 H :    0.240802
  11 Pd:    0.578139
  12 O :   -0.439607
  13 O :   -0.482089
  14 O :   -0.519710
  15 C :    0.325713
  16 O :   -0.425806
  17 H :    0.376477
  18 C :    0.408390
  19 H :    0.208653
  20 H :    0.171055
Sum of atomic charges:   -0.0000000

LOEWDIN ATOMIC CHARGES
----------------------
   0 C :   -0.053594
   1 C :   -0.138102
   2 C :   -0.079963
   3 C :   -0.134226
   4 C :   -0.148747
   5 C :   -0.049546
   6 H :    0.165539
   7 H :    0.148876
   8 H :    0.143938
   9 H :    0.163092
  10 H :    0.149057
  11 Pd:   -0.131172
  12 O :   -0.149702
  13 O :   -0.151928
  14 O :   -0.177717
  15 C :    0.092946
  16 O :   -0.243169
  17 H :    0.206419
  18 C :    0.165014
  19 H :    0.123991
  20 H :    0.098995

  Mayer bond orders larger than 0.100000
B(  0-C ,  1-C ) :   1.4422 B(  0-C ,  4-C ) :   1.2882 B(  0-C ,  6-H ) :   0.8941
B(  1-C ,  2-C ) :   1.3992 B(  1-C ,  7-H ) :   0.9139 B(  2-C ,  3-C ) :   1.4011
B(  2-C ,  8-H ) :   0.9142 B(  3-C ,  5-C ) :   1.4439 B(  3-C , 10-H ) :   0.9135
B(  4-C ,  5-C ) :   1.3134 B(  4-C , 11-Pd) :   0.2635 B(  4-C , 17-H ) :   0.7773
B(  5-C ,  9-H ) :   0.9007 B( 11-Pd, 12-O ) :   0.4960 B( 11-Pd, 13-O ) :   0.5746
B( 11-Pd, 14-O ) :   0.6463 B( 11-Pd, 16-O ) :   0.1030 B( 12-O , 13-O ) :   0.1140
B( 12-O , 18-C ) :   1.5444 B( 13-O , 18-C ) :   1.4108 B( 14-O , 15-C ) :   1.2783
B( 14-O , 16-O ) :   0.1071 B( 15-C , 16-O ) :   1.8617 B( 15-C , 20-H ) :   0.8778
B( 18-C , 19-H ) :   0.8832

Dispersion correction           -0.013254350
FINAL SINGLE POINT ENERGY      -737.124128604476
Dispersion correction            ... done

DIPOLE MOMENT
-------------
                                X             Y             Z
Electronic contribution:     49.52539      35.51067      -5.47491
Nuclear contribution   :    -50.23799     -37.10269       4.61447
                        -----------------------------------------
Total Dipole Moment    :     -0.71260      -1.59202      -0.86044
                        -----------------------------------------
Magnitude (a.u.)       :      1.94491
Magnitude (Debye)      :      4.94357

Rotational constants in cm-1:     0.028871     0.018044     0.013333
Rotational constants in MHz :   865.520290   540.948915   399.704116

                             ****ORCA TERMINATED NORMALLY****
TOTAL RUN TIME: 0 days 0 hours 4 minutes 13 seconds 658 msec
