                         Program Version 5.0.3 -  RELEASE  -
|  1> ! EnGrad PBEh-3c
|  2> %output
|  3> xyzfile=True
|  4> end
|  5> %scf
|  6> maxiter 250
|  7> end
|  8> %output
|  9> Print[P_Hirshfeld] = 1
| 10> end
| 11> % maxcore
| 12> 4000
| 13> *xyz 0 1
| 14> C   -1.60493408   0.20795538  -0.45483939
| 15> C   -2.10672888  -0.84314925  -1.20377159
| 16> C   -1.73814299  -2.13521451  -0.87934203
| 17> C   -0.81919715  -2.42722157   0.11000746
| 18> C   -0.73822708  -0.06246514   0.64622984
| 19> C   -0.32300955  -1.39769581   0.88856310
| 20> H   -1.83091063   1.24644777  -0.67767338
| 21> H   -2.75117078  -0.62136745  -2.01316429
| 22> H   -2.17040358  -2.95111573  -1.43537069
| 23> H    0.40048965  -1.56207803   1.68020687
| 24> H   -0.47354789  -3.40936937   0.29830485
| 25> Pd   1.31320319   1.00225029  -0.06235377
| 26> O    3.18315933   1.36470812  -1.11545691
| 27> O    2.54102064  -0.54720342  -0.34703511
| 28> O    0.33391756   2.66632921   0.16085033
| 29> C    0.00004817   2.91986980   1.38294495
| 30> O    0.30769988   2.26509433   2.35156779
| 31> H   -0.62839576   0.63905057   1.44541304
| 32> C    3.41162174   0.15308174  -0.93948757
| 33> H    4.31110921  -0.34719964  -1.32818116
| 34> H   -0.63384645   3.80207410   1.46295759
| 35> *
| 36>
| 37>                          ****END OF INPUT****

CARTESIAN COORDINATES (ANGSTROEM)
---------------------------------
  C     -1.604934    0.207955   -0.454839
  C     -2.106729   -0.843149   -1.203772
  C     -1.738143   -2.135215   -0.879342
  C     -0.819197   -2.427222    0.110007
  C     -0.738227   -0.062465    0.646230
  C     -0.323010   -1.397696    0.888563
  H     -1.830911    1.246448   -0.677673
  H     -2.751171   -0.621367   -2.013164
  H     -2.170404   -2.951116   -1.435371
  H      0.400490   -1.562078    1.680207
  H     -0.473548   -3.409369    0.298305
  Pd     1.313203    1.002250   -0.062354
  O      3.183159    1.364708   -1.115457
  O      2.541021   -0.547203   -0.347035
  O      0.333918    2.666329    0.160850
  C      0.000048    2.919870    1.382945
  O      0.307700    2.265094    2.351568
  H     -0.628396    0.639051    1.445413
  C      3.411622    0.153082   -0.939488
  H      4.311109   -0.347200   -1.328181
  H     -0.633846    3.802074    1.462958

 Total Charge           Charge          ....    0
 Multiplicity           Mult            ....    1
 Number of Electrons    NEL             ....  106
 Basis Dimension        Dim             ....  227

ORBITAL ENERGIES
----------------

  NO   OCC          E(Eh)            E(eV)
   0   2.0000     -19.529262      -531.4182
   1   2.0000     -19.523178      -531.2527
   2   2.0000     -19.508339      -530.8489
   3   2.0000     -19.466265      -529.7040
   4   2.0000     -10.588693      -288.1330
   5   2.0000     -10.551386      -287.1178
   6   2.0000     -10.488601      -285.4093
   7   2.0000     -10.486161      -285.3429
   8   2.0000     -10.484709      -285.3034
   9   2.0000     -10.477755      -285.1142
  10   2.0000     -10.473494      -284.9983
  11   2.0000     -10.472230      -284.9639
  12   2.0000      -3.688969      -100.3820
  13   2.0000      -2.344135       -63.7872
  14   2.0000      -2.325478       -63.2795
  15   2.0000      -2.300957       -62.6122
  16   2.0000      -1.231210       -33.5029
  17   2.0000      -1.184939       -32.2438
  18   2.0000      -1.114851       -30.3366
  19   2.0000      -1.089109       -29.6362
  20   2.0000      -0.986182       -26.8354
  21   2.0000      -0.871281       -23.7088
  22   2.0000      -0.867313       -23.6008
  23   2.0000      -0.715043       -19.4573
  24   2.0000      -0.710153       -19.3242
  25   2.0000      -0.697230       -18.9726
  26   2.0000      -0.668510       -18.1911
  27   2.0000      -0.624509       -16.9938
  28   2.0000      -0.590240       -16.0612
  29   2.0000      -0.568572       -15.4716
  30   2.0000      -0.557075       -15.1588
  31   2.0000      -0.554304       -15.0834
  32   2.0000      -0.542734       -14.7685
  33   2.0000      -0.530480       -14.4351
  34   2.0000      -0.521127       -14.1806
  35   2.0000      -0.517901       -14.0928
  36   2.0000      -0.514814       -14.0088
  37   2.0000      -0.482723       -13.1355
  38   2.0000      -0.465202       -12.6588
  39   2.0000      -0.437110       -11.8944
  40   2.0000      -0.428557       -11.6616
  41   2.0000      -0.424093       -11.5402
  42   2.0000      -0.410288       -11.1645
  43   2.0000      -0.401917       -10.9367
  44   2.0000      -0.390884       -10.6365
  45   2.0000      -0.373163       -10.1543
  46   2.0000      -0.364516        -9.9190
  47   2.0000      -0.350447        -9.5362
  48   2.0000      -0.337078        -9.1723
  49   2.0000      -0.334139        -9.0924
  50   2.0000      -0.322747        -8.7824
  51   2.0000      -0.320684        -8.7263
  52   2.0000      -0.309010        -8.4086
  53   0.0000      -0.108916        -2.9637
  54   0.0000      -0.013509        -0.3676
  55   0.0000      -0.008746        -0.2380
  56   0.0000       0.024880         0.6770
  57   0.0000       0.057591         1.5671

MULLIKEN ATOMIC CHARGES
-----------------------
   0 C :   -0.165859
   1 C :   -0.212463
   2 C :   -0.206114
   3 C :   -0.210967
   4 C :   -0.515110
   5 C :   -0.152394
   6 H :    0.270601
   7 H :    0.241259
   8 H :    0.237483
   9 H :    0.266765
  10 H :    0.240860
  11 Pd:    0.584598
  12 O :   -0.436346
  13 O :   -0.484095
  14 O :   -0.518930
  15 C :    0.325609
  16 O :   -0.428470
  17 H :    0.379068
  18 C :    0.404763
  19 H :    0.205963
  20 H :    0.173779
Sum of atomic charges:    0.0000000

LOEWDIN ATOMIC CHARGES
----------------------
   0 C :   -0.059125
   1 C :   -0.135459
   2 C :   -0.081458
   3 C :   -0.131525
   4 C :   -0.145376
   5 C :   -0.054488
   6 H :    0.166059
   7 H :    0.146991
   8 H :    0.144681
   9 H :    0.164068
  10 H :    0.147258
  11 Pd:   -0.124093
  12 O :   -0.151481
  13 O :   -0.152720
  14 O :   -0.173461
  15 C :    0.093584
  16 O :   -0.246368
  17 H :    0.210751
  18 C :    0.159698
  19 H :    0.121922
  20 H :    0.100542

  Mayer bond orders larger than 0.100000
B(  0-C ,  1-C ) :   1.4420 B(  0-C ,  4-C ) :   1.2939 B(  0-C ,  6-H ) :   0.8941
B(  1-C ,  2-C ) :   1.4023 B(  1-C ,  7-H ) :   0.9137 B(  2-C ,  3-C ) :   1.4033
B(  2-C ,  8-H ) :   0.9161 B(  3-C ,  5-C ) :   1.4441 B(  3-C , 10-H ) :   0.9132
B(  4-C ,  5-C ) :   1.3178 B(  4-C , 11-Pd) :   0.2604 B(  4-C , 17-H ) :   0.7682
B(  5-C ,  9-H ) :   0.9004 B( 11-Pd, 12-O ) :   0.4834 B( 11-Pd, 13-O ) :   0.5774
B( 11-Pd, 14-O ) :   0.6461 B( 11-Pd, 16-O ) :   0.1031 B( 12-O , 13-O ) :   0.1137
B( 12-O , 18-C ) :   1.5602 B( 13-O , 18-C ) :   1.4073 B( 14-O , 15-C ) :   1.2810
B( 14-O , 16-O ) :   0.1064 B( 15-C , 16-O ) :   1.8554 B( 15-C , 20-H ) :   0.8779
B( 18-C , 19-H ) :   0.8837

Dispersion correction           -0.013284583
FINAL SINGLE POINT ENERGY      -737.126129211635
Dispersion correction            ... done

DIPOLE MOMENT
-------------
                                X             Y             Z
Electronic contribution:     49.05253      35.29977      -5.36782
Nuclear contribution   :    -49.79548     -36.83749       4.52335
                        -----------------------------------------
Total Dipole Moment    :     -0.74294      -1.53772      -0.84448
                        -----------------------------------------
Magnitude (a.u.)       :      1.90518
Magnitude (Debye)      :      4.84257

Rotational constants in cm-1:     0.028924     0.018069     0.013350
Rotational constants in MHz :   867.119136   541.701634   400.233262

                             ****ORCA TERMINATED NORMALLY****
TOTAL RUN TIME: 0 days 0 hours 3 minutes 58 seconds 487 msec
