                         Program Version 5.0.3 -  RELEASE  -
|  1> ! EnGrad PBEh-3c
|  2> %output
|  3> xyzfile=True
|  4> end
|  5> %scf
|  6> maxiter 250
|  7> end
|  8> %output
|  9> Print[P_Hirshfeld] = 1
| 10> end
| 11> % maxcore
| 12> 4000
| 13> *xyz 0 1
| 14> C   -1.66838765   0.19641867  -0.39897006
| 15> C   -1.90064362  -0.83149284  -1.31124284
| 16> C   -1.43739506  -2.10072222  -1.08691640
| 17> C   -0.63316933  -2.36809852   0.00505948
| 18> C   -0.96597674  -0.08490464   0.83012129
| 19> C   -0.36376935  -1.37721048   0.95482964
| 20> H   -2.09536859   1.15545115  -0.60865608
| 21> H   -2.53846665  -0.62119670  -2.16851660
| 22> H   -1.72424878  -2.89696676  -1.74350467
| 23> H    0.27047127  -1.62274942   1.79058512
| 24> H   -0.25755166  -3.36327967   0.17563758
| 25> Pd   1.39624899   1.14758783   0.02732653
| 26> O    2.97961403   1.11803012  -1.46620517
| 27> O    2.60190073  -0.49160468  -0.07441937
| 28> O    0.38456036   2.87063038  -0.05254627
| 29> C    0.10575647   2.89962025   1.42064792
| 30> O    0.49413603   2.23414975   2.04863498
| 31> H   -1.39491320   0.97991029   2.59702201
| 32> C    3.28781064  -0.01779527  -1.03345811
| 33> H    4.08959150  -0.61153248  -1.49449865
| 34> H   -0.62941912   3.78307935   1.58405351
| 35> *
| 36>
| 37>                          ****END OF INPUT****

CARTESIAN COORDINATES (ANGSTROEM)
---------------------------------
  C     -1.668388    0.196419   -0.398970
  C     -1.900644   -0.831493   -1.311243
  C     -1.437395   -2.100722   -1.086916
  C     -0.633169   -2.368099    0.005059
  C     -0.965977   -0.084905    0.830121
  C     -0.363769   -1.377210    0.954830
  H     -2.095369    1.155451   -0.608656
  H     -2.538467   -0.621197   -2.168517
  H     -1.724249   -2.896967   -1.743505
  H      0.270471   -1.622749    1.790585
  H     -0.257552   -3.363280    0.175638
  Pd     1.396249    1.147588    0.027327
  O      2.979614    1.118030   -1.466205
  O      2.601901   -0.491605   -0.074419
  O      0.384560    2.870630   -0.052546
  C      0.105756    2.899620    1.420648
  O      0.494136    2.234150    2.048635
  H     -1.394913    0.979910    2.597022
  C      3.287811   -0.017795   -1.033458
  H      4.089592   -0.611532   -1.494499
  H     -0.629419    3.783079    1.584054

 Total Charge           Charge          ....    0
 Multiplicity           Mult            ....    1
 Number of Electrons    NEL             ....  106
 Basis Dimension        Dim             ....  227

ORBITAL ENERGIES
----------------

  NO   OCC          E(Eh)            E(eV)
   0   2.0000     -19.538020      -531.6565
   1   2.0000     -19.516518      -531.0714
   2   2.0000     -19.512910      -530.9733
   3   2.0000     -19.477747      -530.0164
   4   2.0000     -10.579872      -287.8929
   5   2.0000     -10.568908      -287.5946
   6   2.0000     -10.532511      -286.6042
   7   2.0000     -10.483593      -285.2731
   8   2.0000     -10.483475      -285.2698
   9   2.0000     -10.470716      -284.9227
  10   2.0000     -10.470198      -284.9086
  11   2.0000     -10.468146      -284.8527
  12   2.0000      -3.675262      -100.0090
  13   2.0000      -2.330160       -63.4069
  14   2.0000      -2.309863       -62.8546
  15   2.0000      -2.290125       -62.3175
  16   2.0000      -1.343369       -36.5549
  17   2.0000      -1.214339       -33.0438
  18   2.0000      -1.098349       -29.8876
  19   2.0000      -1.028966       -27.9996
  20   2.0000      -0.974657       -26.5218
  21   2.0000      -0.859822       -23.3969
  22   2.0000      -0.850017       -23.1301
  23   2.0000      -0.699065       -19.0225
  24   2.0000      -0.689881       -18.7726
  25   2.0000      -0.686685       -18.6857
  26   2.0000      -0.665218       -18.1015
  27   2.0000      -0.607775       -16.5384
  28   2.0000      -0.602783       -16.4026
  29   2.0000      -0.585523       -15.9329
  30   2.0000      -0.575504       -15.6603
  31   2.0000      -0.566563       -15.4170
  32   2.0000      -0.544224       -14.8091
  33   2.0000      -0.532599       -14.4927
  34   2.0000      -0.530839       -14.4449
  35   2.0000      -0.515800       -14.0356
  36   2.0000      -0.502622       -13.6770
  37   2.0000      -0.463426       -12.6105
  38   2.0000      -0.446837       -12.1591
  39   2.0000      -0.430816       -11.7231
  40   2.0000      -0.421214       -11.4618
  41   2.0000      -0.402358       -10.9487
  42   2.0000      -0.394675       -10.7397
  43   2.0000      -0.382517       -10.4088
  44   2.0000      -0.360475        -9.8090
  45   2.0000      -0.351134        -9.5548
  46   2.0000      -0.349912        -9.5216
  47   2.0000      -0.338339        -9.2067
  48   2.0000      -0.331276        -9.0145
  49   2.0000      -0.318673        -8.6715
  50   2.0000      -0.311934        -8.4882
  51   2.0000      -0.306665        -8.3448
  52   2.0000      -0.299655        -8.1540
  53   0.0000      -0.107841        -2.9345
  54   0.0000      -0.083385        -2.2690
  55   0.0000      -0.005368        -0.1461
  56   0.0000      -0.001219        -0.0332
  57   0.0000       0.031575         0.8592

MULLIKEN ATOMIC CHARGES
-----------------------
   0 C :   -0.221766
   1 C :   -0.211361
   2 C :   -0.207659
   3 C :   -0.207253
   4 C :   -0.172837
   5 C :   -0.230125
   6 H :    0.269627
   7 H :    0.239918
   8 H :    0.237519
   9 H :    0.264915
  10 H :    0.239158
  11 Pd:    0.516386
  12 O :   -0.445280
  13 O :   -0.490392
  14 O :   -0.578698
  15 C :    0.266011
  16 O :   -0.132553
  17 H :    0.098941
  18 C :    0.401154
  19 H :    0.204101
  20 H :    0.160193
Sum of atomic charges:    0.0000000

LOEWDIN ATOMIC CHARGES
----------------------
   0 C :   -0.097938
   1 C :   -0.127703
   2 C :   -0.114884
   3 C :   -0.123187
   4 C :   -0.046630
   5 C :   -0.102365
   6 H :    0.163294
   7 H :    0.147594
   8 H :    0.143907
   9 H :    0.161137
  10 H :    0.147124
  11 Pd:   -0.159494
  12 O :   -0.159277
  13 O :   -0.171396
  14 O :   -0.301272
  15 C :    0.057925
  16 O :    0.090672
  17 H :    0.115611
  18 C :    0.160839
  19 H :    0.121000
  20 H :    0.095044

  Mayer bond orders larger than 0.100000
B(  0-C ,  1-C ) :   1.4219 B(  0-C ,  4-C ) :   1.3580 B(  0-C ,  6-H ) :   0.8987
B(  1-C ,  2-C ) :   1.4189 B(  1-C ,  7-H ) :   0.9096 B(  2-C ,  3-C ) :   1.4206
B(  2-C ,  8-H ) :   0.9132 B(  3-C ,  5-C ) :   1.4233 B(  3-C , 10-H ) :   0.9101
B(  4-C ,  5-C ) :   1.3815 B(  4-C , 11-Pd) :   0.1458 B(  4-C , 17-H ) :   0.8307
B(  5-C ,  9-H ) :   0.8999 B( 11-Pd, 12-O ) :   0.4913 B( 11-Pd, 13-O ) :   0.5407
B( 11-Pd, 14-O ) :   0.8355 B( 11-Pd, 16-O ) :   0.1518 B( 12-O , 13-O ) :   0.1129
B( 12-O , 18-C ) :   1.5504 B( 13-O , 18-C ) :   1.4226 B( 14-O , 15-C ) :   1.0029
B( 15-C , 16-O ) :   2.1635 B( 15-C , 20-H ) :   0.8573 B( 18-C , 19-H ) :   0.8829

Dispersion correction           -0.013704703
FINAL SINGLE POINT ENERGY      -736.807484402992
Dispersion correction            ... done

DIPOLE MOMENT
-------------
                                X             Y             Z
Electronic contribution:     52.07544      42.25365       1.39977
Nuclear contribution   :    -52.79038     -43.48597      -1.06668
                        -----------------------------------------
Total Dipole Moment    :     -0.71495      -1.23232       0.33308
                        -----------------------------------------
Magnitude (a.u.)       :      1.46312
Magnitude (Debye)      :      3.71895

Rotational constants in cm-1:     0.028054     0.018280     0.013635
Rotational constants in MHz :   841.047332   548.021250   408.763164

                             ****ORCA TERMINATED NORMALLY****
TOTAL RUN TIME: 0 days 0 hours 4 minutes 2 seconds 145 msec
