                         Program Version 5.0.3 -  RELEASE  -
|  1> ! EnGrad PBEh-3c
|  2> %output
|  3> xyzfile=True
|  4> end
|  5> %scf
|  6> maxiter 250
|  7> end
|  8> %output
|  9> Print[P_Hirshfeld] = 1
| 10> end
| 11> % maxcore
| 12> 4000
| 13> *xyz 0 1
| 14> C   -1.66208713   0.19603482  -0.39094849
| 15> C   -1.89330477  -0.81831506  -1.31447801
| 16> C   -1.42663067  -2.09409448  -1.08612105
| 17> C   -0.62199326  -2.35887354   0.00789220
| 18> C   -0.97136830  -0.11771855   0.79832183
| 19> C   -0.36657175  -1.37417999   0.95871705
| 20> H   -2.10977222   1.15004540  -0.61097772
| 21> H   -2.52980918  -0.62170155  -2.17032529
| 22> H   -1.70737282  -2.89214022  -1.75325975
| 23> H    0.26732217  -1.62922194   1.79470356
| 24> H   -0.25121572  -3.35896073   0.17252155
| 25> Pd   1.40637618   1.14555779  -0.00891469
| 26> O    2.97322558   1.11155729  -1.45929122
| 27> O    2.62321538  -0.49680981  -0.06192829
| 28> O    0.37117767   2.87534199   0.00756760
| 29> C    0.08854254   2.95340731   1.33415005
| 30> O    0.51584314   2.20070175   2.08139098
| 31> H   -1.42016519   1.00122284   2.64721759
| 32> C    3.26212350  -0.03610059  -1.05011377
| 33> H    4.08028794  -0.61598874  -1.49022511
| 34> H   -0.62745284   3.77896941   1.59174140
| 35> *
| 36>
| 37>                          ****END OF INPUT****

CARTESIAN COORDINATES (ANGSTROEM)
---------------------------------
  C     -1.662087    0.196035   -0.390948
  C     -1.893305   -0.818315   -1.314478
  C     -1.426631   -2.094094   -1.086121
  C     -0.621993   -2.358874    0.007892
  C     -0.971368   -0.117719    0.798322
  C     -0.366572   -1.374180    0.958717
  H     -2.109772    1.150045   -0.610978
  H     -2.529809   -0.621702   -2.170325
  H     -1.707373   -2.892140   -1.753260
  H      0.267322   -1.629222    1.794704
  H     -0.251216   -3.358961    0.172522
  Pd     1.406376    1.145558   -0.008915
  O      2.973226    1.111557   -1.459291
  O      2.623215   -0.496810   -0.061928
  O      0.371178    2.875342    0.007568
  C      0.088543    2.953407    1.334150
  O      0.515843    2.200702    2.081391
  H     -1.420165    1.001223    2.647218
  C      3.262123   -0.036101   -1.050114
  H      4.080288   -0.615989   -1.490225
  H     -0.627453    3.778969    1.591741

 Total Charge           Charge          ....    0
 Multiplicity           Mult            ....    1
 Number of Electrons    NEL             ....  106
 Basis Dimension        Dim             ....  227

ORBITAL ENERGIES
----------------

  NO   OCC          E(Eh)            E(eV)
   0   2.0000     -19.531235      -531.4719
   1   2.0000     -19.526499      -531.3431
   2   2.0000     -19.502592      -530.6925
   3   2.0000     -19.502484      -530.6896
   4   2.0000     -10.590113      -288.1716
   5   2.0000     -10.563996      -287.4609
   6   2.0000     -10.523182      -286.3503
   7   2.0000     -10.479189      -285.1532
   8   2.0000     -10.477950      -285.1195
   9   2.0000     -10.469221      -284.8820
  10   2.0000     -10.468939      -284.8743
  11   2.0000     -10.466560      -284.8096
  12   2.0000      -3.688412      -100.3668
  13   2.0000      -2.343694       -63.7751
  14   2.0000      -2.323614       -63.2288
  15   2.0000      -2.300573       -62.6018
  16   2.0000      -1.231289       -33.5051
  17   2.0000      -1.227294       -33.3964
  18   2.0000      -1.114198       -30.3189
  19   2.0000      -1.080408       -29.3994
  20   2.0000      -0.977823       -26.6079
  21   2.0000      -0.861483       -23.4421
  22   2.0000      -0.850123       -23.1330
  23   2.0000      -0.699558       -19.0360
  24   2.0000      -0.697497       -18.9799
  25   2.0000      -0.689106       -18.7515
  26   2.0000      -0.664328       -18.0773
  27   2.0000      -0.600565       -16.3422
  28   2.0000      -0.589063       -16.0292
  29   2.0000      -0.566158       -15.4059
  30   2.0000      -0.561003       -15.2657
  31   2.0000      -0.536136       -14.5890
  32   2.0000      -0.534018       -14.5314
  33   2.0000      -0.531213       -14.4550
  34   2.0000      -0.529661       -14.4128
  35   2.0000      -0.516367       -14.0511
  36   2.0000      -0.502911       -13.6849
  37   2.0000      -0.459699       -12.5090
  38   2.0000      -0.448921       -12.2158
  39   2.0000      -0.439652       -11.9635
  40   2.0000      -0.423539       -11.5251
  41   2.0000      -0.412009       -11.2113
  42   2.0000      -0.405871       -11.0443
  43   2.0000      -0.390777       -10.6336
  44   2.0000      -0.378058       -10.2875
  45   2.0000      -0.363284        -9.8855
  46   2.0000      -0.361352        -9.8329
  47   2.0000      -0.344287        -9.3685
  48   2.0000      -0.334025        -9.0893
  49   2.0000      -0.326751        -8.8914
  50   2.0000      -0.314481        -8.5575
  51   2.0000      -0.311298        -8.4709
  52   2.0000      -0.295385        -8.0378
  53   0.0000      -0.112045        -3.0489
  54   0.0000      -0.087503        -2.3811
  55   0.0000      -0.003176        -0.0864
  56   0.0000       0.001631         0.0444
  57   0.0000       0.023271         0.6332

MULLIKEN ATOMIC CHARGES
-----------------------
   0 C :   -0.230315
   1 C :   -0.216245
   2 C :   -0.213168
   3 C :   -0.212880
   4 C :   -0.134051
   5 C :   -0.235969
   6 H :    0.264773
   7 H :    0.239239
   8 H :    0.235271
   9 H :    0.267391
  10 H :    0.237647
  11 Pd:    0.544309
  12 O :   -0.446090
  13 O :   -0.471801
  14 O :   -0.531581
  15 C :    0.348645
  16 O :   -0.334620
  17 H :    0.091425
  18 C :    0.411912
  19 H :    0.208839
  20 H :    0.177270
Sum of atomic charges:    0.0000000

LOEWDIN ATOMIC CHARGES
----------------------
   0 C :   -0.110348
   1 C :   -0.125674
   2 C :   -0.121032
   3 C :   -0.121643
   4 C :   -0.030804
   5 C :   -0.109780
   6 H :    0.162776
   7 H :    0.145939
   8 H :    0.142822
   9 H :    0.163587
  10 H :    0.145753
  11 Pd:   -0.117236
  12 O :   -0.147816
  13 O :   -0.152131
  14 O :   -0.222638
  15 C :    0.106706
  16 O :   -0.107486
  17 H :    0.107530
  18 C :    0.164471
  19 H :    0.123414
  20 H :    0.103591

  Mayer bond orders larger than 0.100000
B(  0-C ,  1-C ) :   1.4134 B(  0-C ,  4-C ) :   1.3744 B(  0-C ,  6-H ) :   0.8999
B(  1-C ,  2-C ) :   1.4237 B(  1-C ,  7-H ) :   0.9096 B(  2-C ,  3-C ) :   1.4229
B(  2-C ,  8-H ) :   0.9144 B(  3-C ,  5-C ) :   1.4150 B(  3-C , 10-H ) :   0.9105
B(  4-C ,  5-C ) :   1.3994 B(  4-C , 11-Pd) :   0.1425 B(  4-C , 17-H ) :   0.8049
B(  5-C ,  9-H ) :   0.8981 B( 11-Pd, 12-O ) :   0.5186 B( 11-Pd, 13-O ) :   0.5685
B( 11-Pd, 14-O ) :   0.7194 B( 11-Pd, 16-O ) :   0.2130 B( 12-O , 13-O ) :   0.1129
B( 12-O , 18-C ) :   1.5292 B( 13-O , 18-C ) :   1.4263 B( 14-O , 15-C ) :   1.2003
B( 15-C , 16-O ) :   1.8780 B( 15-C , 20-H ) :   0.8761 B( 18-C , 19-H ) :   0.8843

Dispersion correction           -0.013652081
FINAL SINGLE POINT ENERGY      -736.928051968936
Dispersion correction            ... done

DIPOLE MOMENT
-------------
                                X             Y             Z
Electronic contribution:     52.64398      42.26824      -0.91300
Nuclear contribution   :    -53.21303     -43.43724       0.64178
                        -----------------------------------------
Total Dipole Moment    :     -0.56905      -1.16900      -0.27122
                        -----------------------------------------
Magnitude (a.u.)       :      1.32813
Magnitude (Debye)      :      3.37585

Rotational constants in cm-1:     0.027961     0.018330     0.013649
Rotational constants in MHz :   838.258562   549.532306   409.186216

                             ****ORCA TERMINATED NORMALLY****
TOTAL RUN TIME: 0 days 0 hours 4 minutes 43 seconds 341 msec
