                         Program Version 5.0.3 -  RELEASE  -
|  1> ! EnGrad PBEh-3c
|  2> %output
|  3> xyzfile=True
|  4> end
|  5> %scf
|  6> maxiter 250
|  7> end
|  8> %output
|  9> Print[P_Hirshfeld] = 1
| 10> end
| 11> % maxcore
| 12> 4000
| 13> *xyz 0 1
| 14> C   -1.66413115   0.19423186  -0.39049339
| 15> C   -1.90313484  -0.82743940  -1.31115438
| 16> C   -1.43822262  -2.10303105  -1.08456775
| 17> C   -0.63353631  -2.36561124   0.00716165
| 18> C   -0.96665992  -0.08810964   0.82531793
| 19> C   -0.36728222  -1.37112288   0.95429393
| 20> H   -2.09443951   1.15735766  -0.60999397
| 21> H   -2.53900377  -0.62190775  -2.16727183
| 22> H   -1.72749572  -2.89919404  -1.74339139
| 23> H    0.27152477  -1.62304072   1.79013407
| 24> H   -0.25853547  -3.36447826   0.17600346
| 25> Pd   1.39427654   1.14905237   0.02157628
| 26> O    2.98280503   1.11858401  -1.46363416
| 27> O    2.60428549  -0.49244948  -0.07554715
| 28> O    0.38077609   2.86555664  -0.01351055
| 29> C    0.07580426   2.96169455   1.32655174
| 30> O    0.52531474   2.17969658   2.10904853
| 31> H   -1.39097275   0.97459549   2.58694990
| 32> C    3.28397505  -0.01542662  -1.03360097
| 33> H    4.09142691  -0.60978191  -1.49289402
| 34> H   -0.62592802   3.77806818   1.58414153
| 35> *
| 36>
| 37>                          ****END OF INPUT****

CARTESIAN COORDINATES (ANGSTROEM)
---------------------------------
  C     -1.664131    0.194232   -0.390493
  C     -1.903135   -0.827439   -1.311154
  C     -1.438223   -2.103031   -1.084568
  C     -0.633536   -2.365611    0.007162
  C     -0.966660   -0.088110    0.825318
  C     -0.367282   -1.371123    0.954294
  H     -2.094440    1.157358   -0.609994
  H     -2.539004   -0.621908   -2.167272
  H     -1.727496   -2.899194   -1.743391
  H      0.271525   -1.623041    1.790134
  H     -0.258535   -3.364478    0.176003
  Pd     1.394277    1.149052    0.021576
  O      2.982805    1.118584   -1.463634
  O      2.604285   -0.492449   -0.075547
  O      0.380776    2.865557   -0.013511
  C      0.075804    2.961695    1.326552
  O      0.525315    2.179697    2.109049
  H     -1.390973    0.974595    2.586950
  C      3.283975   -0.015427   -1.033601
  H      4.091427   -0.609782   -1.492894
  H     -0.625928    3.778068    1.584142

 Total Charge           Charge          ....    0
 Multiplicity           Mult            ....    1
 Number of Electrons    NEL             ....  106
 Basis Dimension        Dim             ....  227

ORBITAL ENERGIES
----------------

  NO   OCC          E(Eh)            E(eV)
   0   2.0000     -19.526581      -531.3453
   1   2.0000     -19.521029      -531.1942
   2   2.0000     -19.512507      -530.9623
   3   2.0000     -19.508741      -530.8598
   4   2.0000     -10.586583      -288.0756
   5   2.0000     -10.576343      -287.7969
   6   2.0000     -10.523355      -286.3550
   7   2.0000     -10.479280      -285.1557
   8   2.0000     -10.477856      -285.1170
   9   2.0000     -10.467878      -284.8454
  10   2.0000     -10.467452      -284.8339
  11   2.0000     -10.465163      -284.7716
  12   2.0000      -3.687107      -100.3313
  13   2.0000      -2.343132       -63.7599
  14   2.0000      -2.321070       -63.1595
  15   2.0000      -2.299841       -62.5819
  16   2.0000      -1.224656       -33.3246
  17   2.0000      -1.204366       -32.7725
  18   2.0000      -1.108545       -30.1650
  19   2.0000      -1.079075       -29.3631
  20   2.0000      -0.971808       -26.4442
  21   2.0000      -0.855968       -23.2921
  22   2.0000      -0.847399       -23.0589
  23   2.0000      -0.695772       -18.9329
  24   2.0000      -0.692496       -18.8438
  25   2.0000      -0.686454       -18.6794
  26   2.0000      -0.675716       -18.3872
  27   2.0000      -0.598457       -16.2848
  28   2.0000      -0.584061       -15.8931
  29   2.0000      -0.563610       -15.3366
  30   2.0000      -0.556228       -15.1357
  31   2.0000      -0.532913       -14.5013
  32   2.0000      -0.529799       -14.4166
  33   2.0000      -0.527744       -14.3606
  34   2.0000      -0.524425       -14.2703
  35   2.0000      -0.507527       -13.8105
  36   2.0000      -0.498195       -13.5566
  37   2.0000      -0.458259       -12.4699
  38   2.0000      -0.444711       -12.1012
  39   2.0000      -0.439777       -11.9669
  40   2.0000      -0.418338       -11.3836
  41   2.0000      -0.408939       -11.1278
  42   2.0000      -0.403616       -10.9829
  43   2.0000      -0.389578       -10.6010
  44   2.0000      -0.375728       -10.2241
  45   2.0000      -0.366775        -9.9804
  46   2.0000      -0.361888        -9.8475
  47   2.0000      -0.345165        -9.3924
  48   2.0000      -0.336650        -9.1607
  49   2.0000      -0.327797        -8.9198
  50   2.0000      -0.316107        -8.6017
  51   2.0000      -0.309700        -8.4274
  52   2.0000      -0.296691        -8.0734
  53   0.0000      -0.109465        -2.9787
  54   0.0000      -0.080642        -2.1944
  55   0.0000      -0.001761        -0.0479
  56   0.0000       0.002189         0.0596
  57   0.0000       0.025968         0.7066

MULLIKEN ATOMIC CHARGES
-----------------------
   0 C :   -0.232769
   1 C :   -0.212177
   2 C :   -0.212355
   3 C :   -0.208016
   4 C :   -0.158929
   5 C :   -0.237656
   6 H :    0.260346
   7 H :    0.237735
   8 H :    0.235158
   9 H :    0.264308
  10 H :    0.236780
  11 Pd:    0.560918
  12 O :   -0.443042
  13 O :   -0.477367
  14 O :   -0.531722
  15 C :    0.368069
  16 O :   -0.375307
  17 H :    0.117935
  18 C :    0.405727
  19 H :    0.206526
  20 H :    0.195836
Sum of atomic charges:    0.0000000

LOEWDIN ATOMIC CHARGES
----------------------
   0 C :   -0.108544
   1 C :   -0.128868
   2 C :   -0.119215
   3 C :   -0.124378
   4 C :   -0.048961
   5 C :   -0.106030
   6 H :    0.159178
   7 H :    0.145771
   8 H :    0.142533
   9 H :    0.161130
  10 H :    0.145815
  11 Pd:   -0.119183
  12 O :   -0.154351
  13 O :   -0.158029
  14 O :   -0.219149
  15 C :    0.149929
  16 O :   -0.149169
  17 H :    0.133270
  18 C :    0.161256
  19 H :    0.122281
  20 H :    0.114715

  Mayer bond orders larger than 0.100000
B(  0-C ,  1-C ) :   1.4206 B(  0-C ,  4-C ) :   1.3593 B(  0-C ,  6-H ) :   0.9018
B(  1-C ,  2-C ) :   1.4203 B(  1-C ,  7-H ) :   0.9106 B(  2-C ,  3-C ) :   1.4224
B(  2-C ,  8-H ) :   0.9140 B(  3-C ,  5-C ) :   1.4187 B(  3-C , 10-H ) :   0.9112
B(  4-C ,  5-C ) :   1.3892 B(  4-C , 11-Pd) :   0.1467 B(  4-C , 17-H ) :   0.8166
B(  5-C ,  9-H ) :   0.8998 B( 11-Pd, 12-O ) :   0.4962 B( 11-Pd, 13-O ) :   0.5724
B( 11-Pd, 14-O ) :   0.7104 B( 11-Pd, 16-O ) :   0.2252 B( 12-O , 13-O ) :   0.1125
B( 12-O , 18-C ) :   1.5505 B( 13-O , 18-C ) :   1.4155 B( 14-O , 15-C ) :   1.2082
B( 14-O , 16-O ) :   0.1038 B( 15-C , 16-O ) :   1.8180 B( 15-C , 20-H ) :   0.8763
B( 18-C , 19-H ) :   0.8828

Dispersion correction           -0.013701433
FINAL SINGLE POINT ENERGY      -736.946113226920
Dispersion correction            ... done

DIPOLE MOMENT
-------------
                                X             Y             Z
Electronic contribution:     52.00575      42.60244       0.53517
Nuclear contribution   :    -52.67964     -43.59009      -0.70098
                        -----------------------------------------
Total Dipole Moment    :     -0.67389      -0.98764      -0.16581
                        -----------------------------------------
Magnitude (a.u.)       :      1.20709
Magnitude (Debye)      :      3.06817

Rotational constants in cm-1:     0.028013     0.018260     0.013640
Rotational constants in MHz :   839.809274   547.420717   408.902454

                             ****ORCA TERMINATED NORMALLY****
TOTAL RUN TIME: 0 days 0 hours 4 minutes 26 seconds 622 msec
