                         Program Version 5.0.3 -  RELEASE  -
|  1> ! EnGrad PBEh-3c
|  2> %output
|  3> xyzfile=True
|  4> end
|  5> %scf
|  6> maxiter 250
|  7> end
|  8> %output
|  9> Print[P_Hirshfeld] = 1
| 10> end
| 11> % maxcore
| 12> 4000
| 13> *xyz 0 1
| 14> C   -1.66124147   0.19101411  -0.38015373
| 15> C   -1.91715872  -0.83188448  -1.30465720
| 16> C   -1.45546206  -2.11464676  -1.07919229
| 17> C   -0.64677711  -2.36907394   0.01151668
| 18> C   -0.96129800  -0.06161864   0.84777662
| 19> C   -0.37197253  -1.35981418   0.94926646
| 20> H   -2.07413333   1.16680465  -0.61168839
| 21> H   -2.55169071  -0.62350745  -2.16170013
| 22> H   -1.75743320  -2.91176985  -1.73131637
| 23> H    0.27787728  -1.61611527   1.78211005
| 24> H   -0.26978363  -3.37210095   0.18092229
| 25> Pd   1.38182264   1.15099062   0.04874048
| 26> O    2.99893463   1.13078165  -1.46253083
| 27> O    2.58672434  -0.48702666  -0.09175686
| 28> O    0.38484637   2.85244444   0.00042268
| 29> C    0.07979711   2.95158589   1.30320069
| 30> O    0.52282917   2.17576559   2.12461190
| 31> H   -1.34865785   0.93685970   2.50049162
| 32> C    3.30288233   0.00756427  -1.01798565
| 33> H    4.10684686  -0.59766130  -1.49080065
| 34> H   -0.62569817   3.77698048   1.57534400
| 35> *
| 36>
| 37>                          ****END OF INPUT****

CARTESIAN COORDINATES (ANGSTROEM)
---------------------------------
  C     -1.661241    0.191014   -0.380154
  C     -1.917159   -0.831884   -1.304657
  C     -1.455462   -2.114647   -1.079192
  C     -0.646777   -2.369074    0.011517
  C     -0.961298   -0.061619    0.847777
  C     -0.371973   -1.359814    0.949266
  H     -2.074133    1.166805   -0.611688
  H     -2.551691   -0.623507   -2.161700
  H     -1.757433   -2.911770   -1.731316
  H      0.277877   -1.616115    1.782110
  H     -0.269784   -3.372101    0.180922
  Pd     1.381823    1.150991    0.048740
  O      2.998935    1.130782   -1.462531
  O      2.586724   -0.487027   -0.091757
  O      0.384846    2.852444    0.000423
  C      0.079797    2.951586    1.303201
  O      0.522829    2.175766    2.124612
  H     -1.348658    0.936860    2.500492
  C      3.302882    0.007564   -1.017986
  H      4.106847   -0.597661   -1.490801
  H     -0.625698    3.776980    1.575344

 Total Charge           Charge          ....    0
 Multiplicity           Mult            ....    1
 Number of Electrons    NEL             ....  106
 Basis Dimension        Dim             ....  227

ORBITAL ENERGIES
----------------

  NO   OCC          E(Eh)            E(eV)
   0   2.0000     -19.524527      -531.2894
   1   2.0000     -19.521330      -531.2024
   2   2.0000     -19.518162      -531.1162
   3   2.0000     -19.505991      -530.7850
   4   2.0000     -10.585099      -288.0352
   5   2.0000     -10.578819      -287.8643
   6   2.0000     -10.521862      -286.3144
   7   2.0000     -10.479861      -285.1715
   8   2.0000     -10.478101      -285.1236
   9   2.0000     -10.468020      -284.8493
  10   2.0000     -10.467272      -284.8290
  11   2.0000     -10.465761      -284.7878
  12   2.0000      -3.688861      -100.3790
  13   2.0000      -2.345769       -63.8316
  14   2.0000      -2.321708       -63.1769
  15   2.0000      -2.302037       -62.6416
  16   2.0000      -1.221903       -33.2497
  17   2.0000      -1.201301       -32.6891
  18   2.0000      -1.106293       -30.1038
  19   2.0000      -1.093772       -29.7631
  20   2.0000      -0.968092       -26.3431
  21   2.0000      -0.851355       -23.1666
  22   2.0000      -0.846943       -23.0465
  23   2.0000      -0.693108       -18.8604
  24   2.0000      -0.689137       -18.7524
  25   2.0000      -0.685152       -18.6439
  26   2.0000      -0.675011       -18.3680
  27   2.0000      -0.596572       -16.2336
  28   2.0000      -0.582403       -15.8480
  29   2.0000      -0.567472       -15.4417
  30   2.0000      -0.554585       -15.0910
  31   2.0000      -0.534515       -14.5449
  32   2.0000      -0.528314       -14.3761
  33   2.0000      -0.525361       -14.2958
  34   2.0000      -0.522347       -14.2138
  35   2.0000      -0.510893       -13.9021
  36   2.0000      -0.493494       -13.4287
  37   2.0000      -0.458920       -12.4879
  38   2.0000      -0.443038       -12.0557
  39   2.0000      -0.439638       -11.9632
  40   2.0000      -0.413724       -11.2580
  41   2.0000      -0.410722       -11.1763
  42   2.0000      -0.402189       -10.9441
  43   2.0000      -0.389725       -10.6049
  44   2.0000      -0.377042       -10.2598
  45   2.0000      -0.370698       -10.0872
  46   2.0000      -0.363041        -9.8788
  47   2.0000      -0.346709        -9.4344
  48   2.0000      -0.342739        -9.3264
  49   2.0000      -0.330509        -8.9936
  50   2.0000      -0.323189        -8.7944
  51   2.0000      -0.306958        -8.3527
  52   2.0000      -0.296876        -8.0784
  53   0.0000      -0.110065        -2.9950
  54   0.0000      -0.068901        -1.8749
  55   0.0000      -0.000993        -0.0270
  56   0.0000       0.003495         0.0951
  57   0.0000       0.026618         0.7243

MULLIKEN ATOMIC CHARGES
-----------------------
   0 C :   -0.231562
   1 C :   -0.211066
   2 C :   -0.212484
   3 C :   -0.205841
   4 C :   -0.191094
   5 C :   -0.234395
   6 H :    0.256188
   7 H :    0.237264
   8 H :    0.235516
   9 H :    0.261033
  10 H :    0.236066
  11 Pd:    0.572593
  12 O :   -0.438157
  13 O :   -0.480116
  14 O :   -0.515040
  15 C :    0.374885
  16 O :   -0.400247
  17 H :    0.150591
  18 C :    0.399433
  19 H :    0.204671
  20 H :    0.191761
Sum of atomic charges:   -0.0000000

LOEWDIN ATOMIC CHARGES
----------------------
   0 C :   -0.107011
   1 C :   -0.131907
   2 C :   -0.116832
   3 C :   -0.127235
   4 C :   -0.070107
   5 C :   -0.102010
   6 H :    0.156561
   7 H :    0.145679
   8 H :    0.142324
   9 H :    0.159225
  10 H :    0.145921
  11 Pd:   -0.113343
  12 O :   -0.158261
  13 O :   -0.161344
  14 O :   -0.189206
  15 C :    0.148072
  16 O :   -0.174034
  17 H :    0.161699
  18 C :    0.157112
  19 H :    0.121534
  20 H :    0.113163

  Mayer bond orders larger than 0.100000
B(  0-C ,  1-C ) :   1.4265 B(  0-C ,  4-C ) :   1.3458 B(  0-C ,  6-H ) :   0.9030
B(  1-C ,  2-C ) :   1.4163 B(  1-C ,  7-H ) :   0.9113 B(  2-C ,  3-C ) :   1.4223
B(  2-C ,  8-H ) :   0.9134 B(  3-C ,  5-C ) :   1.4210 B(  3-C , 10-H ) :   0.9120
B(  4-C ,  5-C ) :   1.3791 B(  4-C , 11-Pd) :   0.1508 B(  4-C , 17-H ) :   0.8280
B(  5-C ,  9-H ) :   0.9012 B( 11-Pd, 12-O ) :   0.4767 B( 11-Pd, 13-O ) :   0.5798
B( 11-Pd, 14-O ) :   0.6904 B( 11-Pd, 16-O ) :   0.2390 B( 12-O , 13-O ) :   0.1120
B( 12-O , 18-C ) :   1.5714 B( 13-O , 18-C ) :   1.4038 B( 14-O , 15-C ) :   1.2481
B( 14-O , 16-O ) :   0.1050 B( 15-C , 16-O ) :   1.7749 B( 15-C , 20-H ) :   0.8782
B( 18-C , 19-H ) :   0.8815

Dispersion correction           -0.013766582
FINAL SINGLE POINT ENERGY      -736.965923873329
Dispersion correction            ... done

DIPOLE MOMENT
-------------
                                X             Y             Z
Electronic contribution:     51.43601      42.72200       1.67393
Nuclear contribution   :    -52.14691     -43.63777      -1.83549
                        -----------------------------------------
Total Dipole Moment    :     -0.71089      -0.91577      -0.16156
                        -----------------------------------------
Magnitude (a.u.)       :      1.17051
Magnitude (Debye)      :      2.97521

Rotational constants in cm-1:     0.028193     0.018227     0.013631
Rotational constants in MHz :   845.193002   546.430996   408.635142

                             ****ORCA TERMINATED NORMALLY****
TOTAL RUN TIME: 0 days 0 hours 4 minutes 16 seconds 238 msec
