                         Program Version 5.0.3 -  RELEASE  -
|  1> ! EnGrad PBEh-3c
|  2> %output
|  3> xyzfile=True
|  4> end
|  5> %scf
|  6> maxiter 250
|  7> end
|  8> %output
|  9> Print[P_Hirshfeld] = 1
| 10> end
| 11> % maxcore
| 12> 4000
| 13> *xyz 0 1
| 14> C   -1.65547432   0.19036188  -0.36545734
| 15> C   -1.92921322  -0.83009446  -1.29498400
| 16> C   -1.47420736  -2.12278358  -1.07067828
| 17> C   -0.65692424  -2.36712887   0.02021554
| 18> C   -0.95660381  -0.05044049   0.85522749
| 19> C   -0.37732540  -1.34580403   0.94734656
| 20> H   -2.05492779   1.17304900  -0.61587863
| 21> H   -2.56399870  -0.62596616  -2.15478958
| 22> H   -1.78789828  -2.92579399  -1.72046852
| 23> H    0.28375480  -1.61069720   1.77166051
| 24> H   -0.28210972  -3.37786395   0.18603421
| 25> Pd   1.37539691   1.14706974   0.05643707
| 26> O    3.01724636   1.14658536  -1.45327543
| 27> O    2.57938064  -0.48297226  -0.10383434
| 28> O    0.38220035   2.83881711   0.04695764
| 29> C    0.07766562   2.96085011   1.25319387
| 30> O    0.52235904   2.16635122   2.14634155
| 31> H   -1.30592557   0.90031687   2.41470670
| 32> C    3.30942491   0.02165097  -1.01206249
| 33> H    4.12105201  -0.58183726  -1.48186004
| 34> H   -0.62265827   3.77064387   1.56628112
| 35> *
| 36>
| 37>                          ****END OF INPUT****

CARTESIAN COORDINATES (ANGSTROEM)
---------------------------------
  C     -1.655474    0.190362   -0.365457
  C     -1.929213   -0.830094   -1.294984
  C     -1.474207   -2.122784   -1.070678
  C     -0.656924   -2.367129    0.020216
  C     -0.956604   -0.050440    0.855227
  C     -0.377325   -1.345804    0.947347
  H     -2.054928    1.173049   -0.615879
  H     -2.563999   -0.625966   -2.154790
  H     -1.787898   -2.925794   -1.720469
  H      0.283755   -1.610697    1.771661
  H     -0.282110   -3.377864    0.186034
  Pd     1.375397    1.147070    0.056437
  O      3.017246    1.146585   -1.453275
  O      2.579381   -0.482972   -0.103834
  O      0.382200    2.838817    0.046958
  C      0.077666    2.960850    1.253194
  O      0.522359    2.166351    2.146342
  H     -1.305926    0.900317    2.414707
  C      3.309425    0.021651   -1.012062
  H      4.121052   -0.581837   -1.481860
  H     -0.622658    3.770644    1.566281

 Total Charge           Charge          ....    0
 Multiplicity           Mult            ....    1
 Number of Electrons    NEL             ....  106
 Basis Dimension        Dim             ....  227

ORBITAL ENERGIES
----------------

  NO   OCC          E(Eh)            E(eV)
   0   2.0000     -19.535497      -531.5879
   1   2.0000     -19.528512      -531.3978
   2   2.0000     -19.520140      -531.1700
   3   2.0000     -19.489611      -530.3393
   4   2.0000     -10.587314      -288.0955
   5   2.0000     -10.576230      -287.7939
   6   2.0000     -10.516065      -286.1567
   7   2.0000     -10.478563      -285.1362
   8   2.0000     -10.475751      -285.0597
   9   2.0000     -10.467992      -284.8486
  10   2.0000     -10.466904      -284.8189
  11   2.0000     -10.466243      -284.8010
  12   2.0000      -3.693968      -100.5180
  13   2.0000      -2.351788       -63.9954
  14   2.0000      -2.326118       -63.2969
  15   2.0000      -2.306747       -62.7698
  16   2.0000      -1.225656       -33.3518
  17   2.0000      -1.212313       -32.9887
  18   2.0000      -1.109899       -30.2019
  19   2.0000      -1.091896       -29.7120
  20   2.0000      -0.966328       -26.2951
  21   2.0000      -0.848071       -23.0772
  22   2.0000      -0.847205       -23.0536
  23   2.0000      -0.692948       -18.8561
  24   2.0000      -0.690701       -18.7949
  25   2.0000      -0.683818       -18.6076
  26   2.0000      -0.679134       -18.4802
  27   2.0000      -0.594525       -16.1779
  28   2.0000      -0.586911       -15.9707
  29   2.0000      -0.575830       -15.6691
  30   2.0000      -0.557775       -15.1778
  31   2.0000      -0.534024       -14.5315
  32   2.0000      -0.528636       -14.3849
  33   2.0000      -0.526329       -14.3221
  34   2.0000      -0.523495       -14.2450
  35   2.0000      -0.517569       -14.0838
  36   2.0000      -0.489610       -13.3230
  37   2.0000      -0.460397       -12.5280
  38   2.0000      -0.443249       -12.0614
  39   2.0000      -0.437143       -11.8953
  40   2.0000      -0.410763       -11.1774
  41   2.0000      -0.408461       -11.1148
  42   2.0000      -0.404167       -10.9979
  43   2.0000      -0.391612       -10.6563
  44   2.0000      -0.382144       -10.3987
  45   2.0000      -0.373050       -10.1512
  46   2.0000      -0.369220       -10.0470
  47   2.0000      -0.350322        -9.5327
  48   2.0000      -0.341874        -9.3029
  49   2.0000      -0.333800        -9.0831
  50   2.0000      -0.324600        -8.8328
  51   2.0000      -0.304806        -8.2942
  52   2.0000      -0.294317        -8.0088
  53   0.0000      -0.114052        -3.1035
  54   0.0000      -0.052974        -1.4415
  55   0.0000      -0.000265        -0.0072
  56   0.0000       0.008445         0.2298
  57   0.0000       0.025677         0.6987

MULLIKEN ATOMIC CHARGES
-----------------------
   0 C :   -0.229397
   1 C :   -0.212967
   2 C :   -0.214225
   3 C :   -0.207567
   4 C :   -0.215952
   5 C :   -0.229522
   6 H :    0.250670
   7 H :    0.236066
   8 H :    0.235137
   9 H :    0.259372
  10 H :    0.234655
  11 Pd:    0.584967
  12 O :   -0.436028
  13 O :   -0.475714
  14 O :   -0.460687
  15 C :    0.372142
  16 O :   -0.465614
  17 H :    0.179061
  18 C :    0.399077
  19 H :    0.204953
  20 H :    0.191572
Sum of atomic charges:   -0.0000000

LOEWDIN ATOMIC CHARGES
----------------------
   0 C :   -0.109583
   1 C :   -0.133720
   2 C :   -0.117067
   3 C :   -0.128792
   4 C :   -0.085309
   5 C :   -0.101468
   6 H :    0.153832
   7 H :    0.144877
   8 H :    0.141969
   9 H :    0.158390
  10 H :    0.145349
  11 Pd:   -0.097749
  12 O :   -0.159064
  13 O :   -0.155343
  14 O :   -0.117594
  15 C :    0.135508
  16 O :   -0.248209
  17 H :    0.183590
  18 C :    0.155633
  19 H :    0.121670
  20 H :    0.113080

  Mayer bond orders larger than 0.100000
B(  0-C ,  1-C ) :   1.4285 B(  0-C ,  4-C ) :   1.3378 B(  0-C ,  6-H ) :   0.9045
B(  1-C ,  2-C ) :   1.4151 B(  1-C ,  7-H ) :   0.9122 B(  2-C ,  3-C ) :   1.4213
B(  2-C ,  8-H ) :   0.9133 B(  3-C ,  5-C ) :   1.4222 B(  3-C , 10-H ) :   0.9129
B(  4-C ,  5-C ) :   1.3739 B(  4-C , 11-Pd) :   0.1524 B(  4-C , 17-H ) :   0.8297
B(  5-C ,  9-H ) :   0.9016 B( 11-Pd, 12-O ) :   0.4686 B( 11-Pd, 13-O ) :   0.5957
B( 11-Pd, 14-O ) :   0.6305 B( 11-Pd, 16-O ) :   0.2793 B( 12-O , 13-O ) :   0.1117
B( 12-O , 18-C ) :   1.5805 B( 13-O , 18-C ) :   1.3958 B( 14-O , 15-C ) :   1.3744
B( 14-O , 16-O ) :   0.1058 B( 15-C , 16-O ) :   1.6582 B( 15-C , 20-H ) :   0.8821
B( 18-C , 19-H ) :   0.8812

Dispersion correction           -0.013824952
FINAL SINGLE POINT ENERGY      -736.982504083467
Dispersion correction            ... done

DIPOLE MOMENT
-------------
                                X             Y             Z
Electronic contribution:     51.20175      42.56897       1.64958
Nuclear contribution   :    -51.88594     -43.40920      -2.02759
                        -----------------------------------------
Total Dipole Moment    :     -0.68419      -0.84023      -0.37800
                        -----------------------------------------
Magnitude (a.u.)       :      1.14760
Magnitude (Debye)      :      2.91698

Rotational constants in cm-1:     0.028353     0.018226     0.013623
Rotational constants in MHz :   850.000339   546.409889   408.408625

                             ****ORCA TERMINATED NORMALLY****
TOTAL RUN TIME: 0 days 0 hours 4 minutes 29 seconds 927 msec
