                         Program Version 5.0.3 -  RELEASE  -
|  1> ! EnGrad PBEh-3c
|  2> %output
|  3> xyzfile=True
|  4> end
|  5> %scf
|  6> maxiter 250
|  7> end
|  8> %output
|  9> Print[P_Hirshfeld] = 1
| 10> end
| 11> % maxcore
| 12> 4000
| 13> *xyz 0 1
| 14> C   -1.65175993   0.19235316  -0.35757595
| 15> C   -1.94118746  -0.83066046  -1.28277152
| 16> C   -1.49695052  -2.12958545  -1.06056484
| 17> C   -0.66907277  -2.36618443   0.02866485
| 18> C   -0.94943949  -0.03695572   0.86437347
| 19> C   -0.37908097  -1.33680268   0.94558246
| 20> H   -2.03259184   1.17773212  -0.62066744
| 21> H   -2.57840896  -0.62850236  -2.14614697
| 22> H   -1.82223628  -2.93975751  -1.70608115
| 23> H    0.29025064  -1.60419163   1.75861813
| 24> H   -0.29716951  -3.38225190   0.19236612
| 25> Pd   1.37072570   1.13808419   0.06347309
| 26> O    3.03746788   1.16645947  -1.44040835
| 27> O    2.57120980  -0.47894280  -0.11614933
| 28> O    0.38484957   2.82452909   0.06137063
| 29> C    0.07580553   2.95612539   1.25994168
| 30> O    0.51061882   2.17245880   2.14904830
| 31> H   -1.25666673   0.86272430   2.32091966
| 32> C    3.31792993   0.03498532  -1.00851347
| 33> H    4.13654551  -0.56309761  -1.47010817
| 34> H   -0.61986157   3.76436501   1.55410846
| 35> *
| 36>
| 37>                          ****END OF INPUT****

CARTESIAN COORDINATES (ANGSTROEM)
---------------------------------
  C     -1.651760    0.192353   -0.357576
  C     -1.941187   -0.830660   -1.282772
  C     -1.496951   -2.129585   -1.060565
  C     -0.669073   -2.366184    0.028665
  C     -0.949439   -0.036956    0.864373
  C     -0.379081   -1.336803    0.945582
  H     -2.032592    1.177732   -0.620667
  H     -2.578409   -0.628502   -2.146147
  H     -1.822236   -2.939758   -1.706081
  H      0.290251   -1.604192    1.758618
  H     -0.297170   -3.382252    0.192366
  Pd     1.370726    1.138084    0.063473
  O      3.037468    1.166459   -1.440408
  O      2.571210   -0.478943   -0.116149
  O      0.384850    2.824529    0.061371
  C      0.075806    2.956125    1.259942
  O      0.510619    2.172459    2.149048
  H     -1.256667    0.862724    2.320920
  C      3.317930    0.034985   -1.008513
  H      4.136546   -0.563098   -1.470108
  H     -0.619862    3.764365    1.554108

 Total Charge           Charge          ....    0
 Multiplicity           Mult            ....    1
 Number of Electrons    NEL             ....  106
 Basis Dimension        Dim             ....  227

ORBITAL ENERGIES
----------------

  NO   OCC          E(Eh)            E(eV)
   0   2.0000     -19.533199      -531.5254
   1   2.0000     -19.527782      -531.3780
   2   2.0000     -19.518861      -531.1352
   3   2.0000     -19.487238      -530.2747
   4   2.0000     -10.586655      -288.0775
   5   2.0000     -10.572512      -287.6927
   6   2.0000     -10.513959      -286.0994
   7   2.0000     -10.478908      -285.1456
   8   2.0000     -10.475781      -285.0605
   9   2.0000     -10.468838      -284.8716
  10   2.0000     -10.468262      -284.8559
  11   2.0000     -10.467317      -284.8302
  12   2.0000      -3.693440      -100.5036
  13   2.0000      -2.351549       -63.9889
  14   2.0000      -2.325205       -63.2720
  15   2.0000      -2.306633       -62.7667
  16   2.0000      -1.224423       -33.3182
  17   2.0000      -1.215697       -33.0808
  18   2.0000      -1.108842       -30.1731
  19   2.0000      -1.095385       -29.8069
  20   2.0000      -0.965815       -26.2812
  21   2.0000      -0.848238       -23.0817
  22   2.0000      -0.846907       -23.0455
  23   2.0000      -0.693315       -18.8661
  24   2.0000      -0.690558       -18.7910
  25   2.0000      -0.684346       -18.6220
  26   2.0000      -0.679745       -18.4968
  27   2.0000      -0.594660       -16.1815
  28   2.0000      -0.587340       -15.9823
  29   2.0000      -0.576673       -15.6921
  30   2.0000      -0.557193       -15.1620
  31   2.0000      -0.534308       -14.5393
  32   2.0000      -0.529775       -14.4159
  33   2.0000      -0.526389       -14.3238
  34   2.0000      -0.523067       -14.2334
  35   2.0000      -0.518603       -14.1119
  36   2.0000      -0.487910       -13.2767
  37   2.0000      -0.463236       -12.6053
  38   2.0000      -0.444623       -12.0988
  39   2.0000      -0.437822       -11.9138
  40   2.0000      -0.410322       -11.1654
  41   2.0000      -0.409014       -11.1298
  42   2.0000      -0.402755       -10.9595
  43   2.0000      -0.391523       -10.6539
  44   2.0000      -0.381462       -10.3801
  45   2.0000      -0.375134       -10.2079
  46   2.0000      -0.370584       -10.0841
  47   2.0000      -0.351987        -9.5781
  48   2.0000      -0.342117        -9.3095
  49   2.0000      -0.333917        -9.0864
  50   2.0000      -0.328619        -8.9422
  51   2.0000      -0.304062        -8.2739
  52   2.0000      -0.295363        -8.0372
  53   0.0000      -0.113425        -3.0865
  54   0.0000      -0.038788        -1.0555
  55   0.0000      -0.000299        -0.0081
  56   0.0000       0.014805         0.4029
  57   0.0000       0.026526         0.7218

MULLIKEN ATOMIC CHARGES
-----------------------
   0 C :   -0.220155
   1 C :   -0.214489
   2 C :   -0.213197
   3 C :   -0.209278
   4 C :   -0.255251
   5 C :   -0.219503
   6 H :    0.250615
   7 H :    0.235352
   8 H :    0.235806
   9 H :    0.258845
  10 H :    0.234160
  11 Pd:    0.594605
  12 O :   -0.435073
  13 O :   -0.479814
  14 O :   -0.461346
  15 C :    0.367218
  16 O :   -0.464154
  17 H :    0.203978
  18 C :    0.397857
  19 H :    0.204826
  20 H :    0.188998
Sum of atomic charges:    0.0000000

LOEWDIN ATOMIC CHARGES
----------------------
   0 C :   -0.106656
   1 C :   -0.134919
   2 C :   -0.115175
   3 C :   -0.129800
   4 C :   -0.099510
   5 C :   -0.098924
   6 H :    0.153396
   7 H :    0.144739
   8 H :    0.142391
   9 H :    0.157625
  10 H :    0.145248
  11 Pd:   -0.092732
  12 O :   -0.161367
  13 O :   -0.156671
  14 O :   -0.114871
  15 C :    0.124722
  16 O :   -0.244264
  17 H :    0.198195
  18 C :    0.155941
  19 H :    0.121521
  20 H :    0.111110

  Mayer bond orders larger than 0.100000
B(  0-C ,  1-C ) :   1.4321 B(  0-C ,  4-C ) :   1.3270 B(  0-C ,  6-H ) :   0.9046
B(  1-C ,  2-C ) :   1.4131 B(  1-C ,  7-H ) :   0.9128 B(  2-C ,  3-C ) :   1.4190
B(  2-C ,  8-H ) :   0.9129 B(  3-C ,  5-C ) :   1.4266 B(  3-C , 10-H ) :   0.9134
B(  4-C ,  5-C ) :   1.3630 B(  4-C , 11-Pd) :   0.1530 B(  4-C , 17-H ) :   0.8405
B(  5-C ,  9-H ) :   0.9018 B( 11-Pd, 12-O ) :   0.4599 B( 11-Pd, 13-O ) :   0.5980
B( 11-Pd, 14-O ) :   0.6328 B( 11-Pd, 16-O ) :   0.2679 B( 12-O , 13-O ) :   0.1118
B( 12-O , 18-C ) :   1.5895 B( 13-O , 18-C ) :   1.3887 B( 14-O , 15-C ) :   1.3728
B( 14-O , 16-O ) :   0.1045 B( 15-C , 16-O ) :   1.6744 B( 15-C , 20-H ) :   0.8835
B( 18-C , 19-H ) :   0.8812

Dispersion correction           -0.013886987
FINAL SINGLE POINT ENERGY      -737.002939952002
Dispersion correction            ... done

DIPOLE MOMENT
-------------
                                X             Y             Z
Electronic contribution:     51.01297      42.07190       1.85613
Nuclear contribution   :    -51.71450     -42.93467      -2.22395
                        -----------------------------------------
Total Dipole Moment    :     -0.70153      -0.86278      -0.36782
                        -----------------------------------------
Magnitude (a.u.)       :      1.17125
Magnitude (Debye)      :      2.97707

Rotational constants in cm-1:     0.028495     0.018222     0.013608
Rotational constants in MHz :   854.270004   546.289501   407.943881

                             ****ORCA TERMINATED NORMALLY****
TOTAL RUN TIME: 0 days 0 hours 4 minutes 19 seconds 303 msec
