                         Program Version 5.0.3 -  RELEASE  -
|  1> ! EnGrad PBEh-3c
|  2> %output
|  3> xyzfile=True
|  4> end
|  5> %scf
|  6> maxiter 250
|  7> end
|  8> %output
|  9> Print[P_Hirshfeld] = 1
| 10> end
| 11> % maxcore
| 12> 4000
| 13> *xyz 0 1
| 14> C   -1.64091841   0.20088011  -0.34983667
| 15> C   -1.96796664  -0.82870349  -1.25308043
| 16> C   -1.55339306  -2.14048386  -1.03023819
| 17> C   -0.69734341  -2.36237427   0.04838423
| 18> C   -0.92650286  -0.01826158   0.86810569
| 19> C   -0.37681395  -1.32520753   0.94125328
| 20> H   -1.98101753   1.18406843  -0.63622528
| 21> H   -2.61215233  -0.63541239  -2.12080288
| 22> H   -1.90327935  -2.96798148  -1.66728700
| 23> H    0.30770130  -1.59082357   1.72544806
| 24> H   -0.33641386  -3.38665587   0.20882418
| 25> Pd   1.36573096   1.10399702   0.05285464
| 26> O    3.08772479   1.21760036  -1.39466068
| 27> O    2.56559489  -0.47517508  -0.14214618
| 28> O    0.38973752   2.79225704   0.07960365
| 29> C    0.06436070   2.94938611   1.31288000
| 30> O    0.47188954   2.19253617   2.15332767
| 31> H   -1.13722007   0.78602154   2.10990406
| 32> C    3.32466799   0.05704979  -1.01244982
| 33> H    4.17186357  -0.51509037  -1.43357976
| 34> H   -0.61719516   3.75212434   1.52659423
| 35> *
| 36>
| 37>                          ****END OF INPUT****

CARTESIAN COORDINATES (ANGSTROEM)
---------------------------------
  C     -1.640918    0.200880   -0.349837
  C     -1.967967   -0.828703   -1.253080
  C     -1.553393   -2.140484   -1.030238
  C     -0.697343   -2.362374    0.048384
  C     -0.926503   -0.018262    0.868106
  C     -0.376814   -1.325208    0.941253
  H     -1.981018    1.184068   -0.636225
  H     -2.612152   -0.635412   -2.120803
  H     -1.903279   -2.967981   -1.667287
  H      0.307701   -1.590824    1.725448
  H     -0.336414   -3.386656    0.208824
  Pd     1.365731    1.103997    0.052855
  O      3.087725    1.217600   -1.394661
  O      2.565595   -0.475175   -0.142146
  O      0.389738    2.792257    0.079604
  C      0.064361    2.949386    1.312880
  O      0.471890    2.192536    2.153328
  H     -1.137220    0.786022    2.109904
  C      3.324668    0.057050   -1.012450
  H      4.171864   -0.515090   -1.433580
  H     -0.617195    3.752124    1.526594

 Total Charge           Charge          ....    0
 Multiplicity           Mult            ....    1
 Number of Electrons    NEL             ....  106
 Basis Dimension        Dim             ....  227

ORBITAL ENERGIES
----------------

  NO   OCC          E(Eh)            E(eV)
   0   2.0000     -19.526803      -531.3513
   1   2.0000     -19.516834      -531.0801
   2   2.0000     -19.516413      -531.0686
   3   2.0000     -19.487223      -530.2743
   4   2.0000     -10.584895      -288.0296
   5   2.0000     -10.562445      -287.4187
   6   2.0000     -10.507628      -285.9271
   7   2.0000     -10.479611      -285.1647
   8   2.0000     -10.476409      -285.0776
   9   2.0000     -10.473725      -285.0046
  10   2.0000     -10.470170      -284.9078
  11   2.0000     -10.469024      -284.8766
  12   2.0000      -3.689505      -100.3965
  13   2.0000      -2.347384       -63.8756
  14   2.0000      -2.321447       -63.1698
  15   2.0000      -2.303483       -62.6810
  16   2.0000      -1.222836       -33.2751
  17   2.0000      -1.211087       -32.9554
  18   2.0000      -1.109083       -30.1797
  19   2.0000      -1.100260       -29.9396
  20   2.0000      -0.967756       -26.3340
  21   2.0000      -0.851870       -23.1806
  22   2.0000      -0.848277       -23.0828
  23   2.0000      -0.694347       -18.8941
  24   2.0000      -0.692082       -18.8325
  25   2.0000      -0.688485       -18.7346
  26   2.0000      -0.680483       -18.5169
  27   2.0000      -0.597958       -16.2713
  28   2.0000      -0.586313       -15.9544
  29   2.0000      -0.572550       -15.5799
  30   2.0000      -0.555777       -15.1235
  31   2.0000      -0.534990       -14.5578
  32   2.0000      -0.531039       -14.4503
  33   2.0000      -0.527035       -14.3414
  34   2.0000      -0.523807       -14.2535
  35   2.0000      -0.517637       -14.0856
  36   2.0000      -0.488182       -13.2841
  37   2.0000      -0.471487       -12.8298
  38   2.0000      -0.450240       -12.2517
  39   2.0000      -0.440884       -11.9971
  40   2.0000      -0.415630       -11.3099
  41   2.0000      -0.408171       -11.1069
  42   2.0000      -0.400478       -10.8976
  43   2.0000      -0.391591       -10.6557
  44   2.0000      -0.383033       -10.4229
  45   2.0000      -0.376850       -10.2546
  46   2.0000      -0.369587       -10.0570
  47   2.0000      -0.354928        -9.6581
  48   2.0000      -0.343994        -9.3606
  49   2.0000      -0.332311        -9.0426
  50   2.0000      -0.328571        -8.9409
  51   2.0000      -0.304987        -8.2991
  52   2.0000      -0.299925        -8.1614
  53   0.0000      -0.109823        -2.9884
  54   0.0000      -0.021666        -0.5896
  55   0.0000      -0.000774        -0.0211
  56   0.0000       0.028898         0.7864
  57   0.0000       0.043354         1.1797

MULLIKEN ATOMIC CHARGES
-----------------------
   0 C :   -0.195034
   1 C :   -0.218679
   2 C :   -0.210652
   3 C :   -0.213915
   4 C :   -0.347269
   5 C :   -0.194300
   6 H :    0.256141
   7 H :    0.234406
   8 H :    0.237604
   9 H :    0.260586
  10 H :    0.233556
  11 Pd:    0.609495
  12 O :   -0.435213
  13 O :   -0.488172
  14 O :   -0.501435
  15 C :    0.354799
  16 O :   -0.423179
  17 H :    0.253579
  18 C :    0.398551
  19 H :    0.203589
  20 H :    0.185542
Sum of atomic charges:   -0.0000000

LOEWDIN ATOMIC CHARGES
----------------------
   0 C :   -0.097778
   1 C :   -0.135856
   2 C :   -0.110013
   3 C :   -0.130924
   4 C :   -0.121487
   5 C :   -0.093161
   6 H :    0.155250
   7 H :    0.144565
   8 H :    0.143897
   9 H :    0.157126
  10 H :    0.144975
  11 Pd:   -0.087270
  12 O :   -0.163510
  13 O :   -0.155782
  14 O :   -0.156755
  15 C :    0.106940
  16 O :   -0.199039
  17 H :    0.214070
  18 C :    0.156954
  19 H :    0.120393
  20 H :    0.107406

  Mayer bond orders larger than 0.100000
B(  0-C ,  1-C ) :   1.4408 B(  0-C ,  4-C ) :   1.3053 B(  0-C ,  6-H ) :   0.9026
B(  1-C ,  2-C ) :   1.4076 B(  1-C ,  7-H ) :   0.9140 B(  2-C ,  3-C ) :   1.4147
B(  2-C ,  8-H ) :   0.9121 B(  3-C ,  5-C ) :   1.4365 B(  3-C , 10-H ) :   0.9141
B(  4-C ,  5-C ) :   1.3399 B(  4-C , 11-Pd) :   0.1575 B(  4-C , 17-H ) :   0.8570
B(  5-C ,  9-H ) :   0.9013 B( 11-Pd, 12-O ) :   0.4526 B( 11-Pd, 13-O ) :   0.5944
B( 11-Pd, 14-O ) :   0.6678 B( 11-Pd, 16-O ) :   0.2078 B( 12-O , 13-O ) :   0.1126
B( 12-O , 18-C ) :   1.5973 B( 13-O , 18-C ) :   1.3830 B( 14-O , 15-C ) :   1.2967
B( 14-O , 16-O ) :   0.1010 B( 15-C , 16-O ) :   1.7847 B( 15-C , 20-H ) :   0.8846
B( 18-C , 19-H ) :   0.8827

Dispersion correction           -0.013851471
FINAL SINGLE POINT ENERGY      -737.051022224215
Dispersion correction            ... done

DIPOLE MOMENT
-------------
                                X             Y             Z
Electronic contribution:     50.82835      40.23779       1.17246
Nuclear contribution   :    -51.58225     -41.24477      -1.46171
                        -----------------------------------------
Total Dipole Moment    :     -0.75390      -1.00698      -0.28925
                        -----------------------------------------
Magnitude (a.u.)       :      1.29075
Magnitude (Debye)      :      3.28083

Rotational constants in cm-1:     0.028729     0.018232     0.013567
Rotational constants in MHz :   861.283532   546.575345   406.716672

                             ****ORCA TERMINATED NORMALLY****
TOTAL RUN TIME: 0 days 0 hours 4 minutes 27 seconds 733 msec
