                         Program Version 5.0.3 -  RELEASE  -
|  1> ! EnGrad PBEh-3c
|  2> %output
|  3> xyzfile=True
|  4> end
|  5> %scf
|  6> maxiter 250
|  7> end
|  8> %output
|  9> Print[P_Hirshfeld] = 1
| 10> end
| 11> % maxcore
| 12> 4000
| 13> *xyz 0 1
| 14> C   -1.63361172   0.20337900  -0.35633000
| 15> C   -1.98361144  -0.83133197  -1.24165194
| 16> C   -1.58217667  -2.14520878  -1.01244961
| 17> C   -0.71473211  -2.36579709   0.05389815
| 18> C   -0.90593657  -0.00447245   0.86674357
| 19> C   -0.37169791  -1.32654247   0.93377712
| 20> H   -1.95515444   1.18923827  -0.64532275
| 21> H   -2.62907557  -0.63840273  -2.10516982
| 22> H   -1.94278237  -2.97566564  -1.64202076
| 23> H    0.32057468  -1.58485274   1.71134714
| 24> H   -0.35783636  -3.38625204   0.21839566
| 25> Pd   1.35638335   1.08474961   0.04373294
| 26> O    3.11185372   1.24198220  -1.36596953
| 27> O    2.56294772  -0.48017659  -0.15937016
| 28> O    0.38792941   2.77821055   0.08583270
| 29> C    0.06071825   2.94216263   1.32280210
| 30> O    0.44864144   2.19222392   2.18092390
| 31> H   -1.07093436   0.75622946   2.00757963
| 32> C    3.33166069   0.07213656  -1.01195765
| 33> H    4.18920432  -0.49222220  -1.41582908
| 34> H   -0.62496950   3.75820922   1.51666953
| 35> *
| 36>
| 37>                          ****END OF INPUT****

CARTESIAN COORDINATES (ANGSTROEM)
---------------------------------
  C     -1.633612    0.203379   -0.356330
  C     -1.983611   -0.831332   -1.241652
  C     -1.582177   -2.145209   -1.012450
  C     -0.714732   -2.365797    0.053898
  C     -0.905937   -0.004472    0.866744
  C     -0.371698   -1.326542    0.933777
  H     -1.955154    1.189238   -0.645323
  H     -2.629076   -0.638403   -2.105170
  H     -1.942782   -2.975666   -1.642021
  H      0.320575   -1.584853    1.711347
  H     -0.357836   -3.386252    0.218396
  Pd     1.356383    1.084750    0.043733
  O      3.111854    1.241982   -1.365970
  O      2.562948   -0.480177   -0.159370
  O      0.387929    2.778211    0.085833
  C      0.060718    2.942163    1.322802
  O      0.448641    2.192224    2.180924
  H     -1.070934    0.756229    2.007580
  C      3.331661    0.072137   -1.011958
  H      4.189204   -0.492222   -1.415829
  H     -0.624969    3.758209    1.516670

 Total Charge           Charge          ....    0
 Multiplicity           Mult            ....    1
 Number of Electrons    NEL             ....  106
 Basis Dimension        Dim             ....  227

ORBITAL ENERGIES
----------------

  NO   OCC          E(Eh)            E(eV)
   0   2.0000     -19.526839      -531.3523
   1   2.0000     -19.517490      -531.0979
   2   2.0000     -19.515531      -531.0446
   3   2.0000     -19.485023      -530.2144
   4   2.0000     -10.584853      -288.0285
   5   2.0000     -10.562278      -287.4142
   6   2.0000     -10.504035      -285.8293
   7   2.0000     -10.481590      -285.2186
   8   2.0000     -10.478562      -285.1362
   9   2.0000     -10.476050      -285.0678
  10   2.0000     -10.470920      -284.9282
  11   2.0000     -10.469526      -284.8903
  12   2.0000      -3.689480      -100.3959
  13   2.0000      -2.347199       -63.8705
  14   2.0000      -2.321650       -63.1753
  15   2.0000      -2.303500       -62.6814
  16   2.0000      -1.223000       -33.2795
  17   2.0000      -1.206296       -32.8250
  18   2.0000      -1.110209       -30.2103
  19   2.0000      -1.098658       -29.8960
  20   2.0000      -0.968963       -26.3668
  21   2.0000      -0.853864       -23.2348
  22   2.0000      -0.849903       -23.1270
  23   2.0000      -0.694996       -18.9118
  24   2.0000      -0.692651       -18.8480
  25   2.0000      -0.691915       -18.8280
  26   2.0000      -0.677723       -18.4418
  27   2.0000      -0.601094       -16.3566
  28   2.0000      -0.586433       -15.9576
  29   2.0000      -0.570302       -15.5187
  30   2.0000      -0.555838       -15.1251
  31   2.0000      -0.537954       -14.6385
  32   2.0000      -0.531079       -14.4514
  33   2.0000      -0.527670       -14.3586
  34   2.0000      -0.524373       -14.2689
  35   2.0000      -0.517097       -14.0709
  36   2.0000      -0.489425       -13.3179
  37   2.0000      -0.476912       -12.9774
  38   2.0000      -0.453154       -12.3310
  39   2.0000      -0.440207       -11.9786
  40   2.0000      -0.418315       -11.3829
  41   2.0000      -0.408227       -11.1084
  42   2.0000      -0.401899       -10.9362
  43   2.0000      -0.394863       -10.7448
  44   2.0000      -0.385911       -10.5012
  45   2.0000      -0.374940       -10.2026
  46   2.0000      -0.369465       -10.0537
  47   2.0000      -0.355261        -9.6672
  48   2.0000      -0.344264        -9.3679
  49   2.0000      -0.333347        -9.0708
  50   2.0000      -0.328243        -8.9319
  51   2.0000      -0.306306        -8.3350
  52   2.0000      -0.301224        -8.1967
  53   0.0000      -0.110505        -3.0070
  54   0.0000      -0.020530        -0.5587
  55   0.0000      -0.001612        -0.0439
  56   0.0000       0.029075         0.7912
  57   0.0000       0.048078         1.3083

MULLIKEN ATOMIC CHARGES
-----------------------
   0 C :   -0.186748
   1 C :   -0.218439
   2 C :   -0.208772
   3 C :   -0.213345
   4 C :   -0.391736
   5 C :   -0.185527
   6 H :    0.258349
   7 H :    0.235004
   8 H :    0.238592
   9 H :    0.261968
  10 H :    0.234411
  11 Pd:    0.611968
  12 O :   -0.432096
  13 O :   -0.491441
  14 O :   -0.504659
  15 C :    0.350976
  16 O :   -0.425591
  17 H :    0.282548
  18 C :    0.398485
  19 H :    0.202955
  20 H :    0.183100
Sum of atomic charges:    0.0000000

LOEWDIN ATOMIC CHARGES
----------------------
   0 C :   -0.091391
   1 C :   -0.137069
   2 C :   -0.105518
   3 C :   -0.132361
   4 C :   -0.130293
   5 C :   -0.086536
   6 H :    0.155695
   7 H :    0.144874
   8 H :    0.144547
   9 H :    0.157156
  10 H :    0.145278
  11 Pd:   -0.087218
  12 O :   -0.161151
  13 O :   -0.157311
  14 O :   -0.161632
  15 C :    0.107449
  16 O :   -0.207645
  17 H :    0.220373
  18 C :    0.156719
  19 H :    0.119805
  20 H :    0.106230

  Mayer bond orders larger than 0.100000
B(  0-C ,  1-C ) :   1.4474 B(  0-C ,  4-C ) :   1.2896 B(  0-C ,  6-H ) :   0.9016
B(  1-C ,  2-C ) :   1.4031 B(  1-C ,  7-H ) :   0.9141 B(  2-C ,  3-C ) :   1.4143
B(  2-C ,  8-H ) :   0.9118 B(  3-C ,  5-C ) :   1.4397 B(  3-C , 10-H ) :   0.9141
B(  4-C ,  5-C ) :   1.3276 B(  4-C , 11-Pd) :   0.1700 B(  4-C , 17-H ) :   0.8533
B(  5-C ,  9-H ) :   0.9008 B( 11-Pd, 12-O ) :   0.4467 B( 11-Pd, 13-O ) :   0.5973
B( 11-Pd, 14-O ) :   0.6656 B( 11-Pd, 16-O ) :   0.1864 B( 12-O , 13-O ) :   0.1129
B( 12-O , 18-C ) :   1.6054 B( 13-O , 18-C ) :   1.3769 B( 14-O , 15-C ) :   1.2918
B( 14-O , 16-O ) :   0.1018 B( 15-C , 16-O ) :   1.7957 B( 15-C , 20-H ) :   0.8828
B( 18-C , 19-H ) :   0.8831

Dispersion correction           -0.013622927
FINAL SINGLE POINT ENERGY      -737.072682181688
Dispersion correction            ... done

DIPOLE MOMENT
-------------
                                X             Y             Z
Electronic contribution:     50.43473      39.26777       0.55215
Nuclear contribution   :    -51.21007     -40.35696      -0.90867
                        -----------------------------------------
Total Dipole Moment    :     -0.77534      -1.08919      -0.35651
                        -----------------------------------------
Magnitude (a.u.)       :      1.38369
Magnitude (Debye)      :      3.51707

Rotational constants in cm-1:     0.028792     0.018231     0.013555
Rotational constants in MHz :   863.159052   546.540469   406.354206

                             ****ORCA TERMINATED NORMALLY****
TOTAL RUN TIME: 0 days 0 hours 4 minutes 29 seconds 41 msec
