                         Program Version 5.0.3 -  RELEASE  -
|  1> ! EnGrad PBEh-3c
|  2> %output
|  3> xyzfile=True
|  4> end
|  5> %scf
|  6> maxiter 250
|  7> end
|  8> %output
|  9> Print[P_Hirshfeld] = 1
| 10> end
| 11> % maxcore
| 12> 4000
| 13> *xyz 0 1
| 14> C   -1.62065501   0.20515469  -0.36871373
| 15> C   -2.00189137  -0.83439245  -1.23066663
| 16> C   -1.61477541  -2.14889798  -0.99050660
| 17> C   -0.73497142  -2.37129780   0.05900165
| 18> C   -0.87378801   0.00631351   0.85200316
| 19> C   -0.36301098  -1.33069404   0.92217061
| 20> H   -1.92762081   1.19649848  -0.65730245
| 21> H   -2.64768523  -0.64115912  -2.08561524
| 22> H   -1.98423781  -2.97799482  -1.60963301
| 23> H    0.33849134  -1.57979780   1.69787577
| 24> H   -0.38264928  -3.38407646   0.23029561
| 25> Pd   1.34060263   1.05872857   0.02454380
| 26> O    3.13618248   1.26999256  -1.32611265
| 27> O    2.56236506  -0.49261779  -0.18297030
| 28> O    0.38091396   2.76187991   0.09730976
| 29> C    0.05424641   2.93360606   1.32700978
| 30> O    0.41297883   2.18763570   2.22689179
| 31> H   -0.98795993   0.73338937   1.89603840
| 32> C    3.33923387   0.08721911  -1.00924902
| 33> H    4.20678263  -0.46726667  -1.39527476
| 34> H   -0.63747639   3.77232985   1.50752822
| 35> *
| 36>
| 37>                          ****END OF INPUT****

CARTESIAN COORDINATES (ANGSTROEM)
---------------------------------
  C     -1.620655    0.205155   -0.368714
  C     -2.001891   -0.834392   -1.230667
  C     -1.614775   -2.148898   -0.990507
  C     -0.734971   -2.371298    0.059002
  C     -0.873788    0.006314    0.852003
  C     -0.363011   -1.330694    0.922171
  H     -1.927621    1.196498   -0.657302
  H     -2.647685   -0.641159   -2.085615
  H     -1.984238   -2.977995   -1.609633
  H      0.338491   -1.579798    1.697876
  H     -0.382649   -3.384076    0.230296
  Pd     1.340603    1.058729    0.024544
  O      3.136182    1.269993   -1.326113
  O      2.562365   -0.492618   -0.182970
  O      0.380914    2.761880    0.097310
  C      0.054246    2.933606    1.327010
  O      0.412979    2.187636    2.226892
  H     -0.987960    0.733389    1.896038
  C      3.339234    0.087219   -1.009249
  H      4.206783   -0.467267   -1.395275
  H     -0.637476    3.772330    1.507528

 Total Charge           Charge          ....    0
 Multiplicity           Mult            ....    1
 Number of Electrons    NEL             ....  106
 Basis Dimension        Dim             ....  227

ORBITAL ENERGIES
----------------

  NO   OCC          E(Eh)            E(eV)
   0   2.0000     -19.528485      -531.3971
   1   2.0000     -19.519228      -531.1452
   2   2.0000     -19.518002      -531.1118
   3   2.0000     -19.479570      -530.0661
   4   2.0000     -10.585745      -288.0528
   5   2.0000     -10.563224      -287.4399
   6   2.0000     -10.499172      -285.6970
   7   2.0000     -10.484539      -285.2988
   8   2.0000     -10.481755      -285.2231
   9   2.0000     -10.478704      -285.1400
  10   2.0000     -10.472059      -284.9592
  11   2.0000     -10.470310      -284.9116
  12   2.0000      -3.690812      -100.4321
  13   2.0000      -2.348154       -63.8965
  14   2.0000      -2.323572       -63.2276
  15   2.0000      -2.304486       -62.7082
  16   2.0000      -1.224374       -33.3169
  17   2.0000      -1.197585       -32.5880
  18   2.0000      -1.112457       -30.2715
  19   2.0000      -1.095347       -29.8059
  20   2.0000      -0.972000       -26.4495
  21   2.0000      -0.857543       -23.3349
  22   2.0000      -0.852975       -23.2106
  23   2.0000      -0.698297       -19.0016
  24   2.0000      -0.696457       -18.9516
  25   2.0000      -0.693804       -18.8794
  26   2.0000      -0.673102       -18.3160
  27   2.0000      -0.605946       -16.4886
  28   2.0000      -0.587490       -15.9864
  29   2.0000      -0.567316       -15.4375
  30   2.0000      -0.556594       -15.1457
  31   2.0000      -0.543448       -14.7880
  32   2.0000      -0.531225       -14.4554
  33   2.0000      -0.527285       -14.3482
  34   2.0000      -0.525706       -14.3052
  35   2.0000      -0.516861       -14.0645
  36   2.0000      -0.492309       -13.3964
  37   2.0000      -0.482023       -13.1165
  38   2.0000      -0.456980       -12.4351
  39   2.0000      -0.438371       -11.9287
  40   2.0000      -0.421957       -11.4820
  41   2.0000      -0.409710       -11.1488
  42   2.0000      -0.405406       -11.0317
  43   2.0000      -0.397551       -10.8179
  44   2.0000      -0.387001       -10.5308
  45   2.0000      -0.373839       -10.1727
  46   2.0000      -0.369484       -10.0542
  47   2.0000      -0.355343        -9.6694
  48   2.0000      -0.343394        -9.3442
  49   2.0000      -0.335341        -9.1251
  50   2.0000      -0.328660        -8.9433
  51   2.0000      -0.308832        -8.4037
  52   2.0000      -0.302752        -8.2383
  53   0.0000      -0.112797        -3.0694
  54   0.0000      -0.020798        -0.5659
  55   0.0000      -0.003378        -0.0919
  56   0.0000       0.028233         0.7682
  57   0.0000       0.048328         1.3151

MULLIKEN ATOMIC CHARGES
-----------------------
   0 C :   -0.179149
   1 C :   -0.218129
   2 C :   -0.206348
   3 C :   -0.212486
   4 C :   -0.433037
   5 C :   -0.177796
   6 H :    0.260795
   7 H :    0.236482
   8 H :    0.240022
   9 H :    0.264236
  10 H :    0.235985
  11 Pd:    0.609665
  12 O :   -0.430463
  13 O :   -0.490976
  14 O :   -0.498069
  15 C :    0.348160
  16 O :   -0.443194
  17 H :    0.311963
  18 C :    0.399500
  19 H :    0.202815
  20 H :    0.180024
Sum of atomic charges:    0.0000000

LOEWDIN ATOMIC CHARGES
----------------------
   0 C :   -0.083174
   1 C :   -0.137997
   2 C :   -0.099555
   3 C :   -0.133677
   4 C :   -0.136174
   5 C :   -0.077506
   6 H :    0.156694
   7 H :    0.145373
   8 H :    0.145203
   9 H :    0.158077
  10 H :    0.145746
  11 Pd:   -0.089271
  12 O :   -0.159584
  13 O :   -0.156353
  14 O :   -0.157061
  15 C :    0.111364
  16 O :   -0.237178
  17 H :    0.223817
  18 C :    0.156845
  19 H :    0.119388
  20 H :    0.105024

  Mayer bond orders larger than 0.100000
B(  0-C ,  1-C ) :   1.4535 B(  0-C ,  4-C ) :   1.2733 B(  0-C ,  6-H ) :   0.9003
B(  1-C ,  2-C ) :   1.3988 B(  1-C ,  7-H ) :   0.9140 B(  2-C ,  3-C ) :   1.4141
B(  2-C ,  8-H ) :   0.9116 B(  3-C ,  5-C ) :   1.4423 B(  3-C , 10-H ) :   0.9138
B(  4-C ,  5-C ) :   1.3154 B(  4-C , 11-Pd) :   0.1927 B(  4-C , 17-H ) :   0.8400
B(  5-C ,  9-H ) :   0.8998 B( 11-Pd, 12-O ) :   0.4459 B( 11-Pd, 13-O ) :   0.5994
B( 11-Pd, 14-O ) :   0.6521 B( 11-Pd, 16-O ) :   0.1642 B( 12-O , 13-O ) :   0.1134
B( 12-O , 18-C ) :   1.6065 B( 13-O , 18-C ) :   1.3765 B( 14-O , 15-C ) :   1.3067
B( 14-O , 16-O ) :   0.1040 B( 15-C , 16-O ) :   1.7840 B( 15-C , 20-H ) :   0.8801
B( 18-C , 19-H ) :   0.8836

Dispersion correction           -0.013556501
FINAL SINGLE POINT ENERGY      -737.092746385414
Dispersion correction            ... done

DIPOLE MOMENT
-------------
                                X             Y             Z
Electronic contribution:     49.78004      37.99204      -0.64074
Nuclear contribution   :    -50.57268     -39.20398       0.12690
                        -----------------------------------------
Total Dipole Moment    :     -0.79264      -1.21194      -0.51384
                        -----------------------------------------
Magnitude (a.u.)       :      1.53659
Magnitude (Debye)      :      3.90570

Rotational constants in cm-1:     0.028812     0.018261     0.013554
Rotational constants in MHz :   863.757514   547.450170   406.345513

                             ****ORCA TERMINATED NORMALLY****
TOTAL RUN TIME: 0 days 0 hours 4 minutes 22 seconds 902 msec
