                         Program Version 5.0.3 -  RELEASE  -
|  1> ! EnGrad PBEh-3c
|  2> %output
|  3> xyzfile=True
|  4> end
|  5> %scf
|  6> maxiter 250
|  7> end
|  8> %output
|  9> Print[P_Hirshfeld] = 1
| 10> end
| 11> % maxcore
| 12> 4000
| 13> *xyz 0 1
| 14> C   -1.72256906   0.18813178  -0.30465183
| 15> C   -1.79997064  -0.75772663  -1.31841782
| 16> C   -1.25865739  -2.01678926  -1.12823999
| 17> C   -0.53000064  -2.29562557   0.01441366
| 18> C   -1.11217751  -0.17212408   0.88243506
| 19> C   -0.42745186  -1.36152358   1.03466619
| 20> H   -2.24041159   1.11897485  -0.49871981
| 21> H   -2.37848904  -0.56081839  -2.21013463
| 22> H   -1.41930040  -2.78750359  -1.87330827
| 23> H    0.15798466  -1.63097724   1.90405568
| 24> H   -0.10622250  -3.28260491   0.14206507
| 25> Pd   1.40541466   1.15868353  -0.01399947
| 26> O    2.79943419   0.99146632  -1.54534214
| 27> O    2.63668866  -0.48180736   0.02195919
| 28> O    0.34590337   2.89252345   0.02052228
| 29> C    0.10407365   3.00727182   1.23107940
| 30> O    0.60366596   2.16796834   2.04771208
| 31> H   -1.54081481   0.88147249   2.59637191
| 32> C    3.12757650  -0.12270144  -1.07880120
| 33> H    3.93032749  -0.71971975  -1.52910931
| 34> H   -0.57499978   3.78341921   1.60545175
| 35> *
| 36>
| 37>                          ****END OF INPUT****

CARTESIAN COORDINATES (ANGSTROEM)
---------------------------------
  C     -1.722569    0.188132   -0.304652
  C     -1.799971   -0.757727   -1.318418
  C     -1.258657   -2.016789   -1.128240
  C     -0.530001   -2.295626    0.014414
  C     -1.112178   -0.172124    0.882435
  C     -0.427452   -1.361524    1.034666
  H     -2.240412    1.118975   -0.498720
  H     -2.378489   -0.560818   -2.210135
  H     -1.419300   -2.787504   -1.873308
  H      0.157985   -1.630977    1.904056
  H     -0.106222   -3.282605    0.142065
  Pd     1.405415    1.158684   -0.013999
  O      2.799434    0.991466   -1.545342
  O      2.636689   -0.481807    0.021959
  O      0.345903    2.892523    0.020522
  C      0.104074    3.007272    1.231079
  O      0.603666    2.167968    2.047712
  H     -1.540815    0.881472    2.596372
  C      3.127576   -0.122701   -1.078801
  H      3.930327   -0.719720   -1.529109
  H     -0.575000    3.783419    1.605452

 Total Charge           Charge          ....    0
 Multiplicity           Mult            ....    1
 Number of Electrons    NEL             ....  106
 Basis Dimension        Dim             ....  227

ORBITAL ENERGIES
----------------

  NO   OCC          E(Eh)            E(eV)
   0   2.0000     -19.543322      -531.8008
   1   2.0000     -19.540582      -531.7263
   2   2.0000     -19.525253      -531.3092
   3   2.0000     -19.488441      -530.3074
   4   2.0000     -10.599933      -288.4388
   5   2.0000     -10.570143      -287.6282
   6   2.0000     -10.513421      -286.0847
   7   2.0000     -10.470471      -284.9160
   8   2.0000     -10.468510      -284.8627
   9   2.0000     -10.464844      -284.7629
  10   2.0000     -10.463829      -284.7352
  11   2.0000     -10.460627      -284.6481
  12   2.0000      -3.698242      -100.6343
  13   2.0000      -2.353012       -64.0287
  14   2.0000      -2.336188       -63.5709
  15   2.0000      -2.307097       -62.7793
  16   2.0000      -1.245935       -33.9036
  17   2.0000      -1.210717       -32.9453
  18   2.0000      -1.128754       -30.7150
  19   2.0000      -1.085387       -29.5349
  20   2.0000      -0.977382       -26.5959
  21   2.0000      -0.858722       -23.3670
  22   2.0000      -0.846846       -23.0438
  23   2.0000      -0.707248       -19.2452
  24   2.0000      -0.695971       -18.9383
  25   2.0000      -0.684487       -18.6258
  26   2.0000      -0.679998       -18.5037
  27   2.0000      -0.601567       -16.3695
  28   2.0000      -0.595507       -16.2046
  29   2.0000      -0.576762       -15.6945
  30   2.0000      -0.568849       -15.4792
  31   2.0000      -0.543732       -14.7957
  32   2.0000      -0.533001       -14.5037
  33   2.0000      -0.531099       -14.4519
  34   2.0000      -0.526449       -14.3254
  35   2.0000      -0.513074       -13.9614
  36   2.0000      -0.498934       -13.5767
  37   2.0000      -0.455477       -12.3942
  38   2.0000      -0.448241       -12.1972
  39   2.0000      -0.442990       -12.0544
  40   2.0000      -0.422324       -11.4920
  41   2.0000      -0.420028       -11.4295
  42   2.0000      -0.411262       -11.1910
  43   2.0000      -0.398636       -10.8474
  44   2.0000      -0.390807       -10.6344
  45   2.0000      -0.367116        -9.9897
  46   2.0000      -0.365398        -9.9430
  47   2.0000      -0.345119        -9.3912
  48   2.0000      -0.339502        -9.2383
  49   2.0000      -0.332686        -9.0528
  50   2.0000      -0.313414        -8.5284
  51   2.0000      -0.310235        -8.4419
  52   2.0000      -0.293313        -7.9815
  53   0.0000      -0.112260        -3.0547
  54   0.0000      -0.058660        -1.5962
  55   0.0000       0.001420         0.0386
  56   0.0000       0.007781         0.2117
  57   0.0000       0.014315         0.3895

MULLIKEN ATOMIC CHARGES
-----------------------
   0 C :   -0.247606
   1 C :   -0.218212
   2 C :   -0.222706
   3 C :   -0.216964
   4 C :   -0.092370
   5 C :   -0.247457
   6 H :    0.253099
   7 H :    0.236498
   8 H :    0.230507
   9 H :    0.262836
  10 H :    0.234217
  11 Pd:    0.556216
  12 O :   -0.446978
  13 O :   -0.452095
  14 O :   -0.454616
  15 C :    0.377342
  16 O :   -0.461415
  17 H :    0.076331
  18 C :    0.424318
  19 H :    0.212521
  20 H :    0.196536
Sum of atomic charges:   -0.0000000

LOEWDIN ATOMIC CHARGES
----------------------
   0 C :   -0.127430
   1 C :   -0.123285
   2 C :   -0.131761
   3 C :   -0.120553
   4 C :   -0.028133
   5 C :   -0.122026
   6 H :    0.158801
   7 H :    0.144180
   8 H :    0.140551
   9 H :    0.162813
  10 H :    0.143903
  11 Pd:   -0.096510
  12 O :   -0.132891
  13 O :   -0.133965
  14 O :   -0.130872
  15 C :    0.132968
  16 O :   -0.230707
  17 H :    0.084577
  18 C :    0.169346
  19 H :    0.126177
  20 H :    0.114818

  Mayer bond orders larger than 0.100000
B(  0-C ,  1-C ) :   1.4069 B(  0-C ,  4-C ) :   1.4071 B(  0-C ,  6-H ) :   0.9054
B(  1-C ,  2-C ) :   1.4291 B(  1-C ,  7-H ) :   0.9111 B(  2-C ,  3-C ) :   1.4275
B(  2-C ,  8-H ) :   0.9165 B(  3-C ,  5-C ) :   1.4074 B(  3-C , 10-H ) :   0.9123
B(  4-C ,  5-C ) :   1.4273 B(  4-C , 17-H ) :   0.8435 B(  5-C ,  9-H ) :   0.9010
B( 11-Pd, 12-O ) :   0.5578 B( 11-Pd, 13-O ) :   0.5879 B( 11-Pd, 14-O ) :   0.6062
B( 11-Pd, 16-O ) :   0.3750 B( 12-O , 13-O ) :   0.1132 B( 12-O , 18-C ) :   1.4917
B( 13-O , 18-C ) :   1.4378 B( 14-O , 15-C ) :   1.4133 B( 14-O , 16-O ) :   0.1066
B( 15-C , 16-O ) :   1.6098 B( 15-C , 20-H ) :   0.8828 B( 18-C , 19-H ) :   0.8864

Dispersion correction           -0.013646406
FINAL SINGLE POINT ENERGY      -736.964067419043
Dispersion correction            ... done

DIPOLE MOMENT
-------------
                                X             Y             Z
Electronic contribution:     53.11357      43.25598      -1.59857
Nuclear contribution   :    -53.43398     -44.13103       0.92638
                        -----------------------------------------
Total Dipole Moment    :     -0.32041      -0.87505      -0.67219
                        -----------------------------------------
Magnitude (a.u.)       :      1.14901
Magnitude (Debye)      :      2.92055

Rotational constants in cm-1:     0.027805     0.018940     0.014089
Rotational constants in MHz :   833.569313   567.800914   422.383450

                             ****ORCA TERMINATED NORMALLY****
TOTAL RUN TIME: 0 days 0 hours 4 minutes 4 seconds 936 msec
