                         Program Version 5.0.3 -  RELEASE  -
|  1> ! EnGrad PBEh-3c
|  2> %output
|  3> xyzfile=True
|  4> end
|  5> %scf
|  6> maxiter 250
|  7> end
|  8> %output
|  9> Print[P_Hirshfeld] = 1
| 10> end
| 11> % maxcore
| 12> 4000
| 13> *xyz 0 1
| 14> C   -1.73210025   0.20030224  -0.30122640
| 15> C   -1.98148556  -0.80038119  -1.18413427
| 16> C   -1.56256699  -2.10424647  -0.97836170
| 17> C   -0.71681926  -2.32429754   0.08958026
| 18> C   -1.03433705  -0.13711057   0.83507580
| 19> C   -0.44088221  -1.36466218   1.00696404
| 20> H   -2.00317175   1.21178460  -0.54483619
| 21> H   -2.55657597  -0.58761214  -2.04834595
| 22> H   -1.87356202  -2.92409773  -1.63995085
| 23> H    0.26348185  -1.55556638   1.79547201
| 24> H   -0.31603431  -3.29218443   0.23743867
| 25> Pd   1.43808203   1.15039720   0.05593779
| 26> O    3.05060404   1.22404338  -1.39766565
| 27> O    2.58557401  -0.45513723  -0.10148396
| 28> O    0.41000284   2.81009076   0.05343588
| 29> C    0.10007481   2.93650492   1.28730160
| 30> O    0.50763598   2.15913841   2.15894781
| 31> H   -0.97503673   0.49890500   1.57644743
| 32> C    3.29312552   0.06304001  -1.01891472
| 33> H    4.15316494  -0.49008424  -1.40230504
| 34> H   -0.60440321   3.77068984   1.51853961
| 35> *
| 36>
| 37>                          ****END OF INPUT****

CARTESIAN COORDINATES (ANGSTROEM)
---------------------------------
  C     -1.732100    0.200302   -0.301226
  C     -1.981486   -0.800381   -1.184134
  C     -1.562567   -2.104246   -0.978362
  C     -0.716819   -2.324298    0.089580
  C     -1.034337   -0.137111    0.835076
  C     -0.440882   -1.364662    1.006964
  H     -2.003172    1.211785   -0.544836
  H     -2.556576   -0.587612   -2.048346
  H     -1.873562   -2.924098   -1.639951
  H      0.263482   -1.555566    1.795472
  H     -0.316034   -3.292184    0.237439
  Pd     1.438082    1.150397    0.055938
  O      3.050604    1.224043   -1.397666
  O      2.585574   -0.455137   -0.101484
  O      0.410003    2.810091    0.053436
  C      0.100075    2.936505    1.287302
  O      0.507636    2.159138    2.158948
  H     -0.975037    0.498905    1.576447
  C      3.293126    0.063040   -1.018915
  H      4.153165   -0.490084   -1.402305
  H     -0.604403    3.770690    1.518540

 Total Charge           Charge          ....    0
 Multiplicity           Mult            ....    1
 Number of Electrons    NEL             ....  106
 Basis Dimension        Dim             ....  227

ORBITAL ENERGIES
----------------

  NO   OCC          E(Eh)            E(eV)
   0   2.0000     -19.540257      -531.7174
   1   2.0000     -19.535120      -531.5776
   2   2.0000     -19.529110      -531.4141
   3   2.0000     -19.497379      -530.5506
   4   2.0000     -10.596903      -288.3564
   5   2.0000     -10.577412      -287.8260
   6   2.0000     -10.460081      -284.6333
   7   2.0000     -10.456433      -284.5340
   8   2.0000     -10.454262      -284.4749
   9   2.0000     -10.451048      -284.3875
  10   2.0000     -10.449301      -284.3399
  11   2.0000     -10.445948      -284.2487
  12   2.0000      -3.699178      -100.6597
  13   2.0000      -2.357495       -64.1507
  14   2.0000      -2.332790       -63.4784
  15   2.0000      -2.311636       -62.9028
  16   2.0000      -1.240128       -33.7456
  17   2.0000      -1.209964       -32.9248
  18   2.0000      -1.126087       -30.6424
  19   2.0000      -1.104683       -30.0600
  20   2.0000      -0.980226       -26.6733
  21   2.0000      -0.859271       -23.3820
  22   2.0000      -0.855695       -23.2846
  23   2.0000      -0.706847       -19.2343
  24   2.0000      -0.703908       -19.1543
  25   2.0000      -0.692916       -18.8552
  26   2.0000      -0.681368       -18.5410
  27   2.0000      -0.616434       -16.7740
  28   2.0000      -0.600986       -16.3537
  29   2.0000      -0.576904       -15.6984
  30   2.0000      -0.571613       -15.5544
  31   2.0000      -0.542728       -14.7684
  32   2.0000      -0.541782       -14.7426
  33   2.0000      -0.537026       -14.6132
  34   2.0000      -0.528570       -14.3831
  35   2.0000      -0.519493       -14.1361
  36   2.0000      -0.500517       -13.6198
  37   2.0000      -0.493314       -13.4238
  38   2.0000      -0.452308       -12.3079
  39   2.0000      -0.450017       -12.2456
  40   2.0000      -0.419439       -11.4135
  41   2.0000      -0.417226       -11.3533
  42   2.0000      -0.408555       -11.1173
  43   2.0000      -0.406764       -11.0686
  44   2.0000      -0.397427       -10.8145
  45   2.0000      -0.385448       -10.4886
  46   2.0000      -0.380687       -10.3590
  47   2.0000      -0.366592        -9.9755
  48   2.0000      -0.345971        -9.4144
  49   2.0000      -0.340168        -9.2564
  50   2.0000      -0.338418        -9.2088
  51   2.0000      -0.309849        -8.4314
  52   2.0000      -0.300875        -8.1872
  53   0.0000      -0.113761        -3.0956
  54   0.0000       0.002820         0.0767
  55   0.0000       0.013104         0.3566
  56   0.0000       0.016761         0.4561
  57   0.0000       0.037532         1.0213

MULLIKEN ATOMIC CHARGES
-----------------------
   0 C :   -0.195565
   1 C :   -0.235147
   2 C :   -0.206260
   3 C :   -0.229091
   4 C :   -0.361192
   5 C :   -0.193732
   6 H :    0.243412
   7 H :    0.225870
   8 H :    0.226996
   9 H :    0.249798
  10 H :    0.225356
  11 Pd:    0.611988
  12 O :   -0.434434
  13 O :   -0.479262
  14 O :   -0.489459
  15 C :    0.364168
  16 O :   -0.441944
  17 H :    0.303492
  18 C :    0.415975
  19 H :    0.210283
  20 H :    0.188748
Sum of atomic charges:    0.0000000

LOEWDIN ATOMIC CHARGES
----------------------
   0 C :   -0.115289
   1 C :   -0.124862
   2 C :   -0.120966
   3 C :   -0.121685
   4 C :   -0.127906
   5 C :   -0.108943
   6 H :    0.154547
   7 H :    0.136499
   8 H :    0.142235
   9 H :    0.156765
  10 H :    0.137049
  11 Pd:   -0.046554
  12 O :   -0.142715
  13 O :   -0.143227
  14 O :   -0.150184
  15 C :    0.130588
  16 O :   -0.217202
  17 H :    0.158381
  18 C :    0.167798
  19 H :    0.124241
  20 H :    0.111431

  Mayer bond orders larger than 0.100000
B(  0-C ,  1-C ) :   1.4372 B(  0-C ,  4-C ) :   1.3858 B(  0-C ,  6-H ) :   0.9102
B(  1-C ,  2-C ) :   1.4168 B(  1-C ,  7-H ) :   0.9171 B(  2-C ,  3-C ) :   1.4244
B(  2-C ,  8-H ) :   0.9192 B(  3-C ,  5-C ) :   1.4298 B(  3-C , 10-H ) :   0.9170
B(  4-C ,  5-C ) :   1.4138 B(  4-C , 17-H ) :   0.8562 B(  5-C ,  9-H ) :   0.9085
B( 11-Pd, 12-O ) :   0.5034 B( 11-Pd, 13-O ) :   0.6039 B( 11-Pd, 14-O ) :   0.6495
B( 11-Pd, 16-O ) :   0.2675 B( 12-O , 13-O ) :   0.1140 B( 12-O , 18-C ) :   1.5591
B( 13-O , 18-C ) :   1.3916 B( 14-O , 15-C ) :   1.3228 B( 14-O , 16-O ) :   0.1067
B( 15-C , 16-O ) :   1.7194 B( 15-C , 20-H ) :   0.8809 B( 18-C , 19-H ) :   0.8862

Dispersion correction           -0.013416280
FINAL SINGLE POINT ENERGY      -737.110559825739
Dispersion correction            ... done

DIPOLE MOMENT
-------------
                                X             Y             Z
Electronic contribution:     54.91396      42.62302       0.75872
Nuclear contribution   :    -55.15348     -43.38703      -1.24763
                        -----------------------------------------
Total Dipole Moment    :     -0.23952      -0.76400      -0.48892
                        -----------------------------------------
Magnitude (a.u.)       :      0.93814
Magnitude (Debye)      :      2.38457

Rotational constants in cm-1:     0.029277     0.017751     0.013452
Rotational constants in MHz :   877.691751   532.173414   403.295535

                             ****ORCA TERMINATED NORMALLY****
TOTAL RUN TIME: 0 days 0 hours 4 minutes 8 seconds 515 msec
