                         Program Version 5.0.3 -  RELEASE  -
|  1> ! EnGrad PBEh-3c
|  2> %output
|  3> xyzfile=True
|  4> end
|  5> %scf
|  6> maxiter 250
|  7> end
|  8> %output
|  9> Print[P_Hirshfeld] = 1
| 10> end
| 11> % maxcore
| 12> 4000
| 13> *xyz 0 1
| 14> C   -1.74242788   0.19586715  -0.33215630
| 15> C   -2.02898576  -0.82192778  -1.18380200
| 16> C   -1.61632074  -2.10764343  -0.94044310
| 17> C   -0.75568404  -2.35844076   0.09284806
| 18> C   -1.00706543  -0.20060130   0.73235787
| 19> C   -0.43596588  -1.39732393   0.99499605
| 20> H   -1.97355590   1.23493523  -0.53588850
| 21> H   -2.58783644  -0.58111447  -2.02156602
| 22> H   -1.93776700  -2.91867462  -1.58096025
| 23> H    0.27595140  -1.53798812   1.79828199
| 24> H   -0.34263584  -3.29374746   0.26013915
| 25> Pd   1.44262816   1.14579355   0.04356210
| 26> O    3.08099333   1.26337269  -1.36035183
| 27> O    2.59261011  -0.45543616  -0.12283779
| 28> O    0.42103933   2.79987866   0.06306735
| 29> C    0.09669118   2.93274063   1.29517902
| 30> O    0.49313216   2.15848529   2.18316142
| 31> H   -0.86780816   0.51531927   1.48759602
| 32> C    3.31698416   0.09321061  -1.00642829
| 33> H    4.18763202  -0.45008731  -1.37607172
| 34> H   -0.60650470   3.77115395   1.50594268
| 35> *
| 36>
| 37>                          ****END OF INPUT****

CARTESIAN COORDINATES (ANGSTROEM)
---------------------------------
  C     -1.742428    0.195867   -0.332156
  C     -2.028986   -0.821928   -1.183802
  C     -1.616321   -2.107643   -0.940443
  C     -0.755684   -2.358441    0.092848
  C     -1.007065   -0.200601    0.732358
  C     -0.435966   -1.397324    0.994996
  H     -1.973556    1.234935   -0.535888
  H     -2.587836   -0.581114   -2.021566
  H     -1.937767   -2.918675   -1.580960
  H      0.275951   -1.537988    1.798282
  H     -0.342636   -3.293747    0.260139
  Pd     1.442628    1.145794    0.043562
  O      3.080993    1.263373   -1.360352
  O      2.592610   -0.455436   -0.122838
  O      0.421039    2.799879    0.063067
  C      0.096691    2.932741    1.295179
  O      0.493132    2.158485    2.183161
  H     -0.867808    0.515319    1.487596
  C      3.316984    0.093211   -1.006428
  H      4.187632   -0.450087   -1.376072
  H     -0.606505    3.771154    1.505943

 Total Charge           Charge          ....    0
 Multiplicity           Mult            ....    1
 Number of Electrons    NEL             ....  106
 Basis Dimension        Dim             ....  227

ORBITAL ENERGIES
----------------

  NO   OCC          E(Eh)            E(eV)
   0   2.0000     -19.541779      -531.7588
   1   2.0000     -19.537367      -531.6388
   2   2.0000     -19.529712      -531.4305
   3   2.0000     -19.495190      -530.4911
   4   2.0000     -10.598205      -288.3918
   5   2.0000     -10.577358      -287.8245
   6   2.0000     -10.455492      -284.5084
   7   2.0000     -10.454727      -284.4876
   8   2.0000     -10.452642      -284.4308
   9   2.0000     -10.448341      -284.3138
  10   2.0000     -10.446849      -284.2732
  11   2.0000     -10.444435      -284.2075
  12   2.0000      -3.700397      -100.6929
  13   2.0000      -2.358811       -64.1865
  14   2.0000      -2.334206       -63.5170
  15   2.0000      -2.312827       -62.9352
  16   2.0000      -1.242580       -33.8123
  17   2.0000      -1.206512       -32.8309
  18   2.0000      -1.128882       -30.7184
  19   2.0000      -1.101942       -29.9854
  20   2.0000      -0.987556       -26.8728
  21   2.0000      -0.866121       -23.5683
  22   2.0000      -0.854808       -23.2605
  23   2.0000      -0.708482       -19.2788
  24   2.0000      -0.699696       -19.0397
  25   2.0000      -0.698865       -19.0171
  26   2.0000      -0.682142       -18.5620
  27   2.0000      -0.619006       -16.8440
  28   2.0000      -0.603003       -16.4085
  29   2.0000      -0.577019       -15.7015
  30   2.0000      -0.572902       -15.5895
  31   2.0000      -0.543534       -14.7903
  32   2.0000      -0.538817       -14.6620
  33   2.0000      -0.535934       -14.5835
  34   2.0000      -0.533536       -14.5183
  35   2.0000      -0.519900       -14.1472
  36   2.0000      -0.506786       -13.7904
  37   2.0000      -0.485307       -13.2059
  38   2.0000      -0.454959       -12.3801
  39   2.0000      -0.450503       -12.2588
  40   2.0000      -0.420486       -11.4420
  41   2.0000      -0.419332       -11.4106
  42   2.0000      -0.418377       -11.3846
  43   2.0000      -0.402260       -10.9461
  44   2.0000      -0.390464       -10.6251
  45   2.0000      -0.385461       -10.4889
  46   2.0000      -0.380783       -10.3616
  47   2.0000      -0.366021        -9.9599
  48   2.0000      -0.347079        -9.4445
  49   2.0000      -0.339876        -9.2485
  50   2.0000      -0.336494        -9.1565
  51   2.0000      -0.312915        -8.5148
  52   2.0000      -0.303326        -8.2539
  53   0.0000      -0.114479        -3.1151
  54   0.0000       0.009681         0.2634
  55   0.0000       0.011368         0.3093
  56   0.0000       0.015552         0.4232
  57   0.0000       0.036531         0.9941

MULLIKEN ATOMIC CHARGES
-----------------------
   0 C :   -0.181012
   1 C :   -0.238922
   2 C :   -0.201212
   3 C :   -0.233105
   4 C :   -0.388572
   5 C :   -0.176172
   6 H :    0.245635
   7 H :    0.227267
   8 H :    0.222681
   9 H :    0.251719
  10 H :    0.226836
  11 Pd:    0.617835
  12 O :   -0.435065
  13 O :   -0.478002
  14 O :   -0.492734
  15 C :    0.360732
  16 O :   -0.444029
  17 H :    0.299820
  18 C :    0.416366
  19 H :    0.210325
  20 H :    0.189609
Sum of atomic charges:    0.0000000

LOEWDIN ATOMIC CHARGES
----------------------
   0 C :   -0.119129
   1 C :   -0.120209
   2 C :   -0.123130
   3 C :   -0.117166
   4 C :   -0.130689
   5 C :   -0.112781
   6 H :    0.157023
   7 H :    0.135895
   8 H :    0.141071
   9 H :    0.159064
  10 H :    0.136676
  11 Pd:   -0.045307
  12 O :   -0.140041
  13 O :   -0.141797
  14 O :   -0.151535
  15 C :    0.132301
  16 O :   -0.228006
  17 H :    0.163695
  18 C :    0.167941
  19 H :    0.124191
  20 H :    0.111933

  Mayer bond orders larger than 0.100000
B(  0-C ,  1-C ) :   1.4251 B(  0-C ,  4-C ) :   1.3832 B(  0-C ,  6-H ) :   0.9087
B(  1-C ,  2-C ) :   1.4263 B(  1-C ,  7-H ) :   0.9163 B(  2-C ,  3-C ) :   1.4320
B(  2-C ,  8-H ) :   0.9228 B(  3-C ,  5-C ) :   1.4192 B(  3-C , 10-H ) :   0.9162
B(  4-C ,  5-C ) :   1.4088 B(  4-C , 17-H ) :   0.8462 B(  5-C ,  9-H ) :   0.9076
B( 11-Pd, 12-O ) :   0.5073 B( 11-Pd, 13-O ) :   0.6020 B( 11-Pd, 14-O ) :   0.6504
B( 11-Pd, 16-O ) :   0.2497 B( 12-O , 13-O ) :   0.1144 B( 12-O , 18-C ) :   1.5551
B( 13-O , 18-C ) :   1.3960 B( 14-O , 15-C ) :   1.3176 B( 14-O , 16-O ) :   0.1069
B( 15-C , 16-O ) :   1.7262 B( 15-C , 20-H ) :   0.8802 B( 18-C , 19-H ) :   0.8864

Dispersion correction           -0.013343634
FINAL SINGLE POINT ENERGY      -737.104142971450
Dispersion correction            ... done

DIPOLE MOMENT
-------------
                                X             Y             Z
Electronic contribution:     55.22383      42.54799       0.15668
Nuclear contribution   :    -55.41777     -43.30777      -0.69996
                        -----------------------------------------
Total Dipole Moment    :     -0.19393      -0.75978      -0.54328
                        -----------------------------------------
Magnitude (a.u.)       :      0.95396
Magnitude (Debye)      :      2.42477

Rotational constants in cm-1:     0.029536     0.017430     0.013298
Rotational constants in MHz :   885.472586   522.542850   398.659683

                             ****ORCA TERMINATED NORMALLY****
TOTAL RUN TIME: 0 days 0 hours 4 minutes 2 seconds 183 msec
