                         Program Version 5.0.3 -  RELEASE  -
|  1> ! EnGrad PBEh-3c
|  2> %output
|  3> xyzfile=True
|  4> end
|  5> %scf
|  6> maxiter 250
|  7> end
|  8> %output
|  9> Print[P_Hirshfeld] = 1
| 10> end
| 11> % maxcore
| 12> 4000
| 13> *xyz 0 1
| 14> C   -1.74558973   0.18604326  -0.36546399
| 15> C   -2.04801069  -0.83365267  -1.20461059
| 16> C   -1.61904266  -2.11279664  -0.94549355
| 17> C   -0.76096522  -2.38754545   0.08946948
| 18> C   -0.98197718  -0.18528718   0.72760984
| 19> C   -0.42706796  -1.42508078   0.98131100
| 20> H   -1.98464978   1.23813643  -0.52049071
| 21> H   -2.60871853  -0.57336004  -2.05303458
| 22> H   -1.92842134  -2.90012781  -1.57120238
| 23> H    0.26754510  -1.53557037   1.81481939
| 24> H   -0.32734455  -3.32958247   0.26244432
| 25> Pd   1.43617532   1.14951746   0.04059695
| 26> O    3.06431310   1.25999803  -1.35591345
| 27> O    2.59711433  -0.45878980  -0.12701686
| 28> O    0.42233651   2.80354557   0.06574650
| 29> C    0.09353646   2.93546532   1.29811707
| 30> O    0.49467354   2.16410830   2.17454860
| 31> H   -0.85691228   0.57850065   1.55173416
| 32> C    3.32916110   0.09676507  -0.99404313
| 33> H    4.18726603  -0.45335763  -1.38078971
| 34> H   -0.59857440   3.77008304   1.50772809
| 35> *
| 36>
| 37>                          ****END OF INPUT****

CARTESIAN COORDINATES (ANGSTROEM)
---------------------------------
  C     -1.745590    0.186043   -0.365464
  C     -2.048011   -0.833653   -1.204611
  C     -1.619043   -2.112797   -0.945494
  C     -0.760965   -2.387545    0.089469
  C     -0.981977   -0.185287    0.727610
  C     -0.427068   -1.425081    0.981311
  H     -1.984650    1.238136   -0.520491
  H     -2.608719   -0.573360   -2.053035
  H     -1.928421   -2.900128   -1.571202
  H      0.267545   -1.535570    1.814819
  H     -0.327345   -3.329582    0.262444
  Pd     1.436175    1.149517    0.040597
  O      3.064313    1.259998   -1.355913
  O      2.597114   -0.458790   -0.127017
  O      0.422337    2.803546    0.065746
  C      0.093536    2.935465    1.298117
  O      0.494674    2.164108    2.174549
  H     -0.856912    0.578501    1.551734
  C      3.329161    0.096765   -0.994043
  H      4.187266   -0.453358   -1.380790
  H     -0.598574    3.770083    1.507728

 Total Charge           Charge          ....    0
 Multiplicity           Mult            ....    1
 Number of Electrons    NEL             ....  106
 Basis Dimension        Dim             ....  227

ORBITAL ENERGIES
----------------

  NO   OCC          E(Eh)            E(eV)
   0   2.0000     -19.538864      -531.6795
   1   2.0000     -19.534721      -531.5668
   2   2.0000     -19.527499      -531.3703
   3   2.0000     -19.494266      -530.4659
   4   2.0000     -10.595951      -288.3305
   5   2.0000     -10.574918      -287.7581
   6   2.0000     -10.459982      -284.6306
   7   2.0000     -10.458395      -284.5874
   8   2.0000     -10.457746      -284.5697
   9   2.0000     -10.456221      -284.5282
  10   2.0000     -10.452438      -284.4253
  11   2.0000     -10.451360      -284.3960
  12   2.0000      -3.697793      -100.6221
  13   2.0000      -2.355958       -64.1089
  14   2.0000      -2.331843       -63.4527
  15   2.0000      -2.309981       -62.8578
  16   2.0000      -1.241352       -33.7789
  17   2.0000      -1.207857       -32.8675
  18   2.0000      -1.125732       -30.6327
  19   2.0000      -1.102873       -30.0107
  20   2.0000      -0.982077       -26.7237
  21   2.0000      -0.865807       -23.5598
  22   2.0000      -0.849101       -23.1052
  23   2.0000      -0.707268       -19.2458
  24   2.0000      -0.697802       -18.9882
  25   2.0000      -0.696138       -18.9429
  26   2.0000      -0.683233       -18.5917
  27   2.0000      -0.614028       -16.7085
  28   2.0000      -0.600365       -16.3368
  29   2.0000      -0.577156       -15.7052
  30   2.0000      -0.571093       -15.5402
  31   2.0000      -0.541689       -14.7401
  32   2.0000      -0.538771       -14.6607
  33   2.0000      -0.534377       -14.5412
  34   2.0000      -0.531743       -14.4695
  35   2.0000      -0.519724       -14.1424
  36   2.0000      -0.507747       -13.8165
  37   2.0000      -0.480999       -13.0887
  38   2.0000      -0.452125       -12.3030
  39   2.0000      -0.449194       -12.2232
  40   2.0000      -0.418856       -11.3977
  41   2.0000      -0.417195       -11.3525
  42   2.0000      -0.416582       -11.3358
  43   2.0000      -0.402160       -10.9433
  44   2.0000      -0.390104       -10.6153
  45   2.0000      -0.384498       -10.4627
  46   2.0000      -0.378382       -10.2963
  47   2.0000      -0.364444        -9.9170
  48   2.0000      -0.345807        -9.4099
  49   2.0000      -0.338098        -9.2001
  50   2.0000      -0.334095        -9.0912
  51   2.0000      -0.314978        -8.5710
  52   2.0000      -0.300141        -8.1673
  53   0.0000      -0.111560        -3.0357
  54   0.0000       0.004766         0.1297
  55   0.0000       0.010190         0.2773
  56   0.0000       0.017911         0.4874
  57   0.0000       0.038484         1.0472

MULLIKEN ATOMIC CHARGES
-----------------------
   0 C :   -0.176723
   1 C :   -0.234183
   2 C :   -0.201072
   3 C :   -0.230255
   4 C :   -0.407010
   5 C :   -0.171591
   6 H :    0.247586
   7 H :    0.228188
   8 H :    0.225254
   9 H :    0.253676
  10 H :    0.227967
  11 Pd:    0.615085
  12 O :   -0.439515
  13 O :   -0.475038
  14 O :   -0.495139
  15 C :    0.358550
  16 O :   -0.440675
  17 H :    0.299059
  18 C :    0.415906
  19 H :    0.210241
  20 H :    0.189690
Sum of atomic charges:   -0.0000000

LOEWDIN ATOMIC CHARGES
----------------------
   0 C :   -0.115358
   1 C :   -0.124357
   2 C :   -0.118410
   3 C :   -0.121146
   4 C :   -0.131607
   5 C :   -0.109434
   6 H :    0.156511
   7 H :    0.139075
   8 H :    0.140489
   9 H :    0.158851
  10 H :    0.139824
  11 Pd:   -0.057783
  12 O :   -0.141798
  13 O :   -0.141815
  14 O :   -0.152180
  15 C :    0.127701
  16 O :   -0.222709
  17 H :    0.172351
  18 C :    0.166159
  19 H :    0.124100
  20 H :    0.111537

  Mayer bond orders larger than 0.100000
B(  0-C ,  1-C ) :   1.4290 B(  0-C ,  4-C ) :   1.3703 B(  0-C ,  6-H ) :   0.9066
B(  1-C ,  2-C ) :   1.4237 B(  1-C ,  7-H ) :   0.9176 B(  2-C ,  3-C ) :   1.4269
B(  2-C ,  8-H ) :   0.9218 B(  3-C ,  5-C ) :   1.4247 B(  3-C , 10-H ) :   0.9174
B(  4-C ,  5-C ) :   1.3940 B(  4-C , 17-H ) :   0.8438 B(  5-C ,  9-H ) :   0.9057
B( 11-Pd, 12-O ) :   0.5132 B( 11-Pd, 13-O ) :   0.5942 B( 11-Pd, 14-O ) :   0.6539
B( 11-Pd, 16-O ) :   0.2401 B( 12-O , 13-O ) :   0.1140 B( 12-O , 18-C ) :   1.5436
B( 13-O , 18-C ) :   1.4077 B( 14-O , 15-C ) :   1.3139 B( 14-O , 16-O ) :   0.1058
B( 15-C , 16-O ) :   1.7358 B( 15-C , 20-H ) :   0.8810 B( 18-C , 19-H ) :   0.8861

Dispersion correction           -0.013323631
FINAL SINGLE POINT ENERGY      -737.112302037579
Dispersion correction            ... done

DIPOLE MOMENT
-------------
                                X             Y             Z
Electronic contribution:     54.88779      42.77148       0.16529
Nuclear contribution   :    -55.13235     -43.55754      -0.67414
                        -----------------------------------------
Total Dipole Moment    :     -0.24456      -0.78606      -0.50885
                        -----------------------------------------
Magnitude (a.u.)       :      0.96780
Magnitude (Debye)      :      2.45995

Rotational constants in cm-1:     0.029456     0.017354     0.013261
Rotational constants in MHz :   883.082268   520.256010   397.556695

                             ****ORCA TERMINATED NORMALLY****
TOTAL RUN TIME: 0 days 0 hours 4 minutes 14 seconds 580 msec
