                         Program Version 5.0.3 -  RELEASE  -
|  1> ! EnGrad PBEh-3c
|  2> %output
|  3> xyzfile=True
|  4> end
|  5> %scf
|  6> maxiter 250
|  7> end
|  8> %output
|  9> Print[P_Hirshfeld] = 1
| 10> end
| 11> % maxcore
| 12> 4000
| 13> *xyz 0 1
| 14> C   -1.72439721   0.18794521  -0.35740285
| 15> C   -2.06773940  -0.83946215  -1.21458477
| 16> C   -1.63209531  -2.12213205  -0.94543354
| 17> C   -0.76856655  -2.40839512   0.09308446
| 18> C   -0.95425575  -0.13700185   0.75917577
| 19> C   -0.42293275  -1.40498299   0.97606802
| 20> H   -1.97982357   1.23565833  -0.52284324
| 21> H   -2.64079523  -0.57738372  -2.07993941
| 22> H   -1.95140418  -2.91379984  -1.56995959
| 23> H    0.26648850  -1.53747763   1.80872612
| 24> H   -0.32993594  -3.37067831   0.26278460
| 25> Pd   1.42800467   1.14408210   0.04480630
| 26> O    3.06775253   1.27006503  -1.34538885
| 27> O    2.59213755  -0.46189774  -0.13672340
| 28> O    0.42243007   2.80018035   0.07316909
| 29> C    0.09011845   2.93302598   1.30739679
| 30> O    0.48437969   2.17406051   2.17040632
| 31> H   -0.82751509   0.58455053   1.53140182
| 32> C    3.34529320   0.10663069  -0.98283831
| 33> H    4.20095858  -0.44531560  -1.38130781
| 34> H   -0.59397391   3.76774408   1.50467042
| 35> *
| 36>
| 37>                          ****END OF INPUT****

CARTESIAN COORDINATES (ANGSTROEM)
---------------------------------
  C     -1.724397    0.187945   -0.357403
  C     -2.067739   -0.839462   -1.214585
  C     -1.632095   -2.122132   -0.945434
  C     -0.768567   -2.408395    0.093084
  C     -0.954256   -0.137002    0.759176
  C     -0.422933   -1.404983    0.976068
  H     -1.979824    1.235658   -0.522843
  H     -2.640795   -0.577384   -2.079939
  H     -1.951404   -2.913800   -1.569960
  H      0.266489   -1.537478    1.808726
  H     -0.329936   -3.370678    0.262785
  Pd     1.428005    1.144082    0.044806
  O      3.067753    1.270065   -1.345389
  O      2.592138   -0.461898   -0.136723
  O      0.422430    2.800180    0.073169
  C      0.090118    2.933026    1.307397
  O      0.484380    2.174061    2.170406
  H     -0.827515    0.584551    1.531402
  C      3.345293    0.106631   -0.982838
  H      4.200959   -0.445316   -1.381308
  H     -0.593974    3.767744    1.504670

 Total Charge           Charge          ....    0
 Multiplicity           Mult            ....    1
 Number of Electrons    NEL             ....  106
 Basis Dimension        Dim             ....  227

ORBITAL ENERGIES
----------------

  NO   OCC          E(Eh)            E(eV)
   0   2.0000     -19.536992      -531.6286
   1   2.0000     -19.532859      -531.5161
   2   2.0000     -19.523714      -531.2673
   3   2.0000     -19.493760      -530.4522
   4   2.0000     -10.595509      -288.3185
   5   2.0000     -10.571196      -287.6569
   6   2.0000     -10.465343      -284.7765
   7   2.0000     -10.463297      -284.7208
   8   2.0000     -10.461398      -284.6691
   9   2.0000     -10.459571      -284.6194
  10   2.0000     -10.458552      -284.5917
  11   2.0000     -10.457152      -284.5536
  12   2.0000      -3.696069      -100.5752
  13   2.0000      -2.354159       -64.0599
  14   2.0000      -2.330005       -63.4027
  15   2.0000      -2.308519       -62.8180
  16   2.0000      -1.237468       -33.6732
  17   2.0000      -1.211731       -32.9729
  18   2.0000      -1.121848       -30.5270
  19   2.0000      -1.106078       -30.0979
  20   2.0000      -0.974379       -26.5142
  21   2.0000      -0.856924       -23.3181
  22   2.0000      -0.852749       -23.2045
  23   2.0000      -0.705679       -19.2025
  24   2.0000      -0.698172       -18.9982
  25   2.0000      -0.695522       -18.9261
  26   2.0000      -0.682748       -18.5785
  27   2.0000      -0.611589       -16.6422
  28   2.0000      -0.597852       -16.2684
  29   2.0000      -0.577192       -15.7062
  30   2.0000      -0.568911       -15.4809
  31   2.0000      -0.543600       -14.7921
  32   2.0000      -0.539506       -14.6807
  33   2.0000      -0.535322       -14.5668
  34   2.0000      -0.528617       -14.3844
  35   2.0000      -0.520422       -14.1614
  36   2.0000      -0.501659       -13.6508
  37   2.0000      -0.486572       -13.2403
  38   2.0000      -0.449251       -12.2247
  39   2.0000      -0.448332       -12.1997
  40   2.0000      -0.418408       -11.3855
  41   2.0000      -0.416835       -11.3427
  42   2.0000      -0.415840       -11.3156
  43   2.0000      -0.403206       -10.9718
  44   2.0000      -0.394842       -10.7442
  45   2.0000      -0.382940       -10.4203
  46   2.0000      -0.377202       -10.2642
  47   2.0000      -0.363643        -9.8952
  48   2.0000      -0.346049        -9.4165
  49   2.0000      -0.337318        -9.1789
  50   2.0000      -0.333623        -9.0783
  51   2.0000      -0.309868        -8.4319
  52   2.0000      -0.302235        -8.2242
  53   0.0000      -0.110314        -3.0018
  54   0.0000       0.001992         0.0542
  55   0.0000       0.004952         0.1348
  56   0.0000       0.017846         0.4856
  57   0.0000       0.042583         1.1587

MULLIKEN ATOMIC CHARGES
-----------------------
   0 C :   -0.195886
   1 C :   -0.224339
   2 C :   -0.211037
   3 C :   -0.221152
   4 C :   -0.395326
   5 C :   -0.190531
   6 H :    0.246620
   7 H :    0.230086
   8 H :    0.226808
   9 H :    0.252016
  10 H :    0.229994
  11 Pd:    0.613691
  12 O :   -0.440323
  13 O :   -0.477869
  14 O :   -0.500132
  15 C :    0.353804
  16 O :   -0.428630
  17 H :    0.319873
  18 C :    0.414581
  19 H :    0.211240
  20 H :    0.186511
Sum of atomic charges:   -0.0000000

LOEWDIN ATOMIC CHARGES
----------------------
   0 C :   -0.105004
   1 C :   -0.128546
   2 C :   -0.114089
   3 C :   -0.125037
   4 C :   -0.141664
   5 C :   -0.099340
   6 H :    0.154648
   7 H :    0.142015
   8 H :    0.139968
   9 H :    0.156512
  10 H :    0.142571
  11 Pd:   -0.062259
  12 O :   -0.145266
  13 O :   -0.145678
  14 O :   -0.156191
  15 C :    0.117373
  16 O :   -0.207220
  17 H :    0.174094
  18 C :    0.168880
  19 H :    0.124867
  20 H :    0.109365

  Mayer bond orders larger than 0.100000
B(  0-C ,  1-C ) :   1.4289 B(  0-C ,  4-C ) :   1.3725 B(  0-C ,  6-H ) :   0.9066
B(  1-C ,  2-C ) :   1.4176 B(  1-C ,  7-H ) :   0.9178 B(  2-C ,  3-C ) :   1.4210
B(  2-C ,  8-H ) :   0.9203 B(  3-C ,  5-C ) :   1.4254 B(  3-C , 10-H ) :   0.9175
B(  4-C ,  5-C ) :   1.3973 B(  4-C , 11-Pd) :   0.1017 B(  4-C , 17-H ) :   0.8331
B(  5-C ,  9-H ) :   0.9061 B( 11-Pd, 12-O ) :   0.5092 B( 11-Pd, 13-O ) :   0.5917
B( 11-Pd, 14-O ) :   0.6616 B( 11-Pd, 16-O ) :   0.2276 B( 12-O , 13-O ) :   0.1140
B( 12-O , 18-C ) :   1.5446 B( 13-O , 18-C ) :   1.4051 B( 14-O , 15-C ) :   1.3014
B( 14-O , 16-O ) :   0.1045 B( 15-C , 16-O ) :   1.7619 B( 15-C , 20-H ) :   0.8821
B( 18-C , 19-H ) :   0.8849

Dispersion correction           -0.013355486
FINAL SINGLE POINT ENERGY      -737.123067114095
Dispersion correction            ... done

DIPOLE MOMENT
-------------
                                X             Y             Z
Electronic contribution:     54.48316      42.38844       0.30704
Nuclear contribution   :    -54.75822     -43.22575      -0.78511
                        -----------------------------------------
Total Dipole Moment    :     -0.27505      -0.83732      -0.47807
                        -----------------------------------------
Magnitude (a.u.)       :      1.00265
Magnitude (Debye)      :      2.54853

Rotational constants in cm-1:     0.029436     0.017364     0.013247
Rotational constants in MHz :   882.475397   520.574237   397.148441

                             ****ORCA TERMINATED NORMALLY****
TOTAL RUN TIME: 0 days 0 hours 4 minutes 7 seconds 748 msec
