                         Program Version 5.0.3 -  RELEASE  -
|  1> ! EnGrad PBEh-3c
|  2> %output
|  3> xyzfile=True
|  4> end
|  5> %scf
|  6> maxiter 250
|  7> end
|  8> %output
|  9> Print[P_Hirshfeld] = 1
| 10> end
| 11> % maxcore
| 12> 4000
| 13> *xyz 0 1
| 14> C   -1.69915510   0.18692826  -0.34968650
| 15> C   -2.07321735  -0.82816208  -1.22171110
| 16> C   -1.63101925  -2.12853310  -0.95261016
| 17> C   -0.76115104  -2.41495176   0.10448655
| 18> C   -0.93170392  -0.10126758   0.78170134
| 19> C   -0.41871464  -1.38374784   0.96768584
| 20> H   -1.98575918   1.22313001  -0.52693360
| 21> H   -2.66538754  -0.58661394  -2.11070301
| 22> H   -1.95934308  -2.93187322  -1.58714127
| 23> H    0.25935475  -1.54630842   1.80286392
| 24> H   -0.33012184  -3.41030948   0.25543882
| 25> Pd   1.41696868   1.13357997   0.04489962
| 26> O    3.06336724   1.26874428  -1.33813721
| 27> O    2.59093445  -0.46658110  -0.14195245
| 28> O    0.41769396   2.80084321   0.07491966
| 29> C    0.08474956   2.94248874   1.30618961
| 30> O    0.48092250   2.17767531   2.17517720
| 31> H   -0.82107313   0.61618015   1.56617324
| 32> C    3.34816737   0.10806959  -0.97571457
| 33> H    4.20717823  -0.44514485  -1.38732753
| 34> H   -0.59010545   3.76935435   1.50667355
| 35> *
| 36>
| 37>                          ****END OF INPUT****

CARTESIAN COORDINATES (ANGSTROEM)
---------------------------------
  C     -1.699155    0.186928   -0.349687
  C     -2.073217   -0.828162   -1.221711
  C     -1.631019   -2.128533   -0.952610
  C     -0.761151   -2.414952    0.104487
  C     -0.931704   -0.101268    0.781701
  C     -0.418715   -1.383748    0.967686
  H     -1.985759    1.223130   -0.526934
  H     -2.665388   -0.586614   -2.110703
  H     -1.959343   -2.931873   -1.587141
  H      0.259355   -1.546308    1.802864
  H     -0.330122   -3.410309    0.255439
  Pd     1.416969    1.133580    0.044900
  O      3.063367    1.268744   -1.338137
  O      2.590934   -0.466581   -0.141952
  O      0.417694    2.800843    0.074920
  C      0.084750    2.942489    1.306190
  O      0.480922    2.177675    2.175177
  H     -0.821073    0.616180    1.566173
  C      3.348167    0.108070   -0.975715
  H      4.207178   -0.445145   -1.387328
  H     -0.590105    3.769354    1.506674

 Total Charge           Charge          ....    0
 Multiplicity           Mult            ....    1
 Number of Electrons    NEL             ....  106
 Basis Dimension        Dim             ....  227

ORBITAL ENERGIES
----------------

  NO   OCC          E(Eh)            E(eV)
   0   2.0000     -19.536399      -531.6124
   1   2.0000     -19.531468      -531.4783
   2   2.0000     -19.523512      -531.2618
   3   2.0000     -19.490968      -530.3762
   4   2.0000     -10.594936      -288.3029
   5   2.0000     -10.569878      -287.6210
   6   2.0000     -10.468570      -284.8643
   7   2.0000     -10.468468      -284.8615
   8   2.0000     -10.466338      -284.8035
   9   2.0000     -10.466075      -284.7964
  10   2.0000     -10.464838      -284.7627
  11   2.0000     -10.461076      -284.6603
  12   2.0000      -3.695307      -100.5544
  13   2.0000      -2.353212       -64.0342
  14   2.0000      -2.329275       -63.3828
  15   2.0000      -2.307681       -62.7952
  16   2.0000      -1.237814       -33.6826
  17   2.0000      -1.208277       -32.8789
  18   2.0000      -1.121350       -30.5135
  19   2.0000      -1.102286       -29.9947
  20   2.0000      -0.970350       -26.4046
  21   2.0000      -0.853122       -23.2146
  22   2.0000      -0.852111       -23.1871
  23   2.0000      -0.703590       -19.1457
  24   2.0000      -0.696763       -18.9599
  25   2.0000      -0.693379       -18.8678
  26   2.0000      -0.683964       -18.6116
  27   2.0000      -0.607800       -16.5391
  28   2.0000      -0.596878       -16.2419
  29   2.0000      -0.576043       -15.6749
  30   2.0000      -0.568108       -15.4590
  31   2.0000      -0.543651       -14.7935
  32   2.0000      -0.538260       -14.6468
  33   2.0000      -0.534004       -14.5310
  34   2.0000      -0.526229       -14.3194
  35   2.0000      -0.518414       -14.1068
  36   2.0000      -0.498243       -13.5579
  37   2.0000      -0.487098       -13.2546
  38   2.0000      -0.447715       -12.1829
  39   2.0000      -0.447184       -12.1685
  40   2.0000      -0.418789       -11.3958
  41   2.0000      -0.414897       -11.2899
  42   2.0000      -0.412967       -11.2374
  43   2.0000      -0.404424       -11.0049
  44   2.0000      -0.394629       -10.7384
  45   2.0000      -0.382568       -10.4102
  46   2.0000      -0.375917       -10.2292
  47   2.0000      -0.362150        -9.8546
  48   2.0000      -0.345343        -9.3973
  49   2.0000      -0.336586        -9.1590
  50   2.0000      -0.332756        -9.0548
  51   2.0000      -0.308870        -8.4048
  52   2.0000      -0.302015        -8.2182
  53   0.0000      -0.110046        -2.9945
  54   0.0000      -0.001742        -0.0474
  55   0.0000       0.002952         0.0803
  56   0.0000       0.019203         0.5225
  57   0.0000       0.041895         1.1400

MULLIKEN ATOMIC CHARGES
-----------------------
   0 C :   -0.201041
   1 C :   -0.217414
   2 C :   -0.222857
   3 C :   -0.214690
   4 C :   -0.393065
   5 C :   -0.196632
   6 H :    0.245130
   7 H :    0.231125
   8 H :    0.228867
   9 H :    0.251038
  10 H :    0.230939
  11 Pd:    0.612517
  12 O :   -0.439384
  13 O :   -0.475328
  14 O :   -0.497581
  15 C :    0.354522
  16 O :   -0.438355
  17 H :    0.330578
  18 C :    0.412269
  19 H :    0.210169
  20 H :    0.189192
Sum of atomic charges:    0.0000000

LOEWDIN ATOMIC CHARGES
----------------------
   0 C :   -0.098936
   1 C :   -0.132671
   2 C :   -0.109379
   3 C :   -0.129053
   4 C :   -0.145585
   5 C :   -0.093687
   6 H :    0.152851
   7 H :    0.144323
   8 H :    0.139533
   9 H :    0.155002
  10 H :    0.144722
  11 Pd:   -0.067351
  12 O :   -0.145426
  13 O :   -0.143419
  14 O :   -0.154466
  15 C :    0.120235
  16 O :   -0.218935
  17 H :    0.181169
  18 C :    0.166048
  19 H :    0.124652
  20 H :    0.110374

  Mayer bond orders larger than 0.100000
B(  0-C ,  1-C ) :   1.4312 B(  0-C ,  4-C ) :   1.3614 B(  0-C ,  6-H ) :   0.9073
B(  1-C ,  2-C ) :   1.4101 B(  1-C ,  7-H ) :   0.9174 B(  2-C ,  3-C ) :   1.4139
B(  2-C ,  8-H ) :   0.9182 B(  3-C ,  5-C ) :   1.4280 B(  3-C , 10-H ) :   0.9172
B(  4-C ,  5-C ) :   1.3876 B(  4-C , 11-Pd) :   0.1134 B(  4-C , 17-H ) :   0.8259
B(  5-C ,  9-H ) :   0.9063 B( 11-Pd, 12-O ) :   0.5090 B( 11-Pd, 13-O ) :   0.5909
B( 11-Pd, 14-O ) :   0.6572 B( 11-Pd, 16-O ) :   0.2226 B( 12-O , 13-O ) :   0.1136
B( 12-O , 18-C ) :   1.5439 B( 13-O , 18-C ) :   1.4074 B( 14-O , 15-C ) :   1.3097
B( 14-O , 16-O ) :   0.1048 B( 15-C , 16-O ) :   1.7531 B( 15-C , 20-H ) :   0.8827
B( 18-C , 19-H ) :   0.8840

Dispersion correction           -0.013361485
FINAL SINGLE POINT ENERGY      -737.125792080057
Dispersion correction            ... done

DIPOLE MOMENT
-------------
                                X             Y             Z
Electronic contribution:     53.89064      41.79112       0.23678
Nuclear contribution   :    -54.22286     -42.66912      -0.73550
                        -----------------------------------------
Total Dipole Moment    :     -0.33222      -0.87800      -0.49872
                        -----------------------------------------
Magnitude (a.u.)       :      1.06300
Magnitude (Debye)      :      2.70193

Rotational constants in cm-1:     0.029342     0.017470     0.013292
Rotational constants in MHz :   879.664854   523.728409   398.494960

                             ****ORCA TERMINATED NORMALLY****
TOTAL RUN TIME: 0 days 0 hours 4 minutes 23 seconds 452 msec
