                         Program Version 5.0.3 -  RELEASE  -
|  1> ! EnGrad PBEh-3c
|  2> %output
|  3> xyzfile=True
|  4> end
|  5> %scf
|  6> maxiter 250
|  7> end
|  8> %output
|  9> Print[P_Hirshfeld] = 1
| 10> end
| 11> % maxcore
| 12> 4000
| 13> *xyz 0 1
| 14> C   -1.67416665   0.19046467  -0.35009797
| 15> C   -2.07389198  -0.82032309  -1.23186809
| 16> C   -1.62743351  -2.13327673  -0.96055632
| 17> C   -0.75367651  -2.42208076   0.11030785
| 18> C   -0.90377740  -0.06005807   0.80700665
| 19> C   -0.40702654  -1.36859182   0.96114511
| 20> H   -1.99532703   1.20517535  -0.53104404
| 21> H   -2.68882676  -0.60053589  -2.13756121
| 22> H   -1.96514162  -2.95053424  -1.60776757
| 23> H    0.24827662  -1.55817264   1.79641397
| 24> H   -0.33561468  -3.44721405   0.24524677
| 25> Pd   1.40116927   1.11838752   0.04265433
| 26> O    3.05709726   1.26725148  -1.32741908
| 27> O    2.58945671  -0.47589495  -0.14452689
| 28> O    0.40978721   2.80282003   0.07348849
| 29> C    0.08814938   2.94364461   1.30934299
| 30> O    0.47368833   2.18951739   2.17855047
| 31> H   -0.81591572   0.65660381   1.61405296
| 32> C    3.35129610   0.10656227  -0.97280933
| 33> H    4.21195357  -0.44276683  -1.39337993
| 34> H   -0.58987793   3.77944395   1.51159436
| 35> *
| 36>
| 37>                          ****END OF INPUT****

CARTESIAN COORDINATES (ANGSTROEM)
---------------------------------
  C     -1.674167    0.190465   -0.350098
  C     -2.073892   -0.820323   -1.231868
  C     -1.627434   -2.133277   -0.960556
  C     -0.753677   -2.422081    0.110308
  C     -0.903777   -0.060058    0.807007
  C     -0.407027   -1.368592    0.961145
  H     -1.995327    1.205175   -0.531044
  H     -2.688827   -0.600536   -2.137561
  H     -1.965142   -2.950534   -1.607768
  H      0.248277   -1.558173    1.796414
  H     -0.335615   -3.447214    0.245247
  Pd     1.401169    1.118388    0.042654
  O      3.057097    1.267251   -1.327419
  O      2.589457   -0.475895   -0.144527
  O      0.409787    2.802820    0.073488
  C      0.088149    2.943645    1.309343
  O      0.473688    2.189517    2.178550
  H     -0.815916    0.656604    1.614053
  C      3.351296    0.106562   -0.972809
  H      4.211954   -0.442767   -1.393380
  H     -0.589878    3.779444    1.511594

 Total Charge           Charge          ....    0
 Multiplicity           Mult            ....    1
 Number of Electrons    NEL             ....  106
 Basis Dimension        Dim             ....  227

ORBITAL ENERGIES
----------------

  NO   OCC          E(Eh)            E(eV)
   0   2.0000     -19.534971      -531.5736
   1   2.0000     -19.530322      -531.4471
   2   2.0000     -19.520651      -531.1839
   3   2.0000     -19.488712      -530.3148
   4   2.0000     -10.594419      -288.2888
   5   2.0000     -10.567227      -287.5489
   6   2.0000     -10.476129      -285.0700
   7   2.0000     -10.473521      -284.9990
   8   2.0000     -10.472816      -284.9798
   9   2.0000     -10.471813      -284.9525
  10   2.0000     -10.471190      -284.9356
  11   2.0000     -10.469271      -284.8833
  12   2.0000      -3.693640      -100.5091
  13   2.0000      -2.351118       -63.9772
  14   2.0000      -2.327806       -63.3428
  15   2.0000      -2.306000       -62.7494
  16   2.0000      -1.235827       -33.6286
  17   2.0000      -1.207576       -32.8598
  18   2.0000      -1.118988       -30.4492
  19   2.0000      -1.102920       -30.0120
  20   2.0000      -0.965944       -26.2847
  21   2.0000      -0.851274       -23.1643
  22   2.0000      -0.850304       -23.1380
  23   2.0000      -0.701744       -19.0954
  24   2.0000      -0.696070       -18.9410
  25   2.0000      -0.692334       -18.8394
  26   2.0000      -0.678782       -18.4706
  27   2.0000      -0.604783       -16.4570
  28   2.0000      -0.594846       -16.1866
  29   2.0000      -0.573401       -15.6030
  30   2.0000      -0.566448       -15.4138
  31   2.0000      -0.545848       -14.8533
  32   2.0000      -0.536375       -14.5955
  33   2.0000      -0.532756       -14.4970
  34   2.0000      -0.524905       -14.2834
  35   2.0000      -0.517691       -14.0871
  36   2.0000      -0.495554       -13.4847
  37   2.0000      -0.487283       -13.2596
  38   2.0000      -0.445927       -12.1343
  39   2.0000      -0.445393       -12.1198
  40   2.0000      -0.420020       -11.4293
  41   2.0000      -0.413675       -11.2567
  42   2.0000      -0.409921       -11.1545
  43   2.0000      -0.404739       -11.0135
  44   2.0000      -0.393812       -10.7162
  45   2.0000      -0.379480       -10.3262
  46   2.0000      -0.374442       -10.1891
  47   2.0000      -0.360658        -9.8140
  48   2.0000      -0.344723        -9.3804
  49   2.0000      -0.335755        -9.1363
  50   2.0000      -0.331711        -9.0263
  51   2.0000      -0.308351        -8.3906
  52   2.0000      -0.301908        -8.2153
  53   0.0000      -0.109476        -2.9790
  54   0.0000      -0.007100        -0.1932
  55   0.0000      -0.000191        -0.0052
  56   0.0000       0.019613         0.5337
  57   0.0000       0.045988         1.2514

MULLIKEN ATOMIC CHARGES
-----------------------
   0 C :   -0.199383
   1 C :   -0.212962
   2 C :   -0.226222
   3 C :   -0.210445
   4 C :   -0.405547
   5 C :   -0.196405
   6 H :    0.246702
   7 H :    0.233234
   8 H :    0.230506
   9 H :    0.251901
  10 H :    0.232735
  11 Pd:    0.606426
  12 O :   -0.438321
  13 O :   -0.476723
  14 O :   -0.497324
  15 C :    0.350745
  16 O :   -0.433080
  17 H :    0.338598
  18 C :    0.411263
  19 H :    0.210656
  20 H :    0.183645
Sum of atomic charges:    0.0000000

LOEWDIN ATOMIC CHARGES
----------------------
   0 C :   -0.090978
   1 C :   -0.137057
   2 C :   -0.104126
   3 C :   -0.133386
   4 C :   -0.147601
   5 C :   -0.086472
   6 H :    0.151924
   7 H :    0.147151
   8 H :    0.139591
   9 H :    0.153776
  10 H :    0.147365
  11 Pd:   -0.077983
  12 O :   -0.145339
  13 O :   -0.146101
  14 O :   -0.157977
  15 C :    0.113000
  16 O :   -0.214742
  17 H :    0.189732
  18 C :    0.166822
  19 H :    0.125100
  20 H :    0.107303

  Mayer bond orders larger than 0.100000
B(  0-C ,  1-C ) :   1.4344 B(  0-C ,  4-C ) :   1.3426 B(  0-C ,  6-H ) :   0.9069
B(  1-C ,  2-C ) :   1.4017 B(  1-C ,  7-H ) :   0.9162 B(  2-C ,  3-C ) :   1.4065
B(  2-C ,  8-H ) :   0.9162 B(  3-C ,  5-C ) :   1.4313 B(  3-C , 10-H ) :   0.9163
B(  4-C ,  5-C ) :   1.3700 B(  4-C , 11-Pd) :   0.1324 B(  4-C , 17-H ) :   0.8218
B(  5-C ,  9-H ) :   0.9059 B( 11-Pd, 12-O ) :   0.5069 B( 11-Pd, 13-O ) :   0.5901
B( 11-Pd, 14-O ) :   0.6581 B( 11-Pd, 16-O ) :   0.2063 B( 12-O , 13-O ) :   0.1136
B( 12-O , 18-C ) :   1.5451 B( 13-O , 18-C ) :   1.4050 B( 14-O , 15-C ) :   1.3064
B( 14-O , 16-O ) :   0.1044 B( 15-C , 16-O ) :   1.7685 B( 15-C , 20-H ) :   0.8820
B( 18-C , 19-H ) :   0.8832

Dispersion correction           -0.013354770
FINAL SINGLE POINT ENERGY      -737.121629209384
Dispersion correction            ... done

DIPOLE MOMENT
-------------
                                X             Y             Z
Electronic contribution:     53.06323      40.91862       0.08501
Nuclear contribution   :    -53.45490     -41.90674      -0.59640
                        -----------------------------------------
Total Dipole Moment    :     -0.39167      -0.98812      -0.51139
                        -----------------------------------------
Magnitude (a.u.)       :      1.17954
Magnitude (Debye)      :      2.99815

Rotational constants in cm-1:     0.029216     0.017608     0.013354
Rotational constants in MHz :   875.869150   527.879225   400.349612

                             ****ORCA TERMINATED NORMALLY****
TOTAL RUN TIME: 0 days 0 hours 4 minutes 6 seconds 772 msec
