                         Program Version 5.0.3 -  RELEASE  -
|  1> ! EnGrad PBEh-3c
|  2> %output
|  3> xyzfile=True
|  4> end
|  5> %scf
|  6> maxiter 250
|  7> end
|  8> %output
|  9> Print[P_Hirshfeld] = 1
| 10> end
| 11> % maxcore
| 12> 4000
| 13> *xyz 0 1
| 14> C   -1.69233481   0.18789348  -0.34979880
| 15> C   -2.07340148  -0.82602252  -1.22448332
| 16> C   -1.63004056  -2.12982781  -0.95477897
| 17> C   -0.75911096  -2.41689754   0.10607540
| 18> C   -0.92408172  -0.09001995   0.78860811
| 19> C   -0.41552452  -1.37961119   0.96590063
| 20> H   -1.98837061   1.21822950  -0.52805550
| 21> H   -2.67178499  -0.59041377  -2.11803363
| 22> H   -1.96092572  -2.93696651  -1.59277097
| 23> H    0.25633111  -1.54954661   1.80110348
| 24> H   -0.33162104  -3.42038213   0.25265703
| 25> Pd   1.41265642   1.12943338   0.04428679
| 26> O    3.06165593   1.26833684  -1.33521183
| 27> O    2.59053112  -0.46912320  -0.14265511
| 28> O    0.41553591   2.80138276   0.07452904
| 29> C    0.08567750   2.94280422   1.30705028
| 30> O    0.47894802   2.18090746   2.17609789
| 31> H   -0.81966548   0.62721329   1.57924142
| 32> C    3.34902132   0.10765819  -0.97492162
| 33> H    4.20848160  -0.44449580  -1.38897946
| 34> H   -0.59004335   3.77210818   1.50801662
| 35> *
| 36>
| 37>                          ****END OF INPUT****

CARTESIAN COORDINATES (ANGSTROEM)
---------------------------------
  C     -1.692335    0.187893   -0.349799
  C     -2.073401   -0.826023   -1.224483
  C     -1.630041   -2.129828   -0.954779
  C     -0.759111   -2.416898    0.106075
  C     -0.924082   -0.090020    0.788608
  C     -0.415525   -1.379611    0.965901
  H     -1.988371    1.218230   -0.528056
  H     -2.671785   -0.590414   -2.118034
  H     -1.960926   -2.936967   -1.592771
  H      0.256331   -1.549547    1.801103
  H     -0.331621   -3.420382    0.252657
  Pd     1.412656    1.129433    0.044287
  O      3.061656    1.268337   -1.335212
  O      2.590531   -0.469123   -0.142655
  O      0.415536    2.801383    0.074529
  C      0.085678    2.942804    1.307050
  O      0.478948    2.180907    2.176098
  H     -0.819665    0.627213    1.579241
  C      3.349021    0.107658   -0.974922
  H      4.208482   -0.444496   -1.388979
  H     -0.590043    3.772108    1.508017

 Total Charge           Charge          ....    0
 Multiplicity           Mult            ....    1
 Number of Electrons    NEL             ....  106
 Basis Dimension        Dim             ....  227

ORBITAL ENERGIES
----------------

  NO   OCC          E(Eh)            E(eV)
   0   2.0000     -19.536021      -531.6022
   1   2.0000     -19.531167      -531.4701
   2   2.0000     -19.522728      -531.2404
   3   2.0000     -19.490339      -530.3591
   4   2.0000     -10.594802      -288.2992
   5   2.0000     -10.569143      -287.6010
   6   2.0000     -10.470628      -284.9203
   7   2.0000     -10.469797      -284.8977
   8   2.0000     -10.467922      -284.8466
   9   2.0000     -10.467705      -284.8407
  10   2.0000     -10.466640      -284.8118
  11   2.0000     -10.463289      -284.7206
  12   2.0000      -3.694862      -100.5423
  13   2.0000      -2.352654       -64.0190
  14   2.0000      -2.328877       -63.3720
  15   2.0000      -2.307235       -62.7831
  16   2.0000      -1.237287       -33.6683
  17   2.0000      -1.208052       -32.8728
  18   2.0000      -1.120722       -30.4964
  19   2.0000      -1.102481       -30.0000
  20   2.0000      -0.969123       -26.3712
  21   2.0000      -0.852409       -23.1952
  22   2.0000      -0.851808       -23.1789
  23   2.0000      -0.703074       -19.1316
  24   2.0000      -0.696536       -18.9537
  25   2.0000      -0.693119       -18.8607
  26   2.0000      -0.682561       -18.5734
  27   2.0000      -0.606966       -16.5164
  28   2.0000      -0.596333       -16.2270
  29   2.0000      -0.575311       -15.6550
  30   2.0000      -0.567663       -15.4469
  31   2.0000      -0.544262       -14.8101
  32   2.0000      -0.537750       -14.6329
  33   2.0000      -0.533677       -14.5221
  34   2.0000      -0.525819       -14.3083
  35   2.0000      -0.518191       -14.1007
  36   2.0000      -0.497605       -13.5405
  37   2.0000      -0.487181       -13.2569
  38   2.0000      -0.447161       -12.1679
  39   2.0000      -0.446771       -12.1572
  40   2.0000      -0.419091       -11.4041
  41   2.0000      -0.414580       -11.2813
  42   2.0000      -0.412204       -11.2166
  43   2.0000      -0.404608       -11.0099
  44   2.0000      -0.394479       -10.7343
  45   2.0000      -0.381732       -10.3874
  46   2.0000      -0.375527       -10.2186
  47   2.0000      -0.361752        -9.8438
  48   2.0000      -0.345185        -9.3930
  49   2.0000      -0.336365        -9.1529
  50   2.0000      -0.332471        -9.0470
  51   2.0000      -0.308723        -8.4008
  52   2.0000      -0.301998        -8.2178
  53   0.0000      -0.109890        -2.9903
  54   0.0000      -0.003196        -0.0870
  55   0.0000       0.002100         0.0572
  56   0.0000       0.019319         0.5257
  57   0.0000       0.043022         1.1707

MULLIKEN ATOMIC CHARGES
-----------------------
   0 C :   -0.201057
   1 C :   -0.215773
   2 C :   -0.224328
   3 C :   -0.213161
   4 C :   -0.396211
   5 C :   -0.196972
   6 H :    0.245584
   7 H :    0.231645
   8 H :    0.229366
   9 H :    0.251290
  10 H :    0.231383
  11 Pd:    0.610937
  12 O :   -0.439081
  13 O :   -0.475702
  14 O :   -0.497519
  15 C :    0.353470
  16 O :   -0.436932
  17 H :    0.333055
  18 C :    0.411998
  19 H :    0.210308
  20 H :    0.187700
Sum of atomic charges:    0.0000000

LOEWDIN ATOMIC CHARGES
----------------------
   0 C :   -0.096790
   1 C :   -0.133843
   2 C :   -0.107932
   3 C :   -0.130208
   4 C :   -0.146191
   5 C :   -0.091742
   6 H :    0.152585
   7 H :    0.145059
   8 H :    0.139554
   9 H :    0.154656
  10 H :    0.145404
  11 Pd:   -0.070099
  12 O :   -0.145379
  13 O :   -0.144135
  14 O :   -0.155427
  15 C :    0.118240
  16 O :   -0.217805
  17 H :    0.183465
  18 C :    0.166256
  19 H :    0.124775
  20 H :    0.109555

  Mayer bond orders larger than 0.100000
B(  0-C ,  1-C ) :   1.4321 B(  0-C ,  4-C ) :   1.3566 B(  0-C ,  6-H ) :   0.9072
B(  1-C ,  2-C ) :   1.4078 B(  1-C ,  7-H ) :   0.9171 B(  2-C ,  3-C ) :   1.4118
B(  2-C ,  8-H ) :   0.9176 B(  3-C ,  5-C ) :   1.4289 B(  3-C , 10-H ) :   0.9170
B(  4-C ,  5-C ) :   1.3831 B(  4-C , 11-Pd) :   0.1184 B(  4-C , 17-H ) :   0.8246
B(  5-C ,  9-H ) :   0.9062 B( 11-Pd, 12-O ) :   0.5085 B( 11-Pd, 13-O ) :   0.5907
B( 11-Pd, 14-O ) :   0.6575 B( 11-Pd, 16-O ) :   0.2181 B( 12-O , 13-O ) :   0.1136
B( 12-O , 18-C ) :   1.5442 B( 13-O , 18-C ) :   1.4067 B( 14-O , 15-C ) :   1.3087
B( 14-O , 16-O ) :   0.1047 B( 15-C , 16-O ) :   1.7574 B( 15-C , 20-H ) :   0.8825
B( 18-C , 19-H ) :   0.8838

Dispersion correction           -0.013361189
FINAL SINGLE POINT ENERGY      -737.125453009238
Dispersion correction            ... done

DIPOLE MOMENT
-------------
                                X             Y             Z
Electronic contribution:     53.66514      41.55306       0.19515
Nuclear contribution   :    -54.01325     -42.46103      -0.69754
                        -----------------------------------------
Total Dipole Moment    :     -0.34812      -0.90798      -0.50239
                        -----------------------------------------
Magnitude (a.u.)       :      1.09453
Magnitude (Debye)      :      2.78208

Rotational constants in cm-1:     0.029308     0.017508     0.013309
Rotational constants in MHz :   878.628158   524.867453   399.006185

                             ****ORCA TERMINATED NORMALLY****
TOTAL RUN TIME: 0 days 0 hours 4 minutes 19 seconds 56 msec
