                         Program Version 5.0.3 -  RELEASE  -
|  1> ! EnGrad PBEh-3c
|  2> %output
|  3> xyzfile=True
|  4> end
|  5> %scf
|  6> maxiter 250
|  7> end
|  8> %output
|  9> Print[P_Hirshfeld] = 1
| 10> end
| 11> % maxcore
| 12> 4000
| 13> *xyz 0 1
| 14> C   -1.73289471   0.19696916  -0.32024621
| 15> C   -1.81715833  -0.78476933  -1.31424007
| 16> C   -1.28581631  -2.03603031  -1.13182384
| 17> C   -0.55007179  -2.31549181   0.00592112
| 18> C   -1.11192990  -0.09678982   0.96796475
| 19> C   -0.41888401  -1.36677655   1.03264864
| 20> H   -2.21247233   1.12864930  -0.49882901
| 21> H   -2.40092203  -0.56358625  -2.20576216
| 22> H   -1.46483149  -2.80381441  -1.85230607
| 23> H    0.16708104  -1.62059718   1.89190727
| 24> H   -0.12467251  -3.29387381   0.14865148
| 25> Pd   1.39875438   1.17707659   0.05691482
| 26> O    2.81471319   1.00776144  -1.55462916
| 27> O    2.59993304  -0.47495990   0.00376696
| 28> O    0.36434099   2.88783181  -0.07229231
| 29> C    0.13587443   2.92031140   1.36192391
| 30> O    0.56735654   2.21343732   1.99558370
| 31> H   -1.48501430   0.82924541   2.48051802
| 32> C    3.19142700  -0.09435645  -1.05846500
| 33> H    3.94823766  -0.70451216  -1.53173391
| 34> H   -0.58070531   3.79071623   1.59372198
| 35> *
| 36>
| 37>                          ****END OF INPUT****

CARTESIAN COORDINATES (ANGSTROEM)
---------------------------------
  C     -1.732895    0.196969   -0.320246
  C     -1.817158   -0.784769   -1.314240
  C     -1.285816   -2.036030   -1.131824
  C     -0.550072   -2.315492    0.005921
  C     -1.111930   -0.096790    0.967965
  C     -0.418884   -1.366777    1.032649
  H     -2.212472    1.128649   -0.498829
  H     -2.400922   -0.563586   -2.205762
  H     -1.464831   -2.803814   -1.852306
  H      0.167081   -1.620597    1.891907
  H     -0.124673   -3.293874    0.148651
  Pd     1.398754    1.177077    0.056915
  O      2.814713    1.007761   -1.554629
  O      2.599933   -0.474960    0.003767
  O      0.364341    2.887832   -0.072292
  C      0.135874    2.920311    1.361924
  O      0.567357    2.213437    1.995584
  H     -1.485014    0.829245    2.480518
  C      3.191427   -0.094356   -1.058465
  H      3.948238   -0.704512   -1.531734
  H     -0.580705    3.790716    1.593722

 Total Charge           Charge          ....    0
 Multiplicity           Mult            ....    1
 Number of Electrons    NEL             ....  106
 Basis Dimension        Dim             ....  227

ORBITAL ENERGIES
----------------

  NO   OCC          E(Eh)            E(eV)
   0   2.0000     -19.539365      -531.6931
   1   2.0000     -19.522965      -531.2469
   2   2.0000     -19.520053      -531.1677
   3   2.0000     -19.491120      -530.3804
   4   2.0000     -10.585769      -288.0534
   5   2.0000     -10.576164      -287.7921
   6   2.0000     -10.526695      -286.4459
   7   2.0000     -10.476566      -285.0818
   8   2.0000     -10.476312      -285.0749
   9   2.0000     -10.464725      -284.7596
  10   2.0000     -10.464443      -284.7520
  11   2.0000     -10.460755      -284.6516
  12   2.0000      -3.681200      -100.1705
  13   2.0000      -2.336330       -63.5748
  14   2.0000      -2.317113       -63.0519
  15   2.0000      -2.293917       -62.4207
  16   2.0000      -1.316516       -35.8242
  17   2.0000      -1.216790       -33.1105
  18   2.0000      -1.099993       -29.9323
  19   2.0000      -1.052280       -28.6340
  20   2.0000      -0.963695       -26.2235
  21   2.0000      -0.850323       -23.1385
  22   2.0000      -0.841691       -22.9036
  23   2.0000      -0.697523       -18.9806
  24   2.0000      -0.691391       -18.8137
  25   2.0000      -0.683061       -18.5870
  26   2.0000      -0.671930       -18.2841
  27   2.0000      -0.602457       -16.3937
  28   2.0000      -0.596553       -16.2330
  29   2.0000      -0.580759       -15.8032
  30   2.0000      -0.568893       -15.4804
  31   2.0000      -0.566749       -15.4220
  32   2.0000      -0.548067       -14.9137
  33   2.0000      -0.528516       -14.3816
  34   2.0000      -0.520558       -14.1651
  35   2.0000      -0.518520       -14.1097
  36   2.0000      -0.494315       -13.4510
  37   2.0000      -0.460610       -12.5338
  38   2.0000      -0.438853       -11.9418
  39   2.0000      -0.438059       -11.9202
  40   2.0000      -0.411788       -11.2053
  41   2.0000      -0.406525       -11.0621
  42   2.0000      -0.401646       -10.9294
  43   2.0000      -0.387752       -10.5513
  44   2.0000      -0.365667        -9.9503
  45   2.0000      -0.362542        -9.8653
  46   2.0000      -0.360174        -9.8008
  47   2.0000      -0.356120        -9.6905
  48   2.0000      -0.338843        -9.2204
  49   2.0000      -0.324373        -8.8266
  50   2.0000      -0.317016        -8.6265
  51   2.0000      -0.305218        -8.3054
  52   2.0000      -0.296886        -8.0787
  53   0.0000      -0.098213        -2.6725
  54   0.0000      -0.044704        -1.2164
  55   0.0000      -0.000086        -0.0023
  56   0.0000       0.003297         0.0897
  57   0.0000       0.023553         0.6409

MULLIKEN ATOMIC CHARGES
-----------------------
   0 C :   -0.231490
   1 C :   -0.207286
   2 C :   -0.213880
   3 C :   -0.202978
   4 C :   -0.193482
   5 C :   -0.240449
   6 H :    0.256018
   7 H :    0.235102
   8 H :    0.233796
   9 H :    0.254936
  10 H :    0.234283
  11 Pd:    0.540976
  12 O :   -0.451785
  13 O :   -0.484095
  14 O :   -0.561425
  15 C :    0.312671
  16 O :   -0.211606
  17 H :    0.133116
  18 C :    0.413137
  19 H :    0.212355
  20 H :    0.172088
Sum of atomic charges:    0.0000000

LOEWDIN ATOMIC CHARGES
----------------------
   0 C :   -0.108812
   1 C :   -0.128049
   2 C :   -0.122947
   3 C :   -0.124595
   4 C :   -0.076106
   5 C :   -0.113001
   6 H :    0.155473
   7 H :    0.145758
   8 H :    0.141771
   9 H :    0.154921
  10 H :    0.145120
  11 Pd:   -0.135500
  12 O :   -0.159605
  13 O :   -0.166087
  14 O :   -0.274258
  15 C :    0.091139
  16 O :    0.040502
  17 H :    0.131355
  18 C :    0.174739
  19 H :    0.125112
  20 H :    0.103068

  Mayer bond orders larger than 0.100000
B(  0-C ,  1-C ) :   1.4267 B(  0-C ,  4-C ) :   1.3696 B(  0-C ,  6-H ) :   0.9060
B(  1-C ,  2-C ) :   1.4207 B(  1-C ,  7-H ) :   0.9125 B(  2-C ,  3-C ) :   1.4244
B(  2-C ,  8-H ) :   0.9142 B(  3-C ,  5-C ) :   1.4232 B(  3-C , 10-H ) :   0.9131
B(  4-C ,  5-C ) :   1.3920 B(  4-C , 17-H ) :   0.8833 B(  5-C ,  9-H ) :   0.9056
B( 11-Pd, 12-O ) :   0.5237 B( 11-Pd, 13-O ) :   0.5481 B( 11-Pd, 14-O ) :   0.7955
B( 11-Pd, 16-O ) :   0.2281 B( 12-O , 13-O ) :   0.1136 B( 12-O , 18-C ) :   1.5189
B( 13-O , 18-C ) :   1.4295 B( 14-O , 15-C ) :   1.0787 B( 15-C , 16-O ) :   2.0199
B( 15-C , 20-H ) :   0.8670 B( 18-C , 19-H ) :   0.8845

Dispersion correction           -0.013676392
FINAL SINGLE POINT ENERGY      -736.911810415251
Dispersion correction            ... done

DIPOLE MOMENT
-------------
                                X             Y             Z
Electronic contribution:     52.72832      43.91232       2.61852
Nuclear contribution   :    -53.18100     -44.87729      -2.34420
                        -----------------------------------------
Total Dipole Moment    :     -0.45268      -0.96497       0.27432
                        -----------------------------------------
Magnitude (a.u.)       :      1.10061
Magnitude (Debye)      :      2.79753

Rotational constants in cm-1:     0.027875     0.018753     0.013996
Rotational constants in MHz :   835.682299   562.187972   419.575733

                             ****ORCA TERMINATED NORMALLY****
TOTAL RUN TIME: 0 days 0 hours 4 minutes 42 seconds 89 msec
