                         Program Version 5.0.3 -  RELEASE  -
|  1> ! EnGrad PBEh-3c
|  2> %output
|  3> xyzfile=True
|  4> end
|  5> %scf
|  6> maxiter 250
|  7> end
|  8> %output
|  9> Print[P_Hirshfeld] = 1
| 10> end
| 11> % maxcore
| 12> 4000
| 13> *xyz 0 1
| 14> C   -1.72743620   0.19229741  -0.31200247
| 15> C   -1.80807230  -0.77047359  -1.31644858
| 16> C   -1.27145914  -2.02585880  -1.12992929
| 17> C   -0.53946146  -2.30498980   0.01041058
| 18> C   -1.11206080  -0.13661420   0.92275070
| 19> C   -0.42341328  -1.36399964   1.03371519
| 20> H   -2.22724202   1.12353504  -0.49877128
| 21> H   -2.38906315  -0.56212306  -2.20807361
| 22> H   -1.44076213  -2.79519193  -1.86340858
| 23> H    0.16227237  -1.62608445   1.89832935
| 24> H   -0.11491917  -3.28791667   0.14516967
| 25> Pd   1.40227524   1.16735336   0.01942699
| 26> O    2.80663616   0.99914726  -1.54971971
| 27> O    2.61936337  -0.47857971   0.01338402
| 28> O    0.35459420   2.89031198  -0.02322720
| 29> C    0.11906340   2.96628178   1.29275483
| 30> O    0.58655100   2.18940080   2.02314062
| 31> H   -1.51451244   0.85685451   2.54176253
| 32> C    3.15767335  -0.10934062  -1.06921544
| 33> H    3.93876970  -0.71255144  -1.53034645
| 34> H   -0.57768916   3.78685876   1.59992276
| 35> *
| 36>
| 37>                          ****END OF INPUT****

CARTESIAN COORDINATES (ANGSTROEM)
---------------------------------
  C     -1.727436    0.192297   -0.312002
  C     -1.808072   -0.770474   -1.316449
  C     -1.271459   -2.025859   -1.129929
  C     -0.539461   -2.304990    0.010411
  C     -1.112061   -0.136614    0.922751
  C     -0.423413   -1.364000    1.033715
  H     -2.227242    1.123535   -0.498771
  H     -2.389063   -0.562123   -2.208074
  H     -1.440762   -2.795192   -1.863409
  H      0.162272   -1.626084    1.898329
  H     -0.114919   -3.287917    0.145170
  Pd     1.402275    1.167353    0.019427
  O      2.806636    0.999147   -1.549720
  O      2.619363   -0.478580    0.013384
  O      0.354594    2.890312   -0.023227
  C      0.119063    2.966282    1.292755
  O      0.586551    2.189401    2.023141
  H     -1.514512    0.856855    2.541763
  C      3.157673   -0.109341   -1.069215
  H      3.938770   -0.712551   -1.530346
  H     -0.577689    3.786859    1.599923

 Total Charge           Charge          ....    0
 Multiplicity           Mult            ....    1
 Number of Electrons    NEL             ....  106
 Basis Dimension        Dim             ....  227

ORBITAL ENERGIES
----------------

  NO   OCC          E(Eh)            E(eV)
   0   2.0000     -19.534623      -531.5641
   1   2.0000     -19.531517      -531.4796
   2   2.0000     -19.510622      -530.9110
   3   2.0000     -19.510009      -530.8943
   4   2.0000     -10.593737      -288.2702
   5   2.0000     -10.572329      -287.6877
   6   2.0000     -10.519998      -286.2637
   7   2.0000     -10.473065      -284.9866
   8   2.0000     -10.471957      -284.9564
   9   2.0000     -10.464515      -284.7539
  10   2.0000     -10.464151      -284.7440
  11   2.0000     -10.460601      -284.6474
  12   2.0000      -3.691468      -100.4500
  13   2.0000      -2.346551       -63.8529
  14   2.0000      -2.328216       -63.3540
  15   2.0000      -2.301964       -62.6396
  16   2.0000      -1.233870       -33.5753
  17   2.0000      -1.227945       -33.4141
  18   2.0000      -1.116273       -30.3753
  19   2.0000      -1.091417       -29.6990
  20   2.0000      -0.970446       -26.4072
  21   2.0000      -0.854448       -23.2507
  22   2.0000      -0.844723       -22.9861
  23   2.0000      -0.703143       -19.1335
  24   2.0000      -0.693502       -18.8711
  25   2.0000      -0.683751       -18.6058
  26   2.0000      -0.672804       -18.3079
  27   2.0000      -0.596180       -16.2229
  28   2.0000      -0.592418       -16.1205
  29   2.0000      -0.571318       -15.5464
  30   2.0000      -0.565382       -15.3848
  31   2.0000      -0.541483       -14.7345
  32   2.0000      -0.533229       -14.5099
  33   2.0000      -0.527708       -14.3597
  34   2.0000      -0.525994       -14.3130
  35   2.0000      -0.519312       -14.1312
  36   2.0000      -0.497246       -13.5307
  37   2.0000      -0.456791       -12.4299
  38   2.0000      -0.444568       -12.0973
  39   2.0000      -0.443495       -12.0681
  40   2.0000      -0.416642       -11.3374
  41   2.0000      -0.414732       -11.2854
  42   2.0000      -0.409519       -11.1436
  43   2.0000      -0.393012       -10.6944
  44   2.0000      -0.384155       -10.4534
  45   2.0000      -0.368703       -10.0329
  46   2.0000      -0.366337        -9.9685
  47   2.0000      -0.344429        -9.3724
  48   2.0000      -0.341270        -9.2864
  49   2.0000      -0.330665        -8.9979
  50   2.0000      -0.326853        -8.8941
  51   2.0000      -0.308027        -8.3819
  52   2.0000      -0.298270        -8.1163
  53   0.0000      -0.105853        -2.8804
  54   0.0000      -0.052904        -1.4396
  55   0.0000       0.001303         0.0355
  56   0.0000       0.004952         0.1347
  57   0.0000       0.018924         0.5150

MULLIKEN ATOMIC CHARGES
-----------------------
   0 C :   -0.241446
   1 C :   -0.211973
   2 C :   -0.219362
   3 C :   -0.209139
   4 C :   -0.138280
   5 C :   -0.246329
   6 H :    0.254673
   7 H :    0.235676
   8 H :    0.232064
   9 H :    0.259291
  10 H :    0.234088
  11 Pd:    0.556353
  12 O :   -0.449480
  13 O :   -0.467074
  14 O :   -0.518352
  15 C :    0.369518
  16 O :   -0.362817
  17 H :    0.104396
  18 C :    0.420499
  19 H :    0.212557
  20 H :    0.185135
Sum of atomic charges:   -0.0000000

LOEWDIN ATOMIC CHARGES
----------------------
   0 C :   -0.119309
   1 C :   -0.125556
   2 C :   -0.127740
   3 C :   -0.122577
   4 C :   -0.050050
   5 C :   -0.118822
   6 H :    0.157173
   7 H :    0.144868
   8 H :    0.141091
   9 H :    0.158983
  10 H :    0.144438
  11 Pd:   -0.107590
  12 O :   -0.145306
  13 O :   -0.148072
  14 O :   -0.207122
  15 C :    0.124070
  16 O :   -0.114528
  17 H :    0.109136
  18 C :    0.172104
  19 H :    0.125638
  20 H :    0.109169

  Mayer bond orders larger than 0.100000
B(  0-C ,  1-C ) :   1.4173 B(  0-C ,  4-C ) :   1.3892 B(  0-C ,  6-H ) :   0.9059
B(  1-C ,  2-C ) :   1.4248 B(  1-C ,  7-H ) :   0.9119 B(  2-C ,  3-C ) :   1.4262
B(  2-C ,  8-H ) :   0.9154 B(  3-C ,  5-C ) :   1.4156 B(  3-C , 10-H ) :   0.9129
B(  4-C ,  5-C ) :   1.4108 B(  4-C , 17-H ) :   0.8653 B(  5-C ,  9-H ) :   0.9034
B( 11-Pd, 12-O ) :   0.5446 B( 11-Pd, 13-O ) :   0.5704 B( 11-Pd, 14-O ) :   0.6987
B( 11-Pd, 16-O ) :   0.2947 B( 12-O , 13-O ) :   0.1133 B( 12-O , 18-C ) :   1.5042
B( 13-O , 18-C ) :   1.4339 B( 14-O , 15-C ) :   1.2429 B( 14-O , 16-O ) :   0.1013
B( 15-C , 16-O ) :   1.7944 B( 15-C , 20-H ) :   0.8793 B( 18-C , 19-H ) :   0.8855

Dispersion correction           -0.013662948
FINAL SINGLE POINT ENERGY      -736.976463997480
Dispersion correction            ... done

DIPOLE MOMENT
-------------
                                X             Y             Z
Electronic contribution:     52.94310      43.55004       0.37797
Nuclear contribution   :    -53.31473     -44.48279      -0.61525
                        -----------------------------------------
Total Dipole Moment    :     -0.37163      -0.93274      -0.23729
                        -----------------------------------------
Magnitude (a.u.)       :      1.03171
Magnitude (Debye)      :      2.62240

Rotational constants in cm-1:     0.027850     0.018856     0.014046
Rotational constants in MHz :   834.918320   565.283546   421.102444

                             ****ORCA TERMINATED NORMALLY****
TOTAL RUN TIME: 0 days 0 hours 4 minutes 14 seconds 498 msec
