                         Program Version 5.0.3 -  RELEASE  -
|  1> ! EnGrad PBEh-3c
|  2> %output
|  3> xyzfile=True
|  4> end
|  5> %scf
|  6> maxiter 250
|  7> end
|  8> %output
|  9> Print[P_Hirshfeld] = 1
| 10> end
| 11> % maxcore
| 12> 4000
| 13> *xyz 0 1
| 14> C   -1.72697449   0.19255882  -0.31046013
| 15> C   -1.82057684  -0.78114035  -1.31277126
| 16> C   -1.28817686  -2.03827620  -1.12834605
| 17> C   -0.55211962  -2.31262339   0.00861363
| 18> C   -1.11097775  -0.10003697   0.96155235
| 19> C   -0.42404565  -1.35894696   1.03013480
| 20> H   -2.21119836   1.13203010  -0.50163499
| 21> H   -2.40310530  -0.56491240  -2.20426270
| 22> H   -1.47090348  -2.80762325  -1.85170004
| 23> H    0.16995318  -1.62136621   1.89140434
| 24> H   -0.12691764  -3.29605518   0.14928241
| 25> Pd   1.39866704   1.17752366   0.05070579
| 26> O    2.82057943   1.00706126  -1.55062834
| 27> O    2.60283745  -0.47544823   0.00055389
| 28> O    0.36270030   2.88344166  -0.03864221
| 29> C    0.10992272   2.96847217   1.28994493
| 30> O    0.59127228   2.17200642   2.04058412
| 31> H   -1.47895056   0.82396941   2.46846044
| 32> C    3.18451109  -0.08681460  -1.05581300
| 33> H    3.95373211  -0.70327565  -1.53112787
| 34> H   -0.57797853   3.78603836   1.59360715
| 35> *
| 36>
| 37>                          ****END OF INPUT****

CARTESIAN COORDINATES (ANGSTROEM)
---------------------------------
  C     -1.726974    0.192559   -0.310460
  C     -1.820577   -0.781140   -1.312771
  C     -1.288177   -2.038276   -1.128346
  C     -0.552120   -2.312623    0.008614
  C     -1.110978   -0.100037    0.961552
  C     -0.424046   -1.358947    1.030135
  H     -2.211198    1.132030   -0.501635
  H     -2.403105   -0.564912   -2.204263
  H     -1.470903   -2.807623   -1.851700
  H      0.169953   -1.621366    1.891404
  H     -0.126918   -3.296055    0.149282
  Pd     1.398667    1.177524    0.050706
  O      2.820579    1.007061   -1.550628
  O      2.602837   -0.475448    0.000554
  O      0.362700    2.883442   -0.038642
  C      0.109923    2.968472    1.289945
  O      0.591272    2.172006    2.040584
  H     -1.478951    0.823969    2.468460
  C      3.184511   -0.086815   -1.055813
  H      3.953732   -0.703276   -1.531128
  H     -0.577979    3.786038    1.593607

 Total Charge           Charge          ....    0
 Multiplicity           Mult            ....    1
 Number of Electrons    NEL             ....  106
 Basis Dimension        Dim             ....  227

ORBITAL ENERGIES
----------------

  NO   OCC          E(Eh)            E(eV)
   0   2.0000     -19.529443      -531.4232
   1   2.0000     -19.525929      -531.3275
   2   2.0000     -19.517902      -531.1091
   3   2.0000     -19.517301      -531.0928
   4   2.0000     -10.589655      -288.1591
   5   2.0000     -10.582398      -287.9617
   6   2.0000     -10.520083      -286.2660
   7   2.0000     -10.473587      -285.0008
   8   2.0000     -10.472311      -284.9661
   9   2.0000     -10.463165      -284.7172
  10   2.0000     -10.462627      -284.7025
  11   2.0000     -10.458931      -284.6020
  12   2.0000      -3.689851      -100.4060
  13   2.0000      -2.345570       -63.8262
  14   2.0000      -2.325617       -63.2832
  15   2.0000      -2.300790       -62.6077
  16   2.0000      -1.228077       -33.4177
  17   2.0000      -1.216629       -33.1061
  18   2.0000      -1.110682       -30.2232
  19   2.0000      -1.090799       -29.6821
  20   2.0000      -0.962941       -26.2030
  21   2.0000      -0.847781       -23.0693
  22   2.0000      -0.841144       -22.8887
  23   2.0000      -0.698474       -19.0064
  24   2.0000      -0.688866       -18.7450
  25   2.0000      -0.681778       -18.5521
  26   2.0000      -0.680458       -18.5162
  27   2.0000      -0.593519       -16.1505
  28   2.0000      -0.587902       -15.9976
  29   2.0000      -0.571481       -15.5508
  30   2.0000      -0.561062       -15.2673
  31   2.0000      -0.540938       -14.7197
  32   2.0000      -0.528614       -14.3843
  33   2.0000      -0.525489       -14.2993
  34   2.0000      -0.520239       -14.1564
  35   2.0000      -0.514846       -14.0097
  36   2.0000      -0.491018       -13.3613
  37   2.0000      -0.457162       -12.4400
  38   2.0000      -0.444672       -12.1001
  39   2.0000      -0.438275       -11.9261
  40   2.0000      -0.410345       -11.1660
  41   2.0000      -0.409944       -11.1551
  42   2.0000      -0.408830       -11.1248
  43   2.0000      -0.392964       -10.6931
  44   2.0000      -0.381758       -10.3882
  45   2.0000      -0.371247       -10.1021
  46   2.0000      -0.367368        -9.9966
  47   2.0000      -0.354010        -9.6331
  48   2.0000      -0.343554        -9.3486
  49   2.0000      -0.331350        -9.0165
  50   2.0000      -0.330174        -8.9845
  51   2.0000      -0.303420        -8.2565
  52   2.0000      -0.295564        -8.0427
  53   0.0000      -0.103998        -2.8299
  54   0.0000      -0.037974        -1.0333
  55   0.0000       0.002865         0.0780
  56   0.0000       0.006671         0.1815
  57   0.0000       0.021918         0.5964

MULLIKEN ATOMIC CHARGES
-----------------------
   0 C :   -0.241684
   1 C :   -0.207487
   2 C :   -0.218398
   3 C :   -0.203160
   4 C :   -0.178195
   5 C :   -0.245641
   6 H :    0.249220
   7 H :    0.234015
   8 H :    0.232003
   9 H :    0.254643
  10 H :    0.232868
  11 Pd:    0.568632
  12 O :   -0.446413
  13 O :   -0.472308
  14 O :   -0.519015
  15 C :    0.383092
  16 O :   -0.386582
  17 H :    0.142136
  18 C :    0.414335
  19 H :    0.210400
  20 H :    0.197538
Sum of atomic charges:   -0.0000000

LOEWDIN ATOMIC CHARGES
----------------------
   0 C :   -0.117185
   1 C :   -0.129305
   2 C :   -0.126163
   3 C :   -0.125658
   4 C :   -0.073462
   5 C :   -0.115084
   6 H :    0.153036
   7 H :    0.144628
   8 H :    0.140723
   9 H :    0.155580
  10 H :    0.144448
  11 Pd:   -0.108347
  12 O :   -0.150777
  13 O :   -0.153940
  14 O :   -0.204916
  15 C :    0.154427
  16 O :   -0.136397
  17 H :    0.139318
  18 C :    0.167775
  19 H :    0.124455
  20 H :    0.116843

  Mayer bond orders larger than 0.100000
B(  0-C ,  1-C ) :   1.4246 B(  0-C ,  4-C ) :   1.3727 B(  0-C ,  6-H ) :   0.9080
B(  1-C ,  2-C ) :   1.4217 B(  1-C ,  7-H ) :   0.9129 B(  2-C ,  3-C ) :   1.4261
B(  2-C ,  8-H ) :   0.9147 B(  3-C ,  5-C ) :   1.4193 B(  3-C , 10-H ) :   0.9138
B(  4-C ,  5-C ) :   1.3985 B(  4-C , 17-H ) :   0.8794 B(  5-C ,  9-H ) :   0.9055
B( 11-Pd, 12-O ) :   0.5248 B( 11-Pd, 13-O ) :   0.5723 B( 11-Pd, 14-O ) :   0.6953
B( 11-Pd, 16-O ) :   0.3066 B( 12-O , 13-O ) :   0.1127 B( 12-O , 18-C ) :   1.5239
B( 13-O , 18-C ) :   1.4254 B( 14-O , 15-C ) :   1.2444 B( 14-O , 16-O ) :   0.1056
B( 15-C , 16-O ) :   1.7559 B( 15-C , 20-H ) :   0.8790 B( 18-C , 19-H ) :   0.8844

Dispersion correction           -0.013692922
FINAL SINGLE POINT ENERGY      -736.996885116333
Dispersion correction            ... done

DIPOLE MOMENT
-------------
                                X             Y             Z
Electronic contribution:     52.70574      44.15839       1.86574
Nuclear contribution   :    -53.16148     -44.91939      -1.97039
                        -----------------------------------------
Total Dipole Moment    :     -0.45574      -0.76100      -0.10465
                        -----------------------------------------
Magnitude (a.u.)       :      0.89318
Magnitude (Debye)      :      2.27028

Rotational constants in cm-1:     0.027881     0.018742     0.013997
Rotational constants in MHz :   835.860261   561.868662   419.631962

                             ****ORCA TERMINATED NORMALLY****
TOTAL RUN TIME: 0 days 0 hours 4 minutes 20 seconds 261 msec
