                         Program Version 5.0.3 -  RELEASE  -
|  1> ! EnGrad PBEh-3c
|  2> %output
|  3> xyzfile=True
|  4> end
|  5> %scf
|  6> maxiter 250
|  7> end
|  8> %output
|  9> Print[P_Hirshfeld] = 1
| 10> end
| 11> % maxcore
| 12> 4000
| 13> *xyz 0 1
| 14> C   -1.72071740   0.19036286  -0.29652517
| 15> C   -1.83834572  -0.78792481  -1.30380758
| 16> C   -1.31259030  -2.05359472  -1.12173178
| 17> C   -0.56890678  -2.31629741   0.01257755
| 18> C   -1.10875078  -0.06640888   0.99571754
| 19> C   -0.43056431  -1.34318859   1.02569532
| 20> H   -2.18971146   1.14423030  -0.50877955
| 21> H   -2.42251297  -0.56988553  -2.19721114
| 22> H   -1.51466460  -2.82791557  -1.83738407
| 23> H    0.18178601  -1.61648883   1.88070418
| 24> H   -0.14455584  -3.30713874   0.15517961
| 25> Pd   1.39736545   1.18690177   0.07784007
| 26> O    2.84357259   1.02140598  -1.54625415
| 27> O    2.58796628  -0.47163133  -0.01523238
| 28> O    0.36863935   2.87337485  -0.02398531
| 29> C    0.10592830   2.96754775   1.26396264
| 30> O    0.59107298   2.15821186   2.05904211
| 31> H   -1.42770170   0.77653771   2.36241538
| 32> C    3.20767561  -0.05864959  -1.04046604
| 33> H    3.97700582  -0.68802147  -1.52829440
| 34> H   -0.57887035   3.78356838   1.58613016
| 35> *
| 36>
| 37>                          ****END OF INPUT****

CARTESIAN COORDINATES (ANGSTROEM)
---------------------------------
  C     -1.720717    0.190363   -0.296525
  C     -1.838346   -0.787925   -1.303808
  C     -1.312590   -2.053595   -1.121732
  C     -0.568907   -2.316297    0.012578
  C     -1.108751   -0.066409    0.995718
  C     -0.430564   -1.343189    1.025695
  H     -2.189711    1.144230   -0.508780
  H     -2.422513   -0.569886   -2.197211
  H     -1.514665   -2.827916   -1.837384
  H      0.181786   -1.616489    1.880704
  H     -0.144556   -3.307139    0.155180
  Pd     1.397365    1.186902    0.077840
  O      2.843573    1.021406   -1.546254
  O      2.587966   -0.471631   -0.015232
  O      0.368639    2.873375   -0.023985
  C      0.105928    2.967548    1.263963
  O      0.591073    2.158212    2.059042
  H     -1.427702    0.776538    2.362415
  C      3.207676   -0.058650   -1.040466
  H      3.977006   -0.688021   -1.528294
  H     -0.578870    3.783568    1.586130

 Total Charge           Charge          ....    0
 Multiplicity           Mult            ....    1
 Number of Electrons    NEL             ....  106
 Basis Dimension        Dim             ....  227

ORBITAL ENERGIES
----------------

  NO   OCC          E(Eh)            E(eV)
   0   2.0000     -19.529673      -531.4294
   1   2.0000     -19.527505      -531.3704
   2   2.0000     -19.523622      -531.2648
   3   2.0000     -19.515077      -531.0322
   4   2.0000     -10.588066      -288.1159
   5   2.0000     -10.587319      -288.0956
   6   2.0000     -10.515604      -286.1441
   7   2.0000     -10.473928      -285.0101
   8   2.0000     -10.472079      -284.9598
   9   2.0000     -10.462679      -284.7040
  10   2.0000     -10.461746      -284.6786
  11   2.0000     -10.458421      -284.5881
  12   2.0000      -3.692057      -100.4660
  13   2.0000      -2.348632       -63.9095
  14   2.0000      -2.326947       -63.3194
  15   2.0000      -2.303066       -62.6696
  16   2.0000      -1.227611       -33.4050
  17   2.0000      -1.209660       -32.9165
  18   2.0000      -1.110439       -30.2166
  19   2.0000      -1.102675       -30.0053
  20   2.0000      -0.957645       -26.0588
  21   2.0000      -0.841166       -22.8893
  22   2.0000      -0.839804       -22.8522
  23   2.0000      -0.695200       -18.9173
  24   2.0000      -0.684369       -18.6226
  25   2.0000      -0.684259       -18.6196
  26   2.0000      -0.679163       -18.4810
  27   2.0000      -0.590590       -16.0708
  28   2.0000      -0.587499       -15.9867
  29   2.0000      -0.574439       -15.6313
  30   2.0000      -0.560763       -15.2591
  31   2.0000      -0.541495       -14.7348
  32   2.0000      -0.528593       -14.3838
  33   2.0000      -0.523660       -14.2495
  34   2.0000      -0.518479       -14.1085
  35   2.0000      -0.513160       -13.9638
  36   2.0000      -0.483470       -13.1559
  37   2.0000      -0.460601       -12.5336
  38   2.0000      -0.445104       -12.1119
  39   2.0000      -0.435706       -11.8562
  40   2.0000      -0.411767       -11.2048
  41   2.0000      -0.408469       -11.1150
  42   2.0000      -0.402995       -10.9660
  43   2.0000      -0.394043       -10.7225
  44   2.0000      -0.384881       -10.4732
  45   2.0000      -0.378854       -10.3091
  46   2.0000      -0.372790       -10.1441
  47   2.0000      -0.361474        -9.8362
  48   2.0000      -0.344366        -9.3707
  49   2.0000      -0.336290        -9.1509
  50   2.0000      -0.332775        -9.0553
  51   2.0000      -0.298882        -8.1330
  52   2.0000      -0.293824        -7.9954
  53   0.0000      -0.105879        -2.8811
  54   0.0000      -0.019210        -0.5227
  55   0.0000       0.004349         0.1184
  56   0.0000       0.018079         0.4920
  57   0.0000       0.021271         0.5788

MULLIKEN ATOMIC CHARGES
-----------------------
   0 C :   -0.239573
   1 C :   -0.206249
   2 C :   -0.218200
   3 C :   -0.200672
   4 C :   -0.224521
   5 C :   -0.240269
   6 H :    0.242122
   7 H :    0.232840
   8 H :    0.231734
   9 H :    0.249487
  10 H :    0.231464
  11 Pd:    0.579672
  12 O :   -0.440035
  13 O :   -0.472593
  14 O :   -0.497272
  15 C :    0.393285
  16 O :   -0.424097
  17 H :    0.187536
  18 C :    0.407749
  19 H :    0.207338
  20 H :    0.200256
Sum of atomic charges:   -0.0000000

LOEWDIN ATOMIC CHARGES
----------------------
   0 C :   -0.116337
   1 C :   -0.133367
   2 C :   -0.125139
   3 C :   -0.129088
   4 C :   -0.097722
   5 C :   -0.111178
   6 H :    0.149103
   7 H :    0.144206
   8 H :    0.140239
   9 H :    0.152773
  10 H :    0.144329
  11 Pd:   -0.099582
  12 O :   -0.151569
  13 O :   -0.155085
  14 O :   -0.170246
  15 C :    0.162103
  16 O :   -0.174523
  17 H :    0.168476
  18 C :    0.160565
  19 H :    0.123175
  20 H :    0.118867

  Mayer bond orders larger than 0.100000
B(  0-C ,  1-C ) :   1.4296 B(  0-C ,  4-C ) :   1.3575 B(  0-C ,  6-H ) :   0.9101
B(  1-C ,  2-C ) :   1.4185 B(  1-C ,  7-H ) :   0.9138 B(  2-C ,  3-C ) :   1.4268
B(  2-C ,  8-H ) :   0.9140 B(  3-C ,  5-C ) :   1.4203 B(  3-C , 10-H ) :   0.9148
B(  4-C ,  5-C ) :   1.3874 B(  4-C , 17-H ) :   0.8885 B(  5-C ,  9-H ) :   0.9073
B( 11-Pd, 12-O ) :   0.5073 B( 11-Pd, 13-O ) :   0.5809 B( 11-Pd, 14-O ) :   0.6676
B( 11-Pd, 16-O ) :   0.3366 B( 12-O , 13-O ) :   0.1117 B( 12-O , 18-C ) :   1.5444
B( 13-O , 18-C ) :   1.4158 B( 14-O , 15-C ) :   1.2984 B( 14-O , 16-O ) :   0.1085
B( 15-C , 16-O ) :   1.6853 B( 15-C , 20-H ) :   0.8809 B( 18-C , 19-H ) :   0.8831

Dispersion correction           -0.013695636
FINAL SINGLE POINT ENERGY      -737.025838176926
Dispersion correction            ... done

DIPOLE MOMENT
-------------
                                X             Y             Z
Electronic contribution:     52.63373      44.66820       2.94815
Nuclear contribution   :    -53.12421     -45.28500      -3.06060
                        -----------------------------------------
Total Dipole Moment    :     -0.49048      -0.61680      -0.11245
                        -----------------------------------------
Magnitude (a.u.)       :      0.79602
Magnitude (Debye)      :      2.02332

Rotational constants in cm-1:     0.028016     0.018639     0.013940
Rotational constants in MHz :   839.904170   558.791156   417.920570

                             ****ORCA TERMINATED NORMALLY****
TOTAL RUN TIME: 0 days 0 hours 4 minutes 14 seconds 144 msec
