                         Program Version 5.0.3 -  RELEASE  -
|  1> ! EnGrad PBEh-3c
|  2> %output
|  3> xyzfile=True
|  4> end
|  5> %scf
|  6> maxiter 250
|  7> end
|  8> %output
|  9> Print[P_Hirshfeld] = 1
| 10> end
| 11> % maxcore
| 12> 4000
| 13> *xyz 0 1
| 14> C   -1.71233960   0.18972151  -0.27754636
| 15> C   -1.85476130  -0.78831121  -1.29029798
| 16> C   -1.33927771  -2.06527784  -1.11108744
| 17> C   -0.58452791  -2.31418592   0.02237770
| 18> C   -1.10482421  -0.05156373   1.00829143
| 19> C   -0.43835182  -1.32438658   1.02390941
| 20> H   -2.16788732   1.15367675  -0.51851111
| 21> H   -2.44163673  -0.57563316  -2.18755971
| 22> H   -1.55968032  -2.84950838  -1.82343621
| 23> H    0.19355664  -1.61255555   1.86716171
| 24> H   -0.16385962  -3.31574153   0.16156468
| 25> Pd   1.40062953   1.18831368   0.08578906
| 26> O    2.86941063   1.04232031  -1.53565545
| 27> O    2.58165619  -0.46854410  -0.02705215
| 28> O    0.37052140   2.86343348   0.01517714
| 29> C    0.10285215   2.97159223   1.22752650
| 30> O    0.58681556   2.15054765   2.07465088
| 31> H   -1.37626022   0.73063865   2.25748267
| 32> C    3.21900642  -0.03920660  -1.03179764
| 33> H    4.00099930  -0.66872217  -1.51956604
| 34> H   -0.57876259   3.77768904   1.57845974
| 35> *
| 36>
| 37>                          ****END OF INPUT****

CARTESIAN COORDINATES (ANGSTROEM)
---------------------------------
  C     -1.712340    0.189722   -0.277546
  C     -1.854761   -0.788311   -1.290298
  C     -1.339278   -2.065278   -1.111087
  C     -0.584528   -2.314186    0.022378
  C     -1.104824   -0.051564    1.008291
  C     -0.438352   -1.324387    1.023909
  H     -2.167887    1.153677   -0.518511
  H     -2.441637   -0.575633   -2.187560
  H     -1.559680   -2.849508   -1.823436
  H      0.193557   -1.612556    1.867162
  H     -0.163860   -3.315742    0.161565
  Pd     1.400630    1.188314    0.085789
  O      2.869411    1.042320   -1.535655
  O      2.581656   -0.468544   -0.027052
  O      0.370521    2.863433    0.015177
  C      0.102852    2.971592    1.227526
  O      0.586816    2.150548    2.074651
  H     -1.376260    0.730639    2.257483
  C      3.219006   -0.039207   -1.031798
  H      4.000999   -0.668722   -1.519566
  H     -0.578763    3.777689    1.578460

 Total Charge           Charge          ....    0
 Multiplicity           Mult            ....    1
 Number of Electrons    NEL             ....  106
 Basis Dimension        Dim             ....  227

ORBITAL ENERGIES
----------------

  NO   OCC          E(Eh)            E(eV)
   0   2.0000     -19.540519      -531.7246
   1   2.0000     -19.530608      -531.4549
   2   2.0000     -19.525427      -531.3139
   3   2.0000     -19.503740      -530.7237
   4   2.0000     -10.590020      -288.1691
   5   2.0000     -10.584996      -288.0324
   6   2.0000     -10.506983      -285.9095
   7   2.0000     -10.472940      -284.9832
   8   2.0000     -10.470160      -284.9076
   9   2.0000     -10.462672      -284.7038
  10   2.0000     -10.461409      -284.6694
  11   2.0000     -10.458893      -284.6010
  12   2.0000      -3.696077      -100.5754
  13   2.0000      -2.353342       -64.0377
  14   2.0000      -2.330525       -63.4168
  15   2.0000      -2.306773       -62.7705
  16   2.0000      -1.231978       -33.5238
  17   2.0000      -1.223584       -33.2954
  18   2.0000      -1.114339       -30.3227
  19   2.0000      -1.102536       -30.0015
  20   2.0000      -0.956164       -26.0185
  21   2.0000      -0.841346       -22.8942
  22   2.0000      -0.837184       -22.7809
  23   2.0000      -0.696978       -18.9657
  24   2.0000      -0.685531       -18.6542
  25   2.0000      -0.682094       -18.5607
  26   2.0000      -0.678858       -18.4727
  27   2.0000      -0.593195       -16.1417
  28   2.0000      -0.588115       -16.0034
  29   2.0000      -0.580795       -15.8042
  30   2.0000      -0.564254       -15.3541
  31   2.0000      -0.543153       -14.7799
  32   2.0000      -0.534187       -14.5360
  33   2.0000      -0.525338       -14.2952
  34   2.0000      -0.521934       -14.2026
  35   2.0000      -0.512652       -13.9500
  36   2.0000      -0.478183       -13.0120
  37   2.0000      -0.467734       -12.7277
  38   2.0000      -0.443402       -12.0656
  39   2.0000      -0.436561       -11.8794
  40   2.0000      -0.412136       -11.2148
  41   2.0000      -0.409383       -11.1399
  42   2.0000      -0.399470       -10.8701
  43   2.0000      -0.395308       -10.7569
  44   2.0000      -0.388716       -10.5775
  45   2.0000      -0.387082       -10.5330
  46   2.0000      -0.375920       -10.2293
  47   2.0000      -0.363462        -9.8903
  48   2.0000      -0.343724        -9.3532
  49   2.0000      -0.340760        -9.2725
  50   2.0000      -0.335031        -9.1167
  51   2.0000      -0.296150        -8.0586
  52   2.0000      -0.293409        -7.9841
  53   0.0000      -0.109781        -2.9873
  54   0.0000      -0.009810        -0.2669
  55   0.0000       0.005033         0.1370
  56   0.0000       0.021866         0.5950
  57   0.0000       0.032386         0.8813

MULLIKEN ATOMIC CHARGES
-----------------------
   0 C :   -0.236214
   1 C :   -0.208147
   2 C :   -0.219238
   3 C :   -0.202506
   4 C :   -0.257027
   5 C :   -0.233515
   6 H :    0.236536
   7 H :    0.231630
   8 H :    0.231194
   9 H :    0.246864
  10 H :    0.229901
  11 Pd:    0.585546
  12 O :   -0.437128
  13 O :   -0.468372
  14 O :   -0.453010
  15 C :    0.388060
  16 O :   -0.466966
  17 H :    0.221288
  18 C :    0.406983
  19 H :    0.206161
  20 H :    0.197960
Sum of atomic charges:   -0.0000000

LOEWDIN ATOMIC CHARGES
----------------------
   0 C :   -0.117706
   1 C :   -0.135661
   2 C :   -0.125809
   3 C :   -0.130901
   4 C :   -0.110782
   5 C :   -0.109838
   6 H :    0.146626
   7 H :    0.143432
   8 H :    0.139909
   9 H :    0.151720
  10 H :    0.143766
  11 Pd:   -0.086428
  12 O :   -0.150774
  13 O :   -0.149612
  14 O :   -0.113083
  15 C :    0.147094
  16 O :   -0.223511
  17 H :    0.183582
  18 C :    0.157717
  19 H :    0.122792
  20 H :    0.117468

  Mayer bond orders larger than 0.100000
B(  0-C ,  1-C ) :   1.4307 B(  0-C ,  4-C ) :   1.3498 B(  0-C ,  6-H ) :   0.9115
B(  1-C ,  2-C ) :   1.4176 B(  1-C ,  7-H ) :   0.9146 B(  2-C ,  3-C ) :   1.4266
B(  2-C ,  8-H ) :   0.9137 B(  3-C ,  5-C ) :   1.4208 B(  3-C , 10-H ) :   0.9157
B(  4-C ,  5-C ) :   1.3816 B(  4-C , 17-H ) :   0.8910 B(  5-C ,  9-H ) :   0.9081
B( 11-Pd, 12-O ) :   0.5007 B( 11-Pd, 13-O ) :   0.5927 B( 11-Pd, 14-O ) :   0.6227
B( 11-Pd, 16-O ) :   0.3765 B( 12-O , 13-O ) :   0.1113 B( 12-O , 18-C ) :   1.5520
B( 13-O , 18-C ) :   1.4100 B( 14-O , 15-C ) :   1.3961 B( 14-O , 16-O ) :   0.1081
B( 15-C , 16-O ) :   1.5999 B( 15-C , 20-H ) :   0.8838 B( 18-C , 19-H ) :   0.8825

Dispersion correction           -0.013602236
FINAL SINGLE POINT ENERGY      -737.049935492066
Dispersion correction            ... done

DIPOLE MOMENT
-------------
                                X             Y             Z
Electronic contribution:     52.83224      44.72654       2.97683
Nuclear contribution   :    -53.29615     -45.26825      -3.24239
                        -----------------------------------------
Total Dipole Moment    :     -0.46392      -0.54171      -0.26556
                        -----------------------------------------
Magnitude (a.u.)       :      0.76104
Magnitude (Debye)      :      1.93442

Rotational constants in cm-1:     0.028183     0.018578     0.013892
Rotational constants in MHz :   844.907018   556.968214   416.464601

                             ****ORCA TERMINATED NORMALLY****
TOTAL RUN TIME: 0 days 0 hours 4 minutes 3 seconds 803 msec
