                         Program Version 5.0.3 -  RELEASE  -
|  1> ! EnGrad PBEh-3c
|  2> %output
|  3> xyzfile=True
|  4> end
|  5> %scf
|  6> maxiter 250
|  7> end
|  8> %output
|  9> Print[P_Hirshfeld] = 1
| 10> end
| 11> % maxcore
| 12> 4000
| 13> *xyz 0 1
| 14> C   -1.70756246   0.19331934  -0.26596966
| 15> C   -1.87128978  -0.79080693  -1.27452549
| 16> C   -1.37043015  -2.07637541  -1.09912964
| 17> C   -0.60196142  -2.31332433   0.03221417
| 18> C   -1.09944792  -0.03578967   1.02159369
| 19> C   -0.44153770  -1.31181461   1.02368138
| 20> H   -2.14220431   1.16090049  -0.52813174
| 21> H   -2.46252947  -0.58141227  -2.17512318
| 22> H   -1.60918963  -2.87089415  -1.80521581
| 23> H    0.20519631  -1.60689374   1.85047276
| 24> H   -0.18631469  -3.32205706   0.16933857
| 25> Pd   1.40537279   1.18616007   0.09329421
| 26> O    2.89717542   1.06885912  -1.52248706
| 27> O    2.57450907  -0.46504277  -0.03796140
| 28> O    0.37704889   2.85317304   0.02541715
| 29> C    0.10036066   2.96571197   1.23701014
| 30> O    0.57471611   2.15442956   2.07713520
| 31> H   -1.31984345   0.68207764   2.14412542
| 32> C    3.23497806  -0.02303472  -1.02668107
| 33> H    4.02557851  -0.64514582  -1.50731774
| 34> H   -0.57903962   3.77148426   1.56820813
| 35> *
| 36>
| 37>                          ****END OF INPUT****

CARTESIAN COORDINATES (ANGSTROEM)
---------------------------------
  C     -1.707562    0.193319   -0.265970
  C     -1.871290   -0.790807   -1.274525
  C     -1.370430   -2.076375   -1.099130
  C     -0.601961   -2.313324    0.032214
  C     -1.099448   -0.035790    1.021594
  C     -0.441538   -1.311815    1.023681
  H     -2.142204    1.160900   -0.528132
  H     -2.462529   -0.581412   -2.175123
  H     -1.609190   -2.870894   -1.805216
  H      0.205196   -1.606894    1.850473
  H     -0.186315   -3.322057    0.169339
  Pd     1.405373    1.186160    0.093294
  O      2.897175    1.068859   -1.522487
  O      2.574509   -0.465043   -0.037961
  O      0.377049    2.853173    0.025417
  C      0.100361    2.965712    1.237010
  O      0.574716    2.154430    2.077135
  H     -1.319843    0.682078    2.144125
  C      3.234978   -0.023035   -1.026681
  H      4.025579   -0.645146   -1.507318
  H     -0.579040    3.771484    1.568208

 Total Charge           Charge          ....    0
 Multiplicity           Mult            ....    1
 Number of Electrons    NEL             ....  106
 Basis Dimension        Dim             ....  227

ORBITAL ENERGIES
----------------

  NO   OCC          E(Eh)            E(eV)
   0   2.0000     -19.538264      -531.6632
   1   2.0000     -19.530733      -531.4583
   2   2.0000     -19.525092      -531.3048
   3   2.0000     -19.503535      -530.7182
   4   2.0000     -10.590527      -288.1829
   5   2.0000     -10.582661      -287.9688
   6   2.0000     -10.499009      -285.6926
   7   2.0000     -10.472810      -284.9796
   8   2.0000     -10.469703      -284.8951
   9   2.0000     -10.462872      -284.7092
  10   2.0000     -10.461708      -284.6775
  11   2.0000     -10.460137      -284.6348
  12   2.0000      -3.695813      -100.5682
  13   2.0000      -2.353441       -64.0404
  14   2.0000      -2.329782       -63.3966
  15   2.0000      -2.306967       -62.7758
  16   2.0000      -1.230831       -33.4926
  17   2.0000      -1.224709       -33.3260
  18   2.0000      -1.113206       -30.2919
  19   2.0000      -1.106587       -30.1118
  20   2.0000      -0.955214       -25.9927
  21   2.0000      -0.843117       -22.9424
  22   2.0000      -0.835058       -22.7231
  23   2.0000      -0.698049       -18.9949
  24   2.0000      -0.686379       -18.6773
  25   2.0000      -0.681368       -18.5410
  26   2.0000      -0.680567       -18.5192
  27   2.0000      -0.593759       -16.1570
  28   2.0000      -0.588833       -16.0229
  29   2.0000      -0.581057       -15.8114
  30   2.0000      -0.564205       -15.3528
  31   2.0000      -0.543657       -14.7937
  32   2.0000      -0.535418       -14.5695
  33   2.0000      -0.526179       -14.3181
  34   2.0000      -0.523007       -14.2318
  35   2.0000      -0.511830       -13.9276
  36   2.0000      -0.478907       -13.0317
  37   2.0000      -0.474941       -12.9238
  38   2.0000      -0.445104       -12.1119
  39   2.0000      -0.437822       -11.9138
  40   2.0000      -0.414121       -11.2688
  41   2.0000      -0.409026       -11.1302
  42   2.0000      -0.397251       -10.8097
  43   2.0000      -0.396871       -10.7994
  44   2.0000      -0.392591       -10.6829
  45   2.0000      -0.388611       -10.5746
  46   2.0000      -0.376712       -10.2509
  47   2.0000      -0.364695        -9.9239
  48   2.0000      -0.343444        -9.3456
  49   2.0000      -0.341242        -9.2857
  50   2.0000      -0.335553        -9.1308
  51   2.0000      -0.294613        -8.0168
  52   2.0000      -0.294116        -8.0033
  53   0.0000      -0.109485        -2.9792
  54   0.0000      -0.007691        -0.2093
  55   0.0000       0.005328         0.1450
  56   0.0000       0.021989         0.5983
  57   0.0000       0.033669         0.9162

MULLIKEN ATOMIC CHARGES
-----------------------
   0 C :   -0.229316
   1 C :   -0.210055
   2 C :   -0.218129
   3 C :   -0.204705
   4 C :   -0.292877
   5 C :   -0.226365
   6 H :    0.235680
   7 H :    0.230413
   8 H :    0.231527
   9 H :    0.245603
  10 H :    0.228833
  11 Pd:    0.592829
  12 O :   -0.437385
  13 O :   -0.472341
  14 O :   -0.457833
  15 C :    0.384579
  16 O :   -0.461682
  17 H :    0.250091
  18 C :    0.407224
  19 H :    0.207242
  20 H :    0.196667
Sum of atomic charges:   -0.0000000

LOEWDIN ATOMIC CHARGES
----------------------
   0 C :   -0.114927
   1 C :   -0.136944
   2 C :   -0.125073
   3 C :   -0.131916
   4 C :   -0.120938
   5 C :   -0.107472
   6 H :    0.145994
   7 H :    0.142929
   8 H :    0.140273
   9 H :    0.150744
  10 H :    0.143310
  11 Pd:   -0.079553
  12 O :   -0.153702
  13 O :   -0.151289
  14 O :   -0.115578
  15 C :    0.139549
  16 O :   -0.215123
  17 H :    0.189169
  18 C :    0.160811
  19 H :    0.123451
  20 H :    0.116284

  Mayer bond orders larger than 0.100000
B(  0-C ,  1-C ) :   1.4335 B(  0-C ,  4-C ) :   1.3431 B(  0-C ,  6-H ) :   0.9116
B(  1-C ,  2-C ) :   1.4164 B(  1-C ,  7-H ) :   0.9154 B(  2-C ,  3-C ) :   1.4249
B(  2-C ,  8-H ) :   0.9133 B(  3-C ,  5-C ) :   1.4242 B(  3-C , 10-H ) :   0.9164
B(  4-C ,  5-C ) :   1.3752 B(  4-C , 17-H ) :   0.8925 B(  5-C ,  9-H ) :   0.9084
B( 11-Pd, 12-O ) :   0.4955 B( 11-Pd, 13-O ) :   0.5944 B( 11-Pd, 14-O ) :   0.6298
B( 11-Pd, 16-O ) :   0.3626 B( 12-O , 13-O ) :   0.1116 B( 12-O , 18-C ) :   1.5568
B( 13-O , 18-C ) :   1.4033 B( 14-O , 15-C ) :   1.3847 B( 14-O , 16-O ) :   0.1071
B( 15-C , 16-O ) :   1.6207 B( 15-C , 20-H ) :   0.8850 B( 18-C , 19-H ) :   0.8823

Dispersion correction           -0.013304765
FINAL SINGLE POINT ENERGY      -737.076669914188
Dispersion correction            ... done

DIPOLE MOMENT
-------------
                                X             Y             Z
Electronic contribution:     53.08766      44.52527       3.18691
Nuclear contribution   :    -53.53715     -45.07660      -3.43485
                        -----------------------------------------
Total Dipole Moment    :     -0.44949      -0.55133      -0.24794
                        -----------------------------------------
Magnitude (a.u.)       :      0.75331
Magnitude (Debye)      :      1.91477

Rotational constants in cm-1:     0.028319     0.018498     0.013831
Rotational constants in MHz :   848.975903   554.542970   414.652747

                             ****ORCA TERMINATED NORMALLY****
TOTAL RUN TIME: 0 days 0 hours 4 minutes 6 seconds 561 msec
