                         Program Version 5.0.3 -  RELEASE  -
|  1> ! EnGrad PBEh-3c
|  2> %output
|  3> xyzfile=True
|  4> end
|  5> %scf
|  6> maxiter 250
|  7> end
|  8> %output
|  9> Print[P_Hirshfeld] = 1
| 10> end
| 11> % maxcore
| 12> 4000
| 13> *xyz 0 1
| 14> C   -1.70004381   0.20549424  -0.24971036
| 15> C   -1.90640503  -0.79164238  -1.23615750
| 16> C   -1.44321057  -2.09514369  -1.06444976
| 17> C   -0.64124564  -2.30839465   0.05658810
| 18> C   -1.08174631  -0.02525038   1.01924315
| 19> C   -0.44325084  -1.29522125   1.02515482
| 20> H   -2.08378705   1.17218591  -0.54973005
| 21> H   -2.50668593  -0.59334306  -2.13933593
| 22> H   -1.71925249  -2.91255451  -1.75799441
| 23> H    0.23022148  -1.59326671   1.81147172
| 24> H   -0.23938504  -3.32663029   0.18910387
| 25> Pd   1.41951070   1.16804656   0.08430499
| 26> O    2.96348902   1.13250823  -1.48044253
| 27> O    2.57178976  -0.45852092  -0.06021884
| 28> O    0.39143252   2.83128512   0.03979472
| 29> C    0.09164944   2.95790137   1.28028913
| 30> O    0.54290771   2.16906877   2.08407603
| 31> H   -1.19518590   0.58039136   1.89865902
| 32> C    3.25572455   0.00456275  -1.02578342
| 33> H    4.07928109  -0.58682051  -1.47068436
| 34> H   -0.58201079   3.75795053   1.54549260
| 35> *
| 36>
| 37>                          ****END OF INPUT****

CARTESIAN COORDINATES (ANGSTROEM)
---------------------------------
  C     -1.700044    0.205494   -0.249710
  C     -1.906405   -0.791642   -1.236158
  C     -1.443211   -2.095144   -1.064450
  C     -0.641246   -2.308395    0.056588
  C     -1.081746   -0.025250    1.019243
  C     -0.443251   -1.295221    1.025155
  H     -2.083787    1.172186   -0.549730
  H     -2.506686   -0.593343   -2.139336
  H     -1.719252   -2.912555   -1.757994
  H      0.230221   -1.593267    1.811472
  H     -0.239385   -3.326630    0.189104
  Pd     1.419511    1.168047    0.084305
  O      2.963489    1.132508   -1.480443
  O      2.571790   -0.458521   -0.060219
  O      0.391433    2.831285    0.039795
  C      0.091649    2.957901    1.280289
  O      0.542908    2.169069    2.084076
  H     -1.195186    0.580391    1.898659
  C      3.255725    0.004563   -1.025783
  H      4.079281   -0.586821   -1.470684
  H     -0.582011    3.757951    1.545493

 Total Charge           Charge          ....    0
 Multiplicity           Mult            ....    1
 Number of Electrons    NEL             ....  106
 Basis Dimension        Dim             ....  227

ORBITAL ENERGIES
----------------

  NO   OCC          E(Eh)            E(eV)
   0   2.0000     -19.533092      -531.5224
   1   2.0000     -19.526291      -531.3374
   2   2.0000     -19.525087      -531.3046
   3   2.0000     -19.503524      -530.7179
   4   2.0000     -10.592138      -288.2267
   5   2.0000     -10.574993      -287.7602
   6   2.0000     -10.475917      -285.0642
   7   2.0000     -10.470825      -284.9256
   8   2.0000     -10.467479      -284.8346
   9   2.0000     -10.463918      -284.7377
  10   2.0000     -10.462812      -284.7076
  11   2.0000     -10.461816      -284.6805
  12   2.0000      -3.694049      -100.5202
  13   2.0000      -2.351948       -63.9998
  14   2.0000      -2.327516       -63.3349
  15   2.0000      -2.306297       -62.7575
  16   2.0000      -1.230098       -33.4727
  17   2.0000      -1.221806       -33.2470
  18   2.0000      -1.115007       -30.3409
  19   2.0000      -1.108013       -30.1506
  20   2.0000      -0.958413       -26.0797
  21   2.0000      -0.851055       -23.1584
  22   2.0000      -0.835847       -22.7446
  23   2.0000      -0.700469       -19.0607
  24   2.0000      -0.693114       -18.8606
  25   2.0000      -0.688373       -18.7316
  26   2.0000      -0.682467       -18.5709
  27   2.0000      -0.598582       -16.2883
  28   2.0000      -0.593115       -16.1395
  29   2.0000      -0.579266       -15.7626
  30   2.0000      -0.564568       -15.3627
  31   2.0000      -0.545165       -14.8347
  32   2.0000      -0.541190       -14.7265
  33   2.0000      -0.531635       -14.4665
  34   2.0000      -0.523219       -14.2375
  35   2.0000      -0.513859       -13.9828
  36   2.0000      -0.498043       -13.5524
  37   2.0000      -0.474024       -12.8989
  38   2.0000      -0.449151       -12.2220
  39   2.0000      -0.442532       -12.0419
  40   2.0000      -0.417901       -11.3717
  41   2.0000      -0.408568       -11.1177
  42   2.0000      -0.404209       -10.9991
  43   2.0000      -0.397374       -10.8131
  44   2.0000      -0.394608       -10.7378
  45   2.0000      -0.386620       -10.5205
  46   2.0000      -0.376511       -10.2454
  47   2.0000      -0.364507        -9.9187
  48   2.0000      -0.344156        -9.3650
  49   2.0000      -0.338088        -9.1998
  50   2.0000      -0.335151        -9.1199
  51   2.0000      -0.298452        -8.1213
  52   2.0000      -0.294213        -8.0059
  53   0.0000      -0.108064        -2.9406
  54   0.0000      -0.006976        -0.1898
  55   0.0000       0.005665         0.1542
  56   0.0000       0.021539         0.5861
  57   0.0000       0.037943         1.0325

MULLIKEN ATOMIC CHARGES
-----------------------
   0 C :   -0.228940
   1 C :   -0.214172
   2 C :   -0.217590
   3 C :   -0.209726
   4 C :   -0.309316
   5 C :   -0.228133
   6 H :    0.239810
   7 H :    0.228028
   8 H :    0.232324
   9 H :    0.246986
  10 H :    0.226880
  11 Pd:    0.604993
  12 O :   -0.439013
  13 O :   -0.479093
  14 O :   -0.491904
  15 C :    0.373262
  16 O :   -0.429326
  17 H :    0.279566
  18 C :    0.411186
  19 H :    0.208662
  20 H :    0.195517
Sum of atomic charges:   -0.0000000

LOEWDIN ATOMIC CHARGES
----------------------
   0 C :   -0.108735
   1 C :   -0.136339
   2 C :   -0.123578
   3 C :   -0.131375
   4 C :   -0.123860
   5 C :   -0.103670
   6 H :    0.148352
   7 H :    0.141501
   8 H :    0.141724
   9 H :    0.151193
  10 H :    0.141844
  11 Pd:   -0.065607
  12 O :   -0.155294
  13 O :   -0.149283
  14 O :   -0.151359
  15 C :    0.126872
  16 O :   -0.180600
  17 H :    0.173203
  18 C :    0.166873
  19 H :    0.124081
  20 H :    0.114058

  Mayer bond orders larger than 0.100000
B(  0-C ,  1-C ) :   1.4380 B(  0-C ,  4-C ) :   1.3508 B(  0-C ,  6-H ) :   0.9105
B(  1-C ,  2-C ) :   1.4144 B(  1-C ,  7-H ) :   0.9168 B(  2-C ,  3-C ) :   1.4221
B(  2-C ,  8-H ) :   0.9130 B(  3-C ,  5-C ) :   1.4300 B(  3-C , 10-H ) :   0.9175
B(  4-C ,  5-C ) :   1.3828 B(  4-C , 17-H ) :   0.8915 B(  5-C ,  9-H ) :   0.9081
B( 11-Pd, 12-O ) :   0.4949 B( 11-Pd, 13-O ) :   0.5943 B( 11-Pd, 14-O ) :   0.6618
B( 11-Pd, 16-O ) :   0.3037 B( 12-O , 13-O ) :   0.1127 B( 12-O , 18-C ) :   1.5581
B( 13-O , 18-C ) :   1.3956 B( 14-O , 15-C ) :   1.3174 B( 14-O , 16-O ) :   0.1043
B( 15-C , 16-O ) :   1.7144 B( 15-C , 20-H ) :   0.8857 B( 18-C , 19-H ) :   0.8834

Dispersion correction           -0.013369923
FINAL SINGLE POINT ENERGY      -737.110021793923
Dispersion correction            ... done

DIPOLE MOMENT
-------------
                                X             Y             Z
Electronic contribution:     53.81134      43.39518       2.49450
Nuclear contribution   :    -54.22270     -44.05950      -2.71553
                        -----------------------------------------
Total Dipole Moment    :     -0.41137      -0.66432      -0.22103
                        -----------------------------------------
Magnitude (a.u.)       :      0.81203
Magnitude (Debye)      :      2.06403

Rotational constants in cm-1:     0.028604     0.018329     0.013702
Rotational constants in MHz :   857.523331   549.497564   410.787931

                             ****ORCA TERMINATED NORMALLY****
TOTAL RUN TIME: 0 days 0 hours 4 minutes 12 seconds 940 msec
