                         Program Version 5.0.3 -  RELEASE  -
|  1> ! EnGrad PBEh-3c
|  2> %output
|  3> xyzfile=True
|  4> end
|  5> %scf
|  6> maxiter 250
|  7> end
|  8> %output
|  9> Print[P_Hirshfeld] = 1
| 10> end
| 11> % maxcore
| 12> 4000
| 13> *xyz 0 1
| 14> C   -1.70266809   0.20921567  -0.24851820
| 15> C   -1.92128127  -0.79283383  -1.22048021
| 16> C   -1.47186572  -2.09956204  -1.04609579
| 17> C   -0.65885198  -2.30807216   0.06457144
| 18> C   -1.07283100  -0.04716407   0.98369974
| 19> C   -0.44476876  -1.29737173   1.02606706
| 20> H   -2.06230090   1.17873281  -0.55289706
| 21> H   -2.51995157  -0.59443311  -2.11913960
| 22> H   -1.75914227  -2.92118075  -1.73354428
| 23> H    0.23908088  -1.58591203   1.80218801
| 24> H   -0.25944627  -3.32030591   0.19930293
| 25> Pd   1.42448793   1.16252937   0.07930065
| 26> O    2.98742419   1.15475072  -1.46129105
| 27> O    2.57318632  -0.45684651  -0.06938100
| 28> O    0.39570790   2.82575297   0.04206078
| 29> C    0.09476990   2.95005244   1.28682884
| 30> O    0.53261466   2.16943646   2.09823690
| 31> H   -1.14403028   0.54997393   1.81055801
| 32> C    3.26428385   0.01798000  -1.02651989
| 33> H    4.09774084  -0.56306290  -1.45425876
| 34> H   -0.58813682   3.76029586   1.53874170
| 35> *
| 36>
| 37>                          ****END OF INPUT****

CARTESIAN COORDINATES (ANGSTROEM)
---------------------------------
  C     -1.702668    0.209216   -0.248518
  C     -1.921281   -0.792834   -1.220480
  C     -1.471866   -2.099562   -1.046096
  C     -0.658852   -2.308072    0.064571
  C     -1.072831   -0.047164    0.983700
  C     -0.444769   -1.297372    1.026067
  H     -2.062301    1.178733   -0.552897
  H     -2.519952   -0.594433   -2.119140
  H     -1.759142   -2.921181   -1.733544
  H      0.239081   -1.585912    1.802188
  H     -0.259446   -3.320306    0.199303
  Pd     1.424488    1.162529    0.079301
  O      2.987424    1.154751   -1.461291
  O      2.573186   -0.456847   -0.069381
  O      0.395708    2.825753    0.042061
  C      0.094770    2.950052    1.286829
  O      0.532615    2.169436    2.098237
  H     -1.144030    0.549974    1.810558
  C      3.264284    0.017980   -1.026520
  H      4.097741   -0.563063   -1.454259
  H     -0.588137    3.760296    1.538742

 Total Charge           Charge          ....    0
 Multiplicity           Mult            ....    1
 Number of Electrons    NEL             ....  106
 Basis Dimension        Dim             ....  227

ORBITAL ENERGIES
----------------

  NO   OCC          E(Eh)            E(eV)
   0   2.0000     -19.534460      -531.5597
   1   2.0000     -19.528492      -531.3973
   2   2.0000     -19.524069      -531.2769
   3   2.0000     -19.503203      -530.7091
   4   2.0000     -10.593225      -288.2563
   5   2.0000     -10.574766      -287.7540
   6   2.0000     -10.467187      -284.8266
   7   2.0000     -10.465152      -284.7713
   8   2.0000     -10.464046      -284.7412
   9   2.0000     -10.463451      -284.7250
  10   2.0000     -10.461269      -284.6656
  11   2.0000     -10.460063      -284.6328
  12   2.0000      -3.695060      -100.5477
  13   2.0000      -2.353050       -64.0297
  14   2.0000      -2.328491       -63.3615
  15   2.0000      -2.307536       -62.7912
  16   2.0000      -1.232036       -33.5254
  17   2.0000      -1.220972       -33.2243
  18   2.0000      -1.117431       -30.4068
  19   2.0000      -1.108612       -30.1669
  20   2.0000      -0.963370       -26.2146
  21   2.0000      -0.855252       -23.2726
  22   2.0000      -0.838673       -22.8215
  23   2.0000      -0.701245       -19.0818
  24   2.0000      -0.696270       -18.9465
  25   2.0000      -0.686462       -18.6796
  26   2.0000      -0.685629       -18.6569
  27   2.0000      -0.603752       -16.4289
  28   2.0000      -0.594705       -16.1828
  29   2.0000      -0.578804       -15.7501
  30   2.0000      -0.566058       -15.4032
  31   2.0000      -0.545998       -14.8574
  32   2.0000      -0.541786       -14.7428
  33   2.0000      -0.533307       -14.5120
  34   2.0000      -0.523826       -14.2540
  35   2.0000      -0.517206       -14.0739
  36   2.0000      -0.500147       -13.6097
  37   2.0000      -0.477614       -12.9966
  38   2.0000      -0.449818       -12.2402
  39   2.0000      -0.444962       -12.1080
  40   2.0000      -0.418436       -11.3862
  41   2.0000      -0.410379       -11.1670
  42   2.0000      -0.405105       -11.0235
  43   2.0000      -0.401119       -10.9150
  44   2.0000      -0.395551       -10.7635
  45   2.0000      -0.385878       -10.5003
  46   2.0000      -0.377508       -10.2725
  47   2.0000      -0.365308        -9.9405
  48   2.0000      -0.345071        -9.3899
  49   2.0000      -0.338355        -9.2071
  50   2.0000      -0.336394        -9.1537
  51   2.0000      -0.301012        -8.1909
  52   2.0000      -0.295539        -8.0420
  53   0.0000      -0.109333        -2.9751
  54   0.0000      -0.003288        -0.0895
  55   0.0000       0.005902         0.1606
  56   0.0000       0.020531         0.5587
  57   0.0000       0.039352         1.0708

MULLIKEN ATOMIC CHARGES
-----------------------
   0 C :   -0.226777
   1 C :   -0.219595
   2 C :   -0.215951
   3 C :   -0.214864
   4 C :   -0.309581
   5 C :   -0.226374
   6 H :    0.242211
   7 H :    0.226900
   8 H :    0.231502
   9 H :    0.248583
  10 H :    0.226074
  11 Pd:    0.607011
  12 O :   -0.436522
  13 O :   -0.481575
  14 O :   -0.495777
  15 C :    0.369276
  16 O :   -0.423647
  17 H :    0.284779
  18 C :    0.412592
  19 H :    0.209301
  20 H :    0.192434
Sum of atomic charges:    0.0000000

LOEWDIN ATOMIC CHARGES
----------------------
   0 C :   -0.109941
   1 C :   -0.132869
   2 C :   -0.124596
   3 C :   -0.128192
   4 C :   -0.124899
   5 C :   -0.104663
   6 H :    0.150512
   7 H :    0.140062
   8 H :    0.142051
   9 H :    0.152850
  10 H :    0.140434
  11 Pd:   -0.059280
  12 O :   -0.151333
  13 O :   -0.149494
  14 O :   -0.156539
  15 C :    0.124117
  16 O :   -0.178668
  17 H :    0.166002
  18 C :    0.167671
  19 H :    0.124205
  20 H :    0.112573

  Mayer bond orders larger than 0.100000
B(  0-C ,  1-C ) :   1.4384 B(  0-C ,  4-C ) :   1.3624 B(  0-C ,  6-H ) :   0.9100
B(  1-C ,  2-C ) :   1.4146 B(  1-C ,  7-H ) :   0.9173 B(  2-C ,  3-C ) :   1.4238
B(  2-C ,  8-H ) :   0.9140 B(  3-C ,  5-C ) :   1.4290 B(  3-C , 10-H ) :   0.9178
B(  4-C ,  5-C ) :   1.3953 B(  4-C , 17-H ) :   0.8860 B(  5-C ,  9-H ) :   0.9079
B( 11-Pd, 12-O ) :   0.4950 B( 11-Pd, 13-O ) :   0.5981 B( 11-Pd, 14-O ) :   0.6644
B( 11-Pd, 16-O ) :   0.2901 B( 12-O , 13-O ) :   0.1130 B( 12-O , 18-C ) :   1.5623
B( 13-O , 18-C ) :   1.3902 B( 14-O , 15-C ) :   1.3079 B( 14-O , 16-O ) :   0.1042
B( 15-C , 16-O ) :   1.7312 B( 15-C , 20-H ) :   0.8845 B( 18-C , 19-H ) :   0.8842

Dispersion correction           -0.013405576
FINAL SINGLE POINT ENERGY      -737.113257556707
Dispersion correction            ... done

DIPOLE MOMENT
-------------
                                X             Y             Z
Electronic contribution:     54.10353      43.09820       2.14130
Nuclear contribution   :    -54.46452     -43.79878      -2.41083
                        -----------------------------------------
Total Dipole Moment    :     -0.36099      -0.70058      -0.26953
                        -----------------------------------------
Magnitude (a.u.)       :      0.83293
Magnitude (Debye)      :      2.11713

Rotational constants in cm-1:     0.028773     0.018224     0.013652
Rotational constants in MHz :   862.602105   546.347915   409.284758

                             ****ORCA TERMINATED NORMALLY****
TOTAL RUN TIME: 0 days 0 hours 4 minutes 5 seconds 942 msec
