                         Program Version 5.0.3 -  RELEASE  -
|  1> ! EnGrad PBEh-3c
|  2> %output
|  3> xyzfile=True
|  4> end
|  5> %scf
|  6> maxiter 250
|  7> end
|  8> %output
|  9> Print[P_Hirshfeld] = 1
| 10> end
| 11> % maxcore
| 12> 4000
| 13> *xyz 0 1
| 14> C   -1.71276072   0.20766282  -0.25932236
| 15> C   -1.93650712  -0.79246618  -1.20610108
| 16> C   -1.49731921  -2.09858984  -1.02405534
| 17> C   -0.67561244  -2.30902201   0.07292471
| 18> C   -1.06278537  -0.10342943   0.90422933
| 19> C   -0.44636785  -1.31583046   1.02388932
| 20> H   -2.04651371   1.18759469  -0.54859063
| 21> H   -2.52679770  -0.59085215  -2.09460267
| 22> H   -1.78919340  -2.91893498  -1.70537768
| 23> H    0.24502518  -1.57684257   1.80228106
| 24> H   -0.27531499  -3.30589671   0.21119163
| 25> Pd   1.43032972   1.15838500   0.06808964
| 26> O    3.00463730   1.17398629  -1.44141511
| 27> O    2.58001425  -0.45625408  -0.07690807
| 28> O    0.39912556   2.82318292   0.04315779
| 29> C    0.09769079   2.94795318   1.28212073
| 30> O    0.52790326   2.16227900   2.12237547
| 31> H   -1.09681887   0.54468554   1.75569909
| 32> C    3.26907370   0.02885107  -1.02738413
| 33> H    4.11133474  -0.54117933  -1.43703412
| 34> H   -0.59488802   3.76611711   1.53399507
| 35> *
| 36>
| 37>                          ****END OF INPUT****

CARTESIAN COORDINATES (ANGSTROEM)
---------------------------------
  C     -1.712761    0.207663   -0.259322
  C     -1.936507   -0.792466   -1.206101
  C     -1.497319   -2.098590   -1.024055
  C     -0.675612   -2.309022    0.072925
  C     -1.062785   -0.103429    0.904229
  C     -0.446368   -1.315830    1.023889
  H     -2.046514    1.187595   -0.548591
  H     -2.526798   -0.590852   -2.094603
  H     -1.789193   -2.918935   -1.705378
  H      0.245025   -1.576843    1.802281
  H     -0.275315   -3.305897    0.211192
  Pd     1.430330    1.158385    0.068090
  O      3.004637    1.173986   -1.441415
  O      2.580014   -0.456254   -0.076908
  O      0.399126    2.823183    0.043158
  C      0.097691    2.947953    1.282121
  O      0.527903    2.162279    2.122375
  H     -1.096819    0.544686    1.755699
  C      3.269074    0.028851   -1.027384
  H      4.111335   -0.541179   -1.437034
  H     -0.594888    3.766117    1.533995

 Total Charge           Charge          ....    0
 Multiplicity           Mult            ....    1
 Number of Electrons    NEL             ....  106
 Basis Dimension        Dim             ....  227

ORBITAL ENERGIES
----------------

  NO   OCC          E(Eh)            E(eV)
   0   2.0000     -19.537523      -531.6430
   1   2.0000     -19.532062      -531.4944
   2   2.0000     -19.527494      -531.3701
   3   2.0000     -19.500751      -530.6424
   4   2.0000     -10.595109      -288.3076
   5   2.0000     -10.576935      -287.8130
   6   2.0000     -10.460777      -284.6522
   7   2.0000     -10.459807      -284.6258
   8   2.0000     -10.457727      -284.5692
   9   2.0000     -10.457054      -284.5509
  10   2.0000     -10.457001      -284.5495
  11   2.0000     -10.455492      -284.5084
  12   2.0000      -3.697399      -100.6113
  13   2.0000      -2.355435       -64.0946
  14   2.0000      -2.331032       -63.4306
  15   2.0000      -2.309686       -62.8498
  16   2.0000      -1.236618       -33.6501
  17   2.0000      -1.214208       -33.0403
  18   2.0000      -1.121853       -30.5272
  19   2.0000      -1.106219       -30.1018
  20   2.0000      -0.972583       -26.4653
  21   2.0000      -0.855480       -23.2788
  22   2.0000      -0.846551       -23.0358
  23   2.0000      -0.704239       -19.1633
  24   2.0000      -0.693295       -18.8655
  25   2.0000      -0.690514       -18.7898
  26   2.0000      -0.684663       -18.6306
  27   2.0000      -0.606482       -16.5032
  28   2.0000      -0.597781       -16.2665
  29   2.0000      -0.577903       -15.7255
  30   2.0000      -0.568996       -15.4832
  31   2.0000      -0.541870       -14.7450
  32   2.0000      -0.538608       -14.6563
  33   2.0000      -0.533984       -14.5305
  34   2.0000      -0.525813       -14.3081
  35   2.0000      -0.520321       -14.1587
  36   2.0000      -0.494859       -13.4658
  37   2.0000      -0.486870       -13.2484
  38   2.0000      -0.450135       -12.2488
  39   2.0000      -0.448896       -12.2151
  40   2.0000      -0.417359       -11.3569
  41   2.0000      -0.414058       -11.2671
  42   2.0000      -0.406785       -11.0692
  43   2.0000      -0.401702       -10.9309
  44   2.0000      -0.395377       -10.7588
  45   2.0000      -0.386517       -10.5177
  46   2.0000      -0.379092       -10.3156
  47   2.0000      -0.366240        -9.9659
  48   2.0000      -0.345147        -9.3919
  49   2.0000      -0.339809        -9.2467
  50   2.0000      -0.337873        -9.1940
  51   2.0000      -0.302455        -8.2302
  52   2.0000      -0.300183        -8.1684
  53   0.0000      -0.111556        -3.0356
  54   0.0000       0.003889         0.1058
  55   0.0000       0.008054         0.2192
  56   0.0000       0.018538         0.5045
  57   0.0000       0.037149         1.0109

MULLIKEN ATOMIC CHARGES
-----------------------
   0 C :   -0.199638
   1 C :   -0.234082
   2 C :   -0.210196
   3 C :   -0.228536
   4 C :   -0.344468
   5 C :   -0.199500
   6 H :    0.243808
   7 H :    0.225706
   8 H :    0.229135
   9 H :    0.250530
  10 H :    0.225064
  11 Pd:    0.609792
  12 O :   -0.435513
  13 O :   -0.479429
  14 O :   -0.490357
  15 C :    0.369984
  16 O :   -0.437179
  17 H :    0.287300
  18 C :    0.414983
  19 H :    0.210137
  20 H :    0.192459
Sum of atomic charges:    0.0000000

LOEWDIN ATOMIC CHARGES
----------------------
   0 C :   -0.117607
   1 C :   -0.126148
   2 C :   -0.127118
   3 C :   -0.122178
   4 C :   -0.127630
   5 C :   -0.111675
   6 H :    0.153364
   7 H :    0.137634
   8 H :    0.141909
   9 H :    0.155742
  10 H :    0.138045
  11 Pd:   -0.053025
  12 O :   -0.146309
  13 O :   -0.145722
  14 O :   -0.151884
  15 C :    0.130884
  16 O :   -0.201320
  17 H :    0.168141
  18 C :    0.167548
  19 H :    0.124373
  20 H :    0.112978

  Mayer bond orders larger than 0.100000
B(  0-C ,  1-C ) :   1.4354 B(  0-C ,  4-C ) :   1.3715 B(  0-C ,  6-H ) :   0.9097
B(  1-C ,  2-C ) :   1.4172 B(  1-C ,  7-H ) :   0.9173 B(  2-C ,  3-C ) :   1.4257
B(  2-C ,  8-H ) :   0.9166 B(  3-C ,  5-C ) :   1.4270 B(  3-C , 10-H ) :   0.9176
B(  4-C ,  5-C ) :   1.4030 B(  4-C , 17-H ) :   0.8766 B(  5-C ,  9-H ) :   0.9075
B( 11-Pd, 12-O ) :   0.5019 B( 11-Pd, 13-O ) :   0.6020 B( 11-Pd, 14-O ) :   0.6540
B( 11-Pd, 16-O ) :   0.2884 B( 12-O , 13-O ) :   0.1134 B( 12-O , 18-C ) :   1.5589
B( 13-O , 18-C ) :   1.3915 B( 14-O , 15-C ) :   1.3216 B( 14-O , 16-O ) :   0.1058
B( 15-C , 16-O ) :   1.7137 B( 15-C , 20-H ) :   0.8828 B( 18-C , 19-H ) :   0.8853

Dispersion correction           -0.013410531
FINAL SINGLE POINT ENERGY      -737.121082322880
Dispersion correction            ... done

DIPOLE MOMENT
-------------
                                X             Y             Z
Electronic contribution:     54.45271      42.97731       1.52464
Nuclear contribution   :    -54.74667     -43.68612      -1.89881
                        -----------------------------------------
Total Dipole Moment    :     -0.29396      -0.70881      -0.37417
                        -----------------------------------------
Magnitude (a.u.)       :      0.85371
Magnitude (Debye)      :      2.16996

Rotational constants in cm-1:     0.028970     0.018081     0.013603
Rotational constants in MHz :   868.488986   542.066852   407.806434

                             ****ORCA TERMINATED NORMALLY****
TOTAL RUN TIME: 0 days 0 hours 3 minutes 54 seconds 51 msec
