                         Program Version 5.0.3 -  RELEASE  -
|  1> ! EnGrad PBEh-3c
|  2> %output
|  3> xyzfile=True
|  4> end
|  5> %scf
|  6> maxiter 250
|  7> end
|  8> %output
|  9> Print[P_Hirshfeld] = 1
| 10> end
| 11> % maxcore
| 12> 4000
| 13> *xyz -1 1
| 14> Pd  -2.05230519  -1.54786380   0.60045420
| 15> Cl  -3.12511793  -3.31692673  -0.49226469
| 16> Cl   0.14188979  -5.18913898   0.53597718
| 17> Cl  -3.95876571  -1.25833695   1.79968706
| 18> N   -1.07857306   0.12177488   1.35871721
| 19> C   -1.42853580   0.73285774   2.47324253
| 20> C   -0.87781719   1.94059379   2.90559126
| 21> C    0.09458766   2.52847400   2.13656665
| 22> C   -0.11183367   0.67829233   0.59709623
| 23> C    0.49733480   1.89590284   0.95425770
| 24> H    0.54329602   3.46636460   2.44473489
| 25> H   -2.13248204   0.19967484   3.09991517
| 26> H   -1.20875852   2.39812671   3.82816019
| 27> C    0.28564304  -0.02780198  -0.57812692
| 28> C    1.50134153   2.44633858   0.09943836
| 29> C    1.86180021   1.80080027  -1.03163112
| 30> C    1.27450090   0.55017537  -1.39881008
| 31> H    1.96923329   3.38892386   0.36591678
| 32> H    2.62509788   2.23849133  -1.66972179
| 33> C   -0.30210151  -1.27944217  -0.86694958
| 34> C    1.67234444  -0.12957710  -2.55973425
| 35> C    0.08061897  -1.88780366  -2.05167292
| 36> C    1.08918206  -1.34595666  -2.85898928
| 37> H    2.42869549   0.29102163  -3.20438352
| 38> H    1.40617944  -1.86213632  -3.75041425
| 39> H   -0.76026032  -4.05607599  -0.34463067
| 40> H   -0.43519646  -2.77675243  -2.39242819
| 41> *
| 42>
| 43>                          ****END OF INPUT****

CARTESIAN COORDINATES (ANGSTROEM)
---------------------------------
  Pd    -2.052305   -1.547864    0.600454
  Cl    -3.125118   -3.316927   -0.492265
  Cl     0.141890   -5.189139    0.535977
  Cl    -3.958766   -1.258337    1.799687
  N     -1.078573    0.121775    1.358717
  C     -1.428536    0.732858    2.473243
  C     -0.877817    1.940594    2.905591
  C      0.094588    2.528474    2.136567
  C     -0.111834    0.678292    0.597096
  C      0.497335    1.895903    0.954258
  H      0.543296    3.466365    2.444735
  H     -2.132482    0.199675    3.099915
  H     -1.208759    2.398127    3.828160
  C      0.285643   -0.027802   -0.578127
  C      1.501342    2.446339    0.099438
  C      1.861800    1.800800   -1.031631
  C      1.274501    0.550175   -1.398810
  H      1.969233    3.388924    0.365917
  H      2.625098    2.238491   -1.669722
  C     -0.302102   -1.279442   -0.866950
  C      1.672344   -0.129577   -2.559734
  C      0.080619   -1.887804   -2.051673
  C      1.089182   -1.345957   -2.858989
  H      2.428695    0.291022   -3.204384
  H      1.406179   -1.862136   -3.750414
  H     -0.760260   -4.056076   -0.344631
  H     -0.435196   -2.776752   -2.392428

 Total Charge           Charge          ....   -1
 Multiplicity           Mult            ....    1
 Number of Electrons    NEL             ....  164
 Basis Dimension        Dim             ....  313

ORBITAL ENERGIES
----------------

  NO   OCC          E(Eh)            E(eV)
   0   2.0000    -102.148699     -2779.6074
   1   2.0000    -102.097774     -2778.2217
   2   2.0000    -102.082306     -2777.8008
   3   2.0000     -14.597067      -397.2064
   4   2.0000     -10.407449      -283.2011
   5   2.0000     -10.403038      -283.0811
   6   2.0000     -10.392785      -282.8021
   7   2.0000     -10.384701      -282.5821
   8   2.0000     -10.377624      -282.3895
   9   2.0000     -10.373306      -282.2720
  10   2.0000     -10.372293      -282.2445
  11   2.0000     -10.365784      -282.0673
  12   2.0000     -10.352952      -281.7181
  13   2.0000     -10.351511      -281.6789
  14   2.0000     -10.349949      -281.6364
  15   2.0000     -10.335215      -281.2355
  16   2.0000     -10.333820      -281.1975
  17   2.0000      -9.611164      -261.5331
  18   2.0000      -9.561030      -260.1688
  19   2.0000      -9.547187      -259.7922
  20   2.0000      -7.299041      -198.6170
  21   2.0000      -7.291040      -198.3993
  22   2.0000      -7.290993      -198.3980
  23   2.0000      -7.246448      -197.1859
  24   2.0000      -7.242728      -197.0846
  25   2.0000      -7.241687      -197.0563
  26   2.0000      -7.232717      -196.8122
  27   2.0000      -7.228367      -196.6939
  28   2.0000      -7.228069      -196.6858
  29   2.0000      -3.512620       -95.5832
  30   2.0000      -2.159210       -58.7551
  31   2.0000      -2.154368       -58.6233
  32   2.0000      -2.124065       -57.7987
  33   2.0000      -0.991061       -26.9681
  34   2.0000      -0.881831       -23.9958
  35   2.0000      -0.845937       -23.0191
  36   2.0000      -0.811639       -22.0858
  37   2.0000      -0.776896       -21.1404
  38   2.0000      -0.738660       -20.1000
  39   2.0000      -0.726838       -19.7783
  40   2.0000      -0.715171       -19.4608
  41   2.0000      -0.686850       -18.6901
  42   2.0000      -0.674428       -18.3521
  43   2.0000      -0.645286       -17.5591
  44   2.0000      -0.638721       -17.3805
  45   2.0000      -0.607990       -16.5443
  46   2.0000      -0.570450       -15.5227
  47   2.0000      -0.525372       -14.2961
  48   2.0000      -0.513760       -13.9801
  49   2.0000      -0.493686       -13.4339
  50   2.0000      -0.457655       -12.4534
  51   2.0000      -0.456348       -12.4179
  52   2.0000      -0.428467       -11.6592
  53   2.0000      -0.410957       -11.1827
  54   2.0000      -0.406418       -11.0592
  55   2.0000      -0.402006       -10.9391
  56   2.0000      -0.380868       -10.3639
  57   2.0000      -0.373402       -10.1608
  58   2.0000      -0.353587        -9.6216
  59   2.0000      -0.339646        -9.2422
  60   2.0000      -0.334435        -9.1004
  61   2.0000      -0.314512        -8.5583
  62   2.0000      -0.309636        -8.4256
  63   2.0000      -0.301670        -8.2089
  64   2.0000      -0.291801        -7.9403
  65   2.0000      -0.262186        -7.1344
  66   2.0000      -0.261399        -7.1130
  67   2.0000      -0.253331        -6.8935
  68   2.0000      -0.235357        -6.4044
  69   2.0000      -0.225068        -6.1244
  70   2.0000      -0.220640        -6.0039
  71   2.0000      -0.216685        -5.8963
  72   2.0000      -0.215368        -5.8605
  73   2.0000      -0.210420        -5.7258
  74   2.0000      -0.182329        -4.9614
  75   2.0000      -0.177807        -4.8384
  76   2.0000      -0.167010        -4.5446
  77   2.0000      -0.156723        -4.2646
  78   2.0000      -0.152995        -4.1632
  79   2.0000      -0.149165        -4.0590
  80   2.0000      -0.147129        -4.0036
  81   2.0000      -0.133312        -3.6276
  82   0.0000       0.047571         1.2945
  83   0.0000       0.070285         1.9126
  84   0.0000       0.094450         2.5701
  85   0.0000       0.104104         2.8328
  86   0.0000       0.110962         3.0194

MULLIKEN ATOMIC CHARGES
-----------------------
   0 Pd:    0.171738
   1 Cl:   -0.371379
   2 Cl:   -0.376527
   3 Cl:   -0.408196
   4 N :   -0.575420
   5 C :    0.032483
   6 C :   -0.327237
   7 C :   -0.158485
   8 C :    0.407543
   9 C :    0.033593
  10 H :    0.210209
  11 H :    0.280344
  12 H :    0.219753
  13 C :   -0.000226
  14 C :   -0.306395
  15 C :   -0.292738
  16 C :    0.135926
  17 H :    0.192834
  18 H :    0.193730
  19 C :   -0.075892
  20 C :   -0.327651
  21 C :   -0.358664
  22 C :   -0.189814
  23 H :    0.185648
  24 H :    0.192560
  25 H :    0.291185
  26 H :    0.221078
Sum of atomic charges:   -1.0000000

LOEWDIN ATOMIC CHARGES
----------------------
   0 Pd:   -0.811669
   1 Cl:   -0.106250
   2 Cl:   -0.315155
   3 Cl:   -0.130127
   4 N :    0.041874
   5 C :    0.002704
   6 C :   -0.173621
   7 C :   -0.088576
   8 C :    0.089313
   9 C :   -0.057890
  10 H :    0.134243
  11 H :    0.167152
  12 H :    0.140108
  13 C :   -0.039472
  14 C :   -0.145344
  15 C :   -0.116166
  16 C :   -0.035679
  17 H :    0.129209
  18 H :    0.129776
  19 C :   -0.042780
  20 C :   -0.159298
  21 C :   -0.143159
  22 C :   -0.125725
  23 H :    0.123386
  24 H :    0.125265
  25 H :    0.268150
  26 H :    0.139730

  Mayer bond orders larger than 0.100000
B(  0-Pd,  1-Cl) :   0.7748 B(  0-Pd,  3-Cl) :   0.7887 B(  0-Pd,  4-N ) :   0.4118
B(  0-Pd, 19-C ) :   0.6212 B(  1-Cl, 25-H ) :   0.1186 B(  2-Cl, 25-H ) :   0.7682
B(  3-Cl, 19-C ) :   0.1020 B(  4-N ,  5-C ) :   1.4794 B(  4-N ,  8-C ) :   1.1432
B(  5-C ,  6-C ) :   1.3136 B(  5-C , 11-H ) :   0.8735 B(  6-C ,  7-C ) :   1.4574
B(  6-C , 12-H ) :   0.9201 B(  7-C ,  9-C ) :   1.2770 B(  7-C , 10-H ) :   0.9290
B(  8-C ,  9-C ) :   1.2263 B(  8-C , 13-C ) :   1.1354 B(  9-C , 14-C ) :   1.1643
B( 13-C , 16-C ) :   1.2599 B( 13-C , 19-C ) :   1.2616 B( 14-C , 15-C ) :   1.6516
B( 14-C , 17-H ) :   0.9306 B( 15-C , 16-C ) :   1.1525 B( 15-C , 18-H ) :   0.9291
B( 16-C , 20-C ) :   1.2841 B( 19-C , 21-C ) :   1.4735 B( 20-C , 22-C ) :   1.4907
B( 20-C , 23-H ) :   0.9317 B( 21-C , 22-C ) :   1.3511 B( 21-C , 26-H ) :   0.9086
B( 22-C , 24-H ) :   0.9244

Dispersion correction           -0.023774949
FINAL SINGLE POINT ENERGY     -2061.458846251719
Dispersion correction            ... done

DIPOLE MOMENT
-------------
                                X             Y             Z
Electronic contribution:    -82.67698     -50.22748      24.84557
Nuclear contribution   :     85.35597      54.00869     -24.82117
                        -----------------------------------------
Total Dipole Moment    :      2.67899       3.78122       0.02440
                        -----------------------------------------
Magnitude (a.u.)       :      4.63413
Magnitude (Debye)      :     11.77903

Rotational constants in cm-1:     0.010620     0.007413     0.005189
Rotational constants in MHz :   318.385564   222.238217   155.574402

                             ****ORCA TERMINATED NORMALLY****
TOTAL RUN TIME: 0 days 0 hours 9 minutes 5 seconds 988 msec
