                         Program Version 5.0.3 -  RELEASE  -
|  1> ! EnGrad PBEh-3c
|  2> %output
|  3> xyzfile=True
|  4> end
|  5> %scf
|  6> maxiter 250
|  7> end
|  8> %output
|  9> Print[P_Hirshfeld] = 1
| 10> end
| 11> % maxcore
| 12> 4000
| 13> *xyz -1 1
| 14> Pd  -1.95324214  -1.51027346   0.40215197
| 15> Cl  -3.10163741  -3.31709459  -0.42438649
| 16> Cl  -0.27506950  -4.88254187   0.81867481
| 17> Cl  -4.04009974  -0.87916069   1.51632774
| 18> N   -1.01628800   0.04763214   1.37780070
| 19> C   -1.36027848   0.60067541   2.53043242
| 20> C   -0.83088298   1.83173848   2.94690946
| 21> C    0.08302852   2.46532593   2.14351642
| 22> C   -0.08298589   0.62650193   0.60952042
| 23> C    0.48628082   1.86017490   0.94963452
| 24> H    0.52596667   3.41473264   2.43354510
| 25> H   -2.10415526   0.08153135   3.13736331
| 26> H   -1.16245719   2.27610780   3.87478236
| 27> C    0.29862253  -0.08293151  -0.57021966
| 28> C    1.44880613   2.44615630   0.07645247
| 29> C    1.80119108   1.81789668  -1.06220718
| 30> C    1.25710090   0.53552873  -1.41140319
| 31> H    1.88423027   3.40022635   0.35207671
| 32> H    2.53360684   2.28149944  -1.72539608
| 33> C   -0.32512624  -1.32725024  -0.87126807
| 34> C    1.67521744  -0.11098861  -2.58942225
| 35> C    0.12295686  -1.92190584  -2.04071185
| 36> C    1.10993987  -1.33848223  -2.87580993
| 37> H    2.40450116   0.36552353  -3.24369149
| 38> H    1.45756388  -1.83346765  -3.78828968
| 39> H   -0.53536637  -3.99820661  -0.15284927
| 40> H   -0.29199081  -2.84329671  -2.41565983
| 41> *
| 42>
| 43>                          ****END OF INPUT****

CARTESIAN COORDINATES (ANGSTROEM)
---------------------------------
  Pd    -1.953242   -1.510273    0.402152
  Cl    -3.101637   -3.317095   -0.424386
  Cl    -0.275070   -4.882542    0.818675
  Cl    -4.040100   -0.879161    1.516328
  N     -1.016288    0.047632    1.377801
  C     -1.360278    0.600675    2.530432
  C     -0.830883    1.831738    2.946909
  C      0.083029    2.465326    2.143516
  C     -0.082986    0.626502    0.609520
  C      0.486281    1.860175    0.949635
  H      0.525967    3.414733    2.433545
  H     -2.104155    0.081531    3.137363
  H     -1.162457    2.276108    3.874782
  C      0.298623   -0.082932   -0.570220
  C      1.448806    2.446156    0.076452
  C      1.801191    1.817897   -1.062207
  C      1.257101    0.535529   -1.411403
  H      1.884230    3.400226    0.352077
  H      2.533607    2.281499   -1.725396
  C     -0.325126   -1.327250   -0.871268
  C      1.675217   -0.110989   -2.589422
  C      0.122957   -1.921906   -2.040712
  C      1.109940   -1.338482   -2.875810
  H      2.404501    0.365524   -3.243691
  H      1.457564   -1.833468   -3.788290
  H     -0.535366   -3.998207   -0.152849
  H     -0.291991   -2.843297   -2.415660

 Total Charge           Charge          ....   -1
 Multiplicity           Mult            ....    1
 Number of Electrons    NEL             ....  164
 Basis Dimension        Dim             ....  313

ORBITAL ENERGIES
----------------

  NO   OCC          E(Eh)            E(eV)
   0   2.0000    -102.158838     -2779.8833
   1   2.0000    -102.075826     -2777.6244
   2   2.0000    -102.059166     -2777.1711
   3   2.0000     -14.591119      -397.0445
   4   2.0000     -10.403432      -283.0918
   5   2.0000     -10.402962      -283.0790
   6   2.0000     -10.389679      -282.7175
   7   2.0000     -10.380439      -282.4661
   8   2.0000     -10.375562      -282.3334
   9   2.0000     -10.372392      -282.2471
  10   2.0000     -10.371254      -282.2162
  11   2.0000     -10.367926      -282.1256
  12   2.0000     -10.356258      -281.8081
  13   2.0000     -10.355589      -281.7899
  14   2.0000     -10.352498      -281.7058
  15   2.0000     -10.340677      -281.3841
  16   2.0000     -10.338907      -281.3360
  17   2.0000      -9.626456      -261.9492
  18   2.0000      -9.540092      -259.5991
  19   2.0000      -9.522631      -259.1240
  20   2.0000      -7.313928      -199.0221
  21   2.0000      -7.306083      -198.8086
  22   2.0000      -7.305930      -198.8045
  23   2.0000      -7.225899      -196.6267
  24   2.0000      -7.221114      -196.4965
  25   2.0000      -7.220922      -196.4913
  26   2.0000      -7.207741      -196.1326
  27   2.0000      -7.204241      -196.0374
  28   2.0000      -7.203951      -196.0295
  29   2.0000      -3.509770       -95.5057
  30   2.0000      -2.156599       -58.6840
  31   2.0000      -2.150993       -58.5315
  32   2.0000      -2.121397       -57.7262
  33   2.0000      -0.988936       -26.9103
  34   2.0000      -0.880044       -23.9472
  35   2.0000      -0.844283       -22.9741
  36   2.0000      -0.809430       -22.0257
  37   2.0000      -0.777028       -21.1440
  38   2.0000      -0.775763       -21.1096
  39   2.0000      -0.735918       -20.0253
  40   2.0000      -0.718139       -19.5415
  41   2.0000      -0.668974       -18.2037
  42   2.0000      -0.648716       -17.6524
  43   2.0000      -0.642588       -17.4857
  44   2.0000      -0.635519       -17.2933
  45   2.0000      -0.608632       -16.5617
  46   2.0000      -0.569973       -15.5098
  47   2.0000      -0.525600       -14.3023
  48   2.0000      -0.512099       -13.9349
  49   2.0000      -0.492236       -13.3944
  50   2.0000      -0.457388       -12.4462
  51   2.0000      -0.454402       -12.3649
  52   2.0000      -0.426024       -11.5927
  53   2.0000      -0.410078       -11.1588
  54   2.0000      -0.405594       -11.0368
  55   2.0000      -0.398944       -10.8558
  56   2.0000      -0.379553       -10.3282
  57   2.0000      -0.375918       -10.2293
  58   2.0000      -0.373546       -10.1647
  59   2.0000      -0.351840        -9.5741
  60   2.0000      -0.338862        -9.2209
  61   2.0000      -0.335352        -9.1254
  62   2.0000      -0.311339        -8.4720
  63   2.0000      -0.301692        -8.2095
  64   2.0000      -0.289974        -7.8906
  65   2.0000      -0.261180        -7.1071
  66   2.0000      -0.254679        -6.9302
  67   2.0000      -0.244426        -6.6512
  68   2.0000      -0.239272        -6.5109
  69   2.0000      -0.238512        -6.4903
  70   2.0000      -0.234475        -6.3804
  71   2.0000      -0.215422        -5.8619
  72   2.0000      -0.206199        -5.6110
  73   2.0000      -0.202353        -5.5063
  74   2.0000      -0.179209        -4.8765
  75   2.0000      -0.173664        -4.7256
  76   2.0000      -0.164667        -4.4808
  77   2.0000      -0.150329        -4.0907
  78   2.0000      -0.141762        -3.8575
  79   2.0000      -0.135795        -3.6952
  80   2.0000      -0.131224        -3.5708
  81   2.0000      -0.121844        -3.3155
  82   0.0000       0.049811         1.3554
  83   0.0000       0.072102         1.9620
  84   0.0000       0.103352         2.8124
  85   0.0000       0.111696         3.0394
  86   0.0000       0.144928         3.9437

MULLIKEN ATOMIC CHARGES
-----------------------
   0 Pd:    0.182775
   1 Cl:   -0.386055
   2 Cl:   -0.335114
   3 Cl:   -0.476309
   4 N :   -0.572415
   5 C :    0.035864
   6 C :   -0.338364
   7 C :   -0.157087
   8 C :    0.416810
   9 C :    0.048932
  10 H :    0.207645
  11 H :    0.285330
  12 H :    0.218765
  13 C :    0.029713
  14 C :   -0.303080
  15 C :   -0.292146
  16 C :    0.116277
  17 H :    0.192057
  18 H :    0.192922
  19 C :   -0.111853
  20 C :   -0.320289
  21 C :   -0.359508
  22 C :   -0.201013
  23 H :    0.188389
  24 H :    0.190645
  25 H :    0.325048
  26 H :    0.222061
Sum of atomic charges:   -1.0000000

LOEWDIN ATOMIC CHARGES
----------------------
   0 Pd:   -0.794317
   1 Cl:   -0.112008
   2 Cl:   -0.202160
   3 Cl:   -0.253735
   4 N :    0.042033
   5 C :    0.006388
   6 C :   -0.171351
   7 C :   -0.090000
   8 C :    0.086384
   9 C :   -0.058438
  10 H :    0.133428
  11 H :    0.169848
  12 H :    0.139634
  13 C :   -0.026580
  14 C :   -0.143024
  15 C :   -0.118267
  16 C :   -0.032106
  17 H :    0.128626
  18 H :    0.129667
  19 C :   -0.023892
  20 C :   -0.161501
  21 C :   -0.142300
  22 C :   -0.126315
  23 H :    0.124163
  24 H :    0.124622
  25 H :    0.230375
  26 H :    0.140824

  Mayer bond orders larger than 0.100000
B(  0-Pd,  1-Cl) :   0.8533 B(  0-Pd,  3-Cl) :   0.6846 B(  0-Pd,  4-N ) :   0.4101
B(  0-Pd, 19-C ) :   0.7523 B(  2-Cl, 25-H ) :   0.8343 B(  4-N ,  5-C ) :   1.4811
B(  4-N ,  8-C ) :   1.1369 B(  5-C ,  6-C ) :   1.3066 B(  5-C , 11-H ) :   0.8703
B(  6-C ,  7-C ) :   1.4572 B(  6-C , 12-H ) :   0.9210 B(  7-C ,  9-C ) :   1.2797
B(  7-C , 10-H ) :   0.9296 B(  8-C ,  9-C ) :   1.2217 B(  8-C , 13-C ) :   1.1367
B(  9-C , 14-C ) :   1.1663 B( 13-C , 16-C ) :   1.2756 B( 13-C , 19-C ) :   1.1945
B( 14-C , 15-C ) :   1.6489 B( 14-C , 17-H ) :   0.9299 B( 15-C , 16-C ) :   1.1540
B( 15-C , 18-H ) :   0.9290 B( 16-C , 20-C ) :   1.2789 B( 19-C , 21-C ) :   1.4568
B( 20-C , 22-C ) :   1.4987 B( 20-C , 23-H ) :   0.9296 B( 21-C , 22-C ) :   1.3435
B( 21-C , 26-H ) :   0.9133 B( 22-C , 24-H ) :   0.9253

Dispersion correction           -0.023920627
FINAL SINGLE POINT ENERGY     -2061.502134143122
Dispersion correction            ... done

DIPOLE MOMENT
-------------
                                X             Y             Z
Electronic contribution:    -75.42036     -50.74370      14.55995
Nuclear contribution   :     78.94773      53.79663     -14.52432
                        -----------------------------------------
Total Dipole Moment    :      3.52736       3.05294       0.03563
                        -----------------------------------------
Magnitude (a.u.)       :      4.66519
Magnitude (Debye)      :     11.85797

Rotational constants in cm-1:     0.011326     0.007673     0.005505
Rotational constants in MHz :   339.556405   230.042395   165.046136

                             ****ORCA TERMINATED NORMALLY****
TOTAL RUN TIME: 0 days 0 hours 9 minutes 12 seconds 589 msec
