                         Program Version 5.0.3 -  RELEASE  -
|  1> ! EnGrad PBEh-3c
|  2> %output
|  3> xyzfile=True
|  4> end
|  5> %scf
|  6> maxiter 250
|  7> end
|  8> %output
|  9> Print[P_Hirshfeld] = 1
| 10> end
| 11> % maxcore
| 12> 4000
| 13> *xyz -1 1
| 14> Pd  -1.95620061  -1.50294618   0.39216610
| 15> Cl  -3.10078037  -3.31665190  -0.42267420
| 16> Cl  -0.30330939  -4.86283559   0.85783425
| 17> Cl  -4.03791050  -0.83863034   1.48101448
| 18> N   -1.00915327   0.03815557   1.37775684
| 19> C   -1.35592081   0.58687239   2.53387195
| 20> C   -0.82416846   1.81909917   2.95095756
| 21> C    0.08109991   2.45583137   2.14641592
| 22> C   -0.07987320   0.61945623   0.61135630
| 23> C    0.48592462   1.85658094   0.95033188
| 24> H    0.52284912   3.40924629   2.43261040
| 25> H   -2.09914366   0.06896522   3.13866487
| 26> H   -1.15688599   2.26150276   3.88029941
| 27> C    0.30012685  -0.08578987  -0.57144423
| 28> C    1.44304837   2.44514906   0.07172846
| 29> C    1.79367658   1.81925573  -1.06309873
| 30> C    1.25663279   0.53452222  -1.41321563
| 31> H    1.87485108   3.40243211   0.35019548
| 32> H    2.52229498   2.28512116  -1.73159100
| 33> C   -0.31954435  -1.33044828  -0.87542800
| 34> C    1.67281202  -0.10938228  -2.59151586
| 35> C    0.12986481  -1.92626692  -2.04391693
| 36> C    1.11367590  -1.33767384  -2.87738025
| 37> H    2.39929204   0.37150423  -3.24618526
| 38> H    1.45948336  -1.83099070  -3.78845207
| 39> H   -0.52459626  -3.97290886  -0.13742961
| 40> H   -0.27770446  -2.85295642  -2.41533091
| 41> *
| 42>
| 43>                          ****END OF INPUT****

CARTESIAN COORDINATES (ANGSTROEM)
---------------------------------
  Pd    -1.956201   -1.502946    0.392166
  Cl    -3.100780   -3.316652   -0.422674
  Cl    -0.303309   -4.862836    0.857834
  Cl    -4.037910   -0.838630    1.481014
  N     -1.009153    0.038156    1.377757
  C     -1.355921    0.586872    2.533872
  C     -0.824168    1.819099    2.950958
  C      0.081100    2.455831    2.146416
  C     -0.079873    0.619456    0.611356
  C      0.485925    1.856581    0.950332
  H      0.522849    3.409246    2.432610
  H     -2.099144    0.068965    3.138665
  H     -1.156886    2.261503    3.880299
  C      0.300127   -0.085790   -0.571444
  C      1.443048    2.445149    0.071728
  C      1.793677    1.819256   -1.063099
  C      1.256633    0.534522   -1.413216
  H      1.874851    3.402432    0.350195
  H      2.522295    2.285121   -1.731591
  C     -0.319544   -1.330448   -0.875428
  C      1.672812   -0.109382   -2.591516
  C      0.129865   -1.926267   -2.043917
  C      1.113676   -1.337674   -2.877380
  H      2.399292    0.371504   -3.246185
  H      1.459483   -1.830991   -3.788452
  H     -0.524596   -3.972909   -0.137430
  H     -0.277704   -2.852956   -2.415331

 Total Charge           Charge          ....   -1
 Multiplicity           Mult            ....    1
 Number of Electrons    NEL             ....  164
 Basis Dimension        Dim             ....  313

ORBITAL ENERGIES
----------------

  NO   OCC          E(Eh)            E(eV)
   0   2.0000    -102.158660     -2779.8785
   1   2.0000    -102.075134     -2777.6056
   2   2.0000    -102.059650     -2777.1843
   3   2.0000     -14.590967      -397.0404
   4   2.0000     -10.403895      -283.1044
   5   2.0000     -10.402771      -283.0738
   6   2.0000     -10.389327      -282.7080
   7   2.0000     -10.380332      -282.4632
   8   2.0000     -10.375499      -282.3317
   9   2.0000     -10.372021      -282.2370
  10   2.0000     -10.371008      -282.2095
  11   2.0000     -10.367521      -282.1146
  12   2.0000     -10.355653      -281.7916
  13   2.0000     -10.355277      -281.7814
  14   2.0000     -10.352170      -281.6969
  15   2.0000     -10.340425      -281.3773
  16   2.0000     -10.338904      -281.3359
  17   2.0000      -9.625916      -261.9345
  18   2.0000      -9.539419      -259.5808
  19   2.0000      -9.523154      -259.1382
  20   2.0000      -7.313430      -199.0085
  21   2.0000      -7.305556      -198.7943
  22   2.0000      -7.305396      -198.7899
  23   2.0000      -7.225228      -196.6084
  24   2.0000      -7.220435      -196.4780
  25   2.0000      -7.220251      -196.4730
  26   2.0000      -7.208260      -196.1467
  27   2.0000      -7.204764      -196.0516
  28   2.0000      -7.204470      -196.0436
  29   2.0000      -3.509508       -95.4986
  30   2.0000      -2.156376       -58.6780
  31   2.0000      -2.150763       -58.5252
  32   2.0000      -2.121125       -57.7188
  33   2.0000      -0.989124       -26.9154
  34   2.0000      -0.880294       -23.9540
  35   2.0000      -0.844513       -22.9804
  36   2.0000      -0.809975       -22.0405
  37   2.0000      -0.776960       -21.1422
  38   2.0000      -0.773266       -21.0416
  39   2.0000      -0.736092       -20.0301
  40   2.0000      -0.718385       -19.5483
  41   2.0000      -0.668440       -18.1892
  42   2.0000      -0.649385       -17.6707
  43   2.0000      -0.642589       -17.4857
  44   2.0000      -0.635706       -17.2984
  45   2.0000      -0.608581       -16.5603
  46   2.0000      -0.569789       -15.5047
  47   2.0000      -0.525719       -14.3055
  48   2.0000      -0.512452       -13.9445
  49   2.0000      -0.492251       -13.3948
  50   2.0000      -0.457199       -12.4410
  51   2.0000      -0.454438       -12.3659
  52   2.0000      -0.426262       -11.5992
  53   2.0000      -0.410379       -11.1670
  54   2.0000      -0.405688       -11.0393
  55   2.0000      -0.398592       -10.8462
  56   2.0000      -0.379988       -10.3400
  57   2.0000      -0.375720       -10.2239
  58   2.0000      -0.371695       -10.1143
  59   2.0000      -0.351488        -9.5645
  60   2.0000      -0.338878        -9.2213
  61   2.0000      -0.335231        -9.1221
  62   2.0000      -0.311876        -8.4866
  63   2.0000      -0.302007        -8.2180
  64   2.0000      -0.289802        -7.8859
  65   2.0000      -0.261674        -7.1205
  66   2.0000      -0.254319        -6.9204
  67   2.0000      -0.244482        -6.6527
  68   2.0000      -0.238629        -6.4934
  69   2.0000      -0.237864        -6.4726
  70   2.0000      -0.233899        -6.3647
  71   2.0000      -0.215607        -5.8670
  72   2.0000      -0.206208        -5.6112
  73   2.0000      -0.201278        -5.4771
  74   2.0000      -0.179437        -4.8827
  75   2.0000      -0.173555        -4.7227
  76   2.0000      -0.164873        -4.4864
  77   2.0000      -0.149999        -4.0817
  78   2.0000      -0.141442        -3.8488
  79   2.0000      -0.135508        -3.6874
  80   2.0000      -0.131167        -3.5692
  81   2.0000      -0.121466        -3.3053
  82   0.0000       0.050164         1.3650
  83   0.0000       0.072271         1.9666
  84   0.0000       0.103376         2.8130
  85   0.0000       0.111934         3.0459
  86   0.0000       0.145268         3.9529

MULLIKEN ATOMIC CHARGES
-----------------------
   0 Pd:    0.183114
   1 Cl:   -0.386681
   2 Cl:   -0.333742
   3 Cl:   -0.474809
   4 N :   -0.573145
   5 C :    0.036353
   6 C :   -0.339268
   7 C :   -0.155629
   8 C :    0.417718
   9 C :    0.048594
  10 H :    0.206999
  11 H :    0.285611
  12 H :    0.218508
  13 C :    0.027390
  14 C :   -0.300518
  15 C :   -0.292237
  16 C :    0.118346
  17 H :    0.191628
  18 H :    0.192392
  19 C :   -0.115478
  20 C :   -0.319773
  21 C :   -0.358469
  22 C :   -0.201359
  23 H :    0.188040
  24 H :    0.190760
  25 H :    0.323585
  26 H :    0.222070
Sum of atomic charges:   -1.0000000

LOEWDIN ATOMIC CHARGES
----------------------
   0 Pd:   -0.799354
   1 Cl:   -0.112321
   2 Cl:   -0.203342
   3 Cl:   -0.249479
   4 N :    0.042292
   5 C :    0.007560
   6 C :   -0.171097
   7 C :   -0.090474
   8 C :    0.086178
   9 C :   -0.058151
  10 H :    0.133237
  11 H :    0.169763
  12 H :    0.139638
  13 C :   -0.026597
  14 C :   -0.142770
  15 C :   -0.118052
  16 C :   -0.032159
  17 H :    0.128560
  18 H :    0.129524
  19 C :   -0.025150
  20 C :   -0.161319
  21 C :   -0.142495
  22 C :   -0.126411
  23 H :    0.124111
  24 H :    0.124573
  25 H :    0.232942
  26 H :    0.140797

  Mayer bond orders larger than 0.100000
B(  0-Pd,  1-Cl) :   0.8543 B(  0-Pd,  3-Cl) :   0.6876 B(  0-Pd,  4-N ) :   0.4108
B(  0-Pd, 19-C ) :   0.7487 B(  2-Cl, 25-H ) :   0.8355 B(  4-N ,  5-C ) :   1.4781
B(  4-N ,  8-C ) :   1.1388 B(  5-C ,  6-C ) :   1.3077 B(  5-C , 11-H ) :   0.8711
B(  6-C ,  7-C ) :   1.4563 B(  6-C , 12-H ) :   0.9211 B(  7-C ,  9-C ) :   1.2816
B(  7-C , 10-H ) :   0.9297 B(  8-C ,  9-C ) :   1.2228 B(  8-C , 13-C ) :   1.1349
B(  9-C , 14-C ) :   1.1652 B( 13-C , 16-C ) :   1.2782 B( 13-C , 19-C ) :   1.1977
B( 14-C , 15-C ) :   1.6498 B( 14-C , 17-H ) :   0.9299 B( 15-C , 16-C ) :   1.1528
B( 15-C , 18-H ) :   0.9290 B( 16-C , 20-C ) :   1.2794 B( 19-C , 21-C ) :   1.4566
B( 20-C , 22-C ) :   1.4981 B( 20-C , 23-H ) :   0.9297 B( 21-C , 22-C ) :   1.3451
B( 21-C , 26-H ) :   0.9134 B( 22-C , 24-H ) :   0.9251

Dispersion correction           -0.023945028
FINAL SINGLE POINT ENERGY     -2061.500338138108
Dispersion correction            ... done

DIPOLE MOMENT
-------------
                                X             Y             Z
Electronic contribution:    -75.50812     -50.52772      14.06407
Nuclear contribution   :     79.03783      53.56309     -14.00633
                        -----------------------------------------
Total Dipole Moment    :      3.52971       3.03537       0.05774
                        -----------------------------------------
Magnitude (a.u.)       :      4.65571
Magnitude (Debye)      :     11.83387

Rotational constants in cm-1:     0.011356     0.007685     0.005535
Rotational constants in MHz :   340.454955   230.377136   165.931848

                             ****ORCA TERMINATED NORMALLY****
TOTAL RUN TIME: 0 days 0 hours 8 minutes 36 seconds 806 msec
