                         Program Version 5.0.3 -  RELEASE  -
|  1> ! EnGrad PBEh-3c
|  2> %output
|  3> xyzfile=True
|  4> end
|  5> %scf
|  6> maxiter 250
|  7> end
|  8> %output
|  9> Print[P_Hirshfeld] = 1
| 10> end
| 11> % maxcore
| 12> 4000
| 13> *xyz -1 1
| 14> Pd  -1.95388838  -1.50867290   0.39997068
| 15> Cl  -3.10145020  -3.31699789  -0.42401246
| 16> Cl  -0.28123816  -4.87823727   0.82722871
| 17> Cl  -4.03962153  -0.87030733   1.50861399
| 18> N   -1.01472950   0.04556210   1.37779112
| 19> C   -1.35932660   0.59766031   2.53118375
| 20> C   -0.82941627   1.82897757   2.94779372
| 21> C    0.08260723   2.46325196   2.14414978
| 22> C   -0.08230596   0.62496288   0.60992145
| 23> C    0.48620301   1.85938984   0.94978685
| 24> H    0.52528568   3.41353421   2.43334092
| 25> H   -2.10306054   0.07878643   3.13764762
| 26> H   -1.16124023   2.27291751   3.87598749
| 27> C    0.29895113  -0.08355588  -0.57048716
| 28> C    1.44754842   2.44593628   0.07542057
| 29> C    1.79954963   1.81819355  -1.06240193
| 30> C    1.25699865   0.53530887  -1.41179910
| 31> H    1.88218150   3.40070817   0.35166578
| 32> H    2.53113590   2.28229056  -1.72674929
| 33> C   -0.32390695  -1.32794882  -0.87217676
| 34> C    1.67469200  -0.11063773  -2.58987958
| 35> C    0.12446582  -1.92285847  -2.04141196
| 36> C    1.11075596  -1.33830565  -2.87615295
| 37> H    2.40336329   0.36682994  -3.24423622
| 38> H    1.45798317  -1.83292659  -3.78832515
| 39> H   -0.53301377  -3.99268063  -0.14948103
| 40> H   -0.28887013  -2.84540676  -2.41558798
| 41> *
| 42>
| 43>                          ****END OF INPUT****

CARTESIAN COORDINATES (ANGSTROEM)
---------------------------------
  Pd    -1.953888   -1.508673    0.399971
  Cl    -3.101450   -3.316998   -0.424012
  Cl    -0.281238   -4.878237    0.827229
  Cl    -4.039622   -0.870307    1.508614
  N     -1.014730    0.045562    1.377791
  C     -1.359327    0.597660    2.531184
  C     -0.829416    1.828978    2.947794
  C      0.082607    2.463252    2.144150
  C     -0.082306    0.624963    0.609921
  C      0.486203    1.859390    0.949787
  H      0.525286    3.413534    2.433341
  H     -2.103061    0.078786    3.137648
  H     -1.161240    2.272918    3.875987
  C      0.298951   -0.083556   -0.570487
  C      1.447548    2.445936    0.075421
  C      1.799550    1.818194   -1.062402
  C      1.256999    0.535309   -1.411799
  H      1.882181    3.400708    0.351666
  H      2.531136    2.282291   -1.726749
  C     -0.323907   -1.327949   -0.872177
  C      1.674692   -0.110638   -2.589880
  C      0.124466   -1.922858   -2.041412
  C      1.110756   -1.338306   -2.876153
  H      2.403363    0.366830   -3.244236
  H      1.457983   -1.832927   -3.788325
  H     -0.533014   -3.992681   -0.149481
  H     -0.288870   -2.845407   -2.415588

 Total Charge           Charge          ....   -1
 Multiplicity           Mult            ....    1
 Number of Electrons    NEL             ....  164
 Basis Dimension        Dim             ....  313

ORBITAL ENERGIES
----------------

  NO   OCC          E(Eh)            E(eV)
   0   2.0000    -102.158799     -2779.8822
   1   2.0000    -102.075672     -2777.6202
   2   2.0000    -102.059274     -2777.1740
   3   2.0000     -14.591085      -397.0436
   4   2.0000     -10.403530      -283.0944
   5   2.0000     -10.402918      -283.0778
   6   2.0000     -10.389599      -282.7154
   7   2.0000     -10.380413      -282.4654
   8   2.0000     -10.375546      -282.3330
   9   2.0000     -10.372307      -282.2448
  10   2.0000     -10.371200      -282.2147
  11   2.0000     -10.367835      -282.1231
  12   2.0000     -10.356123      -281.8044
  13   2.0000     -10.355518      -281.7880
  14   2.0000     -10.352424      -281.7038
  15   2.0000     -10.340616      -281.3825
  16   2.0000     -10.338903      -281.3358
  17   2.0000      -9.626340      -261.9460
  18   2.0000      -9.539943      -259.5950
  19   2.0000      -9.522748      -259.1271
  20   2.0000      -7.313821      -199.0192
  21   2.0000      -7.305970      -198.8056
  22   2.0000      -7.305815      -198.8013
  23   2.0000      -7.225750      -196.6227
  24   2.0000      -7.220964      -196.4924
  25   2.0000      -7.220773      -196.4872
  26   2.0000      -7.207857      -196.1358
  27   2.0000      -7.204358      -196.0406
  28   2.0000      -7.204068      -196.0326
  29   2.0000      -3.509711       -95.5041
  30   2.0000      -2.156549       -58.6827
  31   2.0000      -2.150941       -58.5301
  32   2.0000      -2.121336       -57.7245
  33   2.0000      -0.988976       -26.9114
  34   2.0000      -0.880096       -23.9486
  35   2.0000      -0.844332       -22.9754
  36   2.0000      -0.809547       -22.0289
  37   2.0000      -0.776961       -21.1422
  38   2.0000      -0.775283       -21.0965
  39   2.0000      -0.735954       -20.0263
  40   2.0000      -0.718191       -19.5430
  41   2.0000      -0.668856       -18.2005
  42   2.0000      -0.648866       -17.6565
  43   2.0000      -0.642583       -17.4856
  44   2.0000      -0.635562       -17.2945
  45   2.0000      -0.608620       -16.5614
  46   2.0000      -0.569931       -15.5086
  47   2.0000      -0.525625       -14.3030
  48   2.0000      -0.512173       -13.9369
  49   2.0000      -0.492239       -13.3945
  50   2.0000      -0.457345       -12.4450
  51   2.0000      -0.454407       -12.3650
  52   2.0000      -0.426074       -11.5941
  53   2.0000      -0.410144       -11.1606
  54   2.0000      -0.405613       -11.0373
  55   2.0000      -0.398868       -10.8537
  56   2.0000      -0.379637       -10.3305
  57   2.0000      -0.375811       -10.2263
  58   2.0000      -0.373223       -10.1559
  59   2.0000      -0.351768        -9.5721
  60   2.0000      -0.338861        -9.2209
  61   2.0000      -0.335330        -9.1248
  62   2.0000      -0.311456        -8.4752
  63   2.0000      -0.301759        -8.2113
  64   2.0000      -0.289938        -7.8896
  65   2.0000      -0.261286        -7.1100
  66   2.0000      -0.254601        -6.9281
  67   2.0000      -0.244437        -6.6515
  68   2.0000      -0.239133        -6.5071
  69   2.0000      -0.238370        -6.4864
  70   2.0000      -0.234357        -6.3772
  71   2.0000      -0.215460        -5.8630
  72   2.0000      -0.206186        -5.6106
  73   2.0000      -0.202132        -5.5003
  74   2.0000      -0.179257        -4.8778
  75   2.0000      -0.173641        -4.7250
  76   2.0000      -0.164712        -4.4820
  77   2.0000      -0.150254        -4.0886
  78   2.0000      -0.141692        -3.8556
  79   2.0000      -0.135725        -3.6933
  80   2.0000      -0.131220        -3.5707
  81   2.0000      -0.121763        -3.3133
  82   0.0000       0.049892         1.3576
  83   0.0000       0.072142         1.9631
  84   0.0000       0.103366         2.8127
  85   0.0000       0.111751         3.0409
  86   0.0000       0.145011         3.9459

MULLIKEN ATOMIC CHARGES
-----------------------
   0 Pd:    0.182824
   1 Cl:   -0.386190
   2 Cl:   -0.334816
   3 Cl:   -0.475962
   4 N :   -0.572584
   5 C :    0.035974
   6 C :   -0.338565
   7 C :   -0.156767
   8 C :    0.417030
   9 C :    0.048853
  10 H :    0.207503
  11 H :    0.285390
  12 H :    0.218709
  13 C :    0.029206
  14 C :   -0.302531
  15 C :   -0.292172
  16 C :    0.116736
  17 H :    0.191963
  18 H :    0.192806
  19 C :   -0.112636
  20 C :   -0.320184
  21 C :   -0.359295
  22 C :   -0.201085
  23 H :    0.188312
  24 H :    0.190667
  25 H :    0.324750
  26 H :    0.222064
Sum of atomic charges:   -1.0000000

LOEWDIN ATOMIC CHARGES
----------------------
   0 Pd:   -0.795446
   1 Cl:   -0.112075
   2 Cl:   -0.202395
   3 Cl:   -0.252773
   4 N :    0.042094
   5 C :    0.006642
   6 C :   -0.171296
   7 C :   -0.090106
   8 C :    0.086339
   9 C :   -0.058376
  10 H :    0.133386
  11 H :    0.169830
  12 H :    0.139635
  13 C :   -0.026586
  14 C :   -0.142969
  15 C :   -0.118220
  16 C :   -0.032118
  17 H :    0.128611
  18 H :    0.129635
  19 C :   -0.024169
  20 C :   -0.161463
  21 C :   -0.142347
  22 C :   -0.126335
  23 H :    0.124151
  24 H :    0.124610
  25 H :    0.230924
  26 H :    0.140817

  Mayer bond orders larger than 0.100000
B(  0-Pd,  1-Cl) :   0.8535 B(  0-Pd,  3-Cl) :   0.6853 B(  0-Pd,  4-N ) :   0.4102
B(  0-Pd, 19-C ) :   0.7515 B(  2-Cl, 25-H ) :   0.8346 B(  4-N ,  5-C ) :   1.4805
B(  4-N ,  8-C ) :   1.1373 B(  5-C ,  6-C ) :   1.3068 B(  5-C , 11-H ) :   0.8705
B(  6-C ,  7-C ) :   1.4570 B(  6-C , 12-H ) :   0.9210 B(  7-C ,  9-C ) :   1.2801
B(  7-C , 10-H ) :   0.9297 B(  8-C ,  9-C ) :   1.2219 B(  8-C , 13-C ) :   1.1363
B(  9-C , 14-C ) :   1.1660 B( 13-C , 16-C ) :   1.2761 B( 13-C , 19-C ) :   1.1952
B( 14-C , 15-C ) :   1.6491 B( 14-C , 17-H ) :   0.9299 B( 15-C , 16-C ) :   1.1538
B( 15-C , 18-H ) :   0.9290 B( 16-C , 20-C ) :   1.2790 B( 19-C , 21-C ) :   1.4567
B( 20-C , 22-C ) :   1.4986 B( 20-C , 23-H ) :   0.9296 B( 21-C , 22-C ) :   1.3439
B( 21-C , 26-H ) :   0.9133 B( 22-C , 24-H ) :   0.9252

Dispersion correction           -0.023926067
FINAL SINGLE POINT ENERGY     -2061.501786971271
Dispersion correction            ... done

DIPOLE MOMENT
-------------
                                X             Y             Z
Electronic contribution:    -75.43961     -50.69662      14.45172
Nuclear contribution   :     78.96741      53.74562     -14.41118
                        -----------------------------------------
Total Dipole Moment    :      3.52780       3.04900       0.04054
                        -----------------------------------------
Magnitude (a.u.)       :      4.66298
Magnitude (Debye)      :     11.85237

Rotational constants in cm-1:     0.011333     0.007676     0.005512
Rotational constants in MHz :   339.758342   230.117615   165.240216

                             ****ORCA TERMINATED NORMALLY****
TOTAL RUN TIME: 0 days 0 hours 9 minutes 12 seconds 165 msec
