                         Program Version 5.0.3 -  RELEASE  -
|  1> ! EnGrad PBEh-3c
|  2> %output
|  3> xyzfile=True
|  4> end
|  5> %scf
|  6> maxiter 250
|  7> end
|  8> %output
|  9> Print[P_Hirshfeld] = 1
| 10> end
| 11> % maxcore
| 12> 4000
| 13> *xyz -1 1
| 14> Pd  -1.95541445  -1.50489326   0.39481966
| 15> Cl  -3.10100811  -3.31676953  -0.42312921
| 16> Cl  -0.29580517  -4.86807216   0.84742836
| 17> Cl  -4.03849225  -0.84940052   1.49039832
| 18> N   -1.01104919   0.04067379   1.37776849
| 19> C   -1.35707878   0.59054028   2.53295796
| 20> C   -0.82595272   1.82245783   2.94988185
| 21> C    0.08161240   2.45835437   2.14564543
| 22> C   -0.08070033   0.62132850   0.61086845
| 23> C    0.48601927   1.85753597   0.95014657
| 24> H    0.52367755   3.41070419   2.43285878
| 25> H   -2.10047540   0.07230443   3.13831900
| 26> H   -1.15836643   2.26538378   3.87883335
| 27> C    0.29972710  -0.08503032  -0.57111882
| 28> C    1.44457839   2.44541672   0.07298378
| 29> C    1.79567342   1.81889459  -1.06286182
| 30> C    1.25675718   0.53478968  -1.41273401
| 31> H    1.87734342   3.40184597   0.35069538
| 32> H    2.52530090   2.28415876  -1.72994482
| 33> C   -0.32102763  -1.32959846  -0.87432258
| 34> C    1.67345121  -0.10980913  -2.59095953
| 35> C    0.12802915  -1.92510805  -2.04306524
| 36> C    1.11268312  -1.33788865  -2.87696297
| 37> H    2.40067627   0.36991497  -3.24552259
| 38> H    1.45897329  -1.83164890  -3.78840892
| 39> H   -0.52745821  -3.97963126  -0.14152710
| 40> H   -0.28150079  -2.85038953  -2.41541831
| 41> *
| 42>
| 43>                          ****END OF INPUT****

CARTESIAN COORDINATES (ANGSTROEM)
---------------------------------
  Pd    -1.955414   -1.504893    0.394820
  Cl    -3.101008   -3.316770   -0.423129
  Cl    -0.295805   -4.868072    0.847428
  Cl    -4.038492   -0.849401    1.490398
  N     -1.011049    0.040674    1.377768
  C     -1.357079    0.590540    2.532958
  C     -0.825953    1.822458    2.949882
  C      0.081612    2.458354    2.145645
  C     -0.080700    0.621328    0.610868
  C      0.486019    1.857536    0.950147
  H      0.523678    3.410704    2.432859
  H     -2.100475    0.072304    3.138319
  H     -1.158366    2.265384    3.878833
  C      0.299727   -0.085030   -0.571119
  C      1.444578    2.445417    0.072984
  C      1.795673    1.818895   -1.062862
  C      1.256757    0.534790   -1.412734
  H      1.877343    3.401846    0.350695
  H      2.525301    2.284159   -1.729945
  C     -0.321028   -1.329598   -0.874323
  C      1.673451   -0.109809   -2.590960
  C      0.128029   -1.925108   -2.043065
  C      1.112683   -1.337889   -2.876963
  H      2.400676    0.369915   -3.245523
  H      1.458973   -1.831649   -3.788409
  H     -0.527458   -3.979631   -0.141527
  H     -0.281501   -2.850390   -2.415418

 Total Charge           Charge          ....   -1
 Multiplicity           Mult            ....    1
 Number of Electrons    NEL             ....  164
 Basis Dimension        Dim             ....  313

ORBITAL ENERGIES
----------------

  NO   OCC          E(Eh)            E(eV)
   0   2.0000    -102.158707     -2779.8798
   1   2.0000    -102.075314     -2777.6105
   2   2.0000    -102.059525     -2777.1809
   3   2.0000     -14.591007      -397.0415
   4   2.0000     -10.403769      -283.1009
   5   2.0000     -10.402820      -283.0751
   6   2.0000     -10.389417      -282.7104
   7   2.0000     -10.380357      -282.4639
   8   2.0000     -10.375513      -282.3321
   9   2.0000     -10.372114      -282.2396
  10   2.0000     -10.371072      -282.2112
  11   2.0000     -10.367625      -282.1174
  12   2.0000     -10.355811      -281.7959
  13   2.0000     -10.355357      -281.7836
  14   2.0000     -10.352254      -281.6991
  15   2.0000     -10.340486      -281.3789
  16   2.0000     -10.338901      -281.3358
  17   2.0000      -9.626062      -261.9385
  18   2.0000      -9.539595      -259.5856
  19   2.0000      -9.523019      -259.1345
  20   2.0000      -7.313564      -199.0122
  21   2.0000      -7.305699      -198.7982
  22   2.0000      -7.305540      -198.7939
  23   2.0000      -7.225403      -196.6132
  24   2.0000      -7.220613      -196.4829
  25   2.0000      -7.220427      -196.4778
  26   2.0000      -7.208126      -196.1431
  27   2.0000      -7.204629      -196.0479
  28   2.0000      -7.204336      -196.0399
  29   2.0000      -3.509576       -95.5004
  30   2.0000      -2.156434       -58.6795
  31   2.0000      -2.150822       -58.5269
  32   2.0000      -2.121196       -57.7207
  33   2.0000      -0.989073       -26.9141
  34   2.0000      -0.880225       -23.9521
  35   2.0000      -0.844451       -22.9787
  36   2.0000      -0.809828       -22.0365
  37   2.0000      -0.776943       -21.1417
  38   2.0000      -0.773980       -21.0611
  39   2.0000      -0.736044       -20.0288
  40   2.0000      -0.718318       -19.5464
  41   2.0000      -0.668581       -18.1930
  42   2.0000      -0.649212       -17.6660
  43   2.0000      -0.642583       -17.4856
  44   2.0000      -0.635659       -17.2972
  45   2.0000      -0.608593       -16.5607
  46   2.0000      -0.569836       -15.5060
  47   2.0000      -0.525686       -14.3046
  48   2.0000      -0.512355       -13.9419
  49   2.0000      -0.492247       -13.3947
  50   2.0000      -0.457247       -12.4423
  51   2.0000      -0.454426       -12.3655
  52   2.0000      -0.426196       -11.5974
  53   2.0000      -0.410299       -11.1648
  54   2.0000      -0.405662       -11.0386
  55   2.0000      -0.398686       -10.8488
  56   2.0000      -0.379862       -10.3366
  57   2.0000      -0.375716       -10.2237
  58   2.0000      -0.372262       -10.1298
  59   2.0000      -0.351587        -9.5672
  60   2.0000      -0.338868        -9.2211
  61   2.0000      -0.335269        -9.1231
  62   2.0000      -0.311734        -8.4827
  63   2.0000      -0.301921        -8.2157
  64   2.0000      -0.289850        -7.8872
  65   2.0000      -0.261541        -7.1169
  66   2.0000      -0.254416        -6.9230
  67   2.0000      -0.244467        -6.6523
  68   2.0000      -0.238801        -6.4981
  69   2.0000      -0.238036        -6.4773
  70   2.0000      -0.234061        -6.3691
  71   2.0000      -0.215556        -5.8656
  72   2.0000      -0.206190        -5.6107
  73   2.0000      -0.201578        -5.4852
  74   2.0000      -0.179374        -4.8810
  75   2.0000      -0.173586        -4.7235
  76   2.0000      -0.164819        -4.4849
  77   2.0000      -0.150084        -4.0840
  78   2.0000      -0.141527        -3.8511
  79   2.0000      -0.135575        -3.6892
  80   2.0000      -0.131192        -3.5699
  81   2.0000      -0.121569        -3.3081
  82   0.0000       0.050074         1.3626
  83   0.0000       0.072230         1.9655
  84   0.0000       0.103379         2.8131
  85   0.0000       0.111874         3.0443
  86   0.0000       0.145188         3.9508

MULLIKEN ATOMIC CHARGES
-----------------------
   0 Pd:    0.182989
   1 Cl:   -0.386512
   2 Cl:   -0.334108
   3 Cl:   -0.475184
   4 N :   -0.572961
   5 C :    0.036228
   6 C :   -0.339029
   7 C :   -0.156015
   8 C :    0.417488
   9 C :    0.048688
  10 H :    0.207169
  11 H :    0.285535
  12 H :    0.218574
  13 C :    0.028007
  14 C :   -0.301209
  15 C :   -0.292220
  16 C :    0.117802
  17 H :    0.191743
  18 H :    0.192533
  19 C :   -0.114506
  20 C :   -0.319916
  21 C :   -0.358757
  22 C :   -0.201263
  23 H :    0.188131
  24 H :    0.190727
  25 H :    0.323999
  26 H :    0.222066
Sum of atomic charges:   -1.0000000

LOEWDIN ATOMIC CHARGES
----------------------
   0 Pd:   -0.798049
   1 Cl:   -0.112237
   2 Cl:   -0.203002
   3 Cl:   -0.250572
   4 N :    0.042228
   5 C :    0.007246
   6 C :   -0.171165
   7 C :   -0.090351
   8 C :    0.086232
   9 C :   -0.058228
  10 H :    0.133287
  11 H :    0.169786
  12 H :    0.139636
  13 C :   -0.026596
  14 C :   -0.142838
  15 C :   -0.118108
  16 C :   -0.032145
  17 H :    0.128577
  18 H :    0.129561
  19 C :   -0.024819
  20 C :   -0.161369
  21 C :   -0.142448
  22 C :   -0.126385
  23 H :    0.124124
  24 H :    0.124585
  25 H :    0.232247
  26 H :    0.140802

  Mayer bond orders larger than 0.100000
B(  0-Pd,  1-Cl) :   0.8540 B(  0-Pd,  3-Cl) :   0.6868 B(  0-Pd,  4-N ) :   0.4106
B(  0-Pd, 19-C ) :   0.7496 B(  2-Cl, 25-H ) :   0.8352 B(  4-N ,  5-C ) :   1.4789
B(  4-N ,  8-C ) :   1.1382 B(  5-C ,  6-C ) :   1.3074 B(  5-C , 11-H ) :   0.8709
B(  6-C ,  7-C ) :   1.4565 B(  6-C , 12-H ) :   0.9210 B(  7-C ,  9-C ) :   1.2811
B(  7-C , 10-H ) :   0.9297 B(  8-C ,  9-C ) :   1.2225 B(  8-C , 13-C ) :   1.1354
B(  9-C , 14-C ) :   1.1655 B( 13-C , 16-C ) :   1.2775 B( 13-C , 19-C ) :   1.1968
B( 14-C , 15-C ) :   1.6496 B( 14-C , 17-H ) :   0.9299 B( 15-C , 16-C ) :   1.1531
B( 15-C , 18-H ) :   0.9290 B( 16-C , 20-C ) :   1.2793 B( 19-C , 21-C ) :   1.4566
B( 20-C , 22-C ) :   1.4982 B( 20-C , 23-H ) :   0.9297 B( 21-C , 22-C ) :   1.3447
B( 21-C , 26-H ) :   0.9134 B( 22-C , 24-H ) :   0.9252

Dispersion correction           -0.023938669
FINAL SINGLE POINT ENERGY     -2061.500867449988
Dispersion correction            ... done

DIPOLE MOMENT
-------------
                                X             Y             Z
Electronic contribution:    -75.48488     -50.58523      14.19593
Nuclear contribution   :     79.01388      53.62515     -14.14398
                        -----------------------------------------
Total Dipole Moment    :      3.52900       3.03992       0.05195
                        -----------------------------------------
Magnitude (a.u.)       :      4.65808
Magnitude (Debye)      :     11.83989

Rotational constants in cm-1:     0.011349     0.007682     0.005527
Rotational constants in MHz :   340.222669   230.290588   165.697188

                             ****ORCA TERMINATED NORMALLY****
TOTAL RUN TIME: 0 days 0 hours 9 minutes 10 seconds 726 msec
