                         Program Version 5.0.3 -  RELEASE  -
|  1> ! EnGrad PBEh-3c
|  2> %output
|  3> xyzfile=True
|  4> end
|  5> %scf
|  6> maxiter 250
|  7> end
|  8> %output
|  9> Print[P_Hirshfeld] = 1
| 10> end
| 11> % maxcore
| 12> 4000
| 13> *xyz -1 1
| 14> Pd  -1.95275536  -1.54194220   0.47672487
| 15> Cl  -3.11573055  -3.32007691  -0.45022722
| 16> Cl  -0.10442675  -4.96955269   0.57276118
| 17> Cl  -4.02942389  -1.10177016   1.70107080
| 18> N   -1.06910690   0.09479966   1.38150120
| 19> C   -1.40939216   0.66948556   2.52969646
| 20> C   -0.85391133   1.90652899   2.91047447
| 21> C    0.08461745   2.50162042   2.13981912
| 22> C   -0.10285780   0.64763557   0.58509947
| 23> C    0.49836000   1.89757873   0.95817452
| 24> H    0.53962339   3.44530435   2.43989526
| 25> H   -2.11097909   0.15974766   3.10784361
| 26> H   -1.19196045   2.34960546   3.84623748
| 27> C    0.30716806  -0.06091591  -0.58165138
| 28> C    1.48134330   2.44294967   0.08875371
| 29> C    1.84361875   1.81884367  -1.04523500
| 30> C    1.28242548   0.55692299  -1.42627659
| 31> H    1.93324147   3.38895194   0.36042194
| 32> H    2.58493154   2.25321919  -1.68748832
| 33> C   -0.37698192  -1.31110700  -0.81001126
| 34> C    1.65774031  -0.14231432  -2.55962288
| 35> C    0.10790832  -1.89865554  -2.05067496
| 36> C    1.11715255  -1.31252735  -2.87349721
| 37> H    2.42534952   0.32629433  -3.22492456
| 38> H    1.43870513  -1.85599046  -3.78444289
| 39> H   -0.60207635  -4.13782253  -0.19482670
| 40> H   -0.37897347  -2.80374907  -2.40981030
| 41> *
| 42>
| 43>                          ****END OF INPUT****

CARTESIAN COORDINATES (ANGSTROEM)
---------------------------------
  Pd    -1.952755   -1.541942    0.476725
  Cl    -3.115731   -3.320077   -0.450227
  Cl    -0.104427   -4.969553    0.572761
  Cl    -4.029424   -1.101770    1.701071
  N     -1.069107    0.094800    1.381501
  C     -1.409392    0.669486    2.529696
  C     -0.853911    1.906529    2.910474
  C      0.084617    2.501620    2.139819
  C     -0.102858    0.647636    0.585099
  C      0.498360    1.897579    0.958175
  H      0.539623    3.445304    2.439895
  H     -2.110979    0.159748    3.107844
  H     -1.191960    2.349605    3.846237
  C      0.307168   -0.060916   -0.581651
  C      1.481343    2.442950    0.088754
  C      1.843619    1.818844   -1.045235
  C      1.282425    0.556923   -1.426277
  H      1.933241    3.388952    0.360422
  H      2.584932    2.253219   -1.687488
  C     -0.376982   -1.311107   -0.810011
  C      1.657740   -0.142314   -2.559623
  C      0.107908   -1.898656   -2.050675
  C      1.117153   -1.312527   -2.873497
  H      2.425350    0.326294   -3.224925
  H      1.438705   -1.855990   -3.784443
  H     -0.602076   -4.137823   -0.194827
  H     -0.378973   -2.803749   -2.409810

 Total Charge           Charge          ....   -1
 Multiplicity           Mult            ....    1
 Number of Electrons    NEL             ....  164
 Basis Dimension        Dim             ....  313

ORBITAL ENERGIES
----------------

  NO   OCC          E(Eh)            E(eV)
   0   2.0000    -102.158014     -2779.8609
   1   2.0000    -102.079273     -2777.7182
   2   2.0000    -102.061148     -2777.2250
   3   2.0000     -14.594642      -397.1404
   4   2.0000     -10.407091      -283.1913
   5   2.0000     -10.400938      -283.0239
   6   2.0000     -10.387649      -282.6623
   7   2.0000     -10.382117      -282.5118
   8   2.0000     -10.375024      -282.3187
   9   2.0000     -10.371541      -282.2240
  10   2.0000     -10.370604      -282.1985
  11   2.0000     -10.367786      -282.1218
  12   2.0000     -10.357407      -281.8394
  13   2.0000     -10.353511      -281.7334
  14   2.0000     -10.349193      -281.6159
  15   2.0000     -10.348284      -281.5911
  16   2.0000     -10.344520      -281.4887
  17   2.0000      -9.628759      -262.0118
  18   2.0000      -9.543228      -259.6844
  19   2.0000      -9.524641      -259.1787
  20   2.0000      -7.315934      -199.0767
  21   2.0000      -7.308243      -198.8674
  22   2.0000      -7.308139      -198.8646
  23   2.0000      -7.229007      -196.7113
  24   2.0000      -7.224354      -196.5847
  25   2.0000      -7.224046      -196.5763
  26   2.0000      -7.209823      -196.1893
  27   2.0000      -7.206198      -196.0906
  28   2.0000      -7.205922      -196.0831
  29   2.0000      -3.514473       -95.6337
  30   2.0000      -2.160729       -58.7964
  31   2.0000      -2.155891       -58.6648
  32   2.0000      -2.125982       -57.8509
  33   2.0000      -0.980013       -26.6675
  34   2.0000      -0.879931       -23.9441
  35   2.0000      -0.844858       -22.9897
  36   2.0000      -0.811314       -22.0770
  37   2.0000      -0.796819       -21.6825
  38   2.0000      -0.776264       -21.1232
  39   2.0000      -0.736822       -20.0499
  40   2.0000      -0.712719       -19.3941
  41   2.0000      -0.670965       -18.2579
  42   2.0000      -0.650306       -17.6957
  43   2.0000      -0.643220       -17.5029
  44   2.0000      -0.635187       -17.2843
  45   2.0000      -0.605022       -16.4635
  46   2.0000      -0.565064       -15.3762
  47   2.0000      -0.529980       -14.4215
  48   2.0000      -0.512518       -13.9463
  49   2.0000      -0.489581       -13.3222
  50   2.0000      -0.458042       -12.4640
  51   2.0000      -0.453937       -12.3522
  52   2.0000      -0.425153       -11.5690
  53   2.0000      -0.409690       -11.1482
  54   2.0000      -0.401288       -10.9196
  55   2.0000      -0.398601       -10.8465
  56   2.0000      -0.391933       -10.6650
  57   2.0000      -0.384772       -10.4702
  58   2.0000      -0.371351       -10.1050
  59   2.0000      -0.344822        -9.3831
  60   2.0000      -0.339675        -9.2430
  61   2.0000      -0.334968        -9.1149
  62   2.0000      -0.311083        -8.4650
  63   2.0000      -0.301425        -8.2022
  64   2.0000      -0.284669        -7.7462
  65   2.0000      -0.264227        -7.1900
  66   2.0000      -0.262956        -7.1554
  67   2.0000      -0.245172        -6.6715
  68   2.0000      -0.244071        -6.6415
  69   2.0000      -0.243127        -6.6158
  70   2.0000      -0.237379        -6.4594
  71   2.0000      -0.215726        -5.8702
  72   2.0000      -0.209064        -5.6889
  73   2.0000      -0.205170        -5.5830
  74   2.0000      -0.178869        -4.8673
  75   2.0000      -0.177794        -4.8380
  76   2.0000      -0.164926        -4.4879
  77   2.0000      -0.152774        -4.1572
  78   2.0000      -0.145809        -3.9677
  79   2.0000      -0.139433        -3.7942
  80   2.0000      -0.133189        -3.6243
  81   2.0000      -0.125925        -3.4266
  82   0.0000       0.049020         1.3339
  83   0.0000       0.069913         1.9024
  84   0.0000       0.103636         2.8201
  85   0.0000       0.108825         2.9613
  86   0.0000       0.151264         4.1161

MULLIKEN ATOMIC CHARGES
-----------------------
   0 Pd:    0.185959
   1 Cl:   -0.391248
   2 Cl:   -0.343953
   3 Cl:   -0.472315
   4 N :   -0.579906
   5 C :    0.047230
   6 C :   -0.349203
   7 C :   -0.142638
   8 C :    0.380111
   9 C :    0.041980
  10 H :    0.205899
  11 H :    0.289097
  12 H :    0.215581
  13 C :   -0.003043
  14 C :   -0.302041
  15 C :   -0.275380
  16 C :    0.171085
  17 H :    0.190301
  18 H :    0.195078
  19 C :   -0.110035
  20 C :   -0.327051
  21 C :   -0.379503
  22 C :   -0.168769
  23 H :    0.176140
  24 H :    0.191936
  25 H :    0.332290
  26 H :    0.222399
Sum of atomic charges:   -1.0000000

LOEWDIN ATOMIC CHARGES
----------------------
   0 Pd:   -0.771360
   1 Cl:   -0.124722
   2 Cl:   -0.190918
   3 Cl:   -0.253977
   4 N :    0.037256
   5 C :    0.006963
   6 C :   -0.170331
   7 C :   -0.094439
   8 C :    0.094706
   9 C :   -0.058169
  10 H :    0.133866
  11 H :    0.166242
  12 H :    0.138754
  13 C :   -0.030454
  14 C :   -0.143255
  15 C :   -0.119290
  16 C :   -0.037280
  17 H :    0.128105
  18 H :    0.130956
  19 C :   -0.012902
  20 C :   -0.154866
  21 C :   -0.136698
  22 C :   -0.134319
  23 H :    0.119092
  24 H :    0.128188
  25 H :    0.209191
  26 H :    0.139661

  Mayer bond orders larger than 0.100000
B(  0-Pd,  1-Cl) :   0.8312 B(  0-Pd,  3-Cl) :   0.6896 B(  0-Pd,  4-N ) :   0.4204
B(  0-Pd, 19-C ) :   0.7700 B(  2-Cl, 25-H ) :   0.8243 B(  4-N ,  5-C ) :   1.4848
B(  4-N ,  8-C ) :   1.1137 B(  5-C ,  6-C ) :   1.3025 B(  5-C , 11-H ) :   0.8667
B(  6-C ,  7-C ) :   1.4588 B(  6-C , 12-H ) :   0.9212 B(  7-C ,  9-C ) :   1.2721
B(  7-C , 10-H ) :   0.9304 B(  8-C ,  9-C ) :   1.2253 B(  8-C , 13-C ) :   1.1661
B(  9-C , 14-C ) :   1.1722 B( 13-C , 16-C ) :   1.2326 B( 13-C , 19-C ) :   1.1748
B( 14-C , 15-C ) :   1.6370 B( 14-C , 17-H ) :   0.9303 B( 15-C , 16-C ) :   1.1644
B( 15-C , 18-H ) :   0.9270 B( 16-C , 20-C ) :   1.2796 B( 19-C , 21-C ) :   1.4364
B( 20-C , 22-C ) :   1.4907 B( 20-C , 23-H ) :   0.9321 B( 21-C , 22-C ) :   1.3307
B( 21-C , 26-H ) :   0.9118 B( 22-C , 24-H ) :   0.9263

Dispersion correction           -0.023798106
FINAL SINGLE POINT ENERGY     -2061.495982721774
Dispersion correction            ... done

DIPOLE MOMENT
-------------
                                X             Y             Z
Electronic contribution:    -75.96046     -51.59935      18.55961
Nuclear contribution   :     79.34966      54.71342     -18.55033
                        -----------------------------------------
Total Dipole Moment    :      3.38920       3.11406       0.00929
                        -----------------------------------------
Magnitude (a.u.)       :      4.60263
Magnitude (Debye)      :     11.69895

Rotational constants in cm-1:     0.011115     0.007624     0.005342
Rotational constants in MHz :   333.209772   228.560691   160.158330

                             ****ORCA TERMINATED NORMALLY****
TOTAL RUN TIME: 0 days 0 hours 11 minutes 28 seconds 67 msec
