                         Program Version 5.0.3 -  RELEASE  -
|  1> ! EnGrad PBEh-3c
|  2> %output
|  3> xyzfile=True
|  4> end
|  5> %scf
|  6> maxiter 250
|  7> end
|  8> %output
|  9> Print[P_Hirshfeld] = 1
| 10> end
| 11> % maxcore
| 12> 4000
| 13> *xyz -1 1
| 14> Pd  -1.93013892  -1.53305645   0.43098795
| 15> Cl  -3.10809589  -3.31976361  -0.43425389
| 16> Cl  -0.19923285  -4.89567292   0.62777071
| 17> Cl  -4.04848892  -1.01838562   1.63950644
| 18> N   -1.05250128   0.07821588   1.38366781
| 19> C   -1.37159980   0.65510964   2.52330233
| 20> C   -0.85986279   1.87205044   2.93404356
| 21> C    0.09179761   2.50013887   2.13769053
| 22> C   -0.09603839   0.65113837   0.60220288
| 23> C    0.49126993   1.87265304   0.94579940
| 24> H    0.53452024   3.43137215   2.43701993
| 25> H   -2.11888288   0.12488998   3.12819812
| 26> H   -1.17961537   2.32254134   3.85212766
| 27> C    0.30503025  -0.07567216  -0.57621246
| 28> C    1.46998435   2.44970264   0.09049910
| 29> C    1.82812072   1.81462431  -1.05727883
| 30> C    1.27008905   0.55239147  -1.41657962
| 31> H    1.91458588   3.39027836   0.35682456
| 32> H    2.56846928   2.26552704  -1.70190923
| 33> C   -0.37106691  -1.32772677  -0.83418243
| 34> C    1.69440582  -0.09687829  -2.57895232
| 35> C    0.10726308  -1.89723963  -2.02686230
| 36> C    1.10070362  -1.35278910  -2.88659207
| 37> H    2.41000298   0.33590447  -3.22514262
| 38> H    1.45075682  -1.84374546  -3.78866906
| 39> H   -0.55029512  -4.13406679  -0.14624987
| 40> H   -0.34532560  -2.81734523  -2.41749614
| 41> *
| 42>
| 43>                          ****END OF INPUT****

CARTESIAN COORDINATES (ANGSTROEM)
---------------------------------
  Pd    -1.930139   -1.533056    0.430988
  Cl    -3.108096   -3.319764   -0.434254
  Cl    -0.199233   -4.895673    0.627771
  Cl    -4.048489   -1.018386    1.639506
  N     -1.052501    0.078216    1.383668
  C     -1.371600    0.655110    2.523302
  C     -0.859863    1.872050    2.934044
  C      0.091798    2.500139    2.137691
  C     -0.096038    0.651138    0.602203
  C      0.491270    1.872653    0.945799
  H      0.534520    3.431372    2.437020
  H     -2.118883    0.124890    3.128198
  H     -1.179615    2.322541    3.852128
  C      0.305030   -0.075672   -0.576212
  C      1.469984    2.449703    0.090499
  C      1.828121    1.814624   -1.057279
  C      1.270089    0.552391   -1.416580
  H      1.914586    3.390278    0.356825
  H      2.568469    2.265527   -1.701909
  C     -0.371067   -1.327727   -0.834182
  C      1.694406   -0.096878   -2.578952
  C      0.107263   -1.897240   -2.026862
  C      1.100704   -1.352789   -2.886592
  H      2.410003    0.335904   -3.225143
  H      1.450757   -1.843745   -3.788669
  H     -0.550295   -4.134067   -0.146250
  H     -0.345326   -2.817345   -2.417496

 Total Charge           Charge          ....   -1
 Multiplicity           Mult            ....    1
 Number of Electrons    NEL             ....  164
 Basis Dimension        Dim             ....  313

ORBITAL ENERGIES
----------------

  NO   OCC          E(Eh)            E(eV)
   0   2.0000    -102.153428     -2779.7361
   1   2.0000    -102.076880     -2777.6531
   2   2.0000    -102.055783     -2777.0790
   3   2.0000     -14.591833      -397.0639
   4   2.0000     -10.404087      -283.1096
   5   2.0000     -10.399562      -282.9865
   6   2.0000     -10.390929      -282.7515
   7   2.0000     -10.380395      -282.4649
   8   2.0000     -10.373775      -282.2848
   9   2.0000     -10.371461      -282.2218
  10   2.0000     -10.370216      -282.1879
  11   2.0000     -10.367610      -282.1170
  12   2.0000     -10.360032      -281.9108
  13   2.0000     -10.358267      -281.8628
  14   2.0000     -10.351763      -281.6858
  15   2.0000     -10.346540      -281.5437
  16   2.0000     -10.342220      -281.4261
  17   2.0000      -9.628011      -261.9915
  18   2.0000      -9.540995      -259.6237
  19   2.0000      -9.519049      -259.0265
  20   2.0000      -7.315189      -199.0564
  21   2.0000      -7.307118      -198.8368
  22   2.0000      -7.306965      -198.8326
  23   2.0000      -7.226831      -196.6521
  24   2.0000      -7.222053      -196.5221
  25   2.0000      -7.221789      -196.5149
  26   2.0000      -7.204143      -196.0347
  27   2.0000      -7.200694      -195.9408
  28   2.0000      -7.200407      -195.9330
  29   2.0000      -3.514115       -95.6239
  30   2.0000      -2.160537       -58.7912
  31   2.0000      -2.155650       -58.6582
  32   2.0000      -2.125680       -57.8427
  33   2.0000      -0.985064       -26.8050
  34   2.0000      -0.877978       -23.8910
  35   2.0000      -0.840372       -22.8677
  36   2.0000      -0.817651       -22.2494
  37   2.0000      -0.804635       -21.8952
  38   2.0000      -0.776299       -21.1242
  39   2.0000      -0.732497       -19.9322
  40   2.0000      -0.715779       -19.4773
  41   2.0000      -0.669089       -18.2068
  42   2.0000      -0.644531       -17.5386
  43   2.0000      -0.642845       -17.4927
  44   2.0000      -0.632673       -17.2159
  45   2.0000      -0.605779       -16.4841
  46   2.0000      -0.573186       -15.5972
  47   2.0000      -0.524764       -14.2796
  48   2.0000      -0.510020       -13.8783
  49   2.0000      -0.491504       -13.3745
  50   2.0000      -0.458004       -12.4629
  51   2.0000      -0.453798       -12.3485
  52   2.0000      -0.425193       -11.5701
  53   2.0000      -0.409614       -11.1462
  54   2.0000      -0.407633       -11.0922
  55   2.0000      -0.403087       -10.9686
  56   2.0000      -0.398690       -10.8489
  57   2.0000      -0.379175       -10.3179
  58   2.0000      -0.368612       -10.0305
  59   2.0000      -0.354190        -9.6380
  60   2.0000      -0.338250        -9.2043
  61   2.0000      -0.333947        -9.0871
  62   2.0000      -0.308762        -8.4018
  63   2.0000      -0.298720        -8.1286
  64   2.0000      -0.288186        -7.8419
  65   2.0000      -0.262611        -7.1460
  66   2.0000      -0.257327        -7.0022
  67   2.0000      -0.248397        -6.7592
  68   2.0000      -0.247268        -6.7285
  69   2.0000      -0.243861        -6.6358
  70   2.0000      -0.238469        -6.4891
  71   2.0000      -0.214968        -5.8496
  72   2.0000      -0.207117        -5.6359
  73   2.0000      -0.204565        -5.5665
  74   2.0000      -0.176864        -4.8127
  75   2.0000      -0.173959        -4.7337
  76   2.0000      -0.163610        -4.4521
  77   2.0000      -0.151588        -4.1249
  78   2.0000      -0.142960        -3.8901
  79   2.0000      -0.137045        -3.7292
  80   2.0000      -0.129883        -3.5343
  81   2.0000      -0.122786        -3.3412
  82   0.0000       0.048029         1.3069
  83   0.0000       0.070701         1.9239
  84   0.0000       0.103181         2.8077
  85   0.0000       0.112331         3.0567
  86   0.0000       0.140794         3.8312

MULLIKEN ATOMIC CHARGES
-----------------------
   0 Pd:    0.188783
   1 Cl:   -0.388650
   2 Cl:   -0.331099
   3 Cl:   -0.486623
   4 N :   -0.570603
   5 C :    0.035015
   6 C :   -0.330976
   7 C :   -0.165830
   8 C :    0.397406
   9 C :    0.048863
  10 H :    0.210018
  11 H :    0.283048
  12 H :    0.219419
  13 C :    0.008061
  14 C :   -0.306242
  15 C :   -0.291138
  16 C :    0.147635
  17 H :    0.193090
  18 H :    0.194272
  19 C :   -0.089462
  20 C :   -0.342308
  21 C :   -0.368805
  22 C :   -0.189146
  23 H :    0.190711
  24 H :    0.196256
  25 H :    0.331479
  26 H :    0.216828
Sum of atomic charges:   -1.0000000

LOEWDIN ATOMIC CHARGES
----------------------
   0 Pd:   -0.761025
   1 Cl:   -0.119508
   2 Cl:   -0.156274
   3 Cl:   -0.280393
   4 N :    0.038485
   5 C :   -0.000189
   6 C :   -0.173736
   7 C :   -0.086701
   8 C :    0.090403
   9 C :   -0.060211
  10 H :    0.133772
  11 H :    0.169466
  12 H :    0.139732
  13 C :   -0.024154
  14 C :   -0.145036
  15 C :   -0.117783
  16 C :   -0.037697
  17 H :    0.128918
  18 H :    0.130179
  19 C :   -0.013309
  20 C :   -0.161876
  21 C :   -0.137407
  22 C :   -0.130234
  23 H :    0.123734
  24 H :    0.127217
  25 H :    0.184526
  26 H :    0.139102

  Mayer bond orders larger than 0.100000
B(  0-Pd,  1-Cl) :   0.8472 B(  0-Pd,  3-Cl) :   0.6671 B(  0-Pd,  4-N ) :   0.4111
B(  0-Pd, 19-C ) :   0.7960 B(  2-Cl, 25-H ) :   0.8307 B(  4-N ,  5-C ) :   1.4883
B(  4-N ,  8-C ) :   1.1255 B(  5-C ,  6-C ) :   1.3098 B(  5-C , 11-H ) :   0.8686
B(  6-C ,  7-C ) :   1.4558 B(  6-C , 12-H ) :   0.9211 B(  7-C ,  9-C ) :   1.2769
B(  7-C , 10-H ) :   0.9287 B(  8-C ,  9-C ) :   1.2239 B(  8-C , 13-C ) :   1.1538
B(  9-C , 14-C ) :   1.1671 B( 13-C , 16-C ) :   1.2391 B( 13-C , 19-C ) :   1.1779
B( 14-C , 15-C ) :   1.6481 B( 14-C , 17-H ) :   0.9299 B( 15-C , 16-C ) :   1.1571
B( 15-C , 18-H ) :   0.9288 B( 16-C , 20-C ) :   1.2971 B( 19-C , 21-C ) :   1.4219
B( 20-C , 22-C ) :   1.4743 B( 20-C , 23-H ) :   0.9283 B( 21-C , 22-C ) :   1.3586
B( 21-C , 26-H ) :   0.9146 B( 22-C , 24-H ) :   0.9245

Dispersion correction           -0.023864473
FINAL SINGLE POINT ENERGY     -2061.483722851885
Dispersion correction            ... done

DIPOLE MOMENT
-------------
                                X             Y             Z
Electronic contribution:    -74.33030     -51.66438      16.19152
Nuclear contribution   :     77.90608      54.66575     -16.20662
                        -----------------------------------------
Total Dipole Moment    :      3.57578       3.00137      -0.01510
                        -----------------------------------------
Magnitude (a.u.)       :      4.66847
Magnitude (Debye)      :     11.86632

Rotational constants in cm-1:     0.011277     0.007687     0.005410
Rotational constants in MHz :   338.064845   230.438497   162.178250

                             ****ORCA TERMINATED NORMALLY****
TOTAL RUN TIME: 0 days 0 hours 9 minutes 17 seconds 325 msec
