                         Program Version 5.0.3 -  RELEASE  -
|  1> ! EnGrad PBEh-3c
|  2> %output
|  3> xyzfile=True
|  4> end
|  5> %scf
|  6> maxiter 250
|  7> end
|  8> %output
|  9> Print[P_Hirshfeld] = 1
| 10> end
| 11> % maxcore
| 12> 4000
| 13> *xyz -1 1
| 14> Pd  -1.94663392  -1.52973779   0.43771955
| 15> Cl  -3.10735786  -3.31867728  -0.43549944
| 16> Cl  -0.18401865  -4.93184974   0.68312437
| 17> Cl  -4.04027779  -1.00381507   1.62273510
| 18> N   -1.04142195   0.07557929   1.37638204
| 19> C   -1.37355517   0.64686680   2.52021167
| 20> C   -0.85208717   1.87070521   2.93478478
| 21> C    0.08784886   2.49178609   2.13886687
| 22> C   -0.09564788   0.64719474   0.60592878
| 23> C    0.48957507   1.87078659   0.94737489
| 24> H    0.53395968   3.43138019   2.43714006
| 25> H   -2.11768814   0.11990722   3.12980975
| 26> H   -1.17810765   2.31775441   3.85595686
| 27> C    0.29813807  -0.07490596  -0.57152597
| 28> C    1.46819424   2.44705307   0.08538629
| 29> C    1.82288466   1.81550837  -1.05368647
| 30> C    1.26565699   0.54647929  -1.41226340
| 31> H    1.91210340   3.39335790   0.35683666
| 32> H    2.56601018   2.26820478  -1.70600287
| 33> C   -0.34856092  -1.32215055  -0.85206387
| 34> C    1.68871478  -0.10444283  -2.58225988
| 35> C    0.10495421  -1.90470319  -2.02963040
| 36> C    1.10034863  -1.34762588  -2.87851495
| 37> H    2.41175580   0.34070369  -3.22915707
| 38> H    1.44972707  -1.84281442  -3.78677715
| 39> H   -0.57004518  -4.08026922  -0.18090001
| 40> H   -0.33822840  -2.81812552  -2.41501493
| 41> *
| 42>
| 43>                          ****END OF INPUT****

CARTESIAN COORDINATES (ANGSTROEM)
---------------------------------
  Pd    -1.946634   -1.529738    0.437720
  Cl    -3.107358   -3.318677   -0.435499
  Cl    -0.184019   -4.931850    0.683124
  Cl    -4.040278   -1.003815    1.622735
  N     -1.041422    0.075579    1.376382
  C     -1.373555    0.646867    2.520212
  C     -0.852087    1.870705    2.934785
  C      0.087849    2.491786    2.138867
  C     -0.095648    0.647195    0.605929
  C      0.489575    1.870787    0.947375
  H      0.533960    3.431380    2.437140
  H     -2.117688    0.119907    3.129810
  H     -1.178108    2.317754    3.855957
  C      0.298138   -0.074906   -0.571526
  C      1.468194    2.447053    0.085386
  C      1.822885    1.815508   -1.053686
  C      1.265657    0.546479   -1.412263
  H      1.912103    3.393358    0.356837
  H      2.566010    2.268205   -1.706003
  C     -0.348561   -1.322151   -0.852064
  C      1.688715   -0.104443   -2.582260
  C      0.104954   -1.904703   -2.029630
  C      1.100349   -1.347626   -2.878515
  H      2.411756    0.340704   -3.229157
  H      1.449727   -1.842814   -3.786777
  H     -0.570045   -4.080269   -0.180900
  H     -0.338228   -2.818126   -2.415015

 Total Charge           Charge          ....   -1
 Multiplicity           Mult            ....    1
 Number of Electrons    NEL             ....  164
 Basis Dimension        Dim             ....  313

ORBITAL ENERGIES
----------------

  NO   OCC          E(Eh)            E(eV)
   0   2.0000    -102.158463     -2779.8731
   1   2.0000    -102.077776     -2777.6775
   2   2.0000    -102.058770     -2777.1603
   3   2.0000     -14.591931      -397.0666
   4   2.0000     -10.403608      -283.0966
   5   2.0000     -10.401782      -283.0469
   6   2.0000     -10.390713      -282.7457
   7   2.0000     -10.380922      -282.4792
   8   2.0000     -10.374779      -282.3121
   9   2.0000     -10.371864      -282.2328
  10   2.0000     -10.370737      -282.2021
  11   2.0000     -10.368186      -282.1327
  12   2.0000     -10.358923      -281.8806
  13   2.0000     -10.357065      -281.8301
  14   2.0000     -10.352449      -281.7044
  15   2.0000     -10.342365      -281.4301
  16   2.0000     -10.340009      -281.3659
  17   2.0000      -9.627965      -261.9902
  18   2.0000      -9.541903      -259.6484
  19   2.0000      -9.522167      -259.1113
  20   2.0000      -7.315249      -199.0580
  21   2.0000      -7.307517      -198.8476
  22   2.0000      -7.307384      -198.8440
  23   2.0000      -7.227709      -196.6760
  24   2.0000      -7.222966      -196.5469
  25   2.0000      -7.222720      -196.5402
  26   2.0000      -7.207307      -196.1208
  27   2.0000      -7.203762      -196.0243
  28   2.0000      -7.203482      -196.0167
  29   2.0000      -3.511588       -95.5552
  30   2.0000      -2.158171       -58.7268
  31   2.0000      -2.152849       -58.5820
  32   2.0000      -2.123195       -57.7751
  33   2.0000      -0.988054       -26.8863
  34   2.0000      -0.878659       -23.9095
  35   2.0000      -0.842414       -22.9232
  36   2.0000      -0.807268       -21.9669
  37   2.0000      -0.788926       -21.4678
  38   2.0000      -0.776715       -21.1355
  39   2.0000      -0.733708       -19.9652
  40   2.0000      -0.717470       -19.5234
  41   2.0000      -0.670136       -18.2353
  42   2.0000      -0.647641       -17.6232
  43   2.0000      -0.642799       -17.4915
  44   2.0000      -0.634422       -17.2635
  45   2.0000      -0.607313       -16.5258
  46   2.0000      -0.571530       -15.5521
  47   2.0000      -0.524990       -14.2857
  48   2.0000      -0.511069       -13.9069
  49   2.0000      -0.492332       -13.3970
  50   2.0000      -0.457654       -12.4534
  51   2.0000      -0.454398       -12.3648
  52   2.0000      -0.425720       -11.5844
  53   2.0000      -0.409653       -11.1472
  54   2.0000      -0.404691       -11.0122
  55   2.0000      -0.399342       -10.8667
  56   2.0000      -0.385901       -10.5009
  57   2.0000      -0.377777       -10.2798
  58   2.0000      -0.372938       -10.1482
  59   2.0000      -0.353353        -9.6152
  60   2.0000      -0.338120        -9.2007
  61   2.0000      -0.334414        -9.0999
  62   2.0000      -0.310154        -8.4397
  63   2.0000      -0.300232        -8.1697
  64   2.0000      -0.289281        -7.8717
  65   2.0000      -0.259419        -7.0591
  66   2.0000      -0.257170        -6.9980
  67   2.0000      -0.244790        -6.6611
  68   2.0000      -0.242201        -6.5906
  69   2.0000      -0.241477        -6.5709
  70   2.0000      -0.236228        -6.4281
  71   2.0000      -0.214961        -5.8494
  72   2.0000      -0.207886        -5.6569
  73   2.0000      -0.204351        -5.5607
  74   2.0000      -0.177779        -4.8376
  75   2.0000      -0.174381        -4.7451
  76   2.0000      -0.164487        -4.4759
  77   2.0000      -0.151681        -4.1275
  78   2.0000      -0.143442        -3.9032
  79   2.0000      -0.137533        -3.7425
  80   2.0000      -0.131631        -3.5819
  81   2.0000      -0.123609        -3.3636
  82   0.0000       0.049065         1.3351
  83   0.0000       0.071468         1.9447
  84   0.0000       0.103018         2.8032
  85   0.0000       0.111300         3.0286
  86   0.0000       0.142788         3.8855

MULLIKEN ATOMIC CHARGES
-----------------------
   0 Pd:    0.183795
   1 Cl:   -0.386749
   2 Cl:   -0.339645
   3 Cl:   -0.477679
   4 N :   -0.571601
   5 C :    0.032884
   6 C :   -0.332042
   7 C :   -0.162023
   8 C :    0.409339
   9 C :    0.046023
  10 H :    0.208824
  11 H :    0.284084
  12 H :    0.219655
  13 C :    0.014977
  14 C :   -0.303450
  15 C :   -0.290475
  16 C :    0.129941
  17 H :    0.192567
  18 H :    0.193333
  19 C :   -0.093208
  20 C :   -0.330901
  21 C :   -0.365327
  22 C :   -0.196317
  23 H :    0.190562
  24 H :    0.193287
  25 H :    0.330393
  26 H :    0.219753
Sum of atomic charges:   -1.0000000

LOEWDIN ATOMIC CHARGES
----------------------
   0 Pd:   -0.776964
   1 Cl:   -0.116097
   2 Cl:   -0.193630
   3 Cl:   -0.261505
   4 N :    0.040793
   5 C :    0.003386
   6 C :   -0.173028
   7 C :   -0.088173
   8 C :    0.087077
   9 C :   -0.058997
  10 H :    0.133568
  11 H :    0.169775
  12 H :    0.139870
  13 C :   -0.025400
  14 C :   -0.144148
  15 C :   -0.118247
  16 C :   -0.034761
  17 H :    0.128867
  18 H :    0.129834
  19 C :   -0.020468
  20 C :   -0.162116
  21 C :   -0.139628
  22 C :   -0.127491
  23 H :    0.124217
  24 H :    0.125813
  25 H :    0.217378
  26 H :    0.140075

  Mayer bond orders larger than 0.100000
B(  0-Pd,  1-Cl) :   0.8462 B(  0-Pd,  3-Cl) :   0.6811 B(  0-Pd,  4-N ) :   0.4103
B(  0-Pd, 19-C ) :   0.7624 B(  2-Cl, 25-H ) :   0.8293 B(  4-N ,  5-C ) :   1.4840
B(  4-N ,  8-C ) :   1.1351 B(  5-C ,  6-C ) :   1.3094 B(  5-C , 11-H ) :   0.8688
B(  6-C ,  7-C ) :   1.4564 B(  6-C , 12-H ) :   0.9208 B(  7-C ,  9-C ) :   1.2784
B(  7-C , 10-H ) :   0.9293 B(  8-C ,  9-C ) :   1.2226 B(  8-C , 13-C ) :   1.1434
B(  9-C , 14-C ) :   1.1656 B( 13-C , 16-C ) :   1.2574 B( 13-C , 19-C ) :   1.1914
B( 14-C , 15-C ) :   1.6498 B( 14-C , 17-H ) :   0.9300 B( 15-C , 16-C ) :   1.1546
B( 15-C , 18-H ) :   0.9289 B( 16-C , 20-C ) :   1.2899 B( 19-C , 21-C ) :   1.4426
B( 20-C , 22-C ) :   1.4866 B( 20-C , 23-H ) :   0.9285 B( 21-C , 22-C ) :   1.3504
B( 21-C , 26-H ) :   0.9133 B( 22-C , 24-H ) :   0.9251

Dispersion correction           -0.023847122
FINAL SINGLE POINT ENERGY     -2061.504728206889
Dispersion correction            ... done

DIPOLE MOMENT
-------------
                                X             Y             Z
Electronic contribution:    -75.32999     -51.30637      16.43206
Nuclear contribution   :     78.82878      54.40145     -16.44152
                        -----------------------------------------
Total Dipole Moment    :      3.49879       3.09508      -0.00946
                        -----------------------------------------
Magnitude (a.u.)       :      4.67131
Magnitude (Debye)      :     11.87353

Rotational constants in cm-1:     0.011223     0.007646     0.005414
Rotational constants in MHz :   336.453636   229.223076   162.305292

                             ****ORCA TERMINATED NORMALLY****
TOTAL RUN TIME: 0 days 0 hours 9 minutes 13 seconds 952 msec
