                         Program Version 5.0.3 -  RELEASE  -
|  1> ! EnGrad PBEh-3c
|  2> %output
|  3> xyzfile=True
|  4> end
|  5> %scf
|  6> maxiter 250
|  7> end
|  8> %output
|  9> Print[P_Hirshfeld] = 1
| 10> end
| 11> % maxcore
| 12> 4000
| 13> *xyz -1 1
| 14> Pd  -1.94840542  -1.51079682   0.39191277
| 15> Cl  -3.09830997  -3.31668085  -0.41916105
| 16> Cl  -0.28934027  -4.88120880   0.83878098
| 17> Cl  -4.04653683  -0.86653376   1.50838455
| 18> N   -1.00566655   0.04813131   1.37182767
| 19> C   -1.36057142   0.59131198   2.53373370
| 20> C   -0.82318793   1.83472415   2.94600642
| 21> C    0.07785475   2.45846539   2.14307788
| 22> C   -0.08448700   0.62271642   0.61209448
| 23> C    0.48434440   1.86007295   0.95077253
| 24> H    0.52742289   3.41555405   2.43358438
| 25> H   -2.10488713   0.07774218   3.14106850
| 26> H   -1.16216236   2.27345479   3.87773668
| 27> C    0.29186742  -0.08743316  -0.56302242
| 28> C    1.44825858   2.44315580   0.07177825
| 29> C    1.79744466   1.82153285  -1.05903586
| 30> C    1.25324108   0.53068901  -1.40918359
| 31> H    1.88242807   3.40198939   0.35268764
| 32> H    2.53326375   2.28475015  -1.72881197
| 33> C   -0.31849737  -1.32391481  -0.87893561
| 34> C    1.67061059  -0.12127977  -2.59291120
| 35> C    0.11722913  -1.92941857  -2.03837259
| 36> C    1.10972064  -1.32900393  -2.86749211
| 37> H    2.41018748   0.37273038  -3.24997948
| 38> H    1.46145114  -1.83323198  -3.79315368
| 39> H   -0.52901014  -3.99159177  -0.15922708
| 40> H   -0.28435754  -2.84022072  -2.41640919
| 41> *
| 42>
| 43>                          ****END OF INPUT****

CARTESIAN COORDINATES (ANGSTROEM)
---------------------------------
  Pd    -1.948405   -1.510797    0.391913
  Cl    -3.098310   -3.316681   -0.419161
  Cl    -0.289340   -4.881209    0.838781
  Cl    -4.046537   -0.866534    1.508385
  N     -1.005667    0.048131    1.371828
  C     -1.360571    0.591312    2.533734
  C     -0.823188    1.834724    2.946006
  C      0.077855    2.458465    2.143078
  C     -0.084487    0.622716    0.612094
  C      0.484344    1.860073    0.950773
  H      0.527423    3.415554    2.433584
  H     -2.104887    0.077742    3.141068
  H     -1.162162    2.273455    3.877737
  C      0.291867   -0.087433   -0.563022
  C      1.448259    2.443156    0.071778
  C      1.797445    1.821533   -1.059036
  C      1.253241    0.530689   -1.409184
  H      1.882428    3.401989    0.352688
  H      2.533264    2.284750   -1.728812
  C     -0.318497   -1.323915   -0.878936
  C      1.670611   -0.121280   -2.592911
  C      0.117229   -1.929419   -2.038373
  C      1.109721   -1.329004   -2.867492
  H      2.410187    0.372730   -3.249979
  H      1.461451   -1.833232   -3.793154
  H     -0.529010   -3.991592   -0.159227
  H     -0.284358   -2.840221   -2.416409

 Total Charge           Charge          ....   -1
 Multiplicity           Mult            ....    1
 Number of Electrons    NEL             ....  164
 Basis Dimension        Dim             ....  313

ORBITAL ENERGIES
----------------

  NO   OCC          E(Eh)            E(eV)
   0   2.0000    -102.159187     -2779.8928
   1   2.0000    -102.075549     -2777.6169
   2   2.0000    -102.057410     -2777.1233
   3   2.0000     -14.590666      -397.0322
   4   2.0000     -10.405867      -283.1580
   5   2.0000     -10.402263      -283.0600
   6   2.0000     -10.389099      -282.7018
   7   2.0000     -10.380817      -282.4764
   8   2.0000     -10.376246      -282.3520
   9   2.0000     -10.372919      -282.2615
  10   2.0000     -10.371627      -282.2263
  11   2.0000     -10.369647      -282.1724
  12   2.0000     -10.356447      -281.8132
  13   2.0000     -10.355594      -281.7900
  14   2.0000     -10.353339      -281.7287
  15   2.0000     -10.339471      -281.3513
  16   2.0000     -10.338289      -281.3191
  17   2.0000      -9.626326      -261.9457
  18   2.0000      -9.539879      -259.5933
  19   2.0000      -9.520798      -259.0741
  20   2.0000      -7.313857      -199.0202
  21   2.0000      -7.305965      -198.8054
  22   2.0000      -7.305809      -198.8012
  23   2.0000      -7.225684      -196.6209
  24   2.0000      -7.220888      -196.4903
  25   2.0000      -7.220705      -196.4854
  26   2.0000      -7.205865      -196.0816
  27   2.0000      -7.202436      -195.9882
  28   2.0000      -7.202162      -195.9808
  29   2.0000      -3.508592       -95.4736
  30   2.0000      -2.155521       -58.6547
  31   2.0000      -2.149765       -58.4981
  32   2.0000      -2.120308       -57.6965
  33   2.0000      -0.991375       -26.9767
  34   2.0000      -0.880084       -23.9483
  35   2.0000      -0.846241       -23.0274
  36   2.0000      -0.811939       -22.0940
  37   2.0000      -0.777203       -21.1488
  38   2.0000      -0.772916       -21.0321
  39   2.0000      -0.736286       -20.0354
  40   2.0000      -0.720266       -19.5994
  41   2.0000      -0.668859       -18.2006
  42   2.0000      -0.647933       -17.6311
  43   2.0000      -0.642021       -17.4703
  44   2.0000      -0.635549       -17.2942
  45   2.0000      -0.610203       -16.6045
  46   2.0000      -0.567388       -15.4394
  47   2.0000      -0.526580       -14.3290
  48   2.0000      -0.512859       -13.9556
  49   2.0000      -0.492196       -13.3933
  50   2.0000      -0.458496       -12.4763
  51   2.0000      -0.453453       -12.3391
  52   2.0000      -0.426306       -11.6004
  53   2.0000      -0.410829       -11.1792
  54   2.0000      -0.406699       -11.0668
  55   2.0000      -0.397221       -10.8089
  56   2.0000      -0.382348       -10.4042
  57   2.0000      -0.376123       -10.2348
  58   2.0000      -0.371488       -10.1087
  59   2.0000      -0.351467        -9.5639
  60   2.0000      -0.338547        -9.2123
  61   2.0000      -0.335614        -9.1325
  62   2.0000      -0.312357        -8.4997
  63   2.0000      -0.303447        -8.2572
  64   2.0000      -0.290166        -7.8958
  65   2.0000      -0.263381        -7.1670
  66   2.0000      -0.252383        -6.8677
  67   2.0000      -0.243598        -6.6286
  68   2.0000      -0.238658        -6.4942
  69   2.0000      -0.237884        -6.4731
  70   2.0000      -0.233907        -6.3649
  71   2.0000      -0.215342        -5.8598
  72   2.0000      -0.205139        -5.5821
  73   2.0000      -0.201559        -5.4847
  74   2.0000      -0.179612        -4.8875
  75   2.0000      -0.172881        -4.7043
  76   2.0000      -0.164677        -4.4811
  77   2.0000      -0.150106        -4.0846
  78   2.0000      -0.140784        -3.8309
  79   2.0000      -0.135050        -3.6749
  80   2.0000      -0.130244        -3.5441
  81   2.0000      -0.120657        -3.2833
  82   0.0000       0.050556         1.3757
  83   0.0000       0.072761         1.9799
  84   0.0000       0.102908         2.8003
  85   0.0000       0.110556         3.0084
  86   0.0000       0.147223         4.0061

MULLIKEN ATOMIC CHARGES
-----------------------
   0 Pd:    0.181197
   1 Cl:   -0.384710
   2 Cl:   -0.333560
   3 Cl:   -0.482516
   4 N :   -0.571377
   5 C :    0.032731
   6 C :   -0.340857
   7 C :   -0.151552
   8 C :    0.426499
   9 C :    0.046269
  10 H :    0.205756
  11 H :    0.287779
  12 H :    0.218705
  13 C :    0.040952
  14 C :   -0.299136
  15 C :   -0.287536
  16 C :    0.091934
  17 H :    0.191358
  18 H :    0.192305
  19 C :   -0.120933
  20 C :   -0.302463
  21 C :   -0.351533
  22 C :   -0.210812
  23 H :    0.187222
  24 H :    0.186434
  25 H :    0.322717
  26 H :    0.225125
Sum of atomic charges:   -1.0000000

LOEWDIN ATOMIC CHARGES
----------------------
   0 Pd:   -0.794107
   1 Cl:   -0.108692
   2 Cl:   -0.204591
   3 Cl:   -0.263659
   4 N :    0.043153
   5 C :    0.010329
   6 C :   -0.170509
   7 C :   -0.091806
   8 C :    0.082215
   9 C :   -0.057075
  10 H :    0.133080
  11 H :    0.170669
  12 H :    0.139688
  13 C :   -0.026272
  14 C :   -0.141897
  15 C :   -0.119495
  16 C :   -0.028443
  17 H :    0.128451
  18 H :    0.129527
  19 C :   -0.024340
  20 C :   -0.161957
  21 C :   -0.142712
  22 C :   -0.124193
  23 H :    0.124260
  24 H :    0.123060
  25 H :    0.233343
  26 H :    0.141975

  Mayer bond orders larger than 0.100000
B(  0-Pd,  1-Cl) :   0.8566 B(  0-Pd,  3-Cl) :   0.6755 B(  0-Pd,  4-N ) :   0.4073
B(  0-Pd, 19-C ) :   0.7561 B(  2-Cl, 25-H ) :   0.8356 B(  4-N ,  5-C ) :   1.4767
B(  4-N ,  8-C ) :   1.1476 B(  5-C ,  6-C ) :   1.3053 B(  5-C , 11-H ) :   0.8687
B(  6-C ,  7-C ) :   1.4565 B(  6-C , 12-H ) :   0.9208 B(  7-C ,  9-C ) :   1.2819
B(  7-C , 10-H ) :   0.9304 B(  8-C ,  9-C ) :   1.2183 B(  8-C , 13-C ) :   1.1265
B(  9-C , 14-C ) :   1.1658 B( 13-C , 16-C ) :   1.2915 B( 13-C , 19-C ) :   1.1926
B( 14-C , 15-C ) :   1.6487 B( 14-C , 17-H ) :   0.9298 B( 15-C , 16-C ) :   1.1537
B( 15-C , 18-H ) :   0.9286 B( 16-C , 20-C ) :   1.2703 B( 19-C , 21-C ) :   1.4710
B( 20-C , 22-C ) :   1.5106 B( 20-C , 23-H ) :   0.9298 B( 21-C , 22-C ) :   1.3312
B( 21-C , 26-H ) :   0.9125 B( 22-C , 24-H ) :   0.9260

Dispersion correction           -0.023918548
FINAL SINGLE POINT ENERGY     -2061.496639635471
Dispersion correction            ... done

DIPOLE MOMENT
-------------
                                X             Y             Z
Electronic contribution:    -75.08001     -50.79521      13.97204
Nuclear contribution   :     78.64384      53.84460     -13.94652
                        -----------------------------------------
Total Dipole Moment    :      3.56383       3.04938       0.02552
                        -----------------------------------------
Magnitude (a.u.)       :      4.69044
Magnitude (Debye)      :     11.92216

Rotational constants in cm-1:     0.011345     0.007674     0.005517
Rotational constants in MHz :   340.115922   230.067718   165.393119

                             ****ORCA TERMINATED NORMALLY****
TOTAL RUN TIME: 0 days 0 hours 8 minutes 57 seconds 429 msec
