                         Program Version 5.0.3 -  RELEASE  -
|  1> ! EnGrad PBEh-3c
|  2> %output
|  3> xyzfile=True
|  4> end
|  5> %scf
|  6> maxiter 250
|  7> end
|  8> %output
|  9> Print[P_Hirshfeld] = 1
| 10> end
| 11> % maxcore
| 12> 4000
| 13> *xyz -1 1
| 14> Pd  -1.94715315  -1.52418618   0.42429357
| 15> Cl  -3.10470592  -3.31809213  -0.43071065
| 16> Cl  -0.21488844  -4.91700687   0.72874736
| 17> Cl  -4.04211232  -0.96357788   1.58921892
| 18> N   -1.03094203   0.06753428   1.37504716
| 19> C   -1.36974963   0.63058367   2.52417498
| 20> C   -0.84361680   1.86015915   2.93807385
| 21> C    0.08491959   2.48201978   2.14010112
| 22> C   -0.09237662   0.64002014   0.60773595
| 23> C    0.48804196   1.86764642   0.94837074
| 24> H    0.53204374   3.42674154   2.43609789
| 25> H   -2.11393616   0.10754863   3.13310969
| 26> H   -1.17343408   2.30477018   3.86234053
| 27> C    0.29630014  -0.07857769  -0.56903358
| 28> C    1.46235109   2.44591078   0.08139777
| 29> C    1.81542819   1.81727415  -1.05525438
| 30> C    1.26201788   0.54185116  -1.41136071
| 31> H    1.90340556   3.39588779   0.35562058
| 32> H    2.55641219   2.27305423  -1.71268822
| 33> C   -0.33974928  -1.32266766  -0.85993998
| 34> C    1.68340843  -0.10937774  -2.58538179
| 35> C    0.10855199  -1.91194728  -2.03219274
| 36> C    1.10309557  -1.34216779  -2.87528415
| 37> H    2.41129612   0.35009072  -3.23526012
| 38> H    1.45316339  -1.84000581  -3.78864611
| 39> H   -0.55801780  -4.05427783  -0.17454767
| 40> H   -0.32243884  -2.82460163  -2.41542358
| 41> *
| 42>
| 43>                          ****END OF INPUT****

CARTESIAN COORDINATES (ANGSTROEM)
---------------------------------
  Pd    -1.947153   -1.524186    0.424294
  Cl    -3.104706   -3.318092   -0.430711
  Cl    -0.214888   -4.917007    0.728747
  Cl    -4.042112   -0.963578    1.589219
  N     -1.030942    0.067534    1.375047
  C     -1.369750    0.630584    2.524175
  C     -0.843617    1.860159    2.938074
  C      0.084920    2.482020    2.140101
  C     -0.092377    0.640020    0.607736
  C      0.488042    1.867646    0.948371
  H      0.532044    3.426742    2.436098
  H     -2.113936    0.107549    3.133110
  H     -1.173434    2.304770    3.862341
  C      0.296300   -0.078578   -0.569034
  C      1.462351    2.445911    0.081398
  C      1.815428    1.817274   -1.055254
  C      1.262018    0.541851   -1.411361
  H      1.903406    3.395888    0.355621
  H      2.556412    2.273054   -1.712688
  C     -0.339749   -1.322668   -0.859940
  C      1.683408   -0.109378   -2.585382
  C      0.108552   -1.911947   -2.032193
  C      1.103096   -1.342168   -2.875284
  H      2.411296    0.350091   -3.235260
  H      1.453163   -1.840006   -3.788646
  H     -0.558018   -4.054278   -0.174548
  H     -0.322439   -2.824602   -2.415424

 Total Charge           Charge          ....   -1
 Multiplicity           Mult            ....    1
 Number of Electrons    NEL             ....  164
 Basis Dimension        Dim             ....  313

ORBITAL ENERGIES
----------------

  NO   OCC          E(Eh)            E(eV)
   0   2.0000    -102.158720     -2779.8801
   1   2.0000    -102.077071     -2777.6583
   2   2.0000    -102.058388     -2777.1499
   3   2.0000     -14.591552      -397.0563
   4   2.0000     -10.403175      -283.0848
   5   2.0000     -10.402919      -283.0778
   6   2.0000     -10.390197      -282.7316
   7   2.0000     -10.380848      -282.4772
   8   2.0000     -10.375185      -282.3231
   9   2.0000     -10.372140      -282.2403
  10   2.0000     -10.370961      -282.2082
  11   2.0000     -10.368553      -282.1427
  12   2.0000     -10.358176      -281.8603
  13   2.0000     -10.356547      -281.8160
  14   2.0000     -10.352697      -281.7112
  15   2.0000     -10.341345      -281.4023
  16   2.0000     -10.339401      -281.3494
  17   2.0000      -9.627547      -261.9789
  18   2.0000      -9.541261      -259.6309
  19   2.0000      -9.521786      -259.1010
  20   2.0000      -7.314894      -199.0484
  21   2.0000      -7.307129      -198.8371
  22   2.0000      -7.306989      -198.8333
  23   2.0000      -7.227066      -196.6585
  24   2.0000      -7.222306      -196.5289
  25   2.0000      -7.222082      -196.5228
  26   2.0000      -7.206906      -196.1099
  27   2.0000      -7.203394      -196.0143
  28   2.0000      -7.203114      -196.0067
  29   2.0000      -3.510665       -95.5300
  30   2.0000      -2.157353       -58.7046
  31   2.0000      -2.151894       -58.5560
  32   2.0000      -2.122302       -57.7508
  33   2.0000      -0.988979       -26.9115
  34   2.0000      -0.879001       -23.9188
  35   2.0000      -0.843488       -22.9525
  36   2.0000      -0.808564       -22.0021
  37   2.0000      -0.784491       -21.3471
  38   2.0000      -0.776778       -21.1372
  39   2.0000      -0.734418       -19.9845
  40   2.0000      -0.718224       -19.5439
  41   2.0000      -0.669741       -18.2246
  42   2.0000      -0.647659       -17.6237
  43   2.0000      -0.642467       -17.4824
  44   2.0000      -0.634878       -17.2759
  45   2.0000      -0.608112       -16.5476
  46   2.0000      -0.570273       -15.5179
  47   2.0000      -0.525397       -14.2968
  48   2.0000      -0.511483       -13.9182
  49   2.0000      -0.492369       -13.3980
  50   2.0000      -0.457697       -12.4546
  51   2.0000      -0.454217       -12.3599
  52   2.0000      -0.425798       -11.5866
  53   2.0000      -0.409887       -11.1536
  54   2.0000      -0.405253       -11.0275
  55   2.0000      -0.398821       -10.8525
  56   2.0000      -0.382273       -10.4022
  57   2.0000      -0.377953       -10.2846
  58   2.0000      -0.374537       -10.1917
  59   2.0000      -0.352719        -9.5980
  60   2.0000      -0.338292        -9.2054
  61   2.0000      -0.334827        -9.1111
  62   2.0000      -0.310819        -8.4578
  63   2.0000      -0.301155        -8.1948
  64   2.0000      -0.289782        -7.8854
  65   2.0000      -0.260539        -7.0896
  66   2.0000      -0.255857        -6.9622
  67   2.0000      -0.244466        -6.6522
  68   2.0000      -0.241176        -6.5627
  69   2.0000      -0.240461        -6.5433
  70   2.0000      -0.235642        -6.4122
  71   2.0000      -0.215026        -5.8511
  72   2.0000      -0.206981        -5.6322
  73   2.0000      -0.203669        -5.5421
  74   2.0000      -0.178204        -4.8492
  75   2.0000      -0.173969        -4.7339
  76   2.0000      -0.164540        -4.4774
  77   2.0000      -0.151224        -4.1150
  78   2.0000      -0.142645        -3.8816
  79   2.0000      -0.136748        -3.7211
  80   2.0000      -0.131259        -3.5717
  81   2.0000      -0.122765        -3.3406
  82   0.0000       0.049616         1.3501
  83   0.0000       0.071910         1.9568
  84   0.0000       0.103229         2.8090
  85   0.0000       0.111004         3.0206
  86   0.0000       0.144207         3.9241

MULLIKEN ATOMIC CHARGES
-----------------------
   0 Pd:    0.182811
   1 Cl:   -0.386192
   2 Cl:   -0.338049
   3 Cl:   -0.478912
   4 N :   -0.571686
   5 C :    0.032861
   6 C :   -0.334649
   7 C :   -0.159028
   8 C :    0.414554
   9 C :    0.046119
  10 H :    0.207951
  11 H :    0.285153
  12 H :    0.219395
  13 C :    0.021957
  14 C :   -0.302356
  15 C :   -0.289713
  16 C :    0.119677
  17 H :    0.192212
  18 H :    0.193023
  19 C :   -0.100674
  20 C :   -0.323485
  21 C :   -0.362163
  22 C :   -0.200098
  23 H :    0.189777
  24 H :    0.191340
  25 H :    0.328766
  26 H :    0.221409
Sum of atomic charges:   -1.0000000

LOEWDIN ATOMIC CHARGES
----------------------
   0 Pd:   -0.782314
   1 Cl:   -0.113935
   2 Cl:   -0.196505
   3 Cl:   -0.261720
   4 N :    0.041561
   5 C :    0.005398
   6 C :   -0.172294
   7 C :   -0.089281
   8 C :    0.085690
   9 C :   -0.058449
  10 H :    0.133440
  11 H :    0.170029
  12 H :    0.139811
  13 C :   -0.025674
  14 C :   -0.143497
  15 C :   -0.118617
  16 C :   -0.032954
  17 H :    0.128742
  18 H :    0.129737
  19 C :   -0.021792
  20 C :   -0.162178
  21 C :   -0.140620
  22 C :   -0.126522
  23 H :    0.124302
  24 H :    0.125050
  25 H :    0.221925
  26 H :    0.140666

  Mayer bond orders larger than 0.100000
B(  0-Pd,  1-Cl) :   0.8494 B(  0-Pd,  3-Cl) :   0.6796 B(  0-Pd,  4-N ) :   0.4096
B(  0-Pd, 19-C ) :   0.7606 B(  2-Cl, 25-H ) :   0.8312 B(  4-N ,  5-C ) :   1.4821
B(  4-N ,  8-C ) :   1.1385 B(  5-C ,  6-C ) :   1.3081 B(  5-C , 11-H ) :   0.8687
B(  6-C ,  7-C ) :   1.4567 B(  6-C , 12-H ) :   0.9208 B(  7-C ,  9-C ) :   1.2793
B(  7-C , 10-H ) :   0.9297 B(  8-C ,  9-C ) :   1.2214 B(  8-C , 13-C ) :   1.1389
B(  9-C , 14-C ) :   1.1657 B( 13-C , 16-C ) :   1.2674 B( 13-C , 19-C ) :   1.1920
B( 14-C , 15-C ) :   1.6495 B( 14-C , 17-H ) :   0.9299 B( 15-C , 16-C ) :   1.1543
B( 15-C , 18-H ) :   0.9288 B( 16-C , 20-C ) :   1.2843 B( 19-C , 21-C ) :   1.4509
B( 20-C , 22-C ) :   1.4938 B( 20-C , 23-H ) :   0.9289 B( 21-C , 22-C ) :   1.3449
B( 21-C , 26-H ) :   0.9131 B( 22-C , 24-H ) :   0.9255

Dispersion correction           -0.023870599
FINAL SINGLE POINT ENERGY     -2061.504831630938
Dispersion correction            ... done

DIPOLE MOMENT
-------------
                                X             Y             Z
Electronic contribution:    -75.25743     -51.15788      15.71164
Nuclear contribution   :     78.77457      54.23823     -15.71023
                        -----------------------------------------
Total Dipole Moment    :      3.51714       3.08036       0.00140
                        -----------------------------------------
Magnitude (a.u.)       :      4.67535
Magnitude (Debye)      :     11.88379

Rotational constants in cm-1:     0.011262     0.007655     0.005444
Rotational constants in MHz :   337.620291   229.502423   163.220028

                             ****ORCA TERMINATED NORMALLY****
TOTAL RUN TIME: 0 days 0 hours 8 minutes 24 seconds 62 msec
