                         Program Version 5.0.3 -  RELEASE  -
|  1> ! EnGrad PBEh-3c
|  2> %output
|  3> xyzfile=True
|  4> end
|  5> %scf
|  6> maxiter 250
|  7> end
|  8> %output
|  9> Print[P_Hirshfeld] = 1
| 10> end
| 11> % maxcore
| 12> 4000
| 13> *xyz -1 1
| 14> Pd  -1.96379538  -1.48706430   0.36254684
| 15> Cl  -3.09530943  -3.31529884  -0.41125852
| 16> Cl  -0.38096713  -4.82752439   0.98175653
| 17> Cl  -4.03854129  -0.73207771   1.38983153
| 18> N   -0.99091354   0.01283038   1.38477408
| 19> C   -1.34347450   0.54767874   2.54064173
| 20> C   -0.80965337   1.78061764   2.96261317
| 21> C    0.08135952   2.43859643   2.14746033
| 22> C   -0.06440036   0.60383332   0.61106989
| 23> C    0.48243278   1.84716777   0.95169213
| 24> H    0.51569672   3.39336411   2.42863382
| 25> H   -2.08761641   0.03631958   3.14595444
| 26> H   -1.14381126   2.22751230   3.89718741
| 27> C    0.30204879  -0.08929392  -0.57124268
| 28> C    1.42401883   2.44837634   0.07157904
| 29> C    1.77746685   1.81729256  -1.07821863
| 30> C    1.24551901   0.52128083  -1.40862259
| 31> H    1.85109571   3.40759007   0.34618841
| 32> H    2.49444982   2.29690353  -1.74738828
| 33> C   -0.29735591  -1.33364512  -0.89304263
| 34> C    1.65851318  -0.11758612  -2.59621727
| 35> C    0.14806787  -1.93992640  -2.05696491
| 36> C    1.12114817  -1.33052977  -2.87462667
| 37> H    2.39576310   0.39468882  -3.26085765
| 38> H    1.46553887  -1.82102125  -3.78713739
| 39> H   -0.49573231  -3.89792623  -0.12301105
| 40> H   -0.23841076  -2.87478050  -2.41677606
| 41> *
| 42>
| 43>                          ****END OF INPUT****

CARTESIAN COORDINATES (ANGSTROEM)
---------------------------------
  Pd    -1.963795   -1.487064    0.362547
  Cl    -3.095309   -3.315299   -0.411259
  Cl    -0.380967   -4.827524    0.981757
  Cl    -4.038541   -0.732078    1.389832
  N     -0.990914    0.012830    1.384774
  C     -1.343474    0.547679    2.540642
  C     -0.809653    1.780618    2.962613
  C      0.081360    2.438596    2.147460
  C     -0.064400    0.603833    0.611070
  C      0.482433    1.847168    0.951692
  H      0.515697    3.393364    2.428634
  H     -2.087616    0.036320    3.145954
  H     -1.143811    2.227512    3.897187
  C      0.302049   -0.089294   -0.571243
  C      1.424019    2.448376    0.071579
  C      1.777467    1.817293   -1.078219
  C      1.245519    0.521281   -1.408623
  H      1.851096    3.407590    0.346188
  H      2.494450    2.296904   -1.747388
  C     -0.297356   -1.333645   -0.893043
  C      1.658513   -0.117586   -2.596217
  C      0.148068   -1.939926   -2.056965
  C      1.121148   -1.330530   -2.874627
  H      2.395763    0.394689   -3.260858
  H      1.465539   -1.821021   -3.787137
  H     -0.495732   -3.897926   -0.123011
  H     -0.238411   -2.874780   -2.416776

 Total Charge           Charge          ....   -1
 Multiplicity           Mult            ....    1
 Number of Electrons    NEL             ....  164
 Basis Dimension        Dim             ....  313

ORBITAL ENERGIES
----------------

  NO   OCC          E(Eh)            E(eV)
   0   2.0000    -102.158274     -2779.8680
   1   2.0000    -102.074285     -2777.5825
   2   2.0000    -102.060026     -2777.1945
   3   2.0000     -14.590492      -397.0275
   4   2.0000     -10.404528      -283.1216
   5   2.0000     -10.403263      -283.0872
   6   2.0000     -10.389455      -282.7114
   7   2.0000     -10.380073      -282.4561
   8   2.0000     -10.377047      -282.3738
   9   2.0000     -10.374083      -282.2931
  10   2.0000     -10.372760      -282.2571
  11   2.0000     -10.367541      -282.1151
  12   2.0000     -10.354395      -281.7574
  13   2.0000     -10.353317      -281.7281
  14   2.0000     -10.352495      -281.7057
  15   2.0000     -10.340570      -281.3812
  16   2.0000     -10.338482      -281.3244
  17   2.0000      -9.623491      -261.8685
  18   2.0000      -9.538680      -259.5607
  19   2.0000      -9.523556      -259.1491
  20   2.0000      -7.311267      -198.9497
  21   2.0000      -7.303177      -198.7296
  22   2.0000      -7.302999      -198.7247
  23   2.0000      -7.224495      -196.5885
  24   2.0000      -7.219665      -196.4571
  25   2.0000      -7.219508      -196.4528
  26   2.0000      -7.208643      -196.1571
  27   2.0000      -7.205172      -196.0627
  28   2.0000      -7.204878      -196.0547
  29   2.0000      -3.508377       -95.4678
  30   2.0000      -2.155442       -58.6526
  31   2.0000      -2.149592       -58.4934
  32   2.0000      -2.120011       -57.6884
  33   2.0000      -0.988713       -26.9042
  34   2.0000      -0.882854       -24.0237
  35   2.0000      -0.846282       -23.0285
  36   2.0000      -0.811062       -22.0701
  37   2.0000      -0.776684       -21.1347
  38   2.0000      -0.758135       -20.6299
  39   2.0000      -0.739642       -20.1267
  40   2.0000      -0.718052       -19.5392
  41   2.0000      -0.668054       -18.1787
  42   2.0000      -0.649816       -17.6824
  43   2.0000      -0.643181       -17.5018
  44   2.0000      -0.637095       -17.3362
  45   2.0000      -0.610343       -16.6083
  46   2.0000      -0.569993       -15.5103
  47   2.0000      -0.526247       -14.3199
  48   2.0000      -0.513600       -13.9758
  49   2.0000      -0.492051       -13.3894
  50   2.0000      -0.457393       -12.4463
  51   2.0000      -0.455066       -12.3830
  52   2.0000      -0.426634       -11.6093
  53   2.0000      -0.410349       -11.1662
  54   2.0000      -0.406600       -11.0642
  55   2.0000      -0.400091       -10.8870
  56   2.0000      -0.383132       -10.4255
  57   2.0000      -0.375449       -10.2165
  58   2.0000      -0.359406        -9.7799
  59   2.0000      -0.347313        -9.4509
  60   2.0000      -0.340542        -9.2666
  61   2.0000      -0.336723        -9.1627
  62   2.0000      -0.311778        -8.4839
  63   2.0000      -0.302789        -8.2393
  64   2.0000      -0.290605        -7.9078
  65   2.0000      -0.262309        -7.1378
  66   2.0000      -0.252198        -6.8626
  67   2.0000      -0.244423        -6.6511
  68   2.0000      -0.236378        -6.4322
  69   2.0000      -0.234623        -6.3844
  70   2.0000      -0.229986        -6.2582
  71   2.0000      -0.216342        -5.8870
  72   2.0000      -0.206626        -5.6226
  73   2.0000      -0.198521        -5.4020
  74   2.0000      -0.181851        -4.9484
  75   2.0000      -0.172758        -4.7010
  76   2.0000      -0.164696        -4.4816
  77   2.0000      -0.149119        -4.0577
  78   2.0000      -0.140206        -3.8152
  79   2.0000      -0.135052        -3.6749
  80   2.0000      -0.130231        -3.5438
  81   2.0000      -0.119947        -3.2639
  82   0.0000       0.049204         1.3389
  83   0.0000       0.071696         1.9510
  84   0.0000       0.102048         2.7769
  85   0.0000       0.112369         3.0577
  86   0.0000       0.142660         3.8820

MULLIKEN ATOMIC CHARGES
-----------------------
   0 Pd:    0.185684
   1 Cl:   -0.384458
   2 Cl:   -0.329093
   3 Cl:   -0.474575
   4 N :   -0.571892
   5 C :    0.041896
   6 C :   -0.345205
   7 C :   -0.155430
   8 C :    0.418685
   9 C :    0.056746
  10 H :    0.208100
  11 H :    0.285832
  12 H :    0.217692
  13 C :    0.055801
  14 C :   -0.308007
  15 C :   -0.297065
  16 C :    0.100281
  17 H :    0.192551
  18 H :    0.193775
  19 C :   -0.137041
  20 C :   -0.309527
  21 C :   -0.350819
  22 C :   -0.204596
  23 H :    0.185012
  24 H :    0.189174
  25 H :    0.312466
  26 H :    0.224015
Sum of atomic charges:   -1.0000000

LOEWDIN ATOMIC CHARGES
----------------------
   0 Pd:   -0.812052
   1 Cl:   -0.106444
   2 Cl:   -0.217265
   3 Cl:   -0.245525
   4 N :    0.041990
   5 C :    0.007442
   6 C :   -0.169243
   7 C :   -0.090709
   8 C :    0.088514
   9 C :   -0.058757
  10 H :    0.133816
  11 H :    0.169608
  12 H :    0.139242
  13 C :   -0.028667
  14 C :   -0.142151
  15 C :   -0.117684
  16 C :   -0.029789
  17 H :    0.128545
  18 H :    0.129844
  19 C :   -0.026499
  20 C :   -0.159368
  21 C :   -0.145452
  22 C :   -0.125985
  23 H :    0.123681
  24 H :    0.123912
  25 H :    0.247405
  26 H :    0.141590

  Mayer bond orders larger than 0.100000
B(  0-Pd,  1-Cl) :   0.8597 B(  0-Pd,  3-Cl) :   0.6907 B(  0-Pd,  4-N ) :   0.4084
B(  0-Pd, 19-C ) :   0.7355 B(  2-Cl, 25-H ) :   0.8380 B(  4-N ,  5-C ) :   1.4831
B(  4-N ,  8-C ) :   1.1322 B(  5-C ,  6-C ) :   1.3013 B(  5-C , 11-H ) :   0.8734
B(  6-C ,  7-C ) :   1.4594 B(  6-C , 12-H ) :   0.9213 B(  7-C ,  9-C ) :   1.2785
B(  7-C , 10-H ) :   0.9293 B(  8-C ,  9-C ) :   1.2210 B(  8-C , 13-C ) :   1.1334
B(  9-C , 14-C ) :   1.1689 B( 13-C , 16-C ) :   1.2920 B( 13-C , 19-C ) :   1.1951
B( 14-C , 15-C ) :   1.6461 B( 14-C , 17-H ) :   0.9299 B( 15-C , 16-C ) :   1.1552
B( 15-C , 18-H ) :   0.9290 B( 16-C , 20-C ) :   1.2641 B( 19-C , 21-C ) :   1.4725
B( 20-C , 22-C ) :   1.5117 B( 20-C , 23-H ) :   0.9313 B( 21-C , 22-C ) :   1.3363
B( 21-C , 26-H ) :   0.9134 B( 22-C , 24-H ) :   0.9247

Dispersion correction           -0.023989076
FINAL SINGLE POINT ENERGY     -2061.486098869033
Dispersion correction            ... done

DIPOLE MOMENT
-------------
                                X             Y             Z
Electronic contribution:    -75.67833     -50.02514      12.44702
Nuclear contribution   :     79.23832      53.06151     -12.37621
                        -----------------------------------------
Total Dipole Moment    :      3.55999       3.03637       0.07081
                        -----------------------------------------
Magnitude (a.u.)       :      4.67954
Magnitude (Debye)      :     11.89445

Rotational constants in cm-1:     0.011409     0.007689     0.005607
Rotational constants in MHz :   342.034489   230.522716   168.106470

                             ****ORCA TERMINATED NORMALLY****
TOTAL RUN TIME: 0 days 0 hours 8 minutes 33 seconds 844 msec
