                         Program Version 5.0.3 -  RELEASE  -
|  1> ! EnGrad PBEh-3c
|  2> %output
|  3> xyzfile=True
|  4> end
|  5> %scf
|  6> maxiter 250
|  7> end
|  8> %output
|  9> Print[P_Hirshfeld] = 1
| 10> end
| 11> % maxcore
| 12> 4000
| 13> *xyz -1 1
| 14> Pd  -1.95189839  -1.51360153   0.40668757
| 15> Cl  -3.10202668  -3.31729567  -0.42516421
| 16> Cl  -0.26224289  -4.89149250   0.80088852
| 17> Cl  -4.04109410  -0.89756964   1.53236708
| 18> N   -1.01952861   0.05193642   1.37782062
| 19> C   -1.36225773   0.60694477   2.52887019
| 20> C   -0.83393272   1.83747927   2.94507081
| 21> C    0.08390449   2.46963837   2.14219947
| 22> C   -0.08439968   0.62970210   0.60868656
| 23> C    0.48644260   1.86180729   0.94931778
| 24> H    0.52738267   3.41722455   2.43396964
| 25> H   -2.10643154   0.08723891   3.13677215
| 26> H   -1.16498765   2.28274144   3.87227651
| 27> C    0.29793927  -0.08163324  -0.56966347
| 28> C    1.45142132   2.44661379   0.07859813
| 29> C    1.80460417   1.81727940  -1.06180224
| 30> C    1.25731352   0.53598589  -1.41057998
| 31> H    1.88849031   3.39922449   0.35293116
| 32> H    2.53874470   2.27985444  -1.72258234
| 33> C   -0.32766155  -1.32579769  -0.86937862
| 34> C    1.67630999  -0.11171821  -2.58847134
| 35> C    0.11981926  -1.91992504  -2.03925609
| 36> C    1.10824295  -1.33884941  -2.87509668
| 37> H    2.40686715   0.36280709  -3.24255881
| 38> H    1.45669205  -1.83459269  -3.78821593
| 39> H   -0.54025818  -4.00969690  -0.15985290
| 40> H   -0.29847969  -2.83890926  -2.41580922
| 41> *
| 42>
| 43>                          ****END OF INPUT****

CARTESIAN COORDINATES (ANGSTROEM)
---------------------------------
  Pd    -1.951898   -1.513602    0.406688
  Cl    -3.102027   -3.317296   -0.425164
  Cl    -0.262243   -4.891493    0.800889
  Cl    -4.041094   -0.897570    1.532367
  N     -1.019529    0.051936    1.377821
  C     -1.362258    0.606945    2.528870
  C     -0.833933    1.837479    2.945071
  C      0.083904    2.469638    2.142199
  C     -0.084400    0.629702    0.608687
  C      0.486443    1.861807    0.949318
  H      0.527383    3.417225    2.433970
  H     -2.106432    0.087239    3.136772
  H     -1.164988    2.282741    3.872277
  C      0.297939   -0.081633   -0.569663
  C      1.451421    2.446614    0.078598
  C      1.804604    1.817279   -1.061802
  C      1.257314    0.535986   -1.410580
  H      1.888490    3.399224    0.352931
  H      2.538745    2.279854   -1.722582
  C     -0.327662   -1.325798   -0.869379
  C      1.676310   -0.111718   -2.588471
  C      0.119819   -1.919925   -2.039256
  C      1.108243   -1.338849   -2.875097
  H      2.406867    0.362807   -3.242559
  H      1.456692   -1.834593   -3.788216
  H     -0.540258   -4.009697   -0.159853
  H     -0.298480   -2.838909   -2.415809

 Total Charge           Charge          ....   -1
 Multiplicity           Mult            ....    1
 Number of Electrons    NEL             ....  164
 Basis Dimension        Dim             ....  313

ORBITAL ENERGIES
----------------

  NO   OCC          E(Eh)            E(eV)
   0   2.0000    -102.158920     -2779.8855
   1   2.0000    -102.076150     -2777.6333
   2   2.0000    -102.058935     -2777.1648
   3   2.0000     -14.591190      -397.0465
   4   2.0000     -10.403233      -283.0864
   5   2.0000     -10.403058      -283.0816
   6   2.0000     -10.389851      -282.7222
   7   2.0000     -10.380499      -282.4677
   8   2.0000     -10.375599      -282.3344
   9   2.0000     -10.372577      -282.2522
  10   2.0000     -10.371370      -282.2193
  11   2.0000     -10.368122      -282.1309
  12   2.0000     -10.356543      -281.8159
  13   2.0000     -10.355743      -281.7941
  14   2.0000     -10.352659      -281.7102
  15   2.0000     -10.340811      -281.3878
  16   2.0000     -10.338923      -281.3364
  17   2.0000      -9.626694      -261.9557
  18   2.0000      -9.540408      -259.6077
  19   2.0000      -9.522381      -259.1172
  20   2.0000      -7.314149      -199.0281
  21   2.0000      -7.306316      -198.8150
  22   2.0000      -7.306165      -198.8109
  23   2.0000      -7.226214      -196.6353
  24   2.0000      -7.221433      -196.5052
  25   2.0000      -7.221235      -196.4998
  26   2.0000      -7.207493      -196.1258
  27   2.0000      -7.203992      -196.0306
  28   2.0000      -7.203704      -196.0228
  29   2.0000      -3.509896       -95.5091
  30   2.0000      -2.156706       -58.6869
  31   2.0000      -2.151105       -58.5345
  32   2.0000      -2.121528       -57.7297
  33   2.0000      -0.988854       -26.9081
  34   2.0000      -0.879938       -23.9443
  35   2.0000      -0.844185       -22.9714
  36   2.0000      -0.809189       -22.0191
  37   2.0000      -0.777539       -21.1579
  38   2.0000      -0.776364       -21.1259
  39   2.0000      -0.735845       -20.0234
  40   2.0000      -0.718034       -19.5387
  41   2.0000      -0.669220       -18.2104
  42   2.0000      -0.648396       -17.6438
  43   2.0000      -0.642607       -17.4862
  44   2.0000      -0.635425       -17.2908
  45   2.0000      -0.608659       -16.5625
  46   2.0000      -0.570063       -15.5122
  47   2.0000      -0.525551       -14.3010
  48   2.0000      -0.511950       -13.9309
  49   2.0000      -0.492228       -13.3942
  50   2.0000      -0.457483       -12.4487
  51   2.0000      -0.454395       -12.3647
  52   2.0000      -0.425926       -11.5900
  53   2.0000      -0.409942       -11.1551
  54   2.0000      -0.405555       -11.0357
  55   2.0000      -0.399101       -10.8601
  56   2.0000      -0.379402       -10.3240
  57   2.0000      -0.376322       -10.2403
  58   2.0000      -0.373998       -10.1770
  59   2.0000      -0.351985        -9.5780
  60   2.0000      -0.338873        -9.2212
  61   2.0000      -0.335387        -9.1263
  62   2.0000      -0.311093        -8.4653
  63   2.0000      -0.301555        -8.2057
  64   2.0000      -0.290045        -7.8925
  65   2.0000      -0.260961        -7.1011
  66   2.0000      -0.254840        -6.9346
  67   2.0000      -0.244404        -6.6506
  68   2.0000      -0.239561        -6.5188
  69   2.0000      -0.238808        -6.4983
  70   2.0000      -0.234708        -6.3867
  71   2.0000      -0.215344        -5.8598
  72   2.0000      -0.206265        -5.6128
  73   2.0000      -0.202776        -5.5178
  74   2.0000      -0.179113        -4.8739
  75   2.0000      -0.173706        -4.7268
  76   2.0000      -0.164573        -4.4783
  77   2.0000      -0.150488        -4.0950
  78   2.0000      -0.141907        -3.8615
  79   2.0000      -0.135952        -3.6995
  80   2.0000      -0.131221        -3.5707
  81   2.0000      -0.122007        -3.3200
  82   0.0000       0.049638         1.3507
  83   0.0000       0.072013         1.9596
  84   0.0000       0.103308         2.8111
  85   0.0000       0.111576         3.0361
  86   0.0000       0.144742         3.9386

MULLIKEN ATOMIC CHARGES
-----------------------
   0 Pd:    0.182716
   1 Cl:   -0.385771
   2 Cl:   -0.335730
   3 Cl:   -0.477057
   4 N :   -0.572046
   5 C :    0.035618
   6 C :   -0.337940
   7 C :   -0.157738
   8 C :    0.416360
   9 C :    0.049057
  10 H :    0.207939
  11 H :    0.285215
  12 H :    0.218881
  13 C :    0.030761
  14 C :   -0.304214
  15 C :   -0.292084
  16 C :    0.115317
  17 H :    0.192252
  18 H :    0.193164
  19 C :   -0.110237
  20 C :   -0.320495
  21 C :   -0.359939
  22 C :   -0.200864
  23 H :    0.188548
  24 H :    0.190599
  25 H :    0.325625
  26 H :    0.222063
Sum of atomic charges:   -1.0000000

LOEWDIN ATOMIC CHARGES
----------------------
   0 Pd:   -0.791918
   1 Cl:   -0.111867
   2 Cl:   -0.201712
   3 Cl:   -0.255795
   4 N :    0.041899
   5 C :    0.005862
   6 C :   -0.171465
   7 C :   -0.089775
   8 C :    0.086479
   9 C :   -0.058567
  10 H :    0.133517
  11 H :    0.169888
  12 H :    0.139635
  13 C :   -0.026566
  14 C :   -0.143138
  15 C :   -0.118367
  16 C :   -0.032082
  17 H :    0.128658
  18 H :    0.129734
  19 C :   -0.023312
  20 C :   -0.161577
  21 C :   -0.142197
  22 C :   -0.126272
  23 H :    0.124190
  24 H :    0.124649
  25 H :    0.229258
  26 H :    0.140843

  Mayer bond orders larger than 0.100000
B(  0-Pd,  1-Cl) :   0.8528 B(  0-Pd,  3-Cl) :   0.6833 B(  0-Pd,  4-N ) :   0.4097
B(  0-Pd, 19-C ) :   0.7539 B(  2-Cl, 25-H ) :   0.8337 B(  4-N ,  5-C ) :   1.4825
B(  4-N ,  8-C ) :   1.1361 B(  5-C ,  6-C ) :   1.3060 B(  5-C , 11-H ) :   0.8700
B(  6-C ,  7-C ) :   1.4576 B(  6-C , 12-H ) :   0.9210 B(  7-C ,  9-C ) :   1.2789
B(  7-C , 10-H ) :   0.9296 B(  8-C ,  9-C ) :   1.2212 B(  8-C , 13-C ) :   1.1376
B(  9-C , 14-C ) :   1.1668 B( 13-C , 16-C ) :   1.2744 B( 13-C , 19-C ) :   1.1931
B( 14-C , 15-C ) :   1.6485 B( 14-C , 17-H ) :   0.9300 B( 15-C , 16-C ) :   1.1546
B( 15-C , 18-H ) :   0.9289 B( 16-C , 20-C ) :   1.2786 B( 19-C , 21-C ) :   1.4569
B( 20-C , 22-C ) :   1.4990 B( 20-C , 23-H ) :   0.9295 B( 21-C , 22-C ) :   1.3428
B( 21-C , 26-H ) :   0.9132 B( 22-C , 24-H ) :   0.9253

Dispersion correction           -0.023909122
FINAL SINGLE POINT ENERGY     -2061.502776993134
Dispersion correction            ... done

DIPOLE MOMENT
-------------
                                X             Y             Z
Electronic contribution:    -75.38020     -50.84142      14.78485
Nuclear contribution   :     78.90680      53.90271     -14.75960
                        -----------------------------------------
Total Dipole Moment    :      3.52660       3.06129       0.02526
                        -----------------------------------------
Magnitude (a.u.)       :      4.67002
Magnitude (Debye)      :     11.87025

Rotational constants in cm-1:     0.011312     0.007668     0.005492
Rotational constants in MHz :   339.126460   229.882249   164.641522

                             ****ORCA TERMINATED NORMALLY****
TOTAL RUN TIME: 0 days 0 hours 8 minutes 35 seconds 740 msec
