                         Program Version 5.0.3 -  RELEASE  -
|  1> ! EnGrad PBEh-3c
|  2> %output
|  3> xyzfile=True
|  4> end
|  5> %scf
|  6> maxiter 250
|  7> end
|  8> %output
|  9> Print[P_Hirshfeld] = 1
| 10> end
| 11> % maxcore
| 12> 4000
| 13> *xyz -1 1
| 14> Pd  -1.97529215  -1.45566204   0.32772569
| 15> Cl  -3.09524977  -3.31379508  -0.41162451
| 16> Cl  -0.48554593  -4.73566781   1.11053641
| 17> Cl  -4.02378297  -0.57708152   1.25313238
| 18> N   -0.96311170  -0.02299826   1.37747378
| 19> C   -1.32780010   0.49779927   2.55606775
| 20> C   -0.78083865   1.73753569   2.97708056
| 21> C    0.06865428   2.39456148   2.16512681
| 22> C   -0.05978649   0.57398924   0.62320353
| 23> C    0.48362603   1.83338850   0.95483207
| 24> H    0.50273104   3.37384203   2.42657862
| 25> H   -2.06680296  -0.01212602   3.14706400
| 26> H   -1.12093410   2.16725409   3.91590178
| 27> C    0.30983446  -0.10423535  -0.57934652
| 28> C    1.40589263   2.43864918   0.04124365
| 29> C    1.74518435   1.82802591  -1.06885204
| 30> C    1.25361202   0.52802705  -1.42491156
| 31> H    1.81432567   3.41666620   0.33805564
| 32> H    2.44929778   2.30849272  -1.77156778
| 33> C   -0.28352347  -1.35108572  -0.90227269
| 34> C    1.65728944  -0.09901634  -2.60502624
| 35> C    0.17444292  -1.95440963  -2.06459985
| 36> C    1.13778513  -1.33245712  -2.88751384
| 37> H    2.36567678   0.41009860  -3.26227797
| 38> H    1.47187007  -1.81500649  -3.78949999
| 39> H   -0.45509499  -3.80965839  -0.03792414
| 40> H   -0.18551237  -2.91529202  -2.41320836
| 41> *
| 42>
| 43>                          ****END OF INPUT****

CARTESIAN COORDINATES (ANGSTROEM)
---------------------------------
  Pd    -1.975292   -1.455662    0.327726
  Cl    -3.095250   -3.313795   -0.411625
  Cl    -0.485546   -4.735668    1.110536
  Cl    -4.023783   -0.577082    1.253132
  N     -0.963112   -0.022998    1.377474
  C     -1.327800    0.497799    2.556068
  C     -0.780839    1.737536    2.977081
  C      0.068654    2.394561    2.165127
  C     -0.059786    0.573989    0.623204
  C      0.483626    1.833389    0.954832
  H      0.502731    3.373842    2.426579
  H     -2.066803   -0.012126    3.147064
  H     -1.120934    2.167254    3.915902
  C      0.309834   -0.104235   -0.579347
  C      1.405893    2.438649    0.041244
  C      1.745184    1.828026   -1.068852
  C      1.253612    0.528027   -1.424912
  H      1.814326    3.416666    0.338056
  H      2.449298    2.308493   -1.771568
  C     -0.283523   -1.351086   -0.902273
  C      1.657289   -0.099016   -2.605026
  C      0.174443   -1.954410   -2.064600
  C      1.137785   -1.332457   -2.887514
  H      2.365677    0.410099   -3.262278
  H      1.471870   -1.815006   -3.789500
  H     -0.455095   -3.809658   -0.037924
  H     -0.185512   -2.915292   -2.413208

 Total Charge           Charge          ....   -1
 Multiplicity           Mult            ....    1
 Number of Electrons    NEL             ....  164
 Basis Dimension        Dim             ....  313

ORBITAL ENERGIES
----------------

  NO   OCC          E(Eh)            E(eV)
   0   2.0000    -102.156460     -2779.8186
   1   2.0000    -102.071370     -2777.5032
   2   2.0000    -102.062222     -2777.2543
   3   2.0000     -14.590311      -397.0225
   4   2.0000     -10.407689      -283.2076
   5   2.0000     -10.402357      -283.0625
   6   2.0000     -10.387980      -282.6713
   7   2.0000     -10.380507      -282.4680
   8   2.0000     -10.375780      -282.3393
   9   2.0000     -10.370974      -282.2085
  10   2.0000     -10.369486      -282.1681
  11   2.0000     -10.365810      -282.0680
  12   2.0000     -10.354390      -281.7573
  13   2.0000     -10.352569      -281.7077
  14   2.0000     -10.350951      -281.6637
  15   2.0000     -10.340692      -281.3845
  16   2.0000     -10.340028      -281.3665
  17   2.0000      -9.621177      -261.8055
  18   2.0000      -9.535721      -259.4802
  19   2.0000      -9.525863      -259.2119
  20   2.0000      -7.309028      -198.8888
  21   2.0000      -7.300882      -198.6671
  22   2.0000      -7.300664      -198.6612
  23   2.0000      -7.221550      -196.5084
  24   2.0000      -7.216727      -196.3771
  25   2.0000      -7.216539      -196.3720
  26   2.0000      -7.210933      -196.2195
  27   2.0000      -7.207467      -196.1252
  28   2.0000      -7.207174      -196.1172
  29   2.0000      -3.508468       -95.4703
  30   2.0000      -2.155483       -58.6537
  31   2.0000      -2.150025       -58.5052
  32   2.0000      -2.120052       -57.6895
  33   2.0000      -0.990751       -26.9597
  34   2.0000      -0.882576       -24.0161
  35   2.0000      -0.846522       -23.0350
  36   2.0000      -0.814069       -22.1519
  37   2.0000      -0.778187       -21.1755
  38   2.0000      -0.752923       -20.4881
  39   2.0000      -0.737808       -20.0768
  40   2.0000      -0.720647       -19.6098
  41   2.0000      -0.665232       -18.1019
  42   2.0000      -0.652602       -17.7582
  43   2.0000      -0.644114       -17.5272
  44   2.0000      -0.636388       -17.3170
  45   2.0000      -0.608653       -16.5623
  46   2.0000      -0.569136       -15.4870
  47   2.0000      -0.526926       -14.3384
  48   2.0000      -0.515611       -14.0305
  49   2.0000      -0.492464       -13.4006
  50   2.0000      -0.456788       -12.4298
  51   2.0000      -0.455463       -12.3938
  52   2.0000      -0.428391       -11.6571
  53   2.0000      -0.412467       -11.2238
  54   2.0000      -0.406691       -11.0666
  55   2.0000      -0.396399       -10.7866
  56   2.0000      -0.384416       -10.4605
  57   2.0000      -0.377763       -10.2795
  58   2.0000      -0.357962        -9.7406
  59   2.0000      -0.344434        -9.3725
  60   2.0000      -0.339522        -9.2389
  61   2.0000      -0.333145        -9.0653
  62   2.0000      -0.315365        -8.5815
  63   2.0000      -0.304501        -8.2859
  64   2.0000      -0.288308        -7.8453
  65   2.0000      -0.265287        -7.2188
  66   2.0000      -0.251779        -6.8512
  67   2.0000      -0.245017        -6.6672
  68   2.0000      -0.235234        -6.4011
  69   2.0000      -0.233365        -6.3502
  70   2.0000      -0.227507        -6.1908
  71   2.0000      -0.216993        -5.9047
  72   2.0000      -0.207839        -5.6556
  73   2.0000      -0.193329        -5.2607
  74   2.0000      -0.181470        -4.9381
  75   2.0000      -0.172663        -4.6984
  76   2.0000      -0.166165        -4.5216
  77   2.0000      -0.148774        -4.0483
  78   2.0000      -0.139484        -3.7956
  79   2.0000      -0.135851        -3.6967
  80   2.0000      -0.128677        -3.5015
  81   2.0000      -0.118774        -3.2320
  82   0.0000       0.051393         1.3985
  83   0.0000       0.072313         1.9677
  84   0.0000       0.101198         2.7537
  85   0.0000       0.111921         3.0455
  86   0.0000       0.141504         3.8505

MULLIKEN ATOMIC CHARGES
-----------------------
   0 Pd:    0.191470
   1 Cl:   -0.390640
   2 Cl:   -0.325008
   3 Cl:   -0.469545
   4 N :   -0.575497
   5 C :    0.038300
   6 C :   -0.344274
   7 C :   -0.145843
   8 C :    0.419472
   9 C :    0.045594
  10 H :    0.202935
  11 H :    0.288014
  12 H :    0.217079
  13 C :    0.012821
  14 C :   -0.281522
  15 C :   -0.291009
  16 C :    0.130248
  17 H :    0.188807
  18 H :    0.189083
  19 C :   -0.141041
  20 C :   -0.314420
  21 C :   -0.348756
  22 C :   -0.204457
  23 H :    0.186173
  24 H :    0.192119
  25 H :    0.307267
  26 H :    0.222630
Sum of atomic charges:   -1.0000000

LOEWDIN ATOMIC CHARGES
----------------------
   0 Pd:   -0.823298
   1 Cl:   -0.114198
   2 Cl:   -0.216910
   3 Cl:   -0.231681
   4 N :    0.042774
   5 C :    0.015729
   6 C :   -0.169270
   7 C :   -0.092848
   8 C :    0.084766
   9 C :   -0.056088
  10 H :    0.132154
  11 H :    0.169229
  12 H :    0.139814
  13 C :   -0.026304
  14 C :   -0.140919
  15 C :   -0.116597
  16 C :   -0.032452
  17 H :    0.128241
  18 H :    0.128702
  19 C :   -0.032504
  20 C :   -0.159439
  21 C :   -0.142405
  22 C :   -0.127181
  23 H :    0.124008
  24 H :    0.124583
  25 H :    0.250890
  26 H :    0.141202

  Mayer bond orders larger than 0.100000
B(  0-Pd,  1-Cl) :   0.8582 B(  0-Pd,  3-Cl) :   0.7028 B(  0-Pd,  4-N ) :   0.4124
B(  0-Pd, 19-C ) :   0.7233 B(  2-Cl, 25-H ) :   0.8394 B(  4-N ,  5-C ) :   1.4584
B(  4-N ,  8-C ) :   1.1547 B(  5-C ,  6-C ) :   1.3152 B(  5-C , 11-H ) :   0.8758
B(  6-C ,  7-C ) :   1.4498 B(  6-C , 12-H ) :   0.9215 B(  7-C ,  9-C ) :   1.2941
B(  7-C , 10-H ) :   0.9302 B(  8-C ,  9-C ) :   1.2307 B(  8-C , 13-C ) :   1.1230
B(  9-C , 14-C ) :   1.1572 B( 13-C , 16-C ) :   1.2959 B( 13-C , 19-C ) :   1.2167
B( 14-C , 15-C ) :   1.6549 B( 14-C , 17-H ) :   0.9294 B( 15-C , 16-C ) :   1.1448
B( 15-C , 18-H ) :   0.9292 B( 16-C , 20-C ) :   1.2830 B( 19-C , 21-C ) :   1.4563
B( 20-C , 22-C ) :   1.4939 B( 20-C , 23-H ) :   0.9304 B( 21-C , 22-C ) :   1.3538
B( 21-C , 26-H ) :   0.9141 B( 22-C , 24-H ) :   0.9241

Dispersion correction           -0.024072796
FINAL SINGLE POINT ENERGY     -2061.475026905748
Dispersion correction            ... done

DIPOLE MOMENT
-------------
                                X             Y             Z
Electronic contribution:    -76.05142     -49.09931      10.83451
Nuclear contribution   :     79.61925      52.05596     -10.66366
                        -----------------------------------------
Total Dipole Moment    :      3.56783       2.95665       0.17085
                        -----------------------------------------
Magnitude (a.u.)       :      4.63685
Magnitude (Debye)      :     11.78594

Rotational constants in cm-1:     0.011495     0.007736     0.005719
Rotational constants in MHz :   344.607033   231.933949   171.453220

                             ****ORCA TERMINATED NORMALLY****
TOTAL RUN TIME: 0 days 0 hours 9 minutes 3 seconds 834 msec
