                         Program Version 5.0.3 -  RELEASE  -
|  1> ! EnGrad PBEh-3c
|  2> %output
|  3> xyzfile=True
|  4> end
|  5> %scf
|  6> maxiter 250
|  7> end
|  8> %output
|  9> Print[P_Hirshfeld] = 1
| 10> end
| 11> % maxcore
| 12> 4000
| 13> *xyz -1 1
| 14> Pd  -1.95772468  -1.49917152   0.38702187
| 15> Cl  -3.10033886  -3.31642384  -0.42179211
| 16> Cl  -0.31785721  -4.85268387   0.87800729
| 17> Cl  -4.03678271  -0.81775107   1.46282281
| 18> N   -1.00547780   0.03327370   1.37773424
| 19> C   -1.35367595   0.57976174   2.53564382
| 20> C   -0.82070947   1.81258801   2.95304294
| 21> C    0.08010638   2.45094024   2.14790960
| 22> C   -0.07826969   0.61582663   0.61230206
| 23> C    0.48574113   1.85472950   0.95069113
| 24> H    0.52124311   3.40642000   2.43212888
| 25> H   -2.09656192   0.06249176   3.13933536
| 26> H   -1.15401597   2.25397895   3.88314152
| 27> C    0.30090180  -0.08726236  -0.57207506
| 28> C    1.44008226   2.44463018   0.06929488
| 29> C    1.78980548   1.81995585  -1.06355801
| 30> C    1.25639165   0.53400371  -1.41414931
| 31> H    1.87001938   3.40356841   0.34922637
| 32> H    2.51646767   2.28698690  -1.73478232
| 33> C   -0.31666882  -1.33209575  -0.87757099
| 34> C    1.67157286  -0.10855477  -2.59259439
| 35> C    0.13342345  -1.92851353  -2.04556804
| 36> C    1.11560053  -1.33725739  -2.87818921
| 37> H    2.39660856   0.37458519  -3.24746993
| 38> H    1.46047218  -1.82971469  -3.78853573
| 39> H   -0.51904802  -3.95987668  -0.12948616
| 40> H   -0.27034483  -2.85793263  -2.41516147
| 41> *
| 42>
| 43>                          ****END OF INPUT****

CARTESIAN COORDINATES (ANGSTROEM)
---------------------------------
  Pd    -1.957725   -1.499172    0.387022
  Cl    -3.100339   -3.316424   -0.421792
  Cl    -0.317857   -4.852684    0.878007
  Cl    -4.036783   -0.817751    1.462823
  N     -1.005478    0.033274    1.377734
  C     -1.353676    0.579762    2.535644
  C     -0.820709    1.812588    2.953043
  C      0.080106    2.450940    2.147910
  C     -0.078270    0.615827    0.612302
  C      0.485741    1.854729    0.950691
  H      0.521243    3.406420    2.432129
  H     -2.096562    0.062492    3.139335
  H     -1.154016    2.253979    3.883142
  C      0.300902   -0.087262   -0.572075
  C      1.440082    2.444630    0.069295
  C      1.789805    1.819956   -1.063558
  C      1.256392    0.534004   -1.414149
  H      1.870019    3.403568    0.349226
  H      2.516468    2.286987   -1.734782
  C     -0.316669   -1.332096   -0.877571
  C      1.671573   -0.108555   -2.592594
  C      0.133423   -1.928514   -2.045568
  C      1.115601   -1.337257   -2.878189
  H      2.396609    0.374585   -3.247470
  H      1.460472   -1.829715   -3.788536
  H     -0.519048   -3.959877   -0.129486
  H     -0.270345   -2.857933   -2.415161

 Total Charge           Charge          ....   -1
 Multiplicity           Mult            ....    1
 Number of Electrons    NEL             ....  164
 Basis Dimension        Dim             ....  313

ORBITAL ENERGIES
----------------

  NO   OCC          E(Eh)            E(eV)
   0   2.0000    -102.158566     -2779.8759
   1   2.0000    -102.074788     -2777.5962
   2   2.0000    -102.059889     -2777.1908
   3   2.0000     -14.590894      -397.0384
   4   2.0000     -10.404148      -283.1113
   5   2.0000     -10.402687      -283.0715
   6   2.0000     -10.389160      -282.7034
   7   2.0000     -10.380290      -282.4620
   8   2.0000     -10.375477      -282.3311
   9   2.0000     -10.371848      -282.2323
  10   2.0000     -10.370882      -282.2060
  11   2.0000     -10.367325      -282.1093
  12   2.0000     -10.355353      -281.7835
  13   2.0000     -10.355134      -281.7775
  14   2.0000     -10.352014      -281.6926
  15   2.0000     -10.340324      -281.3745
  16   2.0000     -10.338920      -281.3363
  17   2.0000      -9.625628      -261.9266
  18   2.0000      -9.539081      -259.5716
  19   2.0000      -9.523412      -259.1452
  20   2.0000      -7.313164      -199.0013
  21   2.0000      -7.305274      -198.7866
  22   2.0000      -7.305110      -198.7821
  23   2.0000      -7.224891      -196.5993
  24   2.0000      -7.220095      -196.4688
  25   2.0000      -7.219915      -196.4639
  26   2.0000      -7.208515      -196.1537
  27   2.0000      -7.205022      -196.0586
  28   2.0000      -7.204726      -196.0506
  29   2.0000      -3.509383       -95.4952
  30   2.0000      -2.156269       -58.6751
  31   2.0000      -2.150657       -58.5224
  32   2.0000      -2.120996       -57.7152
  33   2.0000      -0.989228       -26.9183
  34   2.0000      -0.880432       -23.9578
  35   2.0000      -0.844640       -22.9838
  36   2.0000      -0.810264       -22.0484
  37   2.0000      -0.777014       -21.1436
  38   2.0000      -0.771834       -21.0027
  39   2.0000      -0.736191       -20.0328
  40   2.0000      -0.718523       -19.5520
  41   2.0000      -0.668169       -18.1818
  42   2.0000      -0.649713       -17.6796
  43   2.0000      -0.642614       -17.4864
  44   2.0000      -0.635793       -17.3008
  45   2.0000      -0.608560       -16.5598
  46   2.0000      -0.569702       -15.5024
  47   2.0000      -0.525786       -14.3074
  48   2.0000      -0.512649       -13.9499
  49   2.0000      -0.492259       -13.3951
  50   2.0000      -0.457113       -12.4387
  51   2.0000      -0.454469       -12.3667
  52   2.0000      -0.426397       -11.6028
  53   2.0000      -0.410536       -11.1712
  54   2.0000      -0.405743       -11.0408
  55   2.0000      -0.398410       -10.8413
  56   2.0000      -0.380254       -10.3472
  57   2.0000      -0.375779       -10.2255
  58   2.0000      -0.370518       -10.0823
  59   2.0000      -0.351282        -9.5589
  60   2.0000      -0.338907        -9.2221
  61   2.0000      -0.335144        -9.1197
  62   2.0000      -0.312152        -8.4941
  63   2.0000      -0.302176        -8.2226
  64   2.0000      -0.289708        -7.8833
  65   2.0000      -0.261935        -7.1276
  66   2.0000      -0.254131        -6.9153
  67   2.0000      -0.244516        -6.6536
  68   2.0000      -0.238296        -6.4844
  69   2.0000      -0.237535        -6.4636
  70   2.0000      -0.233564        -6.3556
  71   2.0000      -0.215709        -5.8698
  72   2.0000      -0.206268        -5.6128
  73   2.0000      -0.200678        -5.4607
  74   2.0000      -0.179564        -4.8862
  75   2.0000      -0.173494        -4.7210
  76   2.0000      -0.164980        -4.4893
  77   2.0000      -0.149842        -4.0774
  78   2.0000      -0.141278        -3.8444
  79   2.0000      -0.135398        -3.6844
  80   2.0000      -0.131098        -3.5674
  81   2.0000      -0.121264        -3.2998
  82   0.0000       0.050329         1.3695
  83   0.0000       0.072343         1.9686
  84   0.0000       0.103349         2.8123
  85   0.0000       0.112038         3.0487
  86   0.0000       0.145398         3.9565

MULLIKEN ATOMIC CHARGES
-----------------------
   0 Pd:    0.183383
   1 Cl:   -0.387006
   2 Cl:   -0.333028
   3 Cl:   -0.474102
   4 N :   -0.573484
   5 C :    0.036583
   6 C :   -0.339727
   7 C :   -0.154865
   8 C :    0.418113
   9 C :    0.048406
  10 H :    0.206667
  11 H :    0.285770
  12 H :    0.218380
  13 C :    0.026189
  14 C :   -0.299153
  15 C :   -0.292253
  16 C :    0.119392
  17 H :    0.191404
  18 H :    0.192122
  19 C :   -0.117385
  20 C :   -0.319471
  21 C :   -0.357885
  22 C :   -0.201555
  23 H :    0.187868
  24 H :    0.190831
  25 H :    0.322725
  26 H :    0.222082
Sum of atomic charges:   -1.0000000

LOEWDIN ATOMIC CHARGES
----------------------
   0 Pd:   -0.801821
   1 Cl:   -0.112481
   2 Cl:   -0.204053
   3 Cl:   -0.247436
   4 N :    0.042403
   5 C :    0.008172
   6 C :   -0.170964
   7 C :   -0.090708
   8 C :    0.086069
   9 C :   -0.058000
  10 H :    0.133141
  11 H :    0.169720
  12 H :    0.139642
  13 C :   -0.026604
  14 C :   -0.142635
  15 C :   -0.117939
  16 C :   -0.032186
  17 H :    0.128526
  18 H :    0.129451
  19 C :   -0.025791
  20 C :   -0.161214
  21 C :   -0.142575
  22 C :   -0.126463
  23 H :    0.124087
  24 H :    0.124553
  25 H :    0.234313
  26 H :    0.140791

  Mayer bond orders larger than 0.100000
B(  0-Pd,  1-Cl) :   0.8548 B(  0-Pd,  3-Cl) :   0.6891 B(  0-Pd,  4-N ) :   0.4111
B(  0-Pd, 19-C ) :   0.7468 B(  2-Cl, 25-H ) :   0.8361 B(  4-N ,  5-C ) :   1.4765
B(  4-N ,  8-C ) :   1.1398 B(  5-C ,  6-C ) :   1.3083 B(  5-C , 11-H ) :   0.8714
B(  6-C ,  7-C ) :   1.4558 B(  6-C , 12-H ) :   0.9211 B(  7-C ,  9-C ) :   1.2825
B(  7-C , 10-H ) :   0.9298 B(  8-C ,  9-C ) :   1.2234 B(  8-C , 13-C ) :   1.1340
B(  9-C , 14-C ) :   1.1646 B( 13-C , 16-C ) :   1.2796 B( 13-C , 19-C ) :   1.1993
B( 14-C , 15-C ) :   1.6503 B( 14-C , 17-H ) :   0.9299 B( 15-C , 16-C ) :   1.1522
B( 15-C , 18-H ) :   0.9291 B( 16-C , 20-C ) :   1.2797 B( 19-C , 21-C ) :   1.4564
B( 20-C , 22-C ) :   1.4977 B( 20-C , 23-H ) :   0.9298 B( 21-C , 22-C ) :   1.3459
B( 21-C , 26-H ) :   0.9135 B( 22-C , 24-H ) :   0.9251

Dispersion correction           -0.023957097
FINAL SINGLE POINT ENERGY     -2061.499202295320
Dispersion correction            ... done

DIPOLE MOMENT
-------------
                                X             Y             Z
Electronic contribution:    -75.55295     -50.41597      13.80818
Nuclear contribution   :     79.08424      53.44277     -13.73949
                        -----------------------------------------
Total Dipole Moment    :      3.53129       3.02680       0.06869
                        -----------------------------------------
Magnitude (a.u.)       :      4.65148
Magnitude (Debye)      :     11.82313

Rotational constants in cm-1:     0.011371     0.007690     0.005550
Rotational constants in MHz :   340.891792   230.539940   166.385282

                             ****ORCA TERMINATED NORMALLY****
TOTAL RUN TIME: 0 days 0 hours 9 minutes 12 seconds 510 msec
