                         Program Version 5.0.3 -  RELEASE  -
|  1> ! EnGrad PBEh-3c
|  2> %output
|  3> xyzfile=True
|  4> end
|  5> %scf
|  6> maxiter 250
|  7> end
|  8> %output
|  9> Print[P_Hirshfeld] = 1
| 10> end
| 11> % maxcore
| 12> 4000
| 13> *xyz -1 1
| 14> Pt  -1.13613320  -0.95617976   0.59173761
| 15> Cl  -0.29528571  -0.75228540   2.76035632
| 16> Cl  -2.75572684  -2.44594498   1.18024490
| 17> Cl  -1.82045851  -0.98191126  -1.63788226
| 18> C    1.15405323   1.05134661  -0.62099912
| 19> H    1.44937302   2.03147576  -0.25434049
| 20> H    1.31003978   0.25207000   0.43651588
| 21> H    1.89336456   0.66310609  -1.31702048
| 22> H    0.20077367   1.13831564  -1.13860695
| 23> *
| 24>
| 25>                          ****END OF INPUT****

CARTESIAN COORDINATES (ANGSTROEM)
---------------------------------
  Pt    -1.136133   -0.956180    0.591738
  Cl    -0.295286   -0.752285    2.760356
  Cl    -2.755727   -2.445945    1.180245
  Cl    -1.820459   -0.981911   -1.637882
  C      1.154053    1.051347   -0.620999
  H      1.449373    2.031476   -0.254340
  H      1.310040    0.252070    0.436516
  H      1.893365    0.663106   -1.317020
  H      0.200774    1.138316   -1.138607

 Total Charge           Charge          ....   -1
 Multiplicity           Mult            ....    1
 Number of Electrons    NEL             ....   80
 Basis Dimension        Dim             ....  109

ORBITAL ENERGIES
----------------

  NO   OCC          E(Eh)            E(eV)
   0   2.0000    -102.117611     -2778.7615
   1   2.0000    -102.092391     -2778.0752
   2   2.0000    -102.092127     -2778.0680
   3   2.0000     -10.339055      -281.3400
   4   2.0000      -9.581020      -260.7128
   5   2.0000      -9.556282      -260.0396
   6   2.0000      -9.556080      -260.0342
   7   2.0000      -7.268640      -197.7897
   8   2.0000      -7.261082      -197.5841
   9   2.0000      -7.260797      -197.5763
  10   2.0000      -7.242083      -197.0671
  11   2.0000      -7.241963      -197.0638
  12   2.0000      -7.237432      -196.9405
  13   2.0000      -7.237128      -196.9323
  14   2.0000      -7.237107      -196.9317
  15   2.0000      -7.236903      -196.9261
  16   2.0000      -3.941908      -107.2648
  17   2.0000      -2.158414       -58.7334
  18   2.0000      -2.156074       -58.6698
  19   2.0000      -2.118744       -57.6540
  20   2.0000      -0.705975       -19.2106
  21   2.0000      -0.688299       -18.7296
  22   2.0000      -0.678674       -18.4676
  23   2.0000      -0.663228       -18.0474
  24   2.0000      -0.353924        -9.6308
  25   2.0000      -0.352341        -9.5877
  26   2.0000      -0.308772        -8.4021
  27   2.0000      -0.285667        -7.7734
  28   2.0000      -0.270140        -7.3509
  29   2.0000      -0.268934        -7.3181
  30   2.0000      -0.230499        -6.2722
  31   2.0000      -0.228101        -6.2070
  32   2.0000      -0.204275        -5.5586
  33   2.0000      -0.182490        -4.9658
  34   2.0000      -0.180274        -4.9055
  35   2.0000      -0.160312        -4.3623
  36   2.0000      -0.145017        -3.9461
  37   2.0000      -0.140428        -3.8212
  38   2.0000      -0.129678        -3.5287
  39   2.0000      -0.117978        -3.2103
  40   0.0000       0.060247         1.6394
  41   0.0000       0.184979         5.0335
  42   0.0000       0.196191         5.3386
  43   0.0000       0.232815         6.3352
  44   0.0000       0.264321         7.1925

MULLIKEN ATOMIC CHARGES
-----------------------
   0 Pt:    0.144488
   1 Cl:   -0.437210
   2 Cl:   -0.311303
   3 Cl:   -0.436209
   4 C :   -0.883078
   5 H :    0.213214
   6 H :    0.216004
   7 H :    0.220490
   8 H :    0.273605
Sum of atomic charges:   -1.0000000

LOEWDIN ATOMIC CHARGES
----------------------
   0 Pt:   -0.827501
   1 Cl:   -0.143459
   2 Cl:    0.012768
   3 Cl:   -0.142252
   4 C :   -0.495182
   5 H :    0.120737
   6 H :    0.182194
   7 H :    0.125032
   8 H :    0.167663

  Mayer bond orders larger than 0.100000
B(  0-Pt,  1-Cl) :   0.8037 B(  0-Pt,  2-Cl) :   1.0097 B(  0-Pt,  3-Cl) :   0.7980
B(  1-Cl,  3-Cl) :   0.1095 B(  4-C ,  5-H ) :   0.9222 B(  4-C ,  6-H ) :   0.8936
B(  4-C ,  7-H ) :   0.9227 B(  4-C ,  8-H ) :   0.8915

Dispersion correction           -0.004546696
FINAL SINGLE POINT ENERGY     -1539.019197208024
Dispersion correction            ... done

DIPOLE MOMENT
-------------
                                X             Y             Z
Electronic contribution:     -2.82134      -1.55200       4.90336
Nuclear contribution   :      3.72633       2.35155      -5.31835
                        -----------------------------------------
Total Dipole Moment    :      0.90499       0.79955      -0.41499
                        -----------------------------------------
Magnitude (a.u.)       :      1.27691
Magnitude (Debye)      :      3.24564

Rotational constants in cm-1:     0.047532     0.042793     0.022639
Rotational constants in MHz :  1424.982072  1282.903713   678.699648

                             ****ORCA TERMINATED NORMALLY****
TOTAL RUN TIME: 0 days 0 hours 0 minutes 37 seconds 727 msec
