                         Program Version 5.0.3 -  RELEASE  -
|  1> ! EnGrad PBEh-3c
|  2> %output
|  3> xyzfile=True
|  4> end
|  5> %scf
|  6> maxiter 250
|  7> end
|  8> %output
|  9> Print[P_Hirshfeld] = 1
| 10> end
| 11> % maxcore
| 12> 4000
| 13> *xyz -1 1
| 14> Pt  -1.14125495  -0.97183686   0.59152330
| 15> Cl  -0.29559758  -0.72552987   2.73719754
| 16> Cl  -2.72146474  -2.39265016   1.17417294
| 17> Cl  -1.77797127  -0.99532687  -1.63568125
| 18> C    1.20779098   0.92107037  -0.43720944
| 19> H    1.45603307   2.00624793  -0.22069733
| 20> H    1.24099698   0.34024287   0.21876272
| 21> H    1.86144582   0.68027815  -1.33852335
| 22> H    0.16830275   1.13747868  -1.09036238
| 23> *
| 24>
| 25>                          ****END OF INPUT****

CARTESIAN COORDINATES (ANGSTROEM)
---------------------------------
  Pt    -1.141255   -0.971837    0.591523
  Cl    -0.295598   -0.725530    2.737198
  Cl    -2.721465   -2.392650    1.174173
  Cl    -1.777971   -0.995327   -1.635681
  C      1.207791    0.921070   -0.437209
  H      1.456033    2.006248   -0.220697
  H      1.240997    0.340243    0.218763
  H      1.861446    0.680278   -1.338523
  H      0.168303    1.137479   -1.090362

 Total Charge           Charge          ....   -1
 Multiplicity           Mult            ....    1
 Number of Electrons    NEL             ....   80
 Basis Dimension        Dim             ....  109

ORBITAL ENERGIES
----------------

  NO   OCC          E(Eh)            E(eV)
   0   2.0000    -102.119946     -2778.8250
   1   2.0000    -102.092543     -2778.0793
   2   2.0000    -102.091087     -2778.0397
   3   2.0000     -10.319861      -280.8177
   4   2.0000      -9.584429      -260.8056
   5   2.0000      -9.556599      -260.0483
   6   2.0000      -9.555303      -260.0130
   7   2.0000      -7.272070      -197.8831
   8   2.0000      -7.264372      -197.6736
   9   2.0000      -7.264049      -197.6648
  10   2.0000      -7.242326      -197.0737
  11   2.0000      -7.241152      -197.0418
  12   2.0000      -7.237843      -196.9517
  13   2.0000      -7.237375      -196.9390
  14   2.0000      -7.236351      -196.9111
  15   2.0000      -7.236098      -196.9042
  16   2.0000      -3.940790      -107.2343
  17   2.0000      -2.159668       -58.7675
  18   2.0000      -2.154582       -58.6292
  19   2.0000      -2.117579       -57.6223
  20   2.0000      -0.714114       -19.4320
  21   2.0000      -0.690660       -18.7938
  22   2.0000      -0.681884       -18.5550
  23   2.0000      -0.679094       -18.4791
  24   2.0000      -0.412874       -11.2349
  25   2.0000      -0.325219        -8.8497
  26   2.0000      -0.302867        -8.2414
  27   2.0000      -0.288405        -7.8479
  28   2.0000      -0.282519        -7.6877
  29   2.0000      -0.274153        -7.4601
  30   2.0000      -0.238048        -6.4776
  31   2.0000      -0.231254        -6.2927
  32   2.0000      -0.206285        -5.6133
  33   2.0000      -0.183201        -4.9851
  34   2.0000      -0.181556        -4.9404
  35   2.0000      -0.160292        -4.3618
  36   2.0000      -0.143724        -3.9109
  37   2.0000      -0.136556        -3.7159
  38   2.0000      -0.125893        -3.4257
  39   2.0000      -0.115854        -3.1526
  40   0.0000       0.067466         1.8358
  41   0.0000       0.193073         5.2538
  42   0.0000       0.200571         5.4578
  43   0.0000       0.249534         6.7902
  44   0.0000       0.266529         7.2526

MULLIKEN ATOMIC CHARGES
-----------------------
   0 Pt:    0.133094
   1 Cl:   -0.436510
   2 Cl:   -0.293523
   3 Cl:   -0.435849
   4 C :   -0.920880
   5 H :    0.201071
   6 H :    0.314297
   7 H :    0.203646
   8 H :    0.234652
Sum of atomic charges:   -1.0000000

LOEWDIN ATOMIC CHARGES
----------------------
   0 Pt:   -0.855516
   1 Cl:   -0.136450
   2 Cl:    0.055221
   3 Cl:   -0.136259
   4 C :   -0.490018
   5 H :    0.123116
   6 H :    0.140129
   7 H :    0.125811
   8 H :    0.173966

  Mayer bond orders larger than 0.100000
B(  0-Pt,  1-Cl) :   0.8126 B(  0-Pt,  2-Cl) :   1.0399 B(  0-Pt,  3-Cl) :   0.7986
B(  1-Cl,  3-Cl) :   0.1094 B(  4-C ,  5-H ) :   0.9356 B(  4-C ,  6-H ) :   0.8662
B(  4-C ,  7-H ) :   0.9366 B(  4-C ,  8-H ) :   0.9082

Dispersion correction           -0.004583487
FINAL SINGLE POINT ENERGY     -1538.978201380318
Dispersion correction            ... done

DIPOLE MOMENT
-------------
                                X             Y             Z
Electronic contribution:     -4.57519      -2.94557       4.50376
Nuclear contribution   :      5.32961       3.65598      -4.90063
                        -----------------------------------------
Total Dipole Moment    :      0.75442       0.71040      -0.39687
                        -----------------------------------------
Magnitude (a.u.)       :      1.10965
Magnitude (Debye)      :      2.82051

Rotational constants in cm-1:     0.049426     0.043916     0.023379
Rotational constants in MHz :  1481.762213  1316.563088   700.892435

                             ****ORCA TERMINATED NORMALLY****
TOTAL RUN TIME: 0 days 0 hours 0 minutes 34 seconds 326 msec
