                         Program Version 5.0.3 -  RELEASE  -
|  1> ! EnGrad PBEh-3c
|  2> %output
|  3> xyzfile=True
|  4> end
|  5> %scf
|  6> maxiter 250
|  7> end
|  8> %output
|  9> Print[P_Hirshfeld] = 1
| 10> end
| 11> % maxcore
| 12> 4000
| 13> *xyz -1 1
| 14> Pt  -1.13819169  -0.96247253   0.59165148
| 15> Cl  -0.29541105  -0.74153204   2.75104854
| 16> Cl  -2.74195650  -2.42452517   1.17780451
| 17> Cl  -1.80338239  -0.98730315  -1.63699765
| 18> C    1.17565106   0.99898707  -0.54713191
| 19> H    1.45204977   2.02133640  -0.24081891
| 20> H    1.28229068   0.28750771   0.34899835
| 21> H    1.88053605   0.67000774  -1.32566274
| 22> H    0.18772323   1.13797926  -1.11921690
| 23> *
| 24>
| 25>                          ****END OF INPUT****

CARTESIAN COORDINATES (ANGSTROEM)
---------------------------------
  Pt    -1.138192   -0.962473    0.591651
  Cl    -0.295411   -0.741532    2.751049
  Cl    -2.741957   -2.424525    1.177805
  Cl    -1.803382   -0.987303   -1.636998
  C      1.175651    0.998987   -0.547132
  H      1.452050    2.021336   -0.240819
  H      1.282291    0.287508    0.348998
  H      1.880536    0.670008   -1.325663
  H      0.187723    1.137979   -1.119217

 Total Charge           Charge          ....   -1
 Multiplicity           Mult            ....    1
 Number of Electrons    NEL             ....   80
 Basis Dimension        Dim             ....  109

ORBITAL ENERGIES
----------------

  NO   OCC          E(Eh)            E(eV)
   0   2.0000    -102.119159     -2778.8036
   1   2.0000    -102.092846     -2778.0876
   2   2.0000    -102.091965     -2778.0636
   3   2.0000     -10.328973      -281.0657
   4   2.0000      -9.582961      -260.7656
   5   2.0000      -9.556801      -260.0538
   6   2.0000      -9.556023      -260.0326
   7   2.0000      -7.270605      -197.8432
   8   2.0000      -7.262970      -197.6355
   9   2.0000      -7.262672      -197.6273
  10   2.0000      -7.242572      -197.0804
  11   2.0000      -7.241895      -197.0620
  12   2.0000      -7.237990      -196.9557
  13   2.0000      -7.237609      -196.9453
  14   2.0000      -7.237069      -196.9307
  15   2.0000      -7.236832      -196.9242
  16   2.0000      -3.941843      -107.2630
  17   2.0000      -2.159293       -58.7573
  18   2.0000      -2.155859       -58.6639
  19   2.0000      -2.118650       -57.6514
  20   2.0000      -0.709565       -19.3083
  21   2.0000      -0.689427       -18.7603
  22   2.0000      -0.679165       -18.4810
  23   2.0000      -0.663969       -18.0675
  24   2.0000      -0.353177        -9.6104
  25   2.0000      -0.341453        -9.2914
  26   2.0000      -0.323392        -8.7999
  27   2.0000      -0.287643        -7.8272
  28   2.0000      -0.276039        -7.5114
  29   2.0000      -0.272892        -7.4258
  30   2.0000      -0.232891        -6.3373
  31   2.0000      -0.230705        -6.2778
  32   2.0000      -0.205458        -5.5908
  33   2.0000      -0.183056        -4.9812
  34   2.0000      -0.181480        -4.9383
  35   2.0000      -0.160697        -4.3728
  36   2.0000      -0.144889        -3.9426
  37   2.0000      -0.139416        -3.7937
  38   2.0000      -0.128621        -3.5000
  39   2.0000      -0.117445        -3.1958
  40   0.0000       0.062540         1.7018
  41   0.0000       0.189741         5.1631
  42   0.0000       0.198609         5.4044
  43   0.0000       0.258875         7.0443
  44   0.0000       0.264970         7.2102

MULLIKEN ATOMIC CHARGES
-----------------------
   0 Pt:    0.144637
   1 Cl:   -0.437131
   2 Cl:   -0.303518
   3 Cl:   -0.435375
   4 C :   -0.907018
   5 H :    0.206628
   6 H :    0.258457
   7 H :    0.213955
   8 H :    0.259367
Sum of atomic charges:   -1.0000000

LOEWDIN ATOMIC CHARGES
----------------------
   0 Pt:   -0.835902
   1 Cl:   -0.140676
   2 Cl:    0.030551
   3 Cl:   -0.139204
   4 C :   -0.506846
   5 H :    0.119314
   6 H :    0.178262
   7 H :    0.123466
   8 H :    0.171033

  Mayer bond orders larger than 0.100000
B(  0-Pt,  1-Cl) :   0.8080 B(  0-Pt,  2-Cl) :   1.0227 B(  0-Pt,  3-Cl) :   0.7994
B(  1-Cl,  3-Cl) :   0.1096 B(  4-C ,  5-H ) :   0.9280 B(  4-C ,  6-H ) :   0.8864
B(  4-C ,  7-H ) :   0.9276 B(  4-C ,  8-H ) :   0.8985

Dispersion correction           -0.004534638
FINAL SINGLE POINT ENERGY     -1539.038757011655
Dispersion correction            ... done

DIPOLE MOMENT
-------------
                                X             Y             Z
Electronic contribution:     -3.54053      -2.13601       4.76168
Nuclear contribution   :      4.37071       2.87582      -5.15046
                        -----------------------------------------
Total Dipole Moment    :      0.83018       0.73981      -0.38878
                        -----------------------------------------
Magnitude (a.u.)       :      1.17799
Magnitude (Debye)      :      2.99422

Rotational constants in cm-1:     0.048237     0.043296     0.022938
Rotational constants in MHz :  1446.117117  1297.987366   687.657883

                             ****ORCA TERMINATED NORMALLY****
TOTAL RUN TIME: 0 days 0 hours 0 minutes 37 seconds 486 msec
