                         Program Version 5.0.3 -  RELEASE  -
|  1> ! EnGrad PBEh-3c
|  2> %output
|  3> xyzfile=True
|  4> end
|  5> %scf
|  6> maxiter 250
|  7> end
|  8> %output
|  9> Print[P_Hirshfeld] = 1
| 10> end
| 11> % maxcore
| 12> 4000
| 13> *xyz -1 1
| 14> Pt  -1.14682668  -0.97589181   0.59000968
| 15> Cl  -0.29611010  -0.72102220   2.72552383
| 16> Cl  -2.71486481  -2.38250419   1.17541720
| 17> Cl  -1.76838439  -0.99633329  -1.63148780
| 18> C    1.18277817   0.93819056  -0.47156006
| 19> H    1.45907036   1.97913879  -0.20909365
| 20> H    1.21439388   0.36696781   0.17030248
| 21> H    1.85125703   0.68333817  -1.32370269
| 22> H    0.21567219   1.10825188  -1.02675673
| 23> *
| 24>
| 25>                          ****END OF INPUT****

CARTESIAN COORDINATES (ANGSTROEM)
---------------------------------
  Pt    -1.146827   -0.975892    0.590010
  Cl    -0.296110   -0.721022    2.725524
  Cl    -2.714865   -2.382504    1.175417
  Cl    -1.768384   -0.996333   -1.631488
  C      1.182778    0.938191   -0.471560
  H      1.459070    1.979139   -0.209094
  H      1.214394    0.366968    0.170302
  H      1.851257    0.683338   -1.323703
  H      0.215672    1.108252   -1.026757

 Total Charge           Charge          ....   -1
 Multiplicity           Mult            ....    1
 Number of Electrons    NEL             ....   80
 Basis Dimension        Dim             ....  109

ORBITAL ENERGIES
----------------

  NO   OCC          E(Eh)            E(eV)
   0   2.0000    -102.120704     -2778.8456
   1   2.0000    -102.092483     -2778.0777
   2   2.0000    -102.091922     -2778.0624
   3   2.0000     -10.298992      -280.2498
   4   2.0000      -9.585469      -260.8339
   5   2.0000      -9.556633      -260.0492
   6   2.0000      -9.556258      -260.0390
   7   2.0000      -7.273118      -197.9116
   8   2.0000      -7.265376      -197.7009
   9   2.0000      -7.265048      -197.6920
  10   2.0000      -7.242346      -197.0742
  11   2.0000      -7.242076      -197.0669
  12   2.0000      -7.237884      -196.9528
  13   2.0000      -7.237394      -196.9395
  14   2.0000      -7.237332      -196.9378
  15   2.0000      -7.237030      -196.9296
  16   2.0000      -3.940696      -107.2318
  17   2.0000      -2.160173       -58.7813
  18   2.0000      -2.154553       -58.6284
  19   2.0000      -2.117491       -57.6198
  20   2.0000      -0.716494       -19.4968
  21   2.0000      -0.694898       -18.9091
  22   2.0000      -0.689537       -18.7633
  23   2.0000      -0.679919       -18.5015
  24   2.0000      -0.409321       -11.1382
  25   2.0000      -0.329741        -8.9727
  26   2.0000      -0.321649        -8.7525
  27   2.0000      -0.290273        -7.8987
  28   2.0000      -0.285999        -7.7824
  29   2.0000      -0.279598        -7.6083
  30   2.0000      -0.240629        -6.5478
  31   2.0000      -0.232453        -6.3254
  32   2.0000      -0.207444        -5.6449
  33   2.0000      -0.184009        -5.0071
  34   2.0000      -0.183108        -4.9826
  35   2.0000      -0.160921        -4.3789
  36   2.0000      -0.143643        -3.9087
  37   2.0000      -0.135746        -3.6938
  38   2.0000      -0.124755        -3.3948
  39   2.0000      -0.115305        -3.1376
  40   0.0000       0.068859         1.8737
  41   0.0000       0.194940         5.3046
  42   0.0000       0.201666         5.4876
  43   0.0000       0.265650         7.2287
  44   0.0000       0.269374         7.3300

MULLIKEN ATOMIC CHARGES
-----------------------
   0 Pt:    0.129932
   1 Cl:   -0.435219
   2 Cl:   -0.289248
   3 Cl:   -0.435050
   4 C :   -0.945888
   5 H :    0.199095
   6 H :    0.318793
   7 H :    0.202663
   8 H :    0.254923
Sum of atomic charges:   -1.0000000

LOEWDIN ATOMIC CHARGES
----------------------
   0 Pt:   -0.862846
   1 Cl:   -0.133021
   2 Cl:    0.065175
   3 Cl:   -0.130977
   4 C :   -0.495583
   5 H :    0.123086
   6 H :    0.137577
   7 H :    0.126363
   8 H :    0.170226

  Mayer bond orders larger than 0.100000
B(  0-Pt,  1-Cl) :   0.8157 B(  0-Pt,  2-Cl) :   1.0468 B(  0-Pt,  3-Cl) :   0.8019
B(  1-Cl,  3-Cl) :   0.1095 B(  4-C ,  5-H ) :   0.9417 B(  4-C ,  6-H ) :   0.8622
B(  4-C ,  7-H ) :   0.9424 B(  4-C ,  8-H ) :   0.9035

Dispersion correction           -0.004596318
FINAL SINGLE POINT ENERGY     -1538.985860396368
Dispersion correction            ... done

DIPOLE MOMENT
-------------
                                X             Y             Z
Electronic contribution:     -5.05929      -3.49615       4.67348
Nuclear contribution   :      5.77038       4.16078      -5.04627
                        -----------------------------------------
Total Dipole Moment    :      0.71109       0.66462      -0.37278
                        -----------------------------------------
Magnitude (a.u.)       :      1.04228
Magnitude (Debye)      :      2.64926

Rotational constants in cm-1:     0.049756     0.044234     0.023531
Rotational constants in MHz :  1491.661858  1326.102408   705.431346

                             ****ORCA TERMINATED NORMALLY****
TOTAL RUN TIME: 0 days 0 hours 0 minutes 37 seconds 515 msec
