                         Program Version 5.0.3 -  RELEASE  -
|  1> ! EnGrad PBEh-3c
|  2> %output
|  3> xyzfile=True
|  4> end
|  5> %scf
|  6> maxiter 250
|  7> end
|  8> %output
|  9> Print[P_Hirshfeld] = 1
| 10> end
| 11> % maxcore
| 12> 4000
| 13> *xyz -1 1
| 14> Pt  -1.14215179  -0.96862675   0.59089853
| 15> Cl  -0.29573164  -0.73212602   2.73934264
| 16> Cl  -2.72953197  -2.40525391   1.17670966
| 17> Cl  -1.78733194  -0.99144447  -1.63447078
| 18> C    1.17891963   0.97110516  -0.51247387
| 19> H    1.45526949   2.00198414  -0.22626938
| 20> H    1.25115250   0.32394894   0.26704656
| 21> H    1.86710839   0.67612121  -1.32476384
| 22> H    0.20054091   1.12434597  -1.07681370
| 23> *
| 24>
| 25>                          ****END OF INPUT****

CARTESIAN COORDINATES (ANGSTROEM)
---------------------------------
  Pt    -1.142152   -0.968627    0.590899
  Cl    -0.295732   -0.732126    2.739343
  Cl    -2.729532   -2.405254    1.176710
  Cl    -1.787332   -0.991444   -1.634471
  C      1.178920    0.971105   -0.512474
  H      1.455269    2.001984   -0.226269
  H      1.251152    0.323949    0.267047
  H      1.867108    0.676121   -1.324764
  H      0.200541    1.124346   -1.076814

 Total Charge           Charge          ....   -1
 Multiplicity           Mult            ....    1
 Number of Electrons    NEL             ....   80
 Basis Dimension        Dim             ....  109

ORBITAL ENERGIES
----------------

  NO   OCC          E(Eh)            E(eV)
   0   2.0000    -102.120081     -2778.8287
   1   2.0000    -102.092789     -2778.0860
   2   2.0000    -102.091997     -2778.0645
   3   2.0000     -10.314004      -280.6583
   4   2.0000      -9.584299      -260.8020
   5   2.0000      -9.556831      -260.0546
   6   2.0000      -9.556182      -260.0369
   7   2.0000      -7.271951      -197.8798
   8   2.0000      -7.264262      -197.6706
   9   2.0000      -7.263951      -197.6621
  10   2.0000      -7.242575      -197.0805
  11   2.0000      -7.242030      -197.0656
  12   2.0000      -7.238050      -196.9574
  13   2.0000      -7.237618      -196.9456
  14   2.0000      -7.237240      -196.9353
  15   2.0000      -7.236973      -196.9280
  16   2.0000      -3.941412      -107.2513
  17   2.0000      -2.159766       -58.7702
  18   2.0000      -2.155354       -58.6502
  19   2.0000      -2.118206       -57.6393
  20   2.0000      -0.712788       -19.3959
  21   2.0000      -0.690554       -18.7909
  22   2.0000      -0.679629       -18.4937
  23   2.0000      -0.674505       -18.3542
  24   2.0000      -0.377261       -10.2658
  25   2.0000      -0.335871        -9.1395
  26   2.0000      -0.323194        -8.7946
  27   2.0000      -0.288999        -7.8641
  28   2.0000      -0.280867        -7.6428
  29   2.0000      -0.276027        -7.5111
  30   2.0000      -0.236392        -6.4325
  31   2.0000      -0.231672        -6.3041
  32   2.0000      -0.206471        -5.6184
  33   2.0000      -0.183566        -4.9951
  34   2.0000      -0.182357        -4.9622
  35   2.0000      -0.160901        -4.3783
  36   2.0000      -0.144409        -3.9296
  37   2.0000      -0.137928        -3.7532
  38   2.0000      -0.127022        -3.4564
  39   2.0000      -0.116535        -3.1711
  40   0.0000       0.065219         1.7747
  41   0.0000       0.192285         5.2323
  42   0.0000       0.200041         5.4434
  43   0.0000       0.263827         7.1791
  44   0.0000       0.268002         7.2927

MULLIKEN ATOMIC CHARGES
-----------------------
   0 Pt:    0.139485
   1 Cl:   -0.436341
   2 Cl:   -0.296880
   3 Cl:   -0.435023
   4 C :   -0.924144
   5 H :    0.202871
   6 H :    0.283225
   7 H :    0.209040
   8 H :    0.257766
Sum of atomic charges:   -1.0000000

LOEWDIN ATOMIC CHARGES
----------------------
   0 Pt:   -0.847527
   1 Cl:   -0.137169
   2 Cl:    0.046579
   3 Cl:   -0.135254
   4 C :   -0.504864
   5 H :    0.120233
   6 H :    0.163764
   7 H :    0.124157
   8 H :    0.170081

  Mayer bond orders larger than 0.100000
B(  0-Pt,  1-Cl) :   0.8119 B(  0-Pt,  2-Cl) :   1.0337 B(  0-Pt,  3-Cl) :   0.8009
B(  1-Cl,  3-Cl) :   0.1096 B(  4-C ,  5-H ) :   0.9346 B(  4-C ,  6-H ) :   0.8793
B(  4-C ,  7-H ) :   0.9344 B(  4-C ,  8-H ) :   0.9006

Dispersion correction           -0.004562567
FINAL SINGLE POINT ENERGY     -1539.037524111371
Dispersion correction            ... done

DIPOLE MOMENT
-------------
                                X             Y             Z
Electronic contribution:     -4.24058      -2.76723       4.72735
Nuclear contribution   :      5.01261       3.46511      -5.10268
                        -----------------------------------------
Total Dipole Moment    :      0.77203       0.69788      -0.37533
                        -----------------------------------------
Magnitude (a.u.)       :      1.10632
Magnitude (Debye)      :      2.81204

Rotational constants in cm-1:     0.048923     0.043732     0.023209
Rotational constants in MHz :  1466.668694  1311.058711   695.785667

                             ****ORCA TERMINATED NORMALLY****
TOTAL RUN TIME: 0 days 0 hours 0 minutes 37 seconds 672 msec
