                         Program Version 5.0.3 -  RELEASE  -
|  1> ! EnGrad PBEh-3c
|  2> %output
|  3> xyzfile=True
|  4> end
|  5> %scf
|  6> maxiter 250
|  7> end
|  8> %output
|  9> Print[P_Hirshfeld] = 1
| 10> end
| 11> % maxcore
| 12> 4000
| 13> *xyz -1 1
| 14> Pt  -1.14333180  -0.97122866   0.58854841
| 15> Cl  -0.29605846  -0.72269466   2.72536418
| 16> Cl  -2.72193769  -2.38990810   1.17856861
| 17> Cl  -1.77087464  -0.99531553  -1.63208216
| 18> C    1.18154673   1.02061091  -0.56996244
| 19> H    1.45950032   1.97578735  -0.20700788
| 20> H    1.22119591   0.30113202   0.25568648
| 21> H    1.85236064   0.68054590  -1.31692666
| 22> H    0.21424118   1.10135554  -1.02360452
| 23> *
| 24>
| 25>                          ****END OF INPUT****

CARTESIAN COORDINATES (ANGSTROEM)
---------------------------------
  Pt    -1.143332   -0.971229    0.588548
  Cl    -0.296058   -0.722695    2.725364
  Cl    -2.721938   -2.389908    1.178569
  Cl    -1.770875   -0.995316   -1.632082
  C      1.181547    1.020611   -0.569962
  H      1.459500    1.975787   -0.207008
  H      1.221196    0.301132    0.255686
  H      1.852361    0.680546   -1.316927
  H      0.214241    1.101356   -1.023605

 Total Charge           Charge          ....   -1
 Multiplicity           Mult            ....    1
 Number of Electrons    NEL             ....   80
 Basis Dimension        Dim             ....  109

ORBITAL ENERGIES
----------------

  NO   OCC          E(Eh)            E(eV)
   0   2.0000    -102.120485     -2778.8397
   1   2.0000    -102.092690     -2778.0833
   2   2.0000    -102.092600     -2778.0809
   3   2.0000     -10.304046      -280.3874
   4   2.0000      -9.584974      -260.8204
   5   2.0000      -9.556904      -260.0566
   6   2.0000      -9.556862      -260.0554
   7   2.0000      -7.272626      -197.8982
   8   2.0000      -7.264907      -197.6882
   9   2.0000      -7.264590      -197.6796
  10   2.0000      -7.242712      -197.0842
  11   2.0000      -7.242603      -197.0812
  12   2.0000      -7.238074      -196.9580
  13   2.0000      -7.237985      -196.9556
  14   2.0000      -7.237675      -196.9472
  15   2.0000      -7.237639      -196.9462
  16   2.0000      -3.941167      -107.2446
  17   2.0000      -2.160018       -58.7771
  18   2.0000      -2.155202       -58.6460
  19   2.0000      -2.117962       -57.6327
  20   2.0000      -0.714776       -19.4500
  21   2.0000      -0.691837       -18.8258
  22   2.0000      -0.680496       -18.5172
  23   2.0000      -0.678398       -18.4601
  24   2.0000      -0.353834        -9.6283
  25   2.0000      -0.349488        -9.5101
  26   2.0000      -0.341965        -9.3054
  27   2.0000      -0.290578        -7.9070
  28   2.0000      -0.283226        -7.7070
  29   2.0000      -0.279206        -7.5976
  30   2.0000      -0.238553        -6.4914
  31   2.0000      -0.232897        -6.3374
  32   2.0000      -0.207468        -5.6455
  33   2.0000      -0.184327        -5.0158
  34   2.0000      -0.183401        -4.9906
  35   2.0000      -0.161275        -4.3885
  36   2.0000      -0.144137        -3.9222
  37   2.0000      -0.136911        -3.7255
  38   2.0000      -0.125703        -3.4205
  39   2.0000      -0.115755        -3.1499
  40   0.0000       0.066956         1.8220
  41   0.0000       0.194078         5.2811
  42   0.0000       0.200437         5.4542
  43   0.0000       0.266192         7.2434
  44   0.0000       0.268250         7.2995

MULLIKEN ATOMIC CHARGES
-----------------------
   0 Pt:    0.132076
   1 Cl:   -0.434634
   2 Cl:   -0.293580
   3 Cl:   -0.434645
   4 C :   -0.925408
   5 H :    0.212772
   6 H :    0.258266
   7 H :    0.218584
   8 H :    0.266570
Sum of atomic charges:   -1.0000000

LOEWDIN ATOMIC CHARGES
----------------------
   0 Pt:   -0.863989
   1 Cl:   -0.132502
   2 Cl:    0.055033
   3 Cl:   -0.130605
   4 C :   -0.506278
   5 H :    0.122125
   6 H :    0.167551
   7 H :    0.125789
   8 H :    0.162876

  Mayer bond orders larger than 0.100000
B(  0-Pt,  1-Cl) :   0.8137 B(  0-Pt,  2-Cl) :   1.0381 B(  0-Pt,  3-Cl) :   0.8026
B(  1-Cl,  3-Cl) :   0.1096 B(  4-C ,  5-H ) :   0.9310 B(  4-C ,  6-H ) :   0.8898
B(  4-C ,  7-H ) :   0.9313 B(  4-C ,  8-H ) :   0.8977

Dispersion correction           -0.004580553
FINAL SINGLE POINT ENERGY     -1539.045713053927
Dispersion correction            ... done

DIPOLE MOMENT
-------------
                                X             Y             Z
Electronic contribution:     -4.67843      -3.46712       4.99962
Nuclear contribution   :      5.42443       4.12444      -5.34696
                        -----------------------------------------
Total Dipole Moment    :      0.74600       0.65731      -0.34734
                        -----------------------------------------
Magnitude (a.u.)       :      1.05320
Magnitude (Debye)      :      2.67701

Rotational constants in cm-1:     0.048930     0.043969     0.023268
Rotational constants in MHz :  1466.897962  1318.157497   697.546323

                             ****ORCA TERMINATED NORMALLY****
TOTAL RUN TIME: 0 days 0 hours 0 minutes 37 seconds 418 msec
