                         Program Version 5.0.3 -  RELEASE  -
|  1> ! EnGrad PBEh-3c
|  2> %output
|  3> xyzfile=True
|  4> end
|  5> %scf
|  6> maxiter 250
|  7> end
|  8> %output
|  9> Print[P_Hirshfeld] = 1
| 10> end
| 11> % maxcore
| 12> 4000
| 13> *xyz -1 1
| 14> Pt  -1.13840103  -0.96683048   0.58560660
| 15> Cl  -0.29566930  -0.71933686   2.71979093
| 16> Cl  -2.72669717  -2.39062145   1.18295890
| 17> Cl  -1.76518111  -0.99620899  -1.63272615
| 18> C    1.17792295   1.01878165  -0.57274852
| 19> H    1.46859007   1.98568981  -0.19299347
| 20> H    1.20888510   0.29839759   0.24799622
| 21> H    1.86165266   0.67758810  -1.32917208
| 22> H    0.20423190   1.09310486  -1.01040380
| 23> *
| 24>
| 25>                          ****END OF INPUT****

CARTESIAN COORDINATES (ANGSTROEM)
---------------------------------
  Pt    -1.138401   -0.966830    0.585607
  Cl    -0.295669   -0.719337    2.719791
  Cl    -2.726697   -2.390621    1.182959
  Cl    -1.765181   -0.996209   -1.632726
  C      1.177923    1.018782   -0.572749
  H      1.468590    1.985690   -0.192993
  H      1.208885    0.298398    0.247996
  H      1.861653    0.677588   -1.329172
  H      0.204232    1.093105   -1.010404

 Total Charge           Charge          ....   -1
 Multiplicity           Mult            ....    1
 Number of Electrons    NEL             ....   80
 Basis Dimension        Dim             ....  109

ORBITAL ENERGIES
----------------

  NO   OCC          E(Eh)            E(eV)
   0   2.0000    -102.120431     -2778.8382
   1   2.0000    -102.093028     -2778.0925
   2   2.0000    -102.092800     -2778.0863
   3   2.0000     -10.307606      -280.4842
   4   2.0000      -9.584724      -260.8136
   5   2.0000      -9.557262      -260.0663
   6   2.0000      -9.557134      -260.0628
   7   2.0000      -7.272381      -197.8915
   8   2.0000      -7.264673      -197.6818
   9   2.0000      -7.264363      -197.6734
  10   2.0000      -7.243002      -197.0921
  11   2.0000      -7.242941      -197.0904
  12   2.0000      -7.238458      -196.9685
  13   2.0000      -7.238220      -196.9620
  14   2.0000      -7.238025      -196.9567
  15   2.0000      -7.237908      -196.9535
  16   2.0000      -3.941402      -107.2510
  17   2.0000      -2.159860       -58.7728
  18   2.0000      -2.155669       -58.6587
  19   2.0000      -2.118230       -57.6400
  20   2.0000      -0.713730       -19.4216
  21   2.0000      -0.692234       -18.8367
  22   2.0000      -0.680834       -18.5264
  23   2.0000      -0.675930       -18.3930
  24   2.0000      -0.349472        -9.5096
  25   2.0000      -0.348442        -9.4816
  26   2.0000      -0.343767        -9.3544
  27   2.0000      -0.291354        -7.9281
  28   2.0000      -0.281583        -7.6623
  29   2.0000      -0.278589        -7.5808
  30   2.0000      -0.237140        -6.4529
  31   2.0000      -0.233607        -6.3568
  32   2.0000      -0.207651        -5.6505
  33   2.0000      -0.184715        -5.0263
  34   2.0000      -0.183791        -5.0012
  35   2.0000      -0.161617        -4.3978
  36   2.0000      -0.144484        -3.9316
  37   2.0000      -0.137789        -3.7494
  38   2.0000      -0.126076        -3.4307
  39   2.0000      -0.115762        -3.1500
  40   0.0000       0.065483         1.7819
  41   0.0000       0.194229         5.2852
  42   0.0000       0.200104         5.4451
  43   0.0000       0.265864         7.2345
  44   0.0000       0.267684         7.2840

MULLIKEN ATOMIC CHARGES
-----------------------
   0 Pt:    0.131535
   1 Cl:   -0.433196
   2 Cl:   -0.296023
   3 Cl:   -0.434149
   4 C :   -0.920189
   5 H :    0.208031
   6 H :    0.260261
   7 H :    0.215294
   8 H :    0.268437
Sum of atomic charges:   -1.0000000

LOEWDIN ATOMIC CHARGES
----------------------
   0 Pt:   -0.862487
   1 Cl:   -0.129619
   2 Cl:    0.048642
   3 Cl:   -0.129242
   4 C :   -0.504541
   5 H :    0.121860
   6 H :    0.166841
   7 H :    0.125686
   8 H :    0.162860

  Mayer bond orders larger than 0.100000
B(  0-Pt,  1-Cl) :   0.8160 B(  0-Pt,  2-Cl) :   1.0329 B(  0-Pt,  3-Cl) :   0.8035
B(  1-Cl,  3-Cl) :   0.1100 B(  4-C ,  5-H ) :   0.9329 B(  4-C ,  6-H ) :   0.8862
B(  4-C ,  7-H ) :   0.9326 B(  4-C ,  8-H ) :   0.8948

Dispersion correction           -0.004586702
FINAL SINGLE POINT ENERGY     -1539.046986295914
Dispersion correction            ... done

DIPOLE MOMENT
-------------
                                X             Y             Z
Electronic contribution:     -4.38295      -3.22241       4.86852
Nuclear contribution   :      5.13409       3.88151      -5.21094
                        -----------------------------------------
Total Dipole Moment    :      0.75113       0.65910      -0.34242
                        -----------------------------------------
Magnitude (a.u.)       :      1.05635
Magnitude (Debye)      :      2.68502

Rotational constants in cm-1:     0.048859     0.044048     0.023274
Rotational constants in MHz :  1464.751375  1320.538010   697.740089

                             ****ORCA TERMINATED NORMALLY****
TOTAL RUN TIME: 0 days 0 hours 0 minutes 37 seconds 106 msec
