                         Program Version 5.0.3 -  RELEASE  -
|  1> ! EnGrad PBEh-3c
|  2> %output
|  3> xyzfile=True
|  4> end
|  5> %scf
|  6> maxiter 250
|  7> end
|  8> %output
|  9> Print[P_Hirshfeld] = 1
| 10> end
| 11> % maxcore
| 12> 4000
| 13> *xyz -1 1
| 14> Pt  -1.13628208  -0.96462305   0.58422805
| 15> Cl  -0.29499517  -0.71821270   2.71834656
| 16> Cl  -2.73024958  -2.39249860   1.18545568
| 17> Cl  -1.76372082  -0.99617653  -1.63405605
| 18> C    1.17936188   1.01639304  -0.56947736
| 19> H    1.47216492   1.98964327  -0.18847937
| 20> H    1.20584759   0.29860364   0.24642490
| 21> H    1.86656501   0.67645706  -1.33497215
| 22> H    0.19585022   1.09115566  -1.00930848
| 23> *
| 24>
| 25>                          ****END OF INPUT****

CARTESIAN COORDINATES (ANGSTROEM)
---------------------------------
  Pt    -1.136282   -0.964623    0.584228
  Cl    -0.294995   -0.718213    2.718347
  Cl    -2.730250   -2.392499    1.185456
  Cl    -1.763721   -0.996177   -1.634056
  C      1.179362    1.016393   -0.569477
  H      1.472165    1.989643   -0.188479
  H      1.205848    0.298604    0.246425
  H      1.866565    0.676457   -1.334972
  H      0.195850    1.091156   -1.009308

 Total Charge           Charge          ....   -1
 Multiplicity           Mult            ....    1
 Number of Electrons    NEL             ....   80
 Basis Dimension        Dim             ....  109

ORBITAL ENERGIES
----------------

  NO   OCC          E(Eh)            E(eV)
   0   2.0000    -102.120399     -2778.8373
   1   2.0000    -102.093236     -2778.0982
   2   2.0000    -102.092900     -2778.0890
   3   2.0000     -10.309802      -280.5440
   4   2.0000      -9.584570      -260.8094
   5   2.0000      -9.557477      -260.0722
   6   2.0000      -9.557234      -260.0656
   7   2.0000      -7.272229      -197.8874
   8   2.0000      -7.264529      -197.6779
   9   2.0000      -7.264223      -197.6696
  10   2.0000      -7.243221      -197.0981
  11   2.0000      -7.243041      -197.0932
  12   2.0000      -7.238670      -196.9742
  13   2.0000      -7.238318      -196.9647
  14   2.0000      -7.238239      -196.9625
  15   2.0000      -7.238009      -196.9562
  16   2.0000      -3.941589      -107.2561
  17   2.0000      -2.159808       -58.7714
  18   2.0000      -2.155949       -58.6664
  19   2.0000      -2.118430       -57.6454
  20   2.0000      -0.713054       -19.4032
  21   2.0000      -0.692309       -18.8387
  22   2.0000      -0.680972       -18.5302
  23   2.0000      -0.674401       -18.3514
  24   2.0000      -0.348593        -9.4857
  25   2.0000      -0.347158        -9.4467
  26   2.0000      -0.343445        -9.3456
  27   2.0000      -0.291551        -7.9335
  28   2.0000      -0.280583        -7.6350
  29   2.0000      -0.277987        -7.5644
  30   2.0000      -0.236282        -6.4296
  31   2.0000      -0.233809        -6.3623
  32   2.0000      -0.207668        -5.6509
  33   2.0000      -0.184849        -5.0300
  34   2.0000      -0.183906        -5.0043
  35   2.0000      -0.161807        -4.4030
  36   2.0000      -0.144723        -3.9381
  37   2.0000      -0.138350        -3.7647
  38   2.0000      -0.126418        -3.4400
  39   2.0000      -0.115924        -3.1544
  40   0.0000       0.064507         1.7553
  41   0.0000       0.194042         5.2801
  42   0.0000       0.199862         5.4385
  43   0.0000       0.265625         7.2280
  44   0.0000       0.267302         7.2737

MULLIKEN ATOMIC CHARGES
-----------------------
   0 Pt:    0.132164
   1 Cl:   -0.432685
   2 Cl:   -0.297544
   3 Cl:   -0.434002
   4 C :   -0.917566
   5 H :    0.206786
   6 H :    0.262432
   7 H :    0.213573
   8 H :    0.266841
Sum of atomic charges:   -1.0000000

LOEWDIN ATOMIC CHARGES
----------------------
   0 Pt:   -0.859788
   1 Cl:   -0.128844
   2 Cl:    0.044626
   3 Cl:   -0.129183
   4 C :   -0.504093
   5 H :    0.121696
   6 H :    0.166371
   7 H :    0.125542
   8 H :    0.163673

  Mayer bond orders larger than 0.100000
B(  0-Pt,  1-Cl) :   0.8168 B(  0-Pt,  2-Cl) :   1.0299 B(  0-Pt,  3-Cl) :   0.8036
B(  1-Cl,  3-Cl) :   0.1101 B(  4-C ,  5-H ) :   0.9331 B(  4-C ,  6-H ) :   0.8841
B(  4-C ,  7-H ) :   0.9332 B(  4-C ,  8-H ) :   0.8948

Dispersion correction           -0.004587004
FINAL SINGLE POINT ENERGY     -1539.047353277731
Dispersion correction            ... done

DIPOLE MOMENT
-------------
                                X             Y             Z
Electronic contribution:     -4.23859      -3.06756       4.77753
Nuclear contribution   :      4.99391       3.73090      -5.11954
                        -----------------------------------------
Total Dipole Moment    :      0.75531       0.66334      -0.34202
                        -----------------------------------------
Magnitude (a.u.)       :      1.06184
Magnitude (Debye)      :      2.69898

Rotational constants in cm-1:     0.048763     0.044051     0.023254
Rotational constants in MHz :  1461.871439  1320.607184   697.127995

                             ****ORCA TERMINATED NORMALLY****
TOTAL RUN TIME: 0 days 0 hours 0 minutes 37 seconds 524 msec
