                         Program Version 5.0.3 -  RELEASE  -
|  1> ! EnGrad PBEh-3c
|  2> %output
|  3> xyzfile=True
|  4> end
|  5> %scf
|  6> maxiter 250
|  7> end
|  8> %output
|  9> Print[P_Hirshfeld] = 1
| 10> end
| 11> % maxcore
| 12> 4000
| 13> *xyz -1 1
| 14> Pt  -1.13512555  -0.96235950   0.58183039
| 15> Cl  -0.29271813  -0.71575954   2.71541820
| 16> Cl  -2.73733820  -2.39579550   1.19116564
| 17> Cl  -1.76104350  -0.99547703  -1.63822055
| 18> C    1.18189203   1.01723976  -0.57075935
| 19> H    1.47879148   1.99302588  -0.18103164
| 20> H    1.20130956   0.29675194   0.24815495
| 21> H    1.87369603   0.67640140  -1.34285096
| 22> H    0.18277681   1.08719978  -1.00603238
| 23> *
| 24>
| 25>                          ****END OF INPUT****

CARTESIAN COORDINATES (ANGSTROEM)
---------------------------------
  Pt    -1.135126   -0.962359    0.581830
  Cl    -0.292718   -0.715760    2.715418
  Cl    -2.737338   -2.395796    1.191166
  Cl    -1.761043   -0.995477   -1.638221
  C      1.181892    1.017240   -0.570759
  H      1.478791    1.993026   -0.181032
  H      1.201310    0.296752    0.248155
  H      1.873696    0.676401   -1.342851
  H      0.182777    1.087200   -1.006032

 Total Charge           Charge          ....   -1
 Multiplicity           Mult            ....    1
 Number of Electrons    NEL             ....   80
 Basis Dimension        Dim             ....  109

ORBITAL ENERGIES
----------------

  NO   OCC          E(Eh)            E(eV)
   0   2.0000    -102.120399     -2778.8373
   1   2.0000    -102.093634     -2778.1090
   2   2.0000    -102.093187     -2778.0968
   3   2.0000     -10.313150      -280.6351
   4   2.0000      -9.584392      -260.8046
   5   2.0000      -9.557872      -260.0829
   6   2.0000      -9.557503      -260.0729
   7   2.0000      -7.272053      -197.8826
   8   2.0000      -7.264367      -197.6735
   9   2.0000      -7.264068      -197.6653
  10   2.0000      -7.243624      -197.1090
  11   2.0000      -7.243309      -197.1005
  12   2.0000      -7.239059      -196.9848
  13   2.0000      -7.238631      -196.9732
  14   2.0000      -7.238590      -196.9721
  15   2.0000      -7.238280      -196.9636
  16   2.0000      -3.941962      -107.2662
  17   2.0000      -2.159823       -58.7718
  18   2.0000      -2.156439       -58.6797
  19   2.0000      -2.118817       -57.6559
  20   2.0000      -0.712080       -19.3767
  21   2.0000      -0.692433       -18.8421
  22   2.0000      -0.681238       -18.5374
  23   2.0000      -0.671978       -18.2854
  24   2.0000      -0.346621        -9.4320
  25   2.0000      -0.345713        -9.4073
  26   2.0000      -0.342882        -9.3303
  27   2.0000      -0.291729        -7.9384
  28   2.0000      -0.279035        -7.5929
  29   2.0000      -0.277096        -7.5402
  30   2.0000      -0.235106        -6.3975
  31   2.0000      -0.234011        -6.3678
  32   2.0000      -0.207771        -5.6537
  33   2.0000      -0.185114        -5.0372
  34   2.0000      -0.184126        -5.0103
  35   2.0000      -0.162246        -4.4150
  36   2.0000      -0.145152        -3.9498
  37   2.0000      -0.139228        -3.7886
  38   2.0000      -0.126958        -3.4547
  39   2.0000      -0.116350        -3.1660
  40   0.0000       0.062869         1.7107
  41   0.0000       0.193495         5.2653
  42   0.0000       0.199409         5.4262
  43   0.0000       0.265029         7.2118
  44   0.0000       0.266607         7.2547

MULLIKEN ATOMIC CHARGES
-----------------------
   0 Pt:    0.133452
   1 Cl:   -0.432014
   2 Cl:   -0.299940
   3 Cl:   -0.434017
   4 C :   -0.913190
   5 H :    0.205964
   6 H :    0.262389
   7 H :    0.212336
   8 H :    0.265021
Sum of atomic charges:   -1.0000000

LOEWDIN ATOMIC CHARGES
----------------------
   0 Pt:   -0.855077
   1 Cl:   -0.128063
   2 Cl:    0.038458
   3 Cl:   -0.129565
   4 C :   -0.503642
   5 H :    0.121553
   6 H :    0.166285
   7 H :    0.125470
   8 H :    0.164581

  Mayer bond orders larger than 0.100000
B(  0-Pt,  1-Cl) :   0.8174 B(  0-Pt,  2-Cl) :   1.0255 B(  0-Pt,  3-Cl) :   0.8034
B(  1-Cl,  3-Cl) :   0.1103 B(  4-C ,  5-H ) :   0.9326 B(  4-C ,  6-H ) :   0.8824
B(  4-C ,  7-H ) :   0.9332 B(  4-C ,  8-H ) :   0.8944

Dispersion correction           -0.004585401
FINAL SINGLE POINT ENERGY     -1539.047441622084
Dispersion correction            ... done

DIPOLE MOMENT
-------------
                                X             Y             Z
Electronic contribution:     -4.14220      -2.93179       4.66406
Nuclear contribution   :      4.90311       3.59933      -5.00335
                        -----------------------------------------
Total Dipole Moment    :      0.76091       0.66754      -0.33929
                        -----------------------------------------
Magnitude (a.u.)       :      1.06757
Magnitude (Debye)      :      2.71356

Rotational constants in cm-1:     0.048554     0.043997     0.023192
Rotational constants in MHz :  1455.616351  1319.004688   695.272659

                             ****ORCA TERMINATED NORMALLY****
TOTAL RUN TIME: 0 days 0 hours 0 minutes 37 seconds 518 msec
