                         Program Version 5.0.4 -  RELEASE  -
|  1> ! PBEh-3c OPT pal4
|  2>
|  3> %geom
|  4>  maxiter 600
|  5> end
|  6>
|  7> *xyzfile 0 1 reaction-1-rct-xtb.xyz
|  8>
|  9>                          ****END OF INPUT****
 Total Charge           Charge          ....    0
 Multiplicity           Mult            ....    1
 Number of Electrons    NEL             ....  154
Dispersion correction           -0.028468749
FINAL SINGLE POINT ENERGY      -988.558984501325
Dispersion correction            ... done
Dispersion correction           -0.028125956
FINAL SINGLE POINT ENERGY      -988.564122674203
Dispersion correction            ... done
Dispersion correction           -0.027844487
FINAL SINGLE POINT ENERGY      -988.567365968182
Dispersion correction            ... done
FINAL SINGLE POINT ENERGY      -988.569367730888
FINAL SINGLE POINT ENERGY      -988.570753218695
FINAL SINGLE POINT ENERGY      -988.571668832895
FINAL SINGLE POINT ENERGY      -988.572189589854
FINAL SINGLE POINT ENERGY      -988.572484916337
FINAL SINGLE POINT ENERGY      -988.572733054918
FINAL SINGLE POINT ENERGY      -988.572938743185
FINAL SINGLE POINT ENERGY      -988.574214970829
FINAL SINGLE POINT ENERGY      -988.574295396847
FINAL SINGLE POINT ENERGY      -988.574359715127
FINAL SINGLE POINT ENERGY      -988.574426977014
FINAL SINGLE POINT ENERGY      -988.574422122520
FINAL SINGLE POINT ENERGY      -988.574447372395
FINAL SINGLE POINT ENERGY      -988.574436489946
Dispersion correction            ... done
Dispersion correction           -0.026573026
FINAL SINGLE POINT ENERGY      -988.574437928468
Dispersion correction            ... done
Dispersion correction           -0.026572260
FINAL SINGLE POINT ENERGY      -988.574437824808
Dispersion correction            ... done
                    ***********************HURRAY********************

CARTESIAN COORDINATES (ANGSTROEM)
---------------------------------
  Pd     0.837032    0.721058   -0.614166
  O      2.464932    1.861541   -0.075212
  C      1.709384    2.862043    0.038162
  O      0.470445    2.683115   -0.162400
  C      2.251061    4.216873    0.353112
  H      1.503765    4.830212    0.851128
  H      2.528479    4.712848   -0.578699
  H      3.144832    4.142978    0.968399
  N     -1.061685   -0.018114   -1.076305
  C     -1.134474   -0.317442   -2.518578
  H     -0.859071    0.560500   -3.098133
  H     -2.152583   -0.615941   -2.790214
  H     -0.453773   -1.122263   -2.776697
  C     -2.052580    1.027495   -0.771717
  H     -2.001352    1.318882    0.273507
  H     -3.062526    0.664410   -0.991363
  H     -1.860796    1.905363   -1.383691
  C     -1.349677   -1.126292    1.165315
  C     -0.166187   -1.314595    1.874867
  C     -0.149267   -1.193895    3.255975
  C     -1.313235   -0.891620    3.946952
  C     -2.500384   -0.720181    3.251528
  C     -2.515506   -0.841912    1.870695
  H     -1.297255   -0.801264    5.025042
  H     -3.416036   -0.498736    3.783761
  H      0.742321   -1.575357    1.347720
  H      0.777540   -1.345002    3.793363
  H     -3.450336   -0.721676    1.335164
  C     -1.380823   -1.265957   -0.329855
  H     -2.378382   -1.597797   -0.645934
  H     -0.668895   -2.023830   -0.651855
  O      1.612780   -1.066878   -0.925808
  C      2.250713   -1.184846   -2.055124
  O      2.252337   -0.348529   -2.934814
  C      3.016652   -2.485785   -2.174576
  H      2.424783   -3.333886   -1.831819
  H      3.907350   -2.443273   -1.545629
  H      3.330445   -2.652235   -3.202093

 Multiplicity           Mult            ....    1
 Number of Electrons    NEL             ....  154
 Basis Dimension        Dim             ....  339

ORBITAL ENERGIES
----------------

  NO   OCC          E(Eh)            E(eV)
   0   2.0000     -19.504761      -530.7515
   1   2.0000     -19.502592      -530.6925
   2   2.0000     -19.476815      -529.9911
   3   2.0000     -19.434079      -528.8282
   4   2.0000     -14.723197      -400.6386
   5   2.0000     -10.576583      -287.8035
   6   2.0000     -10.533045      -286.6187
   7   2.0000     -10.493233      -285.5354
   8   2.0000     -10.480582      -285.1911
   9   2.0000     -10.479655      -285.1659
  10   2.0000     -10.466979      -284.8210
  11   2.0000     -10.458861      -284.6001
  12   2.0000     -10.456069      -284.5241
  13   2.0000     -10.455366      -284.5050
  14   2.0000     -10.452968      -284.4397
  15   2.0000     -10.451850      -284.4093
  16   2.0000     -10.445641      -284.2403
  17   2.0000     -10.416851      -283.4569
  18   2.0000      -3.660322       -99.6024
  19   2.0000      -2.309494       -62.8445
  20   2.0000      -2.304485       -62.7082
  21   2.0000      -2.268956       -61.7414
  22   2.0000      -1.210860       -32.9492
  23   2.0000      -1.152839       -31.3703
  24   2.0000      -1.092318       -29.7235
  25   2.0000      -1.077594       -29.3228
  26   2.0000      -1.055375       -28.7182
  27   2.0000      -0.969014       -26.3682
  28   2.0000      -0.877606       -23.8809
  29   2.0000      -0.846639       -23.0382
  30   2.0000      -0.838973       -22.8296
  31   2.0000      -0.821194       -22.3458
  32   2.0000      -0.799672       -21.7602
  33   2.0000      -0.798249       -21.7215
  34   2.0000      -0.716657       -19.5012
  35   2.0000      -0.693453       -18.8698
  36   2.0000      -0.669287       -18.2122
  37   2.0000      -0.621239       -16.9048
  38   2.0000      -0.599491       -16.3130
  39   2.0000      -0.594416       -16.1749
  40   2.0000      -0.579523       -15.7696
  41   2.0000      -0.569046       -15.4845
  42   2.0000      -0.557786       -15.1781
  43   2.0000      -0.553642       -15.0654
  44   2.0000      -0.551201       -14.9989
  45   2.0000      -0.534972       -14.5573
  46   2.0000      -0.530296       -14.4301
  47   2.0000      -0.518885       -14.1196
  48   2.0000      -0.511466       -13.9177
  49   2.0000      -0.496805       -13.5187
  50   2.0000      -0.492581       -13.4038
  51   2.0000      -0.488628       -13.2962
  52   2.0000      -0.484255       -13.1773
  53   2.0000      -0.470545       -12.8042
  54   2.0000      -0.463841       -12.6217
  55   2.0000      -0.460003       -12.5173
  56   2.0000      -0.453236       -12.3332
  57   2.0000      -0.448067       -12.1925
  58   2.0000      -0.446101       -12.1390
  59   2.0000      -0.434985       -11.8366
  60   2.0000      -0.427173       -11.6240
  61   2.0000      -0.419299       -11.4097
  62   2.0000      -0.412549       -11.2260
  63   2.0000      -0.404643       -11.0109
  64   2.0000      -0.403135       -10.9699
  65   2.0000      -0.397777       -10.8241
  66   2.0000      -0.376780       -10.2527
  67   2.0000      -0.368661       -10.0318
  68   2.0000      -0.350475        -9.5369
  69   2.0000      -0.341105        -9.2819
  70   2.0000      -0.327540        -8.9128
  71   2.0000      -0.315875        -8.5954
  72   2.0000      -0.311382        -8.4731
  73   2.0000      -0.303452        -8.2574
  74   2.0000      -0.299206        -8.1418
  75   2.0000      -0.295242        -8.0339
  76   2.0000      -0.275263        -7.4903
  77   0.0000      -0.035067        -0.9542
  78   0.0000       0.001761         0.0479
  79   0.0000       0.009383         0.2553
  80   0.0000       0.041213         1.1215
  81   0.0000       0.067620         1.8400

MULLIKEN ATOMIC CHARGES
-----------------------
   0 Pd:    0.536643
   1 O :   -0.478479
   2 C :    0.680526
   3 O :   -0.516813
   4 C :   -0.772355
   5 H :    0.254041
   6 H :    0.263408
   7 H :    0.260243
   8 N :   -0.495280
   9 C :   -0.521826
  10 H :    0.279749
  11 H :    0.221082
  12 H :    0.280884
  13 C :   -0.527122
  14 H :    0.295884
  15 H :    0.217222
  16 H :    0.277970
  17 C :    0.115443
  18 C :   -0.285528
  19 C :   -0.206393
  20 C :   -0.228511
  21 C :   -0.208072
  22 C :   -0.280413
  23 H :    0.223560
  24 H :    0.221387
  25 H :    0.286538
  26 H :    0.227833
  27 H :    0.212620
  28 C :   -0.367029
  29 H :    0.234279
  30 H :    0.292463
  31 O :   -0.573354
  32 C :    0.553598
  33 O :   -0.439435
  34 C :   -0.747278
  35 H :    0.225793
  36 H :    0.245648
  37 H :    0.241073
Sum of atomic charges:   -0.0000000

LOEWDIN ATOMIC CHARGES
----------------------
   0 Pd:   -0.304059
   1 O :   -0.142905
   2 C :    0.192934
   3 O :   -0.174021
   4 C :   -0.375517
   5 H :    0.154504
   6 H :    0.165997
   7 H :    0.157956
   8 N :   -0.041128
   9 C :   -0.226250
  10 H :    0.158199
  11 H :    0.120402
  12 H :    0.157803
  13 C :   -0.232486
  14 H :    0.163061
  15 H :    0.120583
  16 H :    0.156510
  17 C :   -0.060957
  18 C :   -0.101333
  19 C :   -0.125160
  20 C :   -0.126860
  21 C :   -0.134337
  22 C :   -0.130009
  23 H :    0.138044
  24 H :    0.137646
  25 H :    0.172716
  26 H :    0.141195
  27 H :    0.133662
  28 C :   -0.110055
  29 H :    0.128358
  30 H :    0.164028
  31 O :   -0.211204
  32 C :    0.124828
  33 O :   -0.240893
  34 C :   -0.384755
  35 H :    0.138824
  36 H :    0.152433
  37 H :    0.142246

  Mayer bond orders larger than 0.100000
B(  0-Pd,  1-O ) :   0.5345 B(  0-Pd,  3-O ) :   0.5343 B(  0-Pd,  8-N ) :   0.4376
B(  0-Pd, 31-O ) :   0.6067 B(  0-Pd, 33-O ) :   0.1029 B(  1-O ,  2-C ) :   1.4678
B(  1-O ,  3-O ) :   0.1041 B(  2-C ,  3-O ) :   1.4245 B(  2-C ,  4-C ) :   0.9598
B(  4-C ,  5-H ) :   0.9091 B(  4-C ,  6-H ) :   0.9004 B(  4-C ,  7-H ) :   0.9072
B(  8-N ,  9-C ) :   0.9165 B(  8-N , 13-C ) :   0.9161 B(  8-N , 28-C ) :   0.8869
B(  9-C , 10-H ) :   0.8983 B(  9-C , 11-H ) :   0.9021 B(  9-C , 12-H ) :   0.8939
B( 13-C , 14-H ) :   0.8860 B( 13-C , 15-H ) :   0.9060 B( 13-C , 16-H ) :   0.8985
B( 17-C , 18-C ) :   1.4110 B( 17-C , 22-C ) :   1.3968 B( 17-C , 28-C ) :   0.9474
B( 18-C , 19-C ) :   1.4209 B( 18-C , 25-H ) :   0.8761 B( 19-C , 20-C ) :   1.4196
B( 19-C , 26-H ) :   0.9179 B( 20-C , 21-C ) :   1.4248 B( 20-C , 23-H ) :   0.9185
B( 21-C , 22-C ) :   1.4338 B( 21-C , 24-H ) :   0.9189 B( 22-C , 27-H ) :   0.9207
B( 28-C , 29-H ) :   0.9058 B( 28-C , 30-H ) :   0.8847 B( 31-O , 32-C ) :   1.2336
B( 32-C , 33-O ) :   1.9022 B( 32-C , 34-C ) :   0.9380 B( 34-C , 35-H ) :   0.9174
B( 34-C , 36-H ) :   0.9116 B( 34-C , 37-H ) :   0.9193

Dispersion correction           -0.026572006
FINAL SINGLE POINT ENERGY      -988.574439071143

DIPOLE MOMENT
-------------
                                X             Y             Z
Electronic contribution:     37.83201      36.79111     -30.79841
Nuclear contribution   :    -39.70015     -36.66245      31.57025
                        -----------------------------------------
Total Dipole Moment    :     -1.86814       0.12866       0.77184
                        -----------------------------------------
Magnitude (a.u.)       :      2.02540
Magnitude (Debye)      :      5.14816

Rotational constants in cm-1:     0.013175     0.008562     0.007148
Rotational constants in MHz :   394.989018   256.669881   214.281374

                             ****ORCA TERMINATED NORMALLY****
TOTAL RUN TIME: 0 days 0 hours 57 minutes 57 seconds 421 msec
