                         Program Version 5.0.4 -  RELEASE  -
|  1> ! PBEh-3c OPT pal4
|  2>
|  3> %geom
|  4>  maxiter 600
|  5> end
|  6>
|  7> *xyzfile 0 1 reaction-1-prod-xtb.xyz
|  8>
|  9>                          ****END OF INPUT****
 Total Charge           Charge          ....    0
 Multiplicity           Mult            ....    1
 Number of Electrons    NEL             ....  154
Dispersion correction           -0.028049539
FINAL SINGLE POINT ENERGY      -988.532984049359
Dispersion correction            ... done
Dispersion correction           -0.027857794
FINAL SINGLE POINT ENERGY      -988.537593287088
Dispersion correction            ... done
Dispersion correction           -0.027673218
FINAL SINGLE POINT ENERGY      -988.541182118767
Dispersion correction            ... done
FINAL SINGLE POINT ENERGY      -988.543324175295
FINAL SINGLE POINT ENERGY      -988.544983183254
FINAL SINGLE POINT ENERGY      -988.546448421719
FINAL SINGLE POINT ENERGY      -988.547757005054
FINAL SINGLE POINT ENERGY      -988.548986260397
FINAL SINGLE POINT ENERGY      -988.550034128289
FINAL SINGLE POINT ENERGY      -988.550831215787
FINAL SINGLE POINT ENERGY      -988.554241709507
FINAL SINGLE POINT ENERGY      -988.554250869155
FINAL SINGLE POINT ENERGY      -988.554255945570
FINAL SINGLE POINT ENERGY      -988.554260247908
FINAL SINGLE POINT ENERGY      -988.554264024011
FINAL SINGLE POINT ENERGY      -988.554267961023
FINAL SINGLE POINT ENERGY      -988.554271296309
Dispersion correction            ... done
Dispersion correction           -0.026771689
FINAL SINGLE POINT ENERGY      -988.554273711376
Dispersion correction            ... done
Dispersion correction           -0.026769668
FINAL SINGLE POINT ENERGY      -988.554275166229
Dispersion correction            ... done
                    ***********************HURRAY********************

CARTESIAN COORDINATES (ANGSTROEM)
---------------------------------
  Pd     0.166459    0.113313   -0.004011
  O      1.619667    1.284936    0.943027
  C      1.756207    2.455981    0.657395
  O      0.726953    3.151443    0.224560
  C      3.079217    3.151074    0.771816
  H      2.992165    4.145042    1.211388
  H      3.503052    3.258798   -0.229413
  H      3.768535    2.557613    1.364154
  N     -1.221909   -1.165972   -0.862910
  C     -0.680506   -2.540312   -0.834972
  H      0.251406   -2.565698   -1.392779
  H     -1.399603   -3.230809   -1.290950
  H     -0.498458   -2.853756    0.190226
  C     -1.561943   -0.826784   -2.251046
  H     -1.866852    0.215070   -2.322591
  H     -2.383524   -1.462472   -2.599615
  H     -0.699175   -0.989734   -2.888975
  C     -2.011278   -1.016352    1.417899
  C     -2.782957   -1.486677    2.469256
  C     -2.321211   -1.356282    3.771864
  C     -1.088195   -0.766678    4.006318
  C     -0.312237   -0.305923    2.947865
  C     -0.764716   -0.419542    1.637781
  H     -0.721682   -0.671678    5.021025
  H      0.653837    0.135704    3.160173
  H     -3.740744   -1.957799    2.278363
  H     -2.916913   -1.722081    4.597881
  H      0.974539    4.043665   -0.039535
  C     -2.435166   -1.083184   -0.013334
  H     -2.968597   -0.170853   -0.294653
  H     -3.102671   -1.927765   -0.229197
  O      1.103595    0.860013   -1.719636
  C      1.794380    0.111898   -2.498472
  O      1.821363   -1.111007   -2.486735
  C      2.647893    0.884061   -3.497855
  H      3.038721    0.229268   -4.273270
  H      3.496874    1.338773   -2.982098
  H      2.083491    1.694705   -3.958933

 Multiplicity           Mult            ....    1
 Number of Electrons    NEL             ....  154
 Basis Dimension        Dim             ....  339

ORBITAL ENERGIES
----------------

  NO   OCC          E(Eh)            E(eV)
   0   2.0000     -19.583508      -532.8943
   1   2.0000     -19.541001      -531.7377
   2   2.0000     -19.434147      -528.8300
   3   2.0000     -19.409325      -528.1546
   4   2.0000     -14.702083      -400.0640
   5   2.0000     -10.629511      -289.2437
   6   2.0000     -10.509838      -285.9872
   7   2.0000     -10.484809      -285.3062
   8   2.0000     -10.475620      -285.0561
   9   2.0000     -10.460087      -284.6334
  10   2.0000     -10.451887      -284.4103
  11   2.0000     -10.436018      -283.9785
  12   2.0000     -10.432778      -283.8903
  13   2.0000     -10.429107      -283.7904
  14   2.0000     -10.428411      -283.7715
  15   2.0000     -10.425249      -283.6854
  16   2.0000     -10.423700      -283.6433
  17   2.0000     -10.403219      -283.0860
  18   2.0000      -3.627072       -98.6976
  19   2.0000      -2.273956       -61.8775
  20   2.0000      -2.270517       -61.7839
  21   2.0000      -2.240201       -60.9590
  22   2.0000      -1.270942       -34.5841
  23   2.0000      -1.179441       -32.0942
  24   2.0000      -1.122258       -30.5382
  25   2.0000      -1.058327       -28.7986
  26   2.0000      -1.026529       -27.9333
  27   2.0000      -0.939051       -25.5529
  28   2.0000      -0.878904       -23.9162
  29   2.0000      -0.854267       -23.2458
  30   2.0000      -0.814339       -22.1593
  31   2.0000      -0.797232       -21.6938
  32   2.0000      -0.781218       -21.2580
  33   2.0000      -0.771714       -20.9994
  34   2.0000      -0.745020       -20.2730
  35   2.0000      -0.693039       -18.8585
  36   2.0000      -0.663220       -18.0471
  37   2.0000      -0.637637       -17.3510
  38   2.0000      -0.635412       -17.2904
  39   2.0000      -0.595122       -16.1941
  40   2.0000      -0.581904       -15.8344
  41   2.0000      -0.572215       -15.5708
  42   2.0000      -0.559677       -15.2296
  43   2.0000      -0.552129       -15.0242
  44   2.0000      -0.549394       -14.9498
  45   2.0000      -0.524914       -14.2836
  46   2.0000      -0.520157       -14.1542
  47   2.0000      -0.500127       -13.6091
  48   2.0000      -0.494658       -13.4603
  49   2.0000      -0.486662       -13.2427
  50   2.0000      -0.483449       -13.1553
  51   2.0000      -0.475753       -12.9459
  52   2.0000      -0.472998       -12.8709
  53   2.0000      -0.470917       -12.8143
  54   2.0000      -0.461866       -12.5680
  55   2.0000      -0.455906       -12.4058
  56   2.0000      -0.444367       -12.0918
  57   2.0000      -0.432753       -11.7758
  58   2.0000      -0.432114       -11.7584
  59   2.0000      -0.425287       -11.5726
  60   2.0000      -0.423474       -11.5233
  61   2.0000      -0.413316       -11.2469
  62   2.0000      -0.411885       -11.2079
  63   2.0000      -0.397889       -10.8271
  64   2.0000      -0.391690       -10.6584
  65   2.0000      -0.380438       -10.3522
  66   2.0000      -0.362434        -9.8623
  67   2.0000      -0.357909        -9.7392
  68   2.0000      -0.331519        -9.0211
  69   2.0000      -0.326711        -8.8903
  70   2.0000      -0.309059        -8.4099
  71   2.0000      -0.284498        -7.7416
  72   2.0000      -0.280655        -7.6370
  73   2.0000      -0.272652        -7.4192
  74   2.0000      -0.269805        -7.3418
  75   2.0000      -0.259267        -7.0550
  76   2.0000      -0.250884        -6.8269
  77   0.0000      -0.007251        -0.1973
  78   0.0000       0.016748         0.4557
  79   0.0000       0.031501         0.8572
  80   0.0000       0.036286         0.9874
  81   0.0000       0.057554         1.5661

MULLIKEN ATOMIC CHARGES
-----------------------
   0 Pd:    0.369688
   1 O :   -0.403973
   2 C :    0.665681
   3 O :   -0.522697
   4 C :   -0.796246
   5 H :    0.245812
   6 H :    0.281636
   7 H :    0.293730
   8 N :   -0.483849
   9 C :   -0.547228
  10 H :    0.318737
  11 H :    0.209928
  12 H :    0.278945
  13 C :   -0.521753
  14 H :    0.259880
  15 H :    0.214289
  16 H :    0.290575
  17 C :    0.083206
  18 C :   -0.281820
  19 C :   -0.233029
  20 C :   -0.216433
  21 C :   -0.297294
  22 C :   -0.077293
  23 H :    0.205952
  24 H :    0.215774
  25 H :    0.198139
  26 H :    0.208184
  27 H :    0.460854
  28 C :   -0.308303
  29 H :    0.261685
  30 H :    0.224418
  31 O :   -0.571153
  32 C :    0.544765
  33 O :   -0.487144
  34 C :   -0.746053
  35 H :    0.232840
  36 H :    0.210290
  37 H :    0.219261
Sum of atomic charges:   -0.0000000

LOEWDIN ATOMIC CHARGES
----------------------
   0 Pd:   -0.435211
   1 O :   -0.049356
   2 C :    0.212974
   3 O :   -0.205391
   4 C :   -0.387155
   5 H :    0.148626
   6 H :    0.173180
   7 H :    0.172814
   8 N :   -0.027266
   9 C :   -0.236445
  10 H :    0.174144
  11 H :    0.116238
  12 H :    0.155744
  13 C :   -0.232522
  14 H :    0.146991
  15 H :    0.118340
  16 H :    0.163240
  17 C :   -0.061225
  18 C :   -0.135453
  19 C :   -0.147549
  20 C :   -0.135982
  21 C :   -0.123501
  22 C :   -0.022436
  23 H :    0.130925
  24 H :    0.143742
  25 H :    0.130530
  26 H :    0.131331
  27 H :    0.347193
  28 C :   -0.102316
  29 H :    0.149819
  30 H :    0.126168
  31 O :   -0.250173
  32 C :    0.101744
  33 O :   -0.301167
  34 C :   -0.393987
  35 H :    0.135947
  36 H :    0.133721
  37 H :    0.133724

  Mayer bond orders larger than 0.100000
B(  0-Pd,  1-O ) :   0.3533 B(  0-Pd,  8-N ) :   0.4696 B(  0-Pd, 22-C ) :   0.9088
B(  0-Pd, 31-O ) :   0.4506 B(  1-O ,  2-C ) :   1.7281 B(  2-C ,  3-O ) :   1.1749
B(  2-C ,  4-C ) :   0.9609 B(  3-O , 27-H ) :   0.7485 B(  4-C ,  5-H ) :   0.9040
B(  4-C ,  6-H ) :   0.8858 B(  4-C ,  7-H ) :   0.8970 B(  8-N ,  9-C ) :   0.9106
B(  8-N , 13-C ) :   0.9230 B(  8-N , 28-C ) :   0.8903 B(  9-C , 10-H ) :   0.8584
B(  9-C , 11-H ) :   0.9071 B(  9-C , 12-H ) :   0.8912 B( 13-C , 14-H ) :   0.9070
B( 13-C , 15-H ) :   0.9047 B( 13-C , 16-H ) :   0.8812 B( 17-C , 18-C ) :   1.4082
B( 17-C , 22-C ) :   1.3310 B( 17-C , 28-C ) :   0.9714 B( 18-C , 19-C ) :   1.4245
B( 18-C , 25-H ) :   0.9281 B( 19-C , 20-C ) :   1.4350 B( 19-C , 26-H ) :   0.9217
B( 20-C , 21-C ) :   1.4105 B( 20-C , 23-H ) :   0.9221 B( 21-C , 22-C ) :   1.3983
B( 21-C , 24-H ) :   0.9156 B( 28-C , 29-H ) :   0.8939 B( 28-C , 30-H ) :   0.9049
B( 31-O , 32-C ) :   1.3599 B( 31-O , 33-O ) :   0.1055 B( 32-C , 33-O ) :   1.8490
B( 32-C , 34-C ) :   0.9226 B( 34-C , 35-H ) :   0.9233 B( 34-C , 36-H ) :   0.9253
B( 34-C , 37-H ) :   0.9218

Dispersion correction           -0.026767943
FINAL SINGLE POINT ENERGY      -988.554276085868

DIPOLE MOMENT
-------------
                                X             Y             Z
Electronic contribution:      6.48424       6.41446      -0.44140
Nuclear contribution   :     -6.61204      -4.12613       0.85509
                        -----------------------------------------
Total Dipole Moment    :     -0.12780       2.28833       0.41369
                        -----------------------------------------
Magnitude (a.u.)       :      2.32893
Magnitude (Debye)      :      5.91967

Rotational constants in cm-1:     0.015567     0.009072     0.006458
Rotational constants in MHz :   466.679444   271.959163   193.618355

                             ****ORCA TERMINATED NORMALLY****
TOTAL RUN TIME: 0 days 1 hours 20 minutes 6 seconds 708 msec
