                         Program Version 5.0.3 -  RELEASE  -
|  1> ! Opt PBEh-3c
|  2> %geom Constraints
|  3> { B 0 20 2.2142857142857144 C }
|  4> { B 24 30 1.3285714285714287 C }
|  5>     end
|  6> end
|  7> %output
|  8> xyzfile=True
|  9> end
| 10> %scf
| 11> maxiter 250
| 12> end
| 13> %output
| 14> Print[P_Hirshfeld] = 1
| 15> end
| 16> % maxcore
| 17> 4000
| 18> *xyz 1 1
| 19> Ir   0.60247507  -0.73363514   0.46443970
| 20> C    0.09800316  -2.83718919   0.37932732
| 21> C   -0.06502460  -2.36264294   1.72873225
| 22> C    2.15373371  -2.09748788   1.13168497
| 23> C    1.44985386  -2.67027004   0.01291992
| 24> C    1.21616420  -1.93774373   2.17994399
| 25> N   -1.05625386   0.11662725  -0.50692928
| 26> C   -2.33869414   0.32842096   0.18410258
| 27> C   -3.13210697   1.51490679  -0.34502088
| 28> H   -3.96739259   1.70716549   0.32660444
| 29> H   -3.56187179   1.33239715  -1.33087053
| 30> H   -2.53019454   2.42295414  -0.38648777
| 31> C   -3.16002820  -0.95506263   0.13540386
| 32> H   -2.07081055   0.53569172   1.22122079
| 33> H   -4.07699648  -0.83108073   0.71010873
| 34> H   -3.43997894  -1.20350933  -0.88916358
| 35> H   -2.62230755  -1.80270923   0.55692498
| 36> C   -0.89423237   0.44241939  -1.73613931
| 37> C    0.42570731   0.28620392  -2.27266873
| 38> H   -1.70749306   0.84579531  -2.33180510
| 39> C    1.50166963   0.16123213  -1.40247103
| 40> C    2.69723585  -0.09615169  -2.13184459
| 41> S    0.86317355   0.12984136  -3.90945191
| 42> C    2.49913495  -0.13091649  -3.48037199
| 43> H    1.64510381   1.16575186  -0.56986422
| 44> H    3.67423143  -0.19220332  -1.68099903
| 45> H    3.23851016  -0.27737474  -4.25310609
| 46> H   -0.67753501  -3.25092155  -0.24871920
| 47> H   -0.96582541  -2.39844453   2.32250191
| 48> H    1.42401860  -1.49577780   3.14427750
| 49> O    1.73390696   2.27904486   0.17576170
| 50> O    0.54265968   1.01195165   1.56381462
| 51> C    1.11878861   2.10037880   1.24478335
| 52> C    1.06539469   3.21490781   2.24663865
| 53> H    0.99702135   4.17784539   1.74604713
| 54> H    1.99205488   3.21515188   2.82334822
| 55> H    0.23700769   3.09202518   2.93882888
| 56> H    3.20926769  -1.87914871   1.18223988
| 57> H    1.88099912  -2.92925332  -0.94300209
| 58> *
| 59>
| 60>                          ****END OF INPUT****
 Total Charge           Charge          ....    1
 Multiplicity           Mult            ....    1
 Number of Electrons    NEL             ....  164
Dispersion correction           -0.030643285
FINAL SINGLE POINT ENERGY     -1288.403260492712
Dispersion correction            ... done
Dispersion correction           -0.030602058
FINAL SINGLE POINT ENERGY     -1288.403505539367
Dispersion correction            ... done
Dispersion correction           -0.030582718
FINAL SINGLE POINT ENERGY     -1288.403590672271
Dispersion correction            ... done
FINAL SINGLE POINT ENERGY     -1288.403645100022
FINAL SINGLE POINT ENERGY     -1288.403680781635
FINAL SINGLE POINT ENERGY     -1288.403694069416
FINAL SINGLE POINT ENERGY     -1288.403700818908
FINAL SINGLE POINT ENERGY     -1288.403704012559
FINAL SINGLE POINT ENERGY     -1288.403706905161
FINAL SINGLE POINT ENERGY     -1288.403711206262
FINAL SINGLE POINT ENERGY     -1288.403716448036
FINAL SINGLE POINT ENERGY     -1288.403721855166
Dispersion correction            ... done
Dispersion correction           -0.030515060
FINAL SINGLE POINT ENERGY     -1288.403726048815
Dispersion correction            ... done
Dispersion correction           -0.030516702
FINAL SINGLE POINT ENERGY     -1288.403728837540
Dispersion correction            ... done
                    ***********************HURRAY********************

CARTESIAN COORDINATES (ANGSTROEM)
---------------------------------
  Ir     0.603096   -0.736746    0.455228
  C      0.121262   -2.843770    0.367653
  C     -0.097465   -2.376624    1.712292
  C      2.138860   -2.080011    1.197604
  C      1.487365   -2.666329    0.057471
  C      1.154859   -1.932130    2.209611
  N     -1.064519    0.107618   -0.505824
  C     -2.346525    0.301874    0.190697
  C     -3.136495    1.506052   -0.302554
  H     -3.972819    1.678747    0.373003
  H     -3.563958    1.356601   -1.294926
  H     -2.531887    2.413179   -0.313720
  C     -3.170088   -0.978033    0.102589
  H     -2.079624    0.478202    1.233780
  H     -4.084492   -0.873125    0.685186
  H     -3.454321   -1.191805   -0.928588
  H     -2.630949   -1.840285    0.491661
  C     -0.908333    0.452890   -1.731040
  C      0.408338    0.299984   -2.272750
  H     -1.723725    0.866724   -2.316246
  C      1.471654    0.106999   -1.398623
  C      2.671571   -0.126301   -2.129514
  S      0.862131    0.234293   -3.910899
  C      2.487997   -0.077757   -3.480041
  H      1.651341    1.158678   -0.582251
  H      3.641956   -0.266348   -1.675787
  H      3.234123   -0.191384   -4.251823
  H     -0.622395   -3.272164   -0.288379
  H     -1.020946   -2.419708    2.269407
  H      1.318181   -1.484930    3.180082
  O      1.772166    2.266523    0.141063
  O      0.557720    1.029333    1.534906
  C      1.151192    2.103090    1.213665
  C      1.119906    3.230096    2.201439
  H      0.999472    4.182801    1.690416
  H      2.075782    3.266472    2.726770
  H      0.330786    3.096920    2.935786
  H      3.190175   -1.857030    1.293637
  H      1.957979   -2.923405   -0.880238

 Multiplicity           Mult            ....    1
 Number of Electrons    NEL             ....  164
 Basis Dimension        Dim             ....  358

ORBITAL ENERGIES
----------------

  NO   OCC          E(Eh)            E(eV)
   0   2.0000     -89.759448     -2442.4788
   1   2.0000     -19.637914      -534.3748
   2   2.0000     -19.625962      -534.0496
   3   2.0000     -14.831834      -403.5947
   4   2.0000     -10.700376      -291.1720
   5   2.0000     -10.653422      -289.8944
   6   2.0000     -10.627562      -289.1907
   7   2.0000     -10.625158      -289.1253
   8   2.0000     -10.624290      -289.1016
   9   2.0000     -10.620620      -289.0018
  10   2.0000     -10.617919      -288.9283
  11   2.0000     -10.614413      -288.8329
  12   2.0000     -10.612175      -288.7720
  13   2.0000     -10.607443      -288.6432
  14   2.0000     -10.587322      -288.0957
  15   2.0000     -10.584921      -288.0303
  16   2.0000     -10.552960      -287.1606
  17   2.0000     -10.549944      -287.0786
  18   2.0000     -10.546418      -286.9826
  19   2.0000      -8.398867      -228.5448
  20   2.0000      -6.288766      -171.1260
  21   2.0000      -6.285231      -171.0298
  22   2.0000      -6.283801      -170.9909
  23   2.0000      -4.021698      -109.4360
  24   2.0000      -2.339099       -63.6501
  25   2.0000      -2.307382       -62.7870
  26   2.0000      -2.304388       -62.7056
  27   2.0000      -1.329540       -36.1786
  28   2.0000      -1.230733       -33.4900
  29   2.0000      -1.204391       -32.7731
  30   2.0000      -1.162400       -31.6305
  31   2.0000      -1.123788       -30.5798
  32   2.0000      -1.022238       -27.8165
  33   2.0000      -0.975233       -26.5374
  34   2.0000      -0.968409       -26.3517
  35   2.0000      -0.964519       -26.2459
  36   2.0000      -0.956515       -26.0281
  37   2.0000      -0.942099       -25.6358
  38   2.0000      -0.899499       -24.4766
  39   2.0000      -0.869654       -23.6645
  40   2.0000      -0.795703       -21.6522
  41   2.0000      -0.779531       -21.2121
  42   2.0000      -0.778255       -21.1774
  43   2.0000      -0.777746       -21.1635
  44   2.0000      -0.765036       -20.8177
  45   2.0000      -0.762829       -20.7576
  46   2.0000      -0.740748       -20.1568
  47   2.0000      -0.721759       -19.6401
  48   2.0000      -0.693055       -18.8590
  49   2.0000      -0.683180       -18.5903
  50   2.0000      -0.662562       -18.0292
  51   2.0000      -0.662268       -18.0212
  52   2.0000      -0.649347       -17.6696
  53   2.0000      -0.638474       -17.3738
  54   2.0000      -0.631939       -17.1959
  55   2.0000      -0.629693       -17.1348
  56   2.0000      -0.621110       -16.9013
  57   2.0000      -0.608071       -16.5465
  58   2.0000      -0.598612       -16.2891
  59   2.0000      -0.597893       -16.2695
  60   2.0000      -0.596881       -16.2419
  61   2.0000      -0.589813       -16.0496
  62   2.0000      -0.576983       -15.7005
  63   2.0000      -0.569835       -15.5060
  64   2.0000      -0.563033       -15.3209
  65   2.0000      -0.560874       -15.2622
  66   2.0000      -0.556409       -15.1407
  67   2.0000      -0.545918       -14.8552
  68   2.0000      -0.541712       -14.7407
  69   2.0000      -0.534689       -14.5496
  70   2.0000      -0.528414       -14.3789
  71   2.0000      -0.517624       -14.0853
  72   2.0000      -0.512794       -13.9538
  73   2.0000      -0.502520       -13.6743
  74   2.0000      -0.497159       -13.5284
  75   2.0000      -0.480842       -13.0844
  76   2.0000      -0.478542       -13.0218
  77   2.0000      -0.449916       -12.2428
  78   2.0000      -0.445051       -12.1105
  79   2.0000      -0.417120       -11.3504
  80   2.0000      -0.415939       -11.3183
  81   2.0000      -0.395865       -10.7720
  82   0.0000      -0.199395        -5.4258
  83   0.0000      -0.142492        -3.8774
  84   0.0000      -0.137939        -3.7535
  85   0.0000      -0.084475        -2.2987
  86   0.0000      -0.072932        -1.9846

MULLIKEN ATOMIC CHARGES
-----------------------
   0 Ir:    0.602196
   1 C :   -0.239197
   2 C :   -0.267741
   3 C :   -0.264927
   4 C :   -0.225289
   5 C :   -0.156409
   6 N :   -0.438555
   7 C :   -0.125677
   8 C :   -0.681090
   9 H :    0.268687
  10 H :    0.224568
  11 H :    0.253601
  12 C :   -0.633573
  13 H :    0.277816
  14 H :    0.258653
  15 H :    0.232517
  16 H :    0.232157
  17 C :    0.069225
  18 C :   -0.135397
  19 H :    0.283783
  20 C :   -0.518064
  21 C :   -0.118823
  22 S :    0.334940
  23 C :   -0.425486
  24 H :    0.476829
  25 H :    0.264422
  26 H :    0.296699
  27 H :    0.286413
  28 H :    0.283218
  29 H :    0.298752
  30 O :   -0.487949
  31 O :   -0.507346
  32 C :    0.634440
  33 C :   -0.744444
  34 H :    0.274084
  35 H :    0.276228
  36 H :    0.262594
  37 H :    0.284093
  38 H :    0.294055
Sum of atomic charges:    1.0000000

LOEWDIN ATOMIC CHARGES
----------------------
   0 Ir:   -0.255175
   1 C :   -0.056517
   2 C :   -0.092513
   3 C :   -0.091675
   4 C :   -0.039194
   5 C :   -0.015870
   6 N :   -0.009555
   7 C :   -0.068997
   8 C :   -0.362103
   9 H :    0.155837
  10 H :    0.132739
  11 H :    0.143285
  12 C :   -0.344086
  13 H :    0.153855
  14 H :    0.150575
  15 H :    0.137911
  16 H :    0.132510
  17 C :    0.030674
  18 C :   -0.196890
  19 H :    0.159323
  20 C :   -0.217240
  21 C :   -0.133731
  22 S :    0.488145
  23 C :   -0.257739
  24 H :    0.355854
  25 H :    0.160819
  26 H :    0.168485
  27 H :    0.182711
  28 H :    0.180433
  29 H :    0.188810
  30 O :   -0.261234
  31 O :   -0.179273
  32 C :    0.168473
  33 C :   -0.371338
  34 H :    0.165655
  35 H :    0.172634
  36 H :    0.156249
  37 H :    0.182679
  38 H :    0.185476

  Mayer bond orders larger than 0.100000
B(  0-Ir,  1-C ) :   0.4400 B(  0-Ir,  2-C ) :   0.4367 B(  0-Ir,  3-C ) :   0.4659
B(  0-Ir,  4-C ) :   0.4339 B(  0-Ir,  5-C ) :   0.3853 B(  0-Ir,  6-N ) :   0.4666
B(  0-Ir, 20-C ) :   0.4393 B(  0-Ir, 31-O ) :   0.5186 B(  1-C ,  2-C ) :   1.1265
B(  1-C ,  4-C ) :   1.2261 B(  1-C , 27-H ) :   0.9074 B(  2-C ,  5-C ) :   1.1936
B(  2-C , 28-H ) :   0.9102 B(  3-C ,  4-C ) :   1.1335 B(  3-C ,  5-C ) :   1.1853
B(  3-C , 37-H ) :   0.9118 B(  4-C , 38-H ) :   0.9000 B(  5-C , 29-H ) :   0.9007
B(  6-N ,  7-C ) :   0.8955 B(  6-N , 17-C ) :   1.6476 B(  7-C ,  8-C ) :   0.9905
B(  7-C , 12-C ) :   0.9672 B(  7-C , 13-H ) :   0.8781 B(  8-C ,  9-H ) :   0.9049
B(  8-C , 10-H ) :   0.9131 B(  8-C , 11-H ) :   0.9123 B( 12-C , 14-H ) :   0.9079
B( 12-C , 15-H ) :   0.9154 B( 12-C , 16-H ) :   0.9125 B( 17-C , 18-C ) :   1.1127
B( 17-C , 19-H ) :   0.8765 B( 18-C , 20-C ) :   1.2508 B( 18-C , 22-S ) :   1.2264
B( 20-C , 21-C ) :   1.2875 B( 20-C , 24-H ) :   0.3334 B( 21-C , 23-C ) :   1.5357
B( 21-C , 25-H ) :   0.9037 B( 22-S , 23-C ) :   1.2237 B( 23-C , 26-H ) :   0.8916
B( 24-H , 30-O ) :   0.3496 B( 30-O , 32-C ) :   1.5494 B( 31-O , 32-C ) :   1.3876
B( 32-C , 33-C ) :   0.9464 B( 33-C , 34-H ) :   0.8992 B( 33-C , 35-H ) :   0.8928
B( 33-C , 36-H ) :   0.9079

Dispersion correction           -0.030518941
FINAL SINGLE POINT ENERGY     -1288.403730877668

DIPOLE MOMENT
-------------
                                X             Y             Z
Electronic contribution:     36.57633     -73.75776      74.41031
Nuclear contribution   :    -37.16646      73.26863     -74.55383
                        -----------------------------------------
Total Dipole Moment    :     -0.59013      -0.48913      -0.14352
                        -----------------------------------------
Magnitude (a.u.)       :      0.77981
Magnitude (Debye)      :      1.98211

Rotational constants in cm-1:     0.010549     0.008723     0.008159
Rotational constants in MHz :   316.260567   261.508043   244.602224

                             ****ORCA TERMINATED NORMALLY****
TOTAL RUN TIME: 0 days 1 hours 58 minutes 34 seconds 148 msec
