                         Program Version 5.0.3 -  RELEASE  -
|  1> ! Opt PBEh-3c
|  2> %geom Constraints
|  3> { B 0 20 2.342857142857143 C }
|  4> { B 24 30 1.4428571428571428 C }
|  5>     end
|  6> end
|  7> %output
|  8> xyzfile=True
|  9> end
| 10> %scf
| 11> maxiter 250
| 12> end
| 13> %output
| 14> Print[P_Hirshfeld] = 1
| 15> end
| 16> % maxcore
| 17> 4000
| 18> *xyz 1 1
| 19> Ir   0.60377345  -0.71321524   0.44105607
| 20> C    0.05527976  -2.80202217   0.34795055
| 21> C    0.11014858  -2.34609736   1.71358988
| 22> C    2.21190097  -2.11921136   0.79436320
| 23> C    1.33042851  -2.64171329  -0.22506899
| 24> C    1.46772028  -1.97223477   1.98003376
| 25> N   -1.04686841   0.16256361  -0.52426624
| 26> C   -2.31518191   0.47466217   0.15258826
| 27> C   -3.11747308   1.56811033  -0.53459543
| 28> H   -3.94377684   1.85831632   0.11292409
| 29> H   -3.56179248   1.24256202  -1.47651755
| 30> H   -2.51900804   2.46122012  -0.71658752
| 31> C   -3.13025961  -0.80210319   0.32045570
| 32> H   -2.02059461   0.83184965   1.14056769
| 33> H   -4.04087395  -0.58366724   0.87623513
| 34> H   -3.42078908  -1.21676582  -0.64568603
| 35> H   -2.58638736  -1.56444334   0.87636219
| 36> C   -0.86081221   0.37898058  -1.76933486
| 37> C    0.48529689   0.16241468  -2.24642024
| 38> H   -1.64864651   0.74111177  -2.42329264
| 39> C    1.57673841   0.41784803  -1.42057432
| 40> C    2.78671841   0.02389976  -2.06368664
| 41> S    0.92657038  -0.51163919  -3.74545204
| 42> C    2.58740606  -0.48749981  -3.30727921
| 43> H    1.52550398   1.32775497  -0.65933692
| 44> H    3.76816627   0.16732685  -1.63558705
| 45> H    3.32975175  -0.83173211  -4.01141449
| 46> H   -0.82304022  -3.17238857  -0.16098882
| 47> H   -0.69198798  -2.37676833   2.43597256
| 48> H    1.83562360  -1.56775338   2.91209209
| 49> O    1.33878436   2.46010068   0.23854631
| 50> O    0.53390783   0.92916676   1.64550370
| 51> C    0.92114609   2.12210225   1.34487218
| 52> C    0.86164035   3.10577952   2.47980083
| 53> H    0.82883012   4.12499557   2.10469767
| 54> H    1.76264991   3.00212272   3.08758799
| 55> H    0.01017072   2.91966397   3.13100382
| 56> H    3.26105126  -1.89529500   0.67236412
| 57> H    1.60765430  -2.87881215  -1.24173878
| 58> *
| 59>
| 60>                          ****END OF INPUT****
 Total Charge           Charge          ....    1
 Multiplicity           Mult            ....    1
 Number of Electrons    NEL             ....  164
Dispersion correction           -0.031041071
FINAL SINGLE POINT ENERGY     -1288.399760994622
Dispersion correction            ... done
Dispersion correction           -0.031088075
FINAL SINGLE POINT ENERGY     -1288.397970818696
Dispersion correction            ... done
Dispersion correction           -0.031009667
FINAL SINGLE POINT ENERGY     -1288.399887762685
Dispersion correction            ... done
FINAL SINGLE POINT ENERGY     -1288.398457892589
FINAL SINGLE POINT ENERGY     -1288.399958785499
FINAL SINGLE POINT ENERGY     -1288.399979532082
FINAL SINGLE POINT ENERGY     -1288.400010488971
FINAL SINGLE POINT ENERGY     -1288.400027125150
FINAL SINGLE POINT ENERGY     -1288.400038478234
Dispersion correction            ... done
Dispersion correction           -0.030887764
FINAL SINGLE POINT ENERGY     -1288.400046466082
Dispersion correction            ... done
Dispersion correction           -0.030885851
FINAL SINGLE POINT ENERGY     -1288.400046451117
Dispersion correction            ... done
                    ***********************HURRAY********************

CARTESIAN COORDINATES (ANGSTROEM)
---------------------------------
  Ir     0.607066   -0.714266    0.443793
  C      0.059417   -2.806012    0.359259
  C      0.090067   -2.345442    1.722994
  C      2.208057   -2.118651    0.837895
  C      1.344718   -2.648274   -0.192802
  C      1.440641   -1.965236    2.009057
  N     -1.045657    0.154292   -0.524543
  C     -2.315306    0.451572    0.157110
  C     -3.113783    1.564967   -0.502517
  H     -3.939796    1.841164    0.151452
  H     -3.558173    1.264426   -1.452578
  H     -2.512096    2.460194   -0.661677
  C     -3.134480   -0.827082    0.288589
  H     -2.023253    0.781623    1.155173
  H     -4.045916   -0.621698    0.848081
  H     -3.423681   -1.214691   -0.689102
  H     -2.593471   -1.605771    0.824061
  C     -0.867032    0.384853   -1.769315
  C      0.474478    0.180620   -2.257335
  H     -1.661399    0.750408   -2.413200
  C      1.560274    0.364482   -1.404633
  C      2.771092   -0.004776   -2.060704
  S      0.920928   -0.400216   -3.791583
  C      2.576664   -0.429849   -3.337722
  H      1.528491    1.292456   -0.641303
  H      3.750582    0.095554   -1.616184
  H      3.321170   -0.737964   -4.056150
  H     -0.808826   -3.181126   -0.163288
  H     -0.724472   -2.373336    2.431315
  H      1.791416   -1.554366    2.944966
  O      1.381696    2.440939    0.219669
  O      0.534344    0.942613    1.635315
  C      0.942845    2.123386    1.326339
  C      0.886079    3.126156    2.443899
  H      0.864410    4.139570    2.052638
  H      1.783292    3.024073    3.057523
  H      0.029548    2.957170    3.092949
  H      3.260188   -1.899217    0.735918
  H      1.639247   -2.893355   -1.202620

 Multiplicity           Mult            ....    1
 Number of Electrons    NEL             ....  164
 Basis Dimension        Dim             ....  358

ORBITAL ENERGIES
----------------

  NO   OCC          E(Eh)            E(eV)
   0   2.0000     -89.765650     -2442.6475
   1   2.0000     -19.623133      -533.9726
   2   2.0000     -19.591606      -533.1147
   3   2.0000     -14.840295      -403.8250
   4   2.0000     -10.680963      -290.6438
   5   2.0000     -10.661186      -290.1056
   6   2.0000     -10.634451      -289.3781
   7   2.0000     -10.633598      -289.3549
   8   2.0000     -10.631835      -289.3069
   9   2.0000     -10.628132      -289.2062
  10   2.0000     -10.628056      -289.2041
  11   2.0000     -10.627001      -289.1754
  12   2.0000     -10.615284      -288.8566
  13   2.0000     -10.611530      -288.7544
  14   2.0000     -10.587731      -288.1068
  15   2.0000     -10.585291      -288.0404
  16   2.0000     -10.556464      -287.2560
  17   2.0000     -10.551693      -287.1262
  18   2.0000     -10.533465      -286.6301
  19   2.0000      -8.405032      -228.7125
  20   2.0000      -6.295001      -171.2957
  21   2.0000      -6.291370      -171.1969
  22   2.0000      -6.289914      -171.1573
  23   2.0000      -4.027120      -109.5835
  24   2.0000      -2.345744       -63.8309
  25   2.0000      -2.312069       -62.9146
  26   2.0000      -2.310674       -62.8766
  27   2.0000      -1.306207       -35.5437
  28   2.0000      -1.213050       -33.0088
  29   2.0000      -1.208594       -32.8875
  30   2.0000      -1.170165       -31.8418
  31   2.0000      -1.129194       -30.7269
  32   2.0000      -1.027159       -27.9504
  33   2.0000      -0.984371       -26.7861
  34   2.0000      -0.975436       -26.5430
  35   2.0000      -0.968550       -26.3556
  36   2.0000      -0.961394       -26.1609
  37   2.0000      -0.927268       -25.2322
  38   2.0000      -0.902773       -24.5657
  39   2.0000      -0.874714       -23.8022
  40   2.0000      -0.799343       -21.7512
  41   2.0000      -0.786159       -21.3925
  42   2.0000      -0.785335       -21.3701
  43   2.0000      -0.782407       -21.2904
  44   2.0000      -0.770248       -20.9595
  45   2.0000      -0.755293       -20.5526
  46   2.0000      -0.743634       -20.2353
  47   2.0000      -0.723448       -19.6860
  48   2.0000      -0.692780       -18.8515
  49   2.0000      -0.675010       -18.3680
  50   2.0000      -0.665249       -18.1023
  51   2.0000      -0.650189       -17.6925
  52   2.0000      -0.647136       -17.6095
  53   2.0000      -0.638369       -17.3709
  54   2.0000      -0.635653       -17.2970
  55   2.0000      -0.629408       -17.1271
  56   2.0000      -0.623001       -16.9527
  57   2.0000      -0.612626       -16.6704
  58   2.0000      -0.605944       -16.4886
  59   2.0000      -0.605300       -16.4710
  60   2.0000      -0.599328       -16.3085
  61   2.0000      -0.590559       -16.0699
  62   2.0000      -0.580037       -15.7836
  63   2.0000      -0.572199       -15.5703
  64   2.0000      -0.564069       -15.3491
  65   2.0000      -0.556158       -15.1338
  66   2.0000      -0.552028       -15.0214
  67   2.0000      -0.548416       -14.9232
  68   2.0000      -0.539759       -14.6876
  69   2.0000      -0.536342       -14.5946
  70   2.0000      -0.527966       -14.3667
  71   2.0000      -0.519799       -14.1444
  72   2.0000      -0.515460       -14.0264
  73   2.0000      -0.503073       -13.6893
  74   2.0000      -0.488337       -13.2883
  75   2.0000      -0.481233       -13.0950
  76   2.0000      -0.471027       -12.8173
  77   2.0000      -0.446720       -12.1559
  78   2.0000      -0.442455       -12.0398
  79   2.0000      -0.423669       -11.5286
  80   2.0000      -0.417024       -11.3478
  81   2.0000      -0.401678       -10.9302
  82   0.0000      -0.204053        -5.5526
  83   0.0000      -0.156373        -4.2551
  84   0.0000      -0.141526        -3.8511
  85   0.0000      -0.096601        -2.6287
  86   0.0000      -0.076433        -2.0798

MULLIKEN ATOMIC CHARGES
-----------------------
   0 Ir:    0.609401
   1 C :   -0.212186
   2 C :   -0.283140
   3 C :   -0.240663
   4 C :   -0.245851
   5 C :   -0.164300
   6 N :   -0.426481
   7 C :   -0.122868
   8 C :   -0.690352
   9 H :    0.271750
  10 H :    0.224864
  11 H :    0.260311
  12 C :   -0.636967
  13 H :    0.282904
  14 H :    0.263603
  15 H :    0.230863
  16 H :    0.232449
  17 C :    0.071485
  18 C :   -0.167552
  19 H :    0.290873
  20 C :   -0.488079
  21 C :   -0.119153
  22 S :    0.316492
  23 C :   -0.432682
  24 H :    0.495476
  25 H :    0.267266
  26 H :    0.298419
  27 H :    0.289983
  28 H :    0.290392
  29 H :    0.304935
  30 O :   -0.477621
  31 O :   -0.536790
  32 C :    0.616139
  33 C :   -0.744617
  34 H :    0.269259
  35 H :    0.266166
  36 H :    0.253025
  37 H :    0.290189
  38 H :    0.293054
Sum of atomic charges:    1.0000000

LOEWDIN ATOMIC CHARGES
----------------------
   0 Ir:   -0.234879
   1 C :   -0.040785
   2 C :   -0.072197
   3 C :   -0.060102
   4 C :   -0.057223
   5 C :   -0.021614
   6 N :   -0.002325
   7 C :   -0.069456
   8 C :   -0.364007
   9 H :    0.157230
  10 H :    0.133265
  11 H :    0.146654
  12 C :   -0.343461
  13 H :    0.157014
  14 H :    0.152770
  15 H :    0.137182
  16 H :    0.133774
  17 C :    0.033246
  18 C :   -0.177599
  19 H :    0.162707
  20 C :   -0.200909
  21 C :   -0.129698
  22 S :    0.481469
  23 C :   -0.263086
  24 H :    0.300998
  25 H :    0.163008
  26 H :    0.168668
  27 H :    0.184289
  28 H :    0.184671
  29 H :    0.192666
  30 O :   -0.274148
  31 O :   -0.205751
  32 C :    0.152864
  33 C :   -0.375695
  34 H :    0.159572
  35 H :    0.167002
  36 H :    0.153262
  37 H :    0.185424
  38 H :    0.185197

  Mayer bond orders larger than 0.100000
B(  0-Ir,  1-C ) :   0.4176 B(  0-Ir,  2-C ) :   0.5043 B(  0-Ir,  3-C ) :   0.4606
B(  0-Ir,  4-C ) :   0.4478 B(  0-Ir,  5-C ) :   0.4002 B(  0-Ir,  6-N ) :   0.4623
B(  0-Ir, 20-C ) :   0.3037 B(  0-Ir, 31-O ) :   0.5734 B(  1-C ,  2-C ) :   1.1240
B(  1-C ,  4-C ) :   1.2434 B(  1-C , 27-H ) :   0.9039 B(  2-C ,  5-C ) :   1.1443
B(  2-C , 28-H ) :   0.9084 B(  3-C ,  4-C ) :   1.1089 B(  3-C ,  5-C ) :   1.2267
B(  3-C , 37-H ) :   0.9066 B(  4-C , 38-H ) :   0.9007 B(  5-C , 29-H ) :   0.8984
B(  6-N ,  7-C ) :   0.8922 B(  6-N , 17-C ) :   1.6821 B(  7-C ,  8-C ) :   0.9915
B(  7-C , 12-C ) :   0.9682 B(  7-C , 13-H ) :   0.8720 B(  8-C ,  9-H ) :   0.9038
B(  8-C , 10-H ) :   0.9128 B(  8-C , 11-H ) :   0.9086 B( 12-C , 14-H ) :   0.9066
B( 12-C , 15-H ) :   0.9155 B( 12-C , 16-H ) :   0.9118 B( 17-C , 18-C ) :   1.0666
B( 17-C , 19-H ) :   0.8746 B( 18-C , 20-C ) :   1.2722 B( 18-C , 22-S ) :   1.2432
B( 20-C , 21-C ) :   1.2602 B( 20-C , 24-H ) :   0.4571 B( 21-C , 23-C ) :   1.5514
B( 21-C , 25-H ) :   0.9038 B( 22-S , 23-C ) :   1.2028 B( 23-C , 26-H ) :   0.8916
B( 24-H , 30-O ) :   0.2554 B( 30-O , 32-C ) :   1.6830 B( 31-O , 32-C ) :   1.2858
B( 32-C , 33-C ) :   0.9456 B( 33-C , 34-H ) :   0.9050 B( 33-C , 35-H ) :   0.8988
B( 33-C , 36-H ) :   0.9095

Dispersion correction           -0.030884326
FINAL SINGLE POINT ENERGY     -1288.400047358005

DIPOLE MOMENT
-------------
                                X             Y             Z
Electronic contribution:     36.98313     -68.02451      72.30564
Nuclear contribution   :    -37.60804      66.88429     -72.67246
                        -----------------------------------------
Total Dipole Moment    :     -0.62491      -1.14022      -0.36682
                        -----------------------------------------
Magnitude (a.u.)       :      1.35099
Magnitude (Debye)      :      3.43394

Rotational constants in cm-1:     0.010654     0.009105     0.008237
Rotational constants in MHz :   319.407270   272.964310   246.930459

                             ****ORCA TERMINATED NORMALLY****
TOTAL RUN TIME: 0 days 1 hours 31 minutes 31 seconds 251 msec
