                         Program Version 5.0.3 -  RELEASE  -
|  1> ! Opt PBEh-3c
|  2> %geom Constraints
|  3> { B 0 20 2.3 C }
|  4> { B 24 30 1.4142857142857144 C }
|  5>     end
|  6> end
|  7> %output
|  8> xyzfile=True
|  9> end
| 10> %scf
| 11> maxiter 250
| 12> end
| 13> %output
| 14> Print[P_Hirshfeld] = 1
| 15> end
| 16> % maxcore
| 17> 4000
| 18> *xyz 1 1
| 19> Ir   0.60948515  -0.71715377   0.45030129
| 20> C    0.07729558  -2.81284124   0.34950234
| 21> C    0.06440527  -2.35277252   1.71401773
| 22> C    2.20732911  -2.11079543   0.89317478
| 23> C    1.37821998  -2.64677144  -0.16173599
| 24> C    1.40210872  -1.96374120   2.04049705
| 25> N   -1.04445238   0.14737535  -0.51743351
| 26> C   -2.31438392   0.43481492   0.16843509
| 27> C   -3.10102061   1.57402390  -0.46129671
| 28> H   -3.92668978   1.83925176   0.19761358
| 29> H   -3.54461795   1.30396845  -1.42068601
| 30> H   -2.49006315   2.46720711  -0.59382162
| 31> C   -3.14347263  -0.84123768   0.25744460
| 32> H   -2.02454873   0.73275588   1.17706346
| 33> H   -4.05200774  -0.64987072   0.82658880
| 34> H   -3.43784626  -1.19177628  -0.73262847
| 35> H   -2.60593560  -1.64285295   0.76178635
| 36> C   -0.87296764   0.38164902  -1.76291763
| 37> C    0.46482492   0.18309257  -2.26155160
| 38> H   -1.67311181   0.74657644  -2.40007958
| 39> C    1.55469600   0.34690578  -1.41070201
| 40> C    2.76112890  -0.01266691  -2.07956354
| 41> S    0.90223667  -0.36620278  -3.81025168
| 42> C    2.55937319  -0.41007439  -3.36472234
| 43> H    1.53314617   1.28024327  -0.63961102
| 44> H    3.74323846   0.07471659  -1.63815555
| 45> H    3.30011434  -0.70525962  -4.09240022
| 46> H   -0.77150515  -3.19592251  -0.19852200
| 47> H   -0.77056509  -2.38700108   2.39786646
| 48> H    1.72077994  -1.54977971   2.98657368
| 49> O    1.40600944   2.42683708   0.20298925
| 50> O    0.54043648   0.94983945   1.62926005
| 51> C    0.95807862   2.12362978   1.31135514
| 52> C    0.90091504   3.14074255   2.41541458
| 53> H    0.86495275   4.14854271   2.01073312
| 54> H    1.80594270   3.05711422   3.02028243
| 55> H    0.05272415   2.97134220   3.07497213
| 56> H    3.26130315  -1.88783486   0.82421090
| 57> H    1.70381382  -2.88688398  -1.16326327
| 58> *
| 59>
| 60>                          ****END OF INPUT****
 Total Charge           Charge          ....    1
 Multiplicity           Mult            ....    1
 Number of Electrons    NEL             ....  164
Dispersion correction           -0.030948387
FINAL SINGLE POINT ENERGY     -1288.400049373554
Dispersion correction            ... done
Dispersion correction           -0.031019557
FINAL SINGLE POINT ENERGY     -1288.397179748801
Dispersion correction            ... done
Dispersion correction           -0.030923676
FINAL SINGLE POINT ENERGY     -1288.400206901308
Dispersion correction            ... done
FINAL SINGLE POINT ENERGY     -1288.398729763958
FINAL SINGLE POINT ENERGY     -1288.400278896972
FINAL SINGLE POINT ENERGY     -1288.400313338317
FINAL SINGLE POINT ENERGY     -1288.400337903419
Dispersion correction            ... done
Dispersion correction           -0.030807986
FINAL SINGLE POINT ENERGY     -1288.400360237290
Dispersion correction            ... done
Dispersion correction           -0.030792591
FINAL SINGLE POINT ENERGY     -1288.400360542748
Dispersion correction            ... done
                    ***********************HURRAY********************

CARTESIAN COORDINATES (ANGSTROEM)
---------------------------------
  Ir     0.610559   -0.719897    0.450066
  C      0.071290   -2.816160    0.367582
  C      0.047696   -2.350642    1.728896
  C      2.198683   -2.116157    0.922879
  C      1.377697   -2.657846   -0.134649
  C      1.381500   -1.958214    2.061564
  N     -1.044797    0.140232   -0.520960
  C     -2.316045    0.415360    0.167844
  C     -3.107666    1.559821   -0.446578
  H     -3.934096    1.812399    0.216318
  H     -3.550739    1.300810   -1.409218
  H     -2.501033    2.457600   -0.567456
  C     -3.142900   -0.863265    0.240959
  H     -2.027910    0.702040    1.180275
  H     -4.053071   -0.679917    0.810227
  H     -3.434563   -1.203110   -0.753621
  H     -2.605354   -1.669668    0.737284
  C     -0.875933    0.393350   -1.764180
  C      0.458470    0.204747   -2.269362
  H     -1.678698    0.766962   -2.392696
  C      1.538781    0.292088   -1.395006
  C      2.748598   -0.037131   -2.073790
  S      0.906390   -0.242854   -3.846164
  C      2.556863   -0.340092   -3.386432
  H      1.541110    1.247476   -0.621655
  H      3.726643    0.005111   -1.616994
  H      3.302439   -0.593828   -4.124668
  H     -0.773277   -3.200881   -0.185812
  H     -0.793097   -2.378465    2.405661
  H      1.692973   -1.537564    3.007123
  O      1.460471    2.402353    0.190724
  O      0.540221    0.960958    1.617949
  C      0.984524    2.120486    1.296105
  C      0.927143    3.156438    2.381805
  H      0.912499    4.158256    1.961311
  H      1.821815    3.068245    3.001182
  H      0.066661    3.009459    3.030612
  H      3.254679   -1.900273    0.864468
  H      1.710844   -2.909039   -1.130850

 Multiplicity           Mult            ....    1
 Number of Electrons    NEL             ....  164
 Basis Dimension        Dim             ....  358

ORBITAL ENERGIES
----------------

  NO   OCC          E(Eh)            E(eV)
   0   2.0000     -89.764535     -2442.6172
   1   2.0000     -19.626287      -534.0584
   2   2.0000     -19.599434      -533.3277
   3   2.0000     -14.838394      -403.7732
   4   2.0000     -10.685361      -290.7635
   5   2.0000     -10.659306      -290.0545
   6   2.0000     -10.632079      -289.3136
   7   2.0000     -10.630822      -289.2794
   8   2.0000     -10.630467      -289.2697
   9   2.0000     -10.626887      -289.1723
  10   2.0000     -10.625015      -289.1214
  11   2.0000     -10.623773      -289.0876
  12   2.0000     -10.614512      -288.8355
  13   2.0000     -10.610548      -288.7277
  14   2.0000     -10.587248      -288.0937
  15   2.0000     -10.585392      -288.0432
  16   2.0000     -10.555678      -287.2346
  17   2.0000     -10.551263      -287.1145
  18   2.0000     -10.536466      -286.7118
  19   2.0000      -8.403944      -228.6830
  20   2.0000      -6.293875      -171.2651
  21   2.0000      -6.290274      -171.1671
  22   2.0000      -6.288866      -171.1287
  23   2.0000      -4.025595      -109.5420
  24   2.0000      -2.343969       -63.7826
  25   2.0000      -2.310639       -62.8757
  26   2.0000      -2.308962       -62.8300
  27   2.0000      -1.311537       -35.6887
  28   2.0000      -1.214192       -33.0398
  29   2.0000      -1.210119       -32.9290
  30   2.0000      -1.168104       -31.7857
  31   2.0000      -1.127946       -30.6930
  32   2.0000      -1.025935       -27.9171
  33   2.0000      -0.981921       -26.7194
  34   2.0000      -0.973524       -26.4909
  35   2.0000      -0.967738       -26.3335
  36   2.0000      -0.960235       -26.1293
  37   2.0000      -0.930748       -25.3269
  38   2.0000      -0.901911       -24.5423
  39   2.0000      -0.873629       -23.7726
  40   2.0000      -0.798760       -21.7354
  41   2.0000      -0.784025       -21.3344
  42   2.0000      -0.783574       -21.3221
  43   2.0000      -0.781477       -21.2651
  44   2.0000      -0.768309       -20.9067
  45   2.0000      -0.756551       -20.5868
  46   2.0000      -0.743106       -20.2210
  47   2.0000      -0.722992       -19.6736
  48   2.0000      -0.691797       -18.8248
  49   2.0000      -0.677938       -18.4476
  50   2.0000      -0.664380       -18.0787
  51   2.0000      -0.650905       -17.7120
  52   2.0000      -0.647677       -17.6242
  53   2.0000      -0.636825       -17.3289
  54   2.0000      -0.635874       -17.3030
  55   2.0000      -0.631189       -17.1755
  56   2.0000      -0.622583       -16.9414
  57   2.0000      -0.611647       -16.6438
  58   2.0000      -0.603935       -16.4339
  59   2.0000      -0.603337       -16.4176
  60   2.0000      -0.598884       -16.2964
  61   2.0000      -0.590558       -16.0699
  62   2.0000      -0.579290       -15.7633
  63   2.0000      -0.570423       -15.5220
  64   2.0000      -0.563392       -15.3307
  65   2.0000      -0.558984       -15.2107
  66   2.0000      -0.551830       -15.0161
  67   2.0000      -0.548285       -14.9196
  68   2.0000      -0.540294       -14.7022
  69   2.0000      -0.536170       -14.5899
  70   2.0000      -0.528086       -14.3699
  71   2.0000      -0.519114       -14.1258
  72   2.0000      -0.514707       -14.0059
  73   2.0000      -0.502097       -13.6627
  74   2.0000      -0.490113       -13.3367
  75   2.0000      -0.480750       -13.0819
  76   2.0000      -0.473133       -12.8746
  77   2.0000      -0.446396       -12.1471
  78   2.0000      -0.444206       -12.0875
  79   2.0000      -0.421913       -11.4808
  80   2.0000      -0.417216       -11.3530
  81   2.0000      -0.400096       -10.8872
  82   0.0000      -0.204080        -5.5533
  83   0.0000      -0.151723        -4.1286
  84   0.0000      -0.141431        -3.8485
  85   0.0000      -0.092636        -2.5208
  86   0.0000      -0.075008        -2.0411

MULLIKEN ATOMIC CHARGES
-----------------------
   0 Ir:    0.608245
   1 C :   -0.216726
   2 C :   -0.278991
   3 C :   -0.246510
   4 C :   -0.242192
   5 C :   -0.162974
   6 N :   -0.429625
   7 C :   -0.124950
   8 C :   -0.687397
   9 H :    0.270738
  10 H :    0.224728
  11 H :    0.258838
  12 C :   -0.635753
  13 H :    0.282309
  14 H :    0.262377
  15 H :    0.231251
  16 H :    0.232015
  17 C :    0.071117
  18 C :   -0.154373
  19 H :    0.288819
  20 C :   -0.503404
  21 C :   -0.117759
  22 S :    0.323943
  23 C :   -0.431489
  24 H :    0.490098
  25 H :    0.265976
  26 H :    0.298022
  27 H :    0.288903
  28 H :    0.288543
  29 H :    0.303653
  30 O :   -0.479406
  31 O :   -0.530625
  32 C :    0.621362
  33 C :   -0.744421
  34 H :    0.270435
  35 H :    0.268300
  36 H :    0.255199
  37 H :    0.288478
  38 H :    0.293249
Sum of atomic charges:    1.0000000

LOEWDIN ATOMIC CHARGES
----------------------
   0 Ir:   -0.240533
   1 C :   -0.043555
   2 C :   -0.078996
   3 C :   -0.067782
   4 C :   -0.054066
   5 C :   -0.019273
   6 N :   -0.003936
   7 C :   -0.069653
   8 C :   -0.363455
   9 H :    0.156817
  10 H :    0.133103
  11 H :    0.145886
  12 C :   -0.343578
  13 H :    0.156454
  14 H :    0.152259
  15 H :    0.137319
  16 H :    0.133278
  17 C :    0.032382
  18 C :   -0.180840
  19 H :    0.161769
  20 C :   -0.208453
  21 C :   -0.128624
  22 S :    0.485620
  23 C :   -0.261808
  24 H :    0.315569
  25 H :    0.162418
  26 H :    0.168660
  27 H :    0.183701
  28 H :    0.183604
  29 H :    0.191851
  30 O :   -0.271439
  31 O :   -0.200147
  32 C :    0.156615
  33 C :   -0.374421
  34 H :    0.160552
  35 H :    0.168352
  36 H :    0.154321
  37 H :    0.184670
  38 H :    0.185356

  Mayer bond orders larger than 0.100000
B(  0-Ir,  1-C ) :   0.4191 B(  0-Ir,  2-C ) :   0.4886 B(  0-Ir,  3-C ) :   0.4601
B(  0-Ir,  4-C ) :   0.4458 B(  0-Ir,  5-C ) :   0.3988 B(  0-Ir,  6-N ) :   0.4638
B(  0-Ir, 20-C ) :   0.3379 B(  0-Ir, 31-O ) :   0.5602 B(  1-C ,  2-C ) :   1.1263
B(  1-C ,  4-C ) :   1.2409 B(  1-C , 27-H ) :   0.9046 B(  2-C ,  5-C ) :   1.1518
B(  2-C , 28-H ) :   0.9091 B(  3-C ,  4-C ) :   1.1127 B(  3-C ,  5-C ) :   1.2202
B(  3-C , 37-H ) :   0.9082 B(  4-C , 38-H ) :   0.9010 B(  5-C , 29-H ) :   0.8988
B(  6-N ,  7-C ) :   0.8929 B(  6-N , 17-C ) :   1.6716 B(  7-C ,  8-C ) :   0.9911
B(  7-C , 12-C ) :   0.9677 B(  7-C , 13-H ) :   0.8733 B(  8-C ,  9-H ) :   0.9041
B(  8-C , 10-H ) :   0.9130 B(  8-C , 11-H ) :   0.9095 B( 12-C , 14-H ) :   0.9069
B( 12-C , 15-H ) :   0.9156 B( 12-C , 16-H ) :   0.9121 B( 17-C , 18-C ) :   1.0807
B( 17-C , 19-H ) :   0.8753 B( 18-C , 20-C ) :   1.2629 B( 18-C , 22-S ) :   1.2430
B( 20-C , 21-C ) :   1.2676 B( 20-C , 24-H ) :   0.4275 B( 21-C , 23-C ) :   1.5496
B( 21-C , 25-H ) :   0.9041 B( 22-S , 23-C ) :   1.2068 B( 23-C , 26-H ) :   0.8915
B( 24-H , 30-O ) :   0.2763 B( 30-O , 32-C ) :   1.6525 B( 31-O , 32-C ) :   1.3077
B( 32-C , 33-C ) :   0.9460 B( 33-C , 34-H ) :   0.9040 B( 33-C , 35-H ) :   0.8974
B( 33-C , 36-H ) :   0.9089

Dispersion correction           -0.030794572
FINAL SINGLE POINT ENERGY     -1288.400363240681

DIPOLE MOMENT
-------------
                                X             Y             Z
Electronic contribution:     37.31626     -69.42881      73.34867
Nuclear contribution   :    -37.93955      68.43804     -73.67688
                        -----------------------------------------
Total Dipole Moment    :     -0.62329      -0.99077      -0.32821
                        -----------------------------------------
Magnitude (a.u.)       :      1.21566
Magnitude (Debye)      :      3.08997

Rotational constants in cm-1:     0.010585     0.009037     0.008198
Rotational constants in MHz :   317.319074   270.922017   245.769249

                             ****ORCA TERMINATED NORMALLY****
TOTAL RUN TIME: 0 days 1 hours 20 minutes 32 seconds 452 msec
