                         Program Version 5.0.3 -  RELEASE  -
|  1> ! Opt PBEh-3c
|  2> %geom Constraints
|  3> { B 0 20 2.5571428571428574 C }
|  4> { B 24 30 1.4714285714285715 C }
|  5>     end
|  6> end
|  7> %output
|  8> xyzfile=True
|  9> end
| 10> %scf
| 11> maxiter 250
| 12> end
| 13> %output
| 14> Print[P_Hirshfeld] = 1
| 15> end
| 16> % maxcore
| 17> 4000
| 18> %pal nprocs 2
| 19> end
| 20> *xyz 1 1
| 21> Ir   0.57958702  -0.72962664   0.47322851
| 22> C    0.02956402  -2.80977661   0.33238576
| 23> C    0.11972454  -2.36941079   1.70521974
| 24> C    2.19733684  -2.14090162   0.74516840
| 25> C    1.28978948  -2.63915609  -0.26460177
| 26> C    1.49020457  -2.01765122   1.95258489
| 27> N   -1.03827227   0.18156696  -0.51172226
| 28> C   -2.30884257   0.52849172   0.14395567
| 29> C   -3.12696270   1.55614033  -0.62037092
| 30> H   -3.95999250   1.87625213   0.00384761
| 31> H   -3.56202944   1.15596232  -1.53767473
| 32> H   -2.54527201   2.44582395  -0.86382179
| 33> C   -3.10804781  -0.74095561   0.41090151
| 34> H   -2.01536931   0.96263980   1.10127604
| 35> H   -4.02123534  -0.49031495   0.94843431
| 36> H   -3.39446806  -1.23246109  -0.51987641
| 37> H   -2.55767783  -1.45173741   1.02587672
| 38> C   -0.82182071   0.38195707  -1.75248532
| 39> C    0.53164411   0.14060848  -2.21387273
| 40> H   -1.59173766   0.74790816  -2.42597236
| 41> C    1.64816388   0.57079649  -1.50844835
| 42> C    2.84266422   0.13059655  -2.14721535
| 43> S    0.93506156  -0.72732796  -3.63180521
| 44> C    2.61056281  -0.57081147  -3.28818103
| 45> H    1.55867286   1.41700656  -0.72402128
| 46> H    3.83473649   0.37317748  -1.79526494
| 47> H    3.33668682  -0.99054758  -3.96785757
| 48> H   -0.86322190  -3.16762575  -0.15993384
| 49> H   -0.66540656  -2.40907026   2.44628237
| 50> H    1.88299065  -1.63555811   2.88387725
| 51> O    1.24465137   2.46340516   0.28284882
| 52> O    0.54376326   0.88350152   1.69475863
| 53> C    0.87643576   2.10003086   1.39269045
| 54> C    0.80852893   3.05940762   2.54881304
| 55> H    0.73878333   4.08334078   2.19183070
| 56> H    1.72271235   2.97302266   3.13930705
| 57> H   -0.02500696   2.83841964   3.21241490
| 58> H    3.23971035  -1.90261587   0.59278367
| 59> H    1.54275840  -2.84531717  -1.29462012
| 60> *
| 61>
| 62>                          ****END OF INPUT****
 Total Charge           Charge          ....    1
 Multiplicity           Mult            ....    1
 Number of Electrons    NEL             ....  164
Dispersion correction           -0.031038764
FINAL SINGLE POINT ENERGY     -1288.397509118255
Dispersion correction            ... done
Dispersion correction           -0.031008332
FINAL SINGLE POINT ENERGY     -1288.396777860807
Dispersion correction            ... done
Dispersion correction           -0.030965360
FINAL SINGLE POINT ENERGY     -1288.397588820097
Dispersion correction            ... done
FINAL SINGLE POINT ENERGY     -1288.397160309833
FINAL SINGLE POINT ENERGY     -1288.397621118416
Dispersion correction            ... done
Dispersion correction           -0.030938899
FINAL SINGLE POINT ENERGY     -1288.397625047919
Dispersion correction            ... done
Dispersion correction           -0.030944999
FINAL SINGLE POINT ENERGY     -1288.397630648714
Dispersion correction            ... done
                    ***********************HURRAY********************

CARTESIAN COORDINATES (ANGSTROEM)
---------------------------------
  Ir     0.582869   -0.726579    0.460657
  C      0.028411   -2.806743    0.333815
  C      0.120839   -2.362108    1.704473
  C      2.197842   -2.139955    0.739624
  C      1.288393   -2.641597   -0.266414
  C      1.491364   -2.009330    1.947118
  N     -1.041759    0.180628   -0.516985
  C     -2.311276    0.523608    0.142385
  C     -3.133854    1.550637   -0.618077
  H     -3.966534    1.867198    0.008433
  H     -3.569632    1.151086   -1.535322
  H     -2.555376    2.442597   -0.860909
  C     -3.107676   -0.747550    0.409678
  H     -2.015989    0.956861    1.099569
  H     -4.019918   -0.499001    0.949801
  H     -3.395665   -1.238300   -0.521009
  H     -2.554542   -1.458061    1.022355
  C     -0.827653    0.385081   -1.757668
  C      0.526387    0.146611   -2.217220
  H     -1.597962    0.752345   -2.429837
  C      1.637557    0.550854   -1.487362
  C      2.836129    0.114773   -2.122617
  S      0.938825   -0.695036   -3.646742
  C      2.611905   -0.559021   -3.281393
  H      1.552091    1.408801   -0.704429
  H      3.826002    0.342085   -1.754509
  H      3.342341   -0.968712   -3.962585
  H     -0.865623   -3.165070   -0.155922
  H     -0.662890   -2.398443    2.447061
  H      1.885884   -1.623152    2.875987
  O      1.269638    2.466316    0.278925
  O      0.539873    0.890752    1.680836
  C      0.887072    2.103273    1.385314
  C      0.818072    3.062471    2.541302
  H      0.761171    4.087434    2.185031
  H      1.726005    2.966586    3.139922
  H     -0.023532    2.848380    3.196930
  H      3.240834   -1.905623    0.585834
  H      1.539744   -2.854904   -1.295308

 Multiplicity           Mult            ....    1
 Number of Electrons    NEL             ....  164
 Basis Dimension        Dim             ....  358

ORBITAL ENERGIES
----------------

  NO   OCC          E(Eh)            E(eV)
   0   2.0000     -89.761572     -2442.5365
   1   2.0000     -19.620925      -533.9125
   2   2.0000     -19.580926      -532.8241
   3   2.0000     -14.842706      -403.8906
   4   2.0000     -10.676446      -290.5209
   5   2.0000     -10.663630      -290.1721
   6   2.0000     -10.639455      -289.5143
   7   2.0000     -10.637248      -289.4542
   8   2.0000     -10.635476      -289.4060
   9   2.0000     -10.634317      -289.3745
  10   2.0000     -10.633538      -289.3533
  11   2.0000     -10.632982      -289.3382
  12   2.0000     -10.617194      -288.9085
  13   2.0000     -10.610195      -288.7181
  14   2.0000     -10.583556      -287.9932
  15   2.0000     -10.582646      -287.9684
  16   2.0000     -10.557958      -287.2966
  17   2.0000     -10.552756      -287.1551
  18   2.0000     -10.530131      -286.5394
  19   2.0000      -8.400836      -228.5984
  20   2.0000      -6.290964      -171.1858
  21   2.0000      -6.287310      -171.0864
  22   2.0000      -6.285491      -171.0369
  23   2.0000      -4.032204      -109.7218
  24   2.0000      -2.351607       -63.9905
  25   2.0000      -2.317163       -63.0532
  26   2.0000      -2.315729       -63.0142
  27   2.0000      -1.299947       -35.3734
  28   2.0000      -1.215129       -33.0653
  29   2.0000      -1.204010       -32.7628
  30   2.0000      -1.175972       -31.9998
  31   2.0000      -1.126523       -30.6543
  32   2.0000      -1.028077       -27.9754
  33   2.0000      -0.990961       -26.9654
  34   2.0000      -0.980988       -26.6940
  35   2.0000      -0.965545       -26.2738
  36   2.0000      -0.960177       -26.1278
  37   2.0000      -0.923476       -25.1290
  38   2.0000      -0.904504       -24.6128
  39   2.0000      -0.874487       -23.7960
  40   2.0000      -0.798018       -21.7152
  41   2.0000      -0.791879       -21.5481
  42   2.0000      -0.790005       -21.4971
  43   2.0000      -0.781555       -21.2672
  44   2.0000      -0.774882       -21.0856
  45   2.0000      -0.755006       -20.5448
  46   2.0000      -0.744501       -20.2589
  47   2.0000      -0.722700       -19.6657
  48   2.0000      -0.695673       -18.9302
  49   2.0000      -0.671411       -18.2700
  50   2.0000      -0.665349       -18.1051
  51   2.0000      -0.652640       -17.7592
  52   2.0000      -0.648746       -17.6533
  53   2.0000      -0.641533       -17.4570
  54   2.0000      -0.635713       -17.2986
  55   2.0000      -0.627207       -17.0672
  56   2.0000      -0.624283       -16.9876
  57   2.0000      -0.612865       -16.6769
  58   2.0000      -0.611206       -16.6318
  59   2.0000      -0.609653       -16.5895
  60   2.0000      -0.597331       -16.2542
  61   2.0000      -0.588554       -16.0154
  62   2.0000      -0.577670       -15.7192
  63   2.0000      -0.572288       -15.5727
  64   2.0000      -0.564336       -15.3564
  65   2.0000      -0.554089       -15.0775
  66   2.0000      -0.552092       -15.0232
  67   2.0000      -0.548642       -14.9293
  68   2.0000      -0.539057       -14.6685
  69   2.0000      -0.534971       -14.5573
  70   2.0000      -0.528343       -14.3769
  71   2.0000      -0.522513       -14.2183
  72   2.0000      -0.516466       -14.0538
  73   2.0000      -0.507638       -13.8135
  74   2.0000      -0.487943       -13.2776
  75   2.0000      -0.481391       -13.0993
  76   2.0000      -0.464748       -12.6464
  77   2.0000      -0.450480       -12.2582
  78   2.0000      -0.439832       -11.9684
  79   2.0000      -0.424482       -11.5507
  80   2.0000      -0.417233       -11.3535
  81   2.0000      -0.405156       -11.0249
  82   0.0000      -0.200881        -5.4662
  83   0.0000      -0.167066        -4.5461
  84   0.0000      -0.142383        -3.8744
  85   0.0000      -0.104291        -2.8379
  86   0.0000      -0.077630        -2.1124

MULLIKEN ATOMIC CHARGES
-----------------------
   0 Ir:    0.622804
   1 C :   -0.207648
   2 C :   -0.297297
   3 C :   -0.230798
   4 C :   -0.245497
   5 C :   -0.164039
   6 N :   -0.422636
   7 C :   -0.115419
   8 C :   -0.696835
   9 H :    0.273899
  10 H :    0.226272
  11 H :    0.261383
  12 C :   -0.640843
  13 H :    0.281727
  14 H :    0.265844
  15 H :    0.230931
  16 H :    0.233630
  17 C :    0.067189
  18 C :   -0.229749
  19 H :    0.293938
  20 C :   -0.390499
  21 C :   -0.141842
  22 S :    0.290175
  23 C :   -0.429122
  24 H :    0.490424
  25 H :    0.268562
  26 H :    0.297329
  27 H :    0.293123
  28 H :    0.294928
  29 H :    0.308435
  30 O :   -0.477401
  31 O :   -0.547922
  32 C :    0.608534
  33 C :   -0.746142
  34 H :    0.267883
  35 H :    0.264188
  36 H :    0.250053
  37 H :    0.296807
  38 H :    0.295630
Sum of atomic charges:    1.0000000

LOEWDIN ATOMIC CHARGES
----------------------
   0 Ir:   -0.208172
   1 C :   -0.039021
   2 C :   -0.053196
   3 C :   -0.045758
   4 C :   -0.055644
   5 C :   -0.025781
   6 N :   -0.005027
   7 C :   -0.068015
   8 C :   -0.365109
   9 H :    0.158050
  10 H :    0.134193
  11 H :    0.147296
  12 C :   -0.343307
  13 H :    0.157061
  14 H :    0.153557
  15 H :    0.137347
  16 H :    0.134820
  17 C :    0.037218
  18 C :   -0.187420
  19 H :    0.163836
  20 C :   -0.174836
  21 C :   -0.144227
  22 S :    0.456387
  23 C :   -0.262687
  24 H :    0.269477
  25 H :    0.162965
  26 H :    0.167781
  27 H :    0.186336
  28 H :    0.187007
  29 H :    0.194677
  30 O :   -0.276860
  31 O :   -0.214065
  32 C :    0.149184
  33 C :   -0.377962
  34 H :    0.158537
  35 H :    0.165606
  36 H :    0.151597
  37 H :    0.188465
  38 H :    0.185687

  Mayer bond orders larger than 0.100000
B(  0-Ir,  1-C ) :   0.4194 B(  0-Ir,  2-C ) :   0.5577 B(  0-Ir,  3-C ) :   0.4656
B(  0-Ir,  4-C ) :   0.4495 B(  0-Ir,  5-C ) :   0.4025 B(  0-Ir,  6-N ) :   0.4618
B(  0-Ir, 20-C ) :   0.2018 B(  0-Ir, 31-O ) :   0.6020 B(  1-C ,  2-C ) :   1.1113
B(  1-C ,  4-C ) :   1.2500 B(  1-C , 27-H ) :   0.9028 B(  2-C ,  5-C ) :   1.1289
B(  2-C , 28-H ) :   0.9060 B(  3-C ,  4-C ) :   1.1024 B(  3-C ,  5-C ) :   1.2357
B(  3-C , 37-H ) :   0.9021 B(  4-C , 38-H ) :   0.8966 B(  5-C , 29-H ) :   0.8970
B(  6-N ,  7-C ) :   0.8903 B(  6-N , 17-C ) :   1.7071 B(  7-C ,  8-C ) :   0.9929
B(  7-C , 12-C ) :   0.9698 B(  7-C , 13-H ) :   0.8703 B(  8-C ,  9-H ) :   0.9030
B(  8-C , 10-H ) :   0.9121 B(  8-C , 11-H ) :   0.9074 B( 12-C , 14-H ) :   0.9060
B( 12-C , 15-H ) :   0.9151 B( 12-C , 16-H ) :   0.9102 B( 17-C , 18-C ) :   1.0382
B( 17-C , 19-H ) :   0.8734 B( 18-C , 20-C ) :   1.3136 B( 18-C , 22-S ) :   1.2146
B( 20-C , 21-C ) :   1.2587 B( 20-C , 24-H ) :   0.5340 B( 21-C , 23-C ) :   1.5491
B( 21-C , 25-H ) :   0.9034 B( 22-S , 23-C ) :   1.1995 B( 23-C , 26-H ) :   0.8926
B( 24-H , 30-O ) :   0.2044 B( 30-O , 32-C ) :   1.7354 B( 31-O , 32-C ) :   1.2461
B( 32-C , 33-C ) :   0.9455 B( 33-C , 34-H ) :   0.9062 B( 33-C , 35-H ) :   0.9001
B( 33-C , 36-H ) :   0.9104

Dispersion correction           -0.030952739
FINAL SINGLE POINT ENERGY     -1288.397631386065

DIPOLE MOMENT
-------------
                                X             Y             Z
Electronic contribution:     34.52906     -67.39212      72.91019
Nuclear contribution   :    -35.16804      66.03924     -73.17902
                        -----------------------------------------
Total Dipole Moment    :     -0.63898      -1.35288      -0.26883
                        -----------------------------------------
Magnitude (a.u.)       :      1.52015
Magnitude (Debye)      :      3.86390

Rotational constants in cm-1:     0.010818     0.009104     0.008262
Rotational constants in MHz :   324.306700   272.919520   247.700447

                             ****ORCA TERMINATED NORMALLY****
TOTAL RUN TIME: 0 days 2 hours 15 minutes 35 seconds 153 msec
