                         Program Version 5.0.3 -  RELEASE  -
|  1> ! Opt PBEh-3c
|  2> %geom Constraints
|  3> { B 0 20 2.0428571428571427 C }
|  4> { B 24 30 1.3714285714285714 C }
|  5>     end
|  6> end
|  7> %output
|  8> xyzfile=True
|  9> end
| 10> %scf
| 11> maxiter 250
| 12> end
| 13> %output
| 14> Print[P_Hirshfeld] = 1
| 15> end
| 16> % maxcore
| 17> 4000
| 18> *xyz 1 1
| 19> Ir   0.61683125  -0.73330802   0.41024504
| 20> C    0.15529824  -2.85076877   0.33192475
| 21> C   -0.08557128  -2.40536492   1.68058383
| 22> C    2.14929943  -2.06096913   1.19148659
| 23> C    1.52605679  -2.65939799   0.04504931
| 24> C    1.14454848  -1.93900987   2.19378273
| 25> N   -1.07311679   0.11469953  -0.50996388
| 26> C   -2.34285858   0.30679300   0.20607578
| 27> C   -3.13676082   1.51673999  -0.26544930
| 28> H   -3.96650730   1.68179632   0.41997278
| 29> H   -3.57348778   1.37859465  -1.25546721
| 30> H   -2.53181179   2.42373310  -0.27173350
| 31> C   -3.16901221  -0.97176059   0.11723636
| 32> H   -2.05931871   0.47169553   1.24668924
| 33> H   -4.07183465  -0.87346226   0.71868677
| 34> H   -3.47299270  -1.17201065  -0.91097688
| 35> H   -2.62237992  -1.83882953   0.48436350
| 36> C   -0.92528588   0.47858812  -1.73105419
| 37> C    0.39110262   0.30357739  -2.26416073
| 38> H   -1.73422405   0.91718083  -2.30609461
| 39> C    1.41813140   0.03809369  -1.35414198
| 40> C    2.63651027  -0.19607768  -2.06804782
| 41> S    0.89240602   0.29376980  -3.88331921
| 42> C    2.49707980  -0.08463277  -3.41763199
| 43> H    1.62498713   1.14383502  -0.66350949
| 44> H    3.58923946  -0.37885184  -1.59218847
| 45> H    3.26331624  -0.18472713  -4.17133274
| 46> H   -0.57092108  -3.29359628  -0.33389999
| 47> H   -1.01794244  -2.45976196   2.22131144
| 48> H    1.28661640  -1.49263635   3.16788588
| 49> O    1.73654218   2.30922554   0.07785716
| 50> O    0.58534614   1.03310764   1.49201073
| 51> C    1.14605821   2.12291860   1.16131744
| 52> C    1.10986734   3.24070545   2.16147667
| 53> H    0.99174450   4.19906331   1.66102807
| 54> H    2.06270914   3.26969915   2.69279426
| 55> H    0.31775316   3.09902769   2.89119302
| 56> H    3.19726965  -1.83362001   1.31068664
| 57> H    2.01468216  -2.91486862  -0.88394599
| 58> *
| 59>
| 60>                          ****END OF INPUT****
 Total Charge           Charge          ....    1
 Multiplicity           Mult            ....    1
 Number of Electrons    NEL             ....  164
Dispersion correction           -0.030837942
FINAL SINGLE POINT ENERGY     -1288.400515064153
Dispersion correction            ... done
Dispersion correction           -0.030795400
FINAL SINGLE POINT ENERGY     -1288.400511337991
Dispersion correction            ... done
Dispersion correction           -0.030820035
FINAL SINGLE POINT ENERGY     -1288.399382152102
Dispersion correction            ... done
FINAL SINGLE POINT ENERGY     -1288.400836672771
FINAL SINGLE POINT ENERGY     -1288.400879545622
FINAL SINGLE POINT ENERGY     -1288.400924016972
FINAL SINGLE POINT ENERGY     -1288.400991987872
FINAL SINGLE POINT ENERGY     -1288.401007099610
FINAL SINGLE POINT ENERGY     -1288.401011702586
FINAL SINGLE POINT ENERGY     -1288.401014667289
FINAL SINGLE POINT ENERGY     -1288.401017489571
FINAL SINGLE POINT ENERGY     -1288.401021107360
FINAL SINGLE POINT ENERGY     -1288.401023619064
FINAL SINGLE POINT ENERGY     -1288.401027596262
Dispersion correction            ... done
Dispersion correction           -0.030746364
FINAL SINGLE POINT ENERGY     -1288.401030541669
Dispersion correction            ... done
Dispersion correction           -0.030747084
FINAL SINGLE POINT ENERGY     -1288.401032065351
Dispersion correction            ... done
                    ***********************HURRAY********************

CARTESIAN COORDINATES (ANGSTROEM)
---------------------------------
  Ir     0.617745   -0.739836    0.397960
  C      0.173309   -2.858827    0.323441
  C     -0.103495   -2.427313    1.670853
  C      2.136406   -2.051108    1.234423
  C      1.552153   -2.658660    0.075518
  C      1.102298   -1.947082    2.214473
  N     -1.079913    0.106766   -0.507431
  C     -2.347587    0.287054    0.214670
  C     -3.136165    1.511980   -0.225876
  H     -3.965733    1.662869    0.463008
  H     -3.572464    1.402141   -1.219620
  H     -2.526895    2.415929   -0.208126
  C     -3.178752   -0.985800    0.096204
  H     -2.062171    0.425860    1.258612
  H     -4.077703   -0.901588    0.705571
  H     -3.489308   -1.156886   -0.935301
  H     -2.632017   -1.864301    0.435121
  C     -0.935955    0.486474   -1.724649
  C      0.378947    0.311742   -2.258937
  H     -1.744926    0.935196   -2.291506
  C      1.389806   -0.005580   -1.345042
  C      2.616400   -0.218428   -2.054826
  S      0.903197    0.375060   -3.869547
  C      2.496618   -0.040754   -3.399460
  H      1.623195    1.162446   -0.706236
  H      3.560759   -0.435589   -1.576604
  H      3.272894   -0.113354   -4.146034
  H     -0.529003   -3.314042   -0.359376
  H     -1.050327   -2.489047    2.184897
  H      1.214104   -1.501769    3.192899
  O      1.736236    2.318096    0.023497
  O      0.610764    1.043746    1.461206
  C      1.162291    2.130775    1.119768
  C      1.145263    3.253951    2.113726
  H      1.030699    4.211505    1.611091
  H      2.102802    3.276051    2.637018
  H      0.358561    3.120901    2.850841
  H      3.179260   -1.818283    1.384033
  H      2.068074   -2.911108   -0.839516

 Multiplicity           Mult            ....    1
 Number of Electrons    NEL             ....  164
 Basis Dimension        Dim             ....  358

ORBITAL ENERGIES
----------------

  NO   OCC          E(Eh)            E(eV)
   0   2.0000     -89.764867     -2442.6262
   1   2.0000     -19.637715      -534.3694
   2   2.0000     -19.630268      -534.1668
   3   2.0000     -14.833001      -403.6265
   4   2.0000     -10.700873      -291.1856
   5   2.0000     -10.653619      -289.8997
   6   2.0000     -10.625428      -289.1326
   7   2.0000     -10.621657      -289.0300
   8   2.0000     -10.621210      -289.0178
   9   2.0000     -10.618792      -288.9520
  10   2.0000     -10.612375      -288.7774
  11   2.0000     -10.611573      -288.7556
  12   2.0000     -10.611038      -288.7410
  13   2.0000     -10.608239      -288.6648
  14   2.0000     -10.591187      -288.2008
  15   2.0000     -10.590451      -288.1808
  16   2.0000     -10.552535      -287.1491
  17   2.0000     -10.550334      -287.0892
  18   2.0000     -10.547029      -286.9993
  19   2.0000      -8.404206      -228.6901
  20   2.0000      -6.294074      -171.2705
  21   2.0000      -6.290549      -171.1745
  22   2.0000      -6.289181      -171.1373
  23   2.0000      -4.017670      -109.3264
  24   2.0000      -2.334265       -63.5186
  25   2.0000      -2.304790       -62.7165
  26   2.0000      -2.300846       -62.6092
  27   2.0000      -1.329188       -36.1691
  28   2.0000      -1.230884       -33.4940
  29   2.0000      -1.206519       -32.8310
  30   2.0000      -1.156492       -31.4698
  31   2.0000      -1.128472       -30.7073
  32   2.0000      -1.024475       -27.8774
  33   2.0000      -0.970935       -26.4205
  34   2.0000      -0.969456       -26.3802
  35   2.0000      -0.962957       -26.2034
  36   2.0000      -0.958222       -26.0745
  37   2.0000      -0.942256       -25.6401
  38   2.0000      -0.899701       -24.4821
  39   2.0000      -0.872027       -23.7291
  40   2.0000      -0.798246       -21.7214
  41   2.0000      -0.782533       -21.2938
  42   2.0000      -0.773734       -21.0544
  43   2.0000      -0.772780       -21.0284
  44   2.0000      -0.762695       -20.7540
  45   2.0000      -0.757767       -20.6199
  46   2.0000      -0.742407       -20.2019
  47   2.0000      -0.721020       -19.6200
  48   2.0000      -0.698305       -19.0018
  49   2.0000      -0.684780       -18.6338
  50   2.0000      -0.664426       -18.0800
  51   2.0000      -0.662452       -18.0262
  52   2.0000      -0.649695       -17.6791
  53   2.0000      -0.638170       -17.3655
  54   2.0000      -0.629112       -17.1190
  55   2.0000      -0.624027       -16.9806
  56   2.0000      -0.620675       -16.8894
  57   2.0000      -0.611181       -16.6311
  58   2.0000      -0.600787       -16.3483
  59   2.0000      -0.594746       -16.1839
  60   2.0000      -0.593019       -16.1369
  61   2.0000      -0.590672       -16.0730
  62   2.0000      -0.579005       -15.7555
  63   2.0000      -0.570670       -15.5287
  64   2.0000      -0.565455       -15.3868
  65   2.0000      -0.562016       -15.2932
  66   2.0000      -0.556448       -15.1417
  67   2.0000      -0.545631       -14.8474
  68   2.0000      -0.542270       -14.7559
  69   2.0000      -0.535175       -14.5629
  70   2.0000      -0.531014       -14.4496
  71   2.0000      -0.518125       -14.0989
  72   2.0000      -0.512504       -13.9459
  73   2.0000      -0.502519       -13.6743
  74   2.0000      -0.497538       -13.5387
  75   2.0000      -0.490387       -13.3441
  76   2.0000      -0.475333       -12.9345
  77   2.0000      -0.452817       -12.3218
  78   2.0000      -0.442631       -12.0446
  79   2.0000      -0.418372       -11.3845
  80   2.0000      -0.413283       -11.2460
  81   2.0000      -0.391921       -10.6647
  82   0.0000      -0.204060        -5.5527
  83   0.0000      -0.143367        -3.9012
  84   0.0000      -0.122904        -3.3444
  85   0.0000      -0.086683        -2.3588
  86   0.0000      -0.075560        -2.0561

MULLIKEN ATOMIC CHARGES
-----------------------
   0 Ir:    0.613996
   1 C :   -0.259187
   2 C :   -0.249083
   3 C :   -0.281475
   4 C :   -0.216496
   5 C :   -0.150146
   6 N :   -0.433556
   7 C :   -0.127041
   8 C :   -0.679147
   9 H :    0.268735
  10 H :    0.224235
  11 H :    0.252688
  12 C :   -0.632658
  13 H :    0.277346
  14 H :    0.257761
  15 H :    0.232851
  16 H :    0.234619
  17 C :    0.069826
  18 C :   -0.117747
  19 H :    0.284656
  20 C :   -0.585606
  21 C :   -0.093402
  22 S :    0.345894
  23 C :   -0.424807
  24 H :    0.473144
  25 H :    0.268184
  26 H :    0.298336
  27 H :    0.283253
  28 H :    0.279221
  29 H :    0.294592
  30 O :   -0.480273
  31 O :   -0.501524
  32 C :    0.633091
  33 C :   -0.743626
  34 H :    0.273558
  35 H :    0.276585
  36 H :    0.262917
  37 H :    0.279021
  38 H :    0.291267
Sum of atomic charges:    1.0000000

LOEWDIN ATOMIC CHARGES
----------------------
   0 Ir:   -0.262885
   1 C :   -0.065357
   2 C :   -0.099041
   3 C :   -0.103592
   4 C :   -0.039274
   5 C :   -0.020978
   6 N :   -0.002308
   7 C :   -0.069468
   8 C :   -0.361730
   9 H :    0.155964
  10 H :    0.132714
  11 H :    0.142874
  12 C :   -0.343849
  13 H :    0.153688
  14 H :    0.150301
  15 H :    0.138115
  16 H :    0.133699
  17 C :    0.027715
  18 C :   -0.191855
  19 H :    0.160173
  20 C :   -0.217572
  21 C :   -0.128087
  22 S :    0.500275
  23 C :   -0.256346
  24 H :    0.369787
  25 H :    0.162736
  26 H :    0.169717
  27 H :    0.181094
  28 H :    0.177664
  29 H :    0.185981
  30 O :   -0.257615
  31 O :   -0.175426
  32 C :    0.166082
  33 C :   -0.371275
  34 H :    0.164719
  35 H :    0.172878
  36 H :    0.156847
  37 H :    0.180261
  38 H :    0.183374

  Mayer bond orders larger than 0.100000
B(  0-Ir,  1-C ) :   0.4616 B(  0-Ir,  2-C ) :   0.3681 B(  0-Ir,  3-C ) :   0.4743
B(  0-Ir,  4-C ) :   0.4164 B(  0-Ir,  5-C ) :   0.3467 B(  0-Ir,  6-N ) :   0.4645
B(  0-Ir, 20-C ) :   0.5552 B(  0-Ir, 31-O ) :   0.5082 B(  1-C ,  2-C ) :   1.1238
B(  1-C ,  4-C ) :   1.2154 B(  1-C , 27-H ) :   0.9100 B(  2-C ,  5-C ) :   1.2518
B(  2-C , 28-H ) :   0.9102 B(  3-C ,  4-C ) :   1.1512 B(  3-C ,  5-C ) :   1.1551
B(  3-C , 37-H ) :   0.9150 B(  4-C , 38-H ) :   0.8995 B(  5-C , 29-H ) :   0.9026
B(  6-N ,  7-C ) :   0.8965 B(  6-N , 17-C ) :   1.6430 B(  7-C ,  8-C ) :   0.9900
B(  7-C , 12-C ) :   0.9669 B(  7-C , 13-H ) :   0.8780 B(  8-C ,  9-H ) :   0.9050
B(  8-C , 10-H ) :   0.9132 B(  8-C , 11-H ) :   0.9127 B( 12-C , 14-H ) :   0.9080
B( 12-C , 15-H ) :   0.9152 B( 12-C , 16-H ) :   0.9118 B( 17-C , 18-C ) :   1.1196
B( 17-C , 19-H ) :   0.8768 B( 18-C , 20-C ) :   1.2123 B( 18-C , 22-S ) :   1.2404
B( 20-C , 21-C ) :   1.2543 B( 20-C , 24-H ) :   0.3151 B( 21-C , 23-C ) :   1.5400
B( 21-C , 25-H ) :   0.9016 B( 22-S , 23-C ) :   1.2193 B( 23-C , 26-H ) :   0.8915
B( 24-H , 30-O ) :   0.3686 B( 30-O , 32-C ) :   1.5427 B( 31-O , 32-C ) :   1.3991
B( 32-C , 33-C ) :   0.9443 B( 33-C , 34-H ) :   0.8998 B( 33-C , 35-H ) :   0.8925
B( 33-C , 36-H ) :   0.9075

Dispersion correction           -0.030748661
FINAL SINGLE POINT ENERGY     -1288.401032116187

DIPOLE MOMENT
-------------
                                X             Y             Z
Electronic contribution:     37.89015     -74.90773      68.81995
Nuclear contribution   :    -38.47147      74.58715     -69.07760
                        -----------------------------------------
Total Dipole Moment    :     -0.58132      -0.32058      -0.25764
                        -----------------------------------------
Magnitude (a.u.)       :      0.71210
Magnitude (Debye)      :      1.81001

Rotational constants in cm-1:     0.010563     0.008908     0.008246
Rotational constants in MHz :   316.666596   267.066592   247.204883

                             ****ORCA TERMINATED NORMALLY****
TOTAL RUN TIME: 0 days 2 hours 13 minutes 38 seconds 935 msec
