                         Program Version 5.0.3 -  RELEASE  -
|  1> ! Opt PBEh-3c
|  2> %geom Constraints
|  3> { B 0 20 2.3857142857142857 C }
|  4> { B 24 30 1.3285714285714287 C }
|  5>     end
|  6> end
|  7> %output
|  8> xyzfile=True
|  9> end
| 10> %scf
| 11> maxiter 250
| 12> end
| 13> %output
| 14> Print[P_Hirshfeld] = 1
| 15> end
| 16> % maxcore
| 17> 4000
| 18> *xyz 1 1
| 19> Ir   0.59576382  -0.73761285   0.49837076
| 20> C    0.07520865  -2.82899272   0.36643443
| 21> C   -0.00272557  -2.36953225   1.73013815
| 22> C    2.17806971  -2.12607419   1.01428753
| 23> C    1.39952769  -2.65921202  -0.07940304
| 24> C    1.31816000  -1.98187775   2.12123825
| 25> N   -1.03694724   0.12634870  -0.49991745
| 26> C   -2.31732221   0.39494916   0.17730346
| 27> C   -3.08981812   1.56121762  -0.42126035
| 28> H   -3.92192333   1.80819067   0.23667518
| 29> H   -3.52307399   1.32858192  -1.39490605
| 30> H   -2.47191610   2.45438847  -0.51566617
| 31> C   -3.15561192  -0.87776908   0.20558011
| 32> H   -2.04462770   0.65672322   1.20065796
| 33> H   -4.07003737  -0.70526603   0.77150022
| 34> H   -3.44014075  -1.18516757  -0.80159950
| 35> H   -2.62905489  -1.70416802   0.68065189
| 36> C   -0.86619003   0.37293125  -1.74463165
| 37> C    0.46362200   0.20439129  -2.26832275
| 38> H   -1.67804588   0.72996609  -2.37200442
| 39> C    1.57230368   0.34485020  -1.44394815
| 40> C    2.76210671   0.02417110  -2.15455854
| 41> S    0.86754479  -0.25521596  -3.86044701
| 42> C    2.53178992  -0.30682921  -3.45600512
| 43> H    1.57048260   1.28496824  -0.60258103
| 44> H    3.75462925   0.09281163  -1.73356362
| 45> H    3.25816985  -0.55849001  -4.21394328
| 46> H   -0.74497857  -3.21397715  -0.22216200
| 47> H   -0.86833477  -2.40771196   2.37471622
| 48> H    1.59066597  -1.56954403   3.08245300
| 49> O    1.49770532   2.36525935   0.19173623
| 50> O    0.54837423   0.96078095   1.63820819
| 51> C    1.00744726   2.10719989   1.30006954
| 52> C    0.95811947   3.16724643   2.36108357
| 53> H    0.89725163   4.15692813   1.91612350
| 54> H    1.87997953   3.12446537   2.94445105
| 55> H    0.12821212   3.01137849   3.04601111
| 56> H    3.23381897  -1.90213688   0.99535216
| 57> H    1.77116533  -2.88898047  -1.06738230
| 58> *
| 59>
| 60>                          ****END OF INPUT****
 Total Charge           Charge          ....    1
 Multiplicity           Mult            ....    1
 Number of Electrons    NEL             ....  164
Dispersion correction           -0.030664544
FINAL SINGLE POINT ENERGY     -1288.398064216800
Dispersion correction            ... done
Dispersion correction           -0.030621287
FINAL SINGLE POINT ENERGY     -1288.398214857170
Dispersion correction            ... done
Dispersion correction           -0.030586068
FINAL SINGLE POINT ENERGY     -1288.398304763677
Dispersion correction            ... done
FINAL SINGLE POINT ENERGY     -1288.398339642964
FINAL SINGLE POINT ENERGY     -1288.398358083153
FINAL SINGLE POINT ENERGY     -1288.398367577792
Dispersion correction            ... done
Dispersion correction           -0.030530036
FINAL SINGLE POINT ENERGY     -1288.398370236833
Dispersion correction            ... done
Dispersion correction           -0.030531120
FINAL SINGLE POINT ENERGY     -1288.398372952157
Dispersion correction            ... done
                    ***********************HURRAY********************

CARTESIAN COORDINATES (ANGSTROEM)
---------------------------------
  Ir     0.599544   -0.740241    0.496109
  C      0.071138   -2.831179    0.381590
  C     -0.016698   -2.366098    1.741952
  C      2.171410   -2.131496    1.040672
  C      1.400545   -2.669583   -0.055023
  C      1.300499   -1.976386    2.138854
  N     -1.036787    0.120556   -0.500580
  C     -2.318543    0.375515    0.179198
  C     -3.093074    1.550451   -0.400487
  H     -3.925370    1.785275    0.261592
  H     -3.526006    1.333092   -1.377784
  H     -2.476691    2.446070   -0.480727
  C     -3.155694   -0.898286    0.184302
  H     -2.048657    0.621186    1.207264
  H     -4.073108   -0.735896    0.748492
  H     -3.435204   -1.190076   -0.828923
  H     -2.630561   -1.731677    0.648366
  C     -0.869082    0.385149   -1.743058
  C      0.457551    0.224735   -2.271742
  H     -1.683241    0.750697   -2.362223
  C      1.559347    0.290213   -1.429657
  C      2.750766   -0.004711   -2.147952
  S      0.869506   -0.138185   -3.886190
  C      2.527069   -0.246057   -3.470946
  H      1.584622    1.257900   -0.583929
  H      3.740519    0.017641   -1.715673
  H      3.256947   -0.461124   -4.236743
  H     -0.744424   -3.217949   -0.212221
  H     -0.887227   -2.398672    2.379958
  H      1.566516   -1.557723    3.099170
  O      1.541310    2.344901    0.178734
  O      0.549525    0.971854    1.625594
  C      1.027459    2.105921    1.284287
  C      0.977060    3.183680    2.326290
  H      0.925901    4.166357    1.864784
  H      1.894299    3.144522    2.917051
  H      0.140595    3.043502    3.006385
  H      3.228555   -1.914046    1.031540
  H      1.779054   -2.910643   -1.037584

 Multiplicity           Mult            ....    1
 Number of Electrons    NEL             ....  164
 Basis Dimension        Dim             ....  358

ORBITAL ENERGIES
----------------

  NO   OCC          E(Eh)            E(eV)
   0   2.0000     -89.757640     -2442.4296
   1   2.0000     -19.632753      -534.2344
   2   2.0000     -19.610723      -533.6349
   3   2.0000     -14.834597      -403.6699
   4   2.0000     -10.693810      -290.9934
   5   2.0000     -10.656369      -289.9746
   6   2.0000     -10.631807      -289.3062
   7   2.0000     -10.631284      -289.2920
   8   2.0000     -10.628391      -289.2132
   9   2.0000     -10.626203      -289.1537
  10   2.0000     -10.623248      -289.0733
  11   2.0000     -10.622155      -289.0435
  12   2.0000     -10.613662      -288.8124
  13   2.0000     -10.606267      -288.6112
  14   2.0000     -10.581768      -287.9446
  15   2.0000     -10.581266      -287.9309
  16   2.0000     -10.554903      -287.2135
  17   2.0000     -10.550537      -287.0947
  18   2.0000     -10.541281      -286.8428
  19   2.0000      -8.397104      -228.4968
  20   2.0000      -6.287052      -171.0794
  21   2.0000      -6.283489      -170.9824
  22   2.0000      -6.281974      -170.9412
  23   2.0000      -4.025947      -109.5516
  24   2.0000      -2.344503       -63.7972
  25   2.0000      -2.311056       -62.8870
  26   2.0000      -2.308738       -62.8240
  27   2.0000      -1.321152       -35.9504
  28   2.0000      -1.223498       -33.2931
  29   2.0000      -1.206222       -32.8230
  30   2.0000      -1.168651       -31.8006
  31   2.0000      -1.121924       -30.5291
  32   2.0000      -1.022842       -27.8329
  33   2.0000      -0.982567       -26.7370
  34   2.0000      -0.973867       -26.5003
  35   2.0000      -0.962012       -26.1777
  36   2.0000      -0.955518       -26.0010
  37   2.0000      -0.936780       -25.4911
  38   2.0000      -0.900745       -24.5105
  39   2.0000      -0.870084       -23.6762
  40   2.0000      -0.795695       -21.6520
  41   2.0000      -0.784396       -21.3445
  42   2.0000      -0.783423       -21.3180
  43   2.0000      -0.777928       -21.1685
  44   2.0000      -0.768454       -20.9107
  45   2.0000      -0.762752       -20.7555
  46   2.0000      -0.741106       -20.1665
  47   2.0000      -0.722313       -19.6551
  48   2.0000      -0.691183       -18.8081
  49   2.0000      -0.679568       -18.4920
  50   2.0000      -0.662488       -18.0272
  51   2.0000      -0.656344       -17.8600
  52   2.0000      -0.647892       -17.6300
  53   2.0000      -0.639290       -17.3960
  54   2.0000      -0.636798       -17.3282
  55   2.0000      -0.633323       -17.2336
  56   2.0000      -0.622003       -16.9256
  57   2.0000      -0.608271       -16.5519
  58   2.0000      -0.604323       -16.4445
  59   2.0000      -0.603518       -16.4226
  60   2.0000      -0.595518       -16.2049
  61   2.0000      -0.588251       -16.0071
  62   2.0000      -0.575542       -15.6613
  63   2.0000      -0.566888       -15.4258
  64   2.0000      -0.561924       -15.2907
  65   2.0000      -0.560820       -15.2607
  66   2.0000      -0.553547       -15.0628
  67   2.0000      -0.547640       -14.9020
  68   2.0000      -0.540415       -14.7054
  69   2.0000      -0.534276       -14.5384
  70   2.0000      -0.527833       -14.3631
  71   2.0000      -0.518607       -14.1120
  72   2.0000      -0.514197       -13.9920
  73   2.0000      -0.504337       -13.7237
  74   2.0000      -0.494646       -13.4600
  75   2.0000      -0.479942       -13.0599
  76   2.0000      -0.469088       -12.7645
  77   2.0000      -0.447493       -12.1769
  78   2.0000      -0.446222       -12.1423
  79   2.0000      -0.419013       -11.4019
  80   2.0000      -0.416820       -11.3423
  81   2.0000      -0.399466       -10.8700
  82   0.0000      -0.199342        -5.4244
  83   0.0000      -0.154429        -4.2022
  84   0.0000      -0.141097        -3.8394
  85   0.0000      -0.087750        -2.3878
  86   0.0000      -0.072654        -1.9770

MULLIKEN ATOMIC CHARGES
-----------------------
   0 Ir:    0.610681
   1 C :   -0.220686
   2 C :   -0.284598
   3 C :   -0.246641
   4 C :   -0.236494
   5 C :   -0.164057
   6 N :   -0.437783
   7 C :   -0.126441
   8 C :   -0.683740
   9 H :    0.269260
  10 H :    0.224993
  11 H :    0.257019
  12 C :   -0.634640
  13 H :    0.279292
  14 H :    0.261245
  15 H :    0.231601
  16 H :    0.230633
  17 C :    0.070562
  18 C :   -0.164877
  19 H :    0.285595
  20 C :   -0.464821
  21 C :   -0.137652
  22 S :    0.319179
  23 C :   -0.426426
  24 H :    0.490436
  25 H :    0.262577
  26 H :    0.295904
  27 H :    0.289374
  28 H :    0.288434
  29 H :    0.303343
  30 O :   -0.491348
  31 O :   -0.523391
  32 C :    0.629618
  33 C :   -0.744906
  34 H :    0.272414
  35 H :    0.272047
  36 H :    0.258594
  37 H :    0.289960
  38 H :    0.295738
Sum of atomic charges:    1.0000000

LOEWDIN ATOMIC CHARGES
----------------------
   0 Ir:   -0.233994
   1 C :   -0.047233
   2 C :   -0.077279
   3 C :   -0.070298
   4 C :   -0.046061
   5 C :   -0.018298
   6 N :   -0.012477
   7 C :   -0.069323
   8 C :   -0.362751
   9 H :    0.156080
  10 H :    0.133023
  11 H :    0.144995
  12 C :   -0.343939
  13 H :    0.154654
  14 H :    0.151683
  15 H :    0.137471
  16 H :    0.132319
  17 C :    0.033946
  18 C :   -0.195443
  19 H :    0.159980
  20 C :   -0.212031
  21 C :   -0.138854
  22 S :    0.475520
  23 C :   -0.260134
  24 H :    0.328247
  25 H :    0.160136
  26 H :    0.167578
  27 H :    0.184133
  28 H :    0.183518
  29 H :    0.191643
  30 O :   -0.269500
  31 O :   -0.191423
  32 C :    0.165773
  33 C :   -0.372830
  34 H :    0.162549
  35 H :    0.170715
  36 H :    0.155579
  37 H :    0.185445
  38 H :    0.186881

  Mayer bond orders larger than 0.100000
B(  0-Ir,  1-C ) :   0.4256 B(  0-Ir,  2-C ) :   0.5041 B(  0-Ir,  3-C ) :   0.4595
B(  0-Ir,  4-C ) :   0.4495 B(  0-Ir,  5-C ) :   0.4012 B(  0-Ir,  6-N ) :   0.4687
B(  0-Ir, 20-C ) :   0.3274 B(  0-Ir, 31-O ) :   0.5451 B(  1-C ,  2-C ) :   1.1217
B(  1-C ,  4-C ) :   1.2373 B(  1-C , 27-H ) :   0.9048 B(  2-C ,  5-C ) :   1.1496
B(  2-C , 28-H ) :   0.9090 B(  3-C ,  4-C ) :   1.1145 B(  3-C ,  5-C ) :   1.2195
B(  3-C , 37-H ) :   0.9078 B(  4-C , 38-H ) :   0.9004 B(  5-C , 29-H ) :   0.8988
B(  6-N ,  7-C ) :   0.8929 B(  6-N , 17-C ) :   1.6620 B(  7-C ,  8-C ) :   0.9910
B(  7-C , 12-C ) :   0.9680 B(  7-C , 13-H ) :   0.8766 B(  8-C ,  9-H ) :   0.9046
B(  8-C , 10-H ) :   0.9131 B(  8-C , 11-H ) :   0.9106 B( 12-C , 14-H ) :   0.9073
B( 12-C , 15-H ) :   0.9156 B( 12-C , 16-H ) :   0.9129 B( 17-C , 18-C ) :   1.0930
B( 17-C , 19-H ) :   0.8759 B( 18-C , 20-C ) :   1.2796 B( 18-C , 22-S ) :   1.2202
B( 20-C , 21-C ) :   1.2900 B( 20-C , 24-H ) :   0.3911 B( 21-C , 23-C ) :   1.5382
B( 21-C , 25-H ) :   0.9054 B( 22-S , 23-C ) :   1.2171 B( 23-C , 26-H ) :   0.8919
B( 24-H , 30-O ) :   0.2982 B( 30-O , 32-C ) :   1.6036 B( 31-O , 32-C ) :   1.3395
B( 32-C , 33-C ) :   0.9483 B( 33-C , 34-H ) :   0.9022 B( 33-C , 35-H ) :   0.8949
B( 33-C , 36-H ) :   0.9081

Dispersion correction           -0.030529271
FINAL SINGLE POINT ENERGY     -1288.398377411787

DIPOLE MOMENT
-------------
                                X             Y             Z
Electronic contribution:     36.36033     -71.82877      78.14418
Nuclear contribution   :    -36.96864      70.98557     -78.26876
                        -----------------------------------------
Total Dipole Moment    :     -0.60831      -0.84320      -0.12458
                        -----------------------------------------
Magnitude (a.u.)       :      1.04716
Magnitude (Debye)      :      2.66167

Rotational constants in cm-1:     0.010544     0.008823     0.008097
Rotational constants in MHz :   316.093579   264.498359   242.736224

                             ****ORCA TERMINATED NORMALLY****
TOTAL RUN TIME: 0 days 1 hours 9 minutes 10 seconds 256 msec
