                         Program Version 5.0.3 -  RELEASE  -
|  1> ! Opt PBEh-3c
|  2> %geom Constraints
|  3> { B 0 20 2.3 C }
|  4> { B 24 30 1.4 C }
|  5>     end
|  6> end
|  7> %output
|  8> xyzfile=True
|  9> end
| 10> %scf
| 11> maxiter 250
| 12> end
| 13> %output
| 14> Print[P_Hirshfeld] = 1
| 15> end
| 16> % maxcore
| 17> 4000
| 18> *xyz 1 1
| 19> Ir   0.60906232  -0.72045789   0.45648445
| 20> C    0.08078613  -2.81675931   0.35143779
| 21> C    0.04749139  -2.35591747   1.71537286
| 22> C    2.20232531  -2.11135936   0.92550600
| 23> C    1.38925298  -2.64977356  -0.14029161
| 24> C    1.37915991  -1.96413402   2.06046939
| 25> N   -1.04334635   0.14217809  -0.51482236
| 26> C   -2.31449144   0.42299239   0.17209386
| 27> C   -3.09817918   1.57177620  -0.44423620
| 28> H   -3.92442630   1.82999359   0.21672600
| 29> H   -3.54064422   1.31479194  -1.40767468
| 30> H   -2.48537432   2.46538636  -0.56462106
| 31> C   -3.14635240  -0.85245653   0.24235580
| 32> H   -2.02698435   0.70775530   1.18516615
| 33> H   -4.05483761  -0.66790900   0.81387706
| 34> H   -3.44091741  -1.18778238  -0.75291842
| 35> H   -2.61057607  -1.66276915   0.73450039
| 36> C   -0.87437313   0.38260158  -1.75991968
| 37> C    0.46095178   0.19049155  -2.26531949
| 38> H   -1.67768670   0.74845758  -2.39258840
| 39> C    1.55192102   0.33159339  -1.41252201
| 40> C    2.75629051  -0.01602323  -2.09054226
| 41> S    0.89497214  -0.32159183  -3.82792718
| 42> C    2.55187657  -0.38104328  -3.38528166
| 43> H    1.53871870   1.27006032  -0.63198950
| 44> H    3.73925181   0.05710610  -1.64844767
| 45> H    3.29117778  -0.66064704  -4.12052612
| 46> H   -0.75902090  -3.20227627  -0.20857346
| 47> H   -0.79713369  -2.39093652   2.38720843
| 48> H    1.68314636  -1.54832648   3.01060829
| 49> O    1.43120755   2.41235197   0.19494171
| 50> O    0.54313050   0.95469379   1.62684347
| 51> C    0.97168093   2.12151584   1.30334727
| 52> C    0.91559011   3.15015158   2.39630408
| 53> H    0.87915667   4.15373741   1.98126367
| 54> H    1.82172028   3.07311761   3.00038956
| 55> H    0.06821819   2.98720504   3.05839881
| 56> H    3.25728024  -1.88887529   0.87268940
| 57> H    1.72934503  -2.88972907  -1.13704260
| 58> *
| 59>
| 60>                          ****END OF INPUT****
 Total Charge           Charge          ....    1
 Multiplicity           Mult            ....    1
 Number of Electrons    NEL             ....  164
Dispersion correction           -0.030900302
FINAL SINGLE POINT ENERGY     -1288.400067109738
Dispersion correction            ... done
Dispersion correction           -0.030983635
FINAL SINGLE POINT ENERGY     -1288.396777499701
Dispersion correction            ... done
Dispersion correction           -0.030883056
FINAL SINGLE POINT ENERGY     -1288.400220060124
Dispersion correction            ... done
FINAL SINGLE POINT ENERGY     -1288.398530935184
FINAL SINGLE POINT ENERGY     -1288.400301215454
FINAL SINGLE POINT ENERGY     -1288.400334416047
FINAL SINGLE POINT ENERGY     -1288.400360137551
Dispersion correction            ... done
Dispersion correction           -0.030767642
FINAL SINGLE POINT ENERGY     -1288.400383500802
Dispersion correction            ... done
Dispersion correction           -0.030753049
FINAL SINGLE POINT ENERGY     -1288.400383068254
Dispersion correction            ... done
                    ***********************HURRAY********************

CARTESIAN COORDINATES (ANGSTROEM)
---------------------------------
  Ir     0.610100   -0.722686    0.455066
  C      0.074998   -2.819514    0.368370
  C      0.032976   -2.353813    1.729282
  C      2.194391   -2.115812    0.951227
  C      1.388089   -2.659715   -0.116069
  C      1.361043   -1.958551    2.078736
  N     -1.044802    0.135547   -0.517890
  C     -2.317288    0.404457    0.171415
  C     -3.105835    1.557744   -0.430826
  H     -3.933011    1.803955    0.233522
  H     -3.547520    1.310946   -1.397260
  H     -2.497267    2.455667   -0.540230
  C     -3.146596   -0.873497    0.226474
  H     -2.031666    0.678722    1.187964
  H     -4.056992   -0.696860    0.797541
  H     -3.437974   -1.198842   -0.773037
  H     -2.610663   -1.687952    0.711275
  C     -0.877928    0.393763   -1.760685
  C      0.454521    0.210358   -2.270960
  H     -1.683270    0.768038   -2.385549
  C      1.535782    0.278906   -1.396940
  C      2.743841   -0.039673   -2.083080
  S      0.899681   -0.205436   -3.857719
  C      2.549847   -0.315058   -3.401851
  H      1.547089    1.240953   -0.614980
  H      3.722661   -0.009504   -1.627007
  H      3.294350   -0.555269   -4.145671
  H     -0.761206   -3.206743   -0.195841
  H     -0.816318   -2.383132    2.395262
  H      1.659139   -1.536409    3.027975
  O      1.485312    2.388953    0.183944
  O      0.542839    0.965990    1.614721
  C      0.997938    2.118631    1.288779
  C      0.941721    3.165020    2.364020
  H      0.926219    4.162766    1.933896
  H      1.837701    3.083366    2.982385
  H      0.082220    3.023721    3.015229
  H      3.251008   -1.899771    0.907313
  H      1.734244   -2.910076   -1.108062

 Multiplicity           Mult            ....    1
 Number of Electrons    NEL             ....  164
 Basis Dimension        Dim             ....  358

ORBITAL ENERGIES
----------------

  NO   OCC          E(Eh)            E(eV)
   0   2.0000     -89.763625     -2442.5924
   1   2.0000     -19.627543      -534.0926
   2   2.0000     -19.602092      -533.4000
   3   2.0000     -14.837666      -403.7534
   4   2.0000     -10.687055      -290.8095
   5   2.0000     -10.658683      -290.0375
   6   2.0000     -10.631513      -289.2982
   7   2.0000     -10.630736      -289.2770
   8   2.0000     -10.629081      -289.2320
   9   2.0000     -10.626866      -289.1717
  10   2.0000     -10.624560      -289.1090
  11   2.0000     -10.623048      -289.0678
  12   2.0000     -10.614294      -288.8296
  13   2.0000     -10.609951      -288.7114
  14   2.0000     -10.586601      -288.0760
  15   2.0000     -10.585086      -288.0348
  16   2.0000     -10.555456      -287.2286
  17   2.0000     -10.551123      -287.1107
  18   2.0000     -10.537535      -286.7409
  19   2.0000      -8.403043      -228.6584
  20   2.0000      -6.292971      -171.2404
  21   2.0000      -6.289378      -171.1427
  22   2.0000      -6.287965      -171.1042
  23   2.0000      -4.025360      -109.5356
  24   2.0000      -2.343695       -63.7752
  25   2.0000      -2.310434       -62.8701
  26   2.0000      -2.308630       -62.8210
  27   2.0000      -1.313531       -35.7430
  28   2.0000      -1.215897       -33.0862
  29   2.0000      -1.209521       -32.9127
  30   2.0000      -1.167761       -31.7764
  31   2.0000      -1.127140       -30.6710
  32   2.0000      -1.025420       -27.9031
  33   2.0000      -0.981514       -26.7083
  34   2.0000      -0.973180       -26.4816
  35   2.0000      -0.967008       -26.3136
  36   2.0000      -0.959583       -26.1116
  37   2.0000      -0.932039       -25.3621
  38   2.0000      -0.901637       -24.5348
  39   2.0000      -0.873088       -23.7579
  40   2.0000      -0.798329       -21.7236
  41   2.0000      -0.783657       -21.3244
  42   2.0000      -0.783122       -21.3098
  43   2.0000      -0.781058       -21.2537
  44   2.0000      -0.767960       -20.8973
  45   2.0000      -0.757385       -20.6095
  46   2.0000      -0.742816       -20.2131
  47   2.0000      -0.722791       -19.6681
  48   2.0000      -0.691584       -18.8190
  49   2.0000      -0.678777       -18.4705
  50   2.0000      -0.664013       -18.0687
  51   2.0000      -0.651877       -17.7385
  52   2.0000      -0.647630       -17.6229
  53   2.0000      -0.636808       -17.3284
  54   2.0000      -0.636011       -17.3067
  55   2.0000      -0.631657       -17.1883
  56   2.0000      -0.622466       -16.9382
  57   2.0000      -0.611121       -16.6294
  58   2.0000      -0.603587       -16.4244
  59   2.0000      -0.602974       -16.4077
  60   2.0000      -0.598453       -16.2847
  61   2.0000      -0.590367       -16.0647
  62   2.0000      -0.578778       -15.7493
  63   2.0000      -0.569586       -15.4992
  64   2.0000      -0.563125       -15.3234
  65   2.0000      -0.559912       -15.2360
  66   2.0000      -0.551968       -15.0198
  67   2.0000      -0.548192       -14.9171
  68   2.0000      -0.540445       -14.7063
  69   2.0000      -0.535927       -14.5833
  70   2.0000      -0.528120       -14.3709
  71   2.0000      -0.518955       -14.1215
  72   2.0000      -0.514517       -14.0007
  73   2.0000      -0.502143       -13.6640
  74   2.0000      -0.490949       -13.3594
  75   2.0000      -0.480547       -13.0763
  76   2.0000      -0.473225       -12.8771
  77   2.0000      -0.446538       -12.1509
  78   2.0000      -0.444756       -12.1024
  79   2.0000      -0.421206       -11.4616
  80   2.0000      -0.417310       -11.3556
  81   2.0000      -0.399800       -10.8791
  82   0.0000      -0.203480        -5.5370
  83   0.0000      -0.151053        -4.1104
  84   0.0000      -0.141432        -3.8486
  85   0.0000      -0.091508        -2.4901
  86   0.0000      -0.074433        -2.0254

MULLIKEN ATOMIC CHARGES
-----------------------
   0 Ir:    0.608430
   1 C :   -0.218244
   2 C :   -0.278775
   3 C :   -0.247892
   4 C :   -0.240637
   5 C :   -0.162636
   6 N :   -0.430858
   7 C :   -0.125482
   8 C :   -0.686403
   9 H :    0.270405
  10 H :    0.224712
  11 H :    0.258355
  12 C :   -0.635416
  13 H :    0.281844
  14 H :    0.262033
  15 H :    0.231344
  16 H :    0.231842
  17 C :    0.070893
  18 C :   -0.153335
  19 H :    0.288125
  20 C :   -0.502377
  21 C :   -0.119406
  22 S :    0.324636
  23 C :   -0.430796
  24 H :    0.489218
  25 H :    0.265463
  26 H :    0.297745
  27 H :    0.288727
  28 H :    0.288144
  29 H :    0.303371
  30 O :   -0.480873
  31 O :   -0.528665
  32 C :    0.623153
  33 C :   -0.744441
  34 H :    0.270862
  35 H :    0.269094
  36 H :    0.255969
  37 H :    0.288302
  38 H :    0.293570
Sum of atomic charges:    1.0000000

LOEWDIN ATOMIC CHARGES
----------------------
   0 Ir:   -0.240927
   1 C :   -0.044615
   2 C :   -0.080110
   3 C :   -0.069733
   4 C :   -0.052400
   5 C :   -0.018658
   6 N :   -0.005036
   7 C :   -0.069648
   8 C :   -0.363261
   9 H :    0.156670
  10 H :    0.133059
  11 H :    0.145643
  12 C :   -0.343639
  13 H :    0.156143
  14 H :    0.152104
  15 H :    0.137355
  16 H :    0.133108
  17 C :    0.032412
  18 C :   -0.183003
  19 H :    0.161424
  20 C :   -0.209889
  21 C :   -0.129524
  22 S :    0.485171
  23 C :   -0.261397
  24 H :    0.319560
  25 H :    0.162116
  26 H :    0.168553
  27 H :    0.183637
  28 H :    0.183373
  29 H :    0.191669
  30 O :   -0.270737
  31 O :   -0.198222
  32 C :    0.158236
  33 C :   -0.374024
  34 H :    0.160935
  35 H :    0.168851
  36 H :    0.154666
  37 H :    0.184613
  38 H :    0.185528

  Mayer bond orders larger than 0.100000
B(  0-Ir,  1-C ) :   0.4203 B(  0-Ir,  2-C ) :   0.4870 B(  0-Ir,  3-C ) :   0.4602
B(  0-Ir,  4-C ) :   0.4455 B(  0-Ir,  5-C ) :   0.3985 B(  0-Ir,  6-N ) :   0.4645
B(  0-Ir, 20-C ) :   0.3432 B(  0-Ir, 31-O ) :   0.5562 B(  1-C ,  2-C ) :   1.1261
B(  1-C ,  4-C ) :   1.2401 B(  1-C , 27-H ) :   0.9048 B(  2-C ,  5-C ) :   1.1536
B(  2-C , 28-H ) :   0.9092 B(  3-C ,  4-C ) :   1.1139 B(  3-C ,  5-C ) :   1.2185
B(  3-C , 37-H ) :   0.9085 B(  4-C , 38-H ) :   0.9008 B(  5-C , 29-H ) :   0.8989
B(  6-N ,  7-C ) :   0.8930 B(  6-N , 17-C ) :   1.6690 B(  7-C ,  8-C ) :   0.9910
B(  7-C , 12-C ) :   0.9676 B(  7-C , 13-H ) :   0.8740 B(  8-C ,  9-H ) :   0.9042
B(  8-C , 10-H ) :   0.9130 B(  8-C , 11-H ) :   0.9098 B( 12-C , 14-H ) :   0.9070
B( 12-C , 15-H ) :   0.9156 B( 12-C , 16-H ) :   0.9123 B( 17-C , 18-C ) :   1.0843
B( 17-C , 19-H ) :   0.8755 B( 18-C , 20-C ) :   1.2630 B( 18-C , 22-S ) :   1.2404
B( 20-C , 21-C ) :   1.2712 B( 20-C , 24-H ) :   0.4178 B( 21-C , 23-C ) :   1.5481
B( 21-C , 25-H ) :   0.9043 B( 22-S , 23-C ) :   1.2085 B( 23-C , 26-H ) :   0.8916
B( 24-H , 30-O ) :   0.2827 B( 30-O , 32-C ) :   1.6417 B( 31-O , 32-C ) :   1.3151
B( 32-C , 33-C ) :   0.9463 B( 33-C , 34-H ) :   0.9037 B( 33-C , 35-H ) :   0.8969
B( 33-C , 36-H ) :   0.9086

Dispersion correction           -0.030755127
FINAL SINGLE POINT ENERGY     -1288.400385157120

DIPOLE MOMENT
-------------
                                X             Y             Z
Electronic contribution:     37.28026     -69.88298      73.93124
Nuclear contribution   :    -37.90249      68.93647     -74.23087
                        -----------------------------------------
Total Dipole Moment    :     -0.62223      -0.94651      -0.29963
                        -----------------------------------------
Magnitude (a.u.)       :      1.17168
Magnitude (Debye)      :      2.97817

Rotational constants in cm-1:     0.010569     0.009004     0.008186
Rotational constants in MHz :   316.848642   269.928314   245.400110

                             ****ORCA TERMINATED NORMALLY****
TOTAL RUN TIME: 0 days 1 hours 18 minutes 18 seconds 888 msec
