                         Program Version 5.0.3 -  RELEASE  -
|  1> ! Opt PBEh-3c
|  2> %geom Constraints
|  3> { B 0 20 2.342857142857143 C }
|  4> { B 24 30 1.3 C }
|  5>     end
|  6> end
|  7> %output
|  8> xyzfile=True
|  9> end
| 10> %scf
| 11> maxiter 250
| 12> end
| 13> %output
| 14> Print[P_Hirshfeld] = 1
| 15> end
| 16> % maxcore
| 17> 4000
| 18> *xyz 1 1
| 19> Ir   0.59125749  -0.74021992   0.50198734
| 20> C    0.08569752  -2.83619990   0.38224540
| 21> C   -0.05720303  -2.36591051   1.73667796
| 22> C    2.15440731  -2.11250535   1.11625976
| 23> C    1.43041344  -2.66600090  -0.00209645
| 24> C    1.23837530  -1.95927396   2.17929960
| 25> N   -1.04569238   0.11402568  -0.49828893
| 26> C   -2.33280043   0.34707746   0.17966174
| 27> C   -3.11150708   1.53068222  -0.37684950
| 28> H   -3.94883710   1.74448260   0.28589907
| 29> H   -3.53773257   1.33397533  -1.36145129
| 30> H   -2.50036627   2.43173201  -0.43241312
| 31> C   -3.16351473  -0.93063900   0.14864005
| 32> H   -2.07131967   0.57132194   1.21479890
| 33> H   -4.08280657  -0.78950760   0.71558166
| 34> H   -3.43959364  -1.19548494  -0.87289071
| 35> H   -2.63473970  -1.77457396   0.58889115
| 36> C   -0.87797631   0.40168843  -1.73579172
| 37> C    0.44432272   0.25217004  -2.27484705
| 38> H   -1.69486487   0.77545193  -2.34653683
| 39> C    1.55120798   0.26094821  -1.43909226
| 40> C    2.73357252  -0.01654196  -2.17787717
| 41> S    0.84129389  -0.03783445  -3.90840557
| 42> C    2.49875543  -0.18756651  -3.51054135
| 43> H    1.63475160   1.22288548  -0.55977058
| 44> H    3.72597756  -0.03047616  -1.75136657
| 45> H    3.22127367  -0.37490918  -4.29043595
| 46> H   -0.70220564  -3.23643733  -0.23917524
| 47> H   -0.95004539  -2.40372931   2.34270083
| 48> H    1.46279843  -1.53117489   3.14613167
| 49> O    1.67701602   2.29220890   0.20318949
| 50> O    0.53707890   0.99259800   1.60690232
| 51> C    1.08856897   2.09475610   1.28192219
| 52> C    1.03629083   3.19654192   2.29767505
| 53> H    0.95383376   4.16467826   1.80953696
| 54> H    1.96928639   3.19787388   2.86426895
| 55> H    0.21751646   3.05841180   2.99857914
| 56> H    3.20977033  -1.88896707   1.14702919
| 57> H    1.84710884  -2.90636723  -0.96930803
| 58> *
| 59>
| 60>                          ****END OF INPUT****
 Total Charge           Charge          ....    1
 Multiplicity           Mult            ....    1
 Number of Electrons    NEL             ....  164
Dispersion correction           -0.030502912
FINAL SINGLE POINT ENERGY     -1288.400090023646
Dispersion correction            ... done
Dispersion correction           -0.030465535
FINAL SINGLE POINT ENERGY     -1288.400266062318
Dispersion correction            ... done
Dispersion correction           -0.030437009
FINAL SINGLE POINT ENERGY     -1288.400384032192
Dispersion correction            ... done
FINAL SINGLE POINT ENERGY     -1288.400436628973
FINAL SINGLE POINT ENERGY     -1288.400455452260
Dispersion correction            ... done
Dispersion correction           -0.030380088
FINAL SINGLE POINT ENERGY     -1288.400460996390
Dispersion correction            ... done
Dispersion correction           -0.030381461
FINAL SINGLE POINT ENERGY     -1288.400466076718
Dispersion correction            ... done
                    ***********************HURRAY********************

CARTESIAN COORDINATES (ANGSTROEM)
---------------------------------
  Ir     0.592149   -0.743545    0.496102
  C      0.072925   -2.837967    0.406457
  C     -0.071198   -2.358057    1.756389
  C      2.143706   -2.118824    1.136940
  C      1.420712   -2.680065    0.023043
  C      1.223131   -1.949714    2.195447
  N     -1.048469    0.107103   -0.502571
  C     -2.337735    0.324616    0.176269
  C     -3.123107    1.510731   -0.365919
  H     -3.961587    1.711416    0.299353
  H     -3.548011    1.323731   -1.352997
  H     -2.517107    2.415902   -0.410309
  C     -3.162729   -0.956264    0.128551
  H     -2.079415    0.537849    1.214598
  H     -4.085603   -0.824875    0.692089
  H     -3.432365   -1.212038   -0.897002
  H     -2.632896   -1.802376    0.563024
  C     -0.880722    0.419106   -1.734962
  C      0.439461    0.277519   -2.276112
  H     -1.697759    0.805609   -2.337173
  C      1.534281    0.203814   -1.428444
  C      2.721400   -0.043242   -2.169373
  S      0.853317    0.098459   -3.921019
  C      2.500868   -0.112438   -3.514405
  H      1.647902    1.202021   -0.545746
  H      3.707732   -0.109792   -1.733919
  H      3.230615   -0.258905   -4.296315
  H     -0.714385   -3.241093   -0.213830
  H     -0.965402   -2.386663    2.360662
  H      1.447343   -1.512229    3.158139
  O      1.719830    2.272003    0.189078
  O      0.538947    1.005936    1.587892
  C      1.111672    2.093054    1.264586
  C      1.068735    3.209422    2.263578
  H      0.993982    4.171249    1.761736
  H      2.001854    3.211644    2.829890
  H      0.248226    3.087077    2.965118
  H      3.200671   -1.903866    1.171223
  H      1.838401   -2.937117   -0.939326

 Multiplicity           Mult            ....    1
 Number of Electrons    NEL             ....  164
 Basis Dimension        Dim             ....  358

ORBITAL ENERGIES
----------------

  NO   OCC          E(Eh)            E(eV)
   0   2.0000     -89.755765     -2442.3785
   1   2.0000     -19.637513      -534.3639
   2   2.0000     -19.622036      -533.9428
   3   2.0000     -14.831715      -403.5915
   4   2.0000     -10.699865      -291.1581
   5   2.0000     -10.653738      -289.9029
   6   2.0000     -10.630433      -289.2688
   7   2.0000     -10.628646      -289.2202
   8   2.0000     -10.627010      -289.1757
   9   2.0000     -10.622568      -289.0548
  10   2.0000     -10.619620      -288.9746
  11   2.0000     -10.618139      -288.9342
  12   2.0000     -10.612510      -288.7811
  13   2.0000     -10.605200      -288.5822
  14   2.0000     -10.583468      -287.9908
  15   2.0000     -10.581033      -287.9245
  16   2.0000     -10.553589      -287.1778
  17   2.0000     -10.549980      -287.0796
  18   2.0000     -10.545421      -286.9555
  19   2.0000      -8.395245      -228.4462
  20   2.0000      -6.285169      -171.0282
  21   2.0000      -6.281636      -170.9320
  22   2.0000      -6.280132      -170.8911
  23   2.0000      -4.024173      -109.5033
  24   2.0000      -2.342286       -63.7369
  25   2.0000      -2.309480       -62.8442
  26   2.0000      -2.306681       -62.7680
  27   2.0000      -1.328779       -36.1579
  28   2.0000      -1.230465       -33.4826
  29   2.0000      -1.203537       -32.7499
  30   2.0000      -1.166192       -31.7337
  31   2.0000      -1.120548       -30.4917
  32   2.0000      -1.021226       -27.7890
  33   2.0000      -0.979652       -26.6577
  34   2.0000      -0.971685       -26.4409
  35   2.0000      -0.961032       -26.1510
  36   2.0000      -0.954527       -25.9740
  37   2.0000      -0.941231       -25.6122
  38   2.0000      -0.899734       -24.4830
  39   2.0000      -0.868359       -23.6292
  40   2.0000      -0.794467       -21.6185
  41   2.0000      -0.781974       -21.2786
  42   2.0000      -0.781335       -21.2612
  43   2.0000      -0.776749       -21.1364
  44   2.0000      -0.766638       -20.8613
  45   2.0000      -0.766142       -20.8478
  46   2.0000      -0.740188       -20.1415
  47   2.0000      -0.722083       -19.6489
  48   2.0000      -0.691221       -18.8091
  49   2.0000      -0.681184       -18.5359
  50   2.0000      -0.662349       -18.0234
  51   2.0000      -0.660908       -17.9842
  52   2.0000      -0.648947       -17.6587
  53   2.0000      -0.639654       -17.4059
  54   2.0000      -0.634729       -17.2718
  55   2.0000      -0.632550       -17.2126
  56   2.0000      -0.621109       -16.9012
  57   2.0000      -0.606733       -16.5101
  58   2.0000      -0.601982       -16.3808
  59   2.0000      -0.601216       -16.3599
  60   2.0000      -0.594613       -16.1802
  61   2.0000      -0.588032       -16.0012
  62   2.0000      -0.575317       -15.6552
  63   2.0000      -0.568851       -15.4792
  64   2.0000      -0.561516       -15.2796
  65   2.0000      -0.560146       -15.2424
  66   2.0000      -0.556034       -15.1304
  67   2.0000      -0.546607       -14.8739
  68   2.0000      -0.540832       -14.7168
  69   2.0000      -0.533808       -14.5257
  70   2.0000      -0.527796       -14.3621
  71   2.0000      -0.517906       -14.0929
  72   2.0000      -0.513296       -13.9675
  73   2.0000      -0.503725       -13.7071
  74   2.0000      -0.497945       -13.5498
  75   2.0000      -0.479572       -13.0498
  76   2.0000      -0.472418       -12.8551
  77   2.0000      -0.448156       -12.1949
  78   2.0000      -0.446312       -12.1448
  79   2.0000      -0.418405       -11.3854
  80   2.0000      -0.415117       -11.2959
  81   2.0000      -0.397713       -10.8223
  82   0.0000      -0.197005        -5.3608
  83   0.0000      -0.148720        -4.0469
  84   0.0000      -0.141632        -3.8540
  85   0.0000      -0.083903        -2.2831
  86   0.0000      -0.072240        -1.9657

MULLIKEN ATOMIC CHARGES
-----------------------
   0 Ir:    0.603545
   1 C :   -0.226918
   2 C :   -0.280458
   3 C :   -0.252153
   4 C :   -0.232639
   5 C :   -0.162327
   6 N :   -0.442196
   7 C :   -0.124886
   8 C :   -0.683147
   9 H :    0.268881
  10 H :    0.225165
  11 H :    0.254520
  12 C :   -0.634273
  13 H :    0.277934
  14 H :    0.259692
  15 H :    0.232233
  16 H :    0.230634
  17 C :    0.070099
  18 C :   -0.154832
  19 H :    0.283747
  20 C :   -0.469828
  21 C :   -0.137797
  22 S :    0.325180
  23 C :   -0.424068
  24 H :    0.483458
  25 H :    0.261978
  26 H :    0.295524
  27 H :    0.288587
  28 H :    0.286242
  29 H :    0.301056
  30 O :   -0.494456
  31 O :   -0.513053
  32 C :    0.634544
  33 C :   -0.744815
  34 H :    0.274171
  35 H :    0.275184
  36 H :    0.261743
  37 H :    0.287975
  38 H :    0.295756
Sum of atomic charges:    1.0000000

LOEWDIN ATOMIC CHARGES
----------------------
   0 Ir:   -0.243119
   1 C :   -0.049934
   2 C :   -0.085150
   3 C :   -0.078876
   4 C :   -0.042521
   5 C :   -0.016814
   6 N :   -0.014773
   7 C :   -0.068756
   8 C :   -0.362567
   9 H :    0.155824
  10 H :    0.132965
  11 H :    0.143728
  12 C :   -0.344165
  13 H :    0.153938
  14 H :    0.150959
  15 H :    0.137784
  16 H :    0.131967
  17 C :    0.032511
  18 C :   -0.201735
  19 H :    0.159023
  20 C :   -0.214933
  21 C :   -0.139794
  22 S :    0.477844
  23 C :   -0.258310
  24 H :    0.344685
  25 H :    0.159566
  26 H :    0.167643
  27 H :    0.183693
  28 H :    0.182341
  29 H :    0.190318
  30 O :   -0.264325
  31 O :   -0.182585
  32 C :    0.170234
  33 C :   -0.371575
  34 H :    0.164971
  35 H :    0.172361
  36 H :    0.156287
  37 H :    0.184454
  38 H :    0.186835

  Mayer bond orders larger than 0.100000
B(  0-Ir,  1-C ) :   0.4303 B(  0-Ir,  2-C ) :   0.4813 B(  0-Ir,  3-C ) :   0.4601
B(  0-Ir,  4-C ) :   0.4466 B(  0-Ir,  5-C ) :   0.3997 B(  0-Ir,  6-N ) :   0.4696
B(  0-Ir, 20-C ) :   0.3727 B(  0-Ir, 31-O ) :   0.5264 B(  1-C ,  2-C ) :   1.1251
B(  1-C ,  4-C ) :   1.2316 B(  1-C , 27-H ) :   0.9055 B(  2-C ,  5-C ) :   1.1623
B(  2-C , 28-H ) :   0.9098 B(  3-C ,  4-C ) :   1.1215 B(  3-C ,  5-C ) :   1.2081
B(  3-C , 37-H ) :   0.9091 B(  4-C , 38-H ) :   0.9005 B(  5-C , 29-H ) :   0.8997
B(  6-N ,  7-C ) :   0.8945 B(  6-N , 17-C ) :   1.6509 B(  7-C ,  8-C ) :   0.9908
B(  7-C , 12-C ) :   0.9676 B(  7-C , 13-H ) :   0.8779 B(  8-C ,  9-H ) :   0.9048
B(  8-C , 10-H ) :   0.9129 B(  8-C , 11-H ) :   0.9118 B( 12-C , 14-H ) :   0.9077
B( 12-C , 15-H ) :   0.9155 B( 12-C , 16-H ) :   0.9129 B( 17-C , 18-C ) :   1.1061
B( 17-C , 19-H ) :   0.8762 B( 18-C , 20-C ) :   1.2747 B( 18-C , 22-S ) :   1.2145
B( 20-C , 21-C ) :   1.3003 B( 20-C , 24-H ) :   0.3505 B( 21-C , 23-C ) :   1.5325
B( 21-C , 25-H ) :   0.9052 B( 22-S , 23-C ) :   1.2247 B( 23-C , 26-H ) :   0.8918
B( 24-H , 30-O ) :   0.3321 B( 30-O , 32-C ) :   1.5601 B( 31-O , 32-C ) :   1.3748
B( 32-C , 33-C ) :   0.9483 B( 33-C , 34-H ) :   0.8999 B( 33-C , 35-H ) :   0.8931
B( 33-C , 36-H ) :   0.9078

Dispersion correction           -0.030382216
FINAL SINGLE POINT ENERGY     -1288.400467341860

DIPOLE MOMENT
-------------
                                X             Y             Z
Electronic contribution:     35.54188     -73.57507      78.34704
Nuclear contribution   :    -36.13519      72.94866     -78.40992
                        -----------------------------------------
Total Dipole Moment    :     -0.59332      -0.62641      -0.06289
                        -----------------------------------------
Magnitude (a.u.)       :      0.86509
Magnitude (Debye)      :      2.19887

Rotational constants in cm-1:     0.010548     0.008641     0.008081
Rotational constants in MHz :   316.221476   259.035897   242.261068

                             ****ORCA TERMINATED NORMALLY****
TOTAL RUN TIME: 0 days 1 hours 3 minutes 46 seconds 816 msec
