                         Program Version 5.0.3 -  RELEASE  -
|  1> ! Opt PBEh-3c
|  2> %geom Constraints
|  3> { B 0 20 2.1285714285714286 C }
|  4> { B 24 30 1.3857142857142857 C }
|  5>     end
|  6> end
|  7> %output
|  8> xyzfile=True
|  9> end
| 10> %scf
| 11> maxiter 250
| 12> end
| 13> %output
| 14> Print[P_Hirshfeld] = 1
| 15> end
| 16> % maxcore
| 17> 4000
| 18> *xyz 1 1
| 19> Ir   0.61440176  -0.72534433   0.43358213
| 20> C    0.12892803  -2.83763261   0.34323349
| 21> C   -0.05529193  -2.37597875   1.69458029
| 22> C    2.16652401  -2.07725794   1.12450276
| 23> C    1.48494621  -2.65801575  -0.00245231
| 24> C    1.21064144  -1.93471903   2.16238352
| 25> N   -1.06200888   0.12444923  -0.51019437
| 26> C   -2.33554741   0.33723363   0.19483951
| 27> C   -3.13030356   1.52855218  -0.32084045
| 28> H   -3.96070016   1.71760771   0.35769669
| 29> H   -3.56683617   1.35338164  -1.30507461
| 30> H   -2.52696891   2.43575741  -0.35996311
| 31> C   -3.15959870  -0.94475495   0.14627015
| 32> H   -2.05575524   0.53747297   1.23009846
| 33> H   -4.06726788  -0.82461333   0.73631039
| 34> H   -3.45566098  -1.18330128  -0.87608397
| 35> H   -2.61629776  -1.79700042   0.55109486
| 36> C   -0.90769137   0.45553644  -1.73884853
| 37> C    0.41236868   0.28065505  -2.26896463
| 38> H   -1.71715350   0.87153755  -2.33033933
| 39> C    1.46949664   0.12141074  -1.37388038
| 40> C    2.67499554  -0.14607853  -2.09130710
| 41> S    0.87432504   0.13149404  -3.89480829
| 42> C    2.50002627  -0.16361970  -3.44152167
| 43> H    1.62441037   1.13758144  -0.61235998
| 44> H    3.64276981  -0.25944888  -1.62467055
| 45> H    3.24907410  -0.31329737  -4.20418951
| 46> H   -0.63289228  -3.26035985  -0.29547488
| 47> H   -0.96455176  -2.42053088   2.27453229
| 48> H    1.40007159  -1.49300978   3.13059152
| 49> O    1.71889712   2.30556569   0.15372424
| 50> O    0.55177098   1.01457763   1.54028087
| 51> C    1.11482667   2.11371694   1.22257414
| 52> C    1.05031798   3.21913287   2.23562966
| 53> H    0.94007969   4.18221578   1.74248622
| 54> H    1.99069942   3.24607092   2.78876696
| 55> H    0.24282241   3.06786408   2.94653879
| 56> H    3.22007814  -1.85502590   1.19455690
| 57> H    1.93142454  -2.91263477  -0.95256011
| 58> *
| 59>
| 60>                          ****END OF INPUT****
 Total Charge           Charge          ....    1
 Multiplicity           Mult            ....    1
 Number of Electrons    NEL             ....  164
Dispersion correction           -0.030809072
FINAL SINGLE POINT ENERGY     -1288.401434472160
Dispersion correction            ... done
Dispersion correction           -0.030762161
FINAL SINGLE POINT ENERGY     -1288.401441208663
Dispersion correction            ... done
Dispersion correction           -0.030768928
FINAL SINGLE POINT ENERGY     -1288.400420124353
Dispersion correction            ... done
FINAL SINGLE POINT ENERGY     -1288.401759002127
FINAL SINGLE POINT ENERGY     -1288.401794745773
FINAL SINGLE POINT ENERGY     -1288.401827019044
Dispersion correction            ... done
Dispersion correction           -0.030705726
FINAL SINGLE POINT ENERGY     -1288.401869265252
Dispersion correction            ... done
Dispersion correction           -0.030707766
FINAL SINGLE POINT ENERGY     -1288.401870129361
Dispersion correction            ... done
                    ***********************HURRAY********************

CARTESIAN COORDINATES (ANGSTROEM)
---------------------------------
  Ir     0.611955   -0.730571    0.423302
  C      0.116932   -2.842341    0.360166
  C     -0.063065   -2.380080    1.711113
  C      2.157525   -2.083278    1.131924
  C      1.474323   -2.669930    0.010503
  C      1.201415   -1.934734    2.171165
  N     -1.066647    0.120256   -0.515036
  C     -2.340330    0.322667    0.191971
  C     -3.142529    1.512400   -0.315646
  H     -3.973623    1.691849    0.364545
  H     -3.578402    1.340589   -1.300775
  H     -2.544863    2.423618   -0.349282
  C     -3.158298   -0.963005    0.137915
  H     -2.060601    0.518433    1.228289
  H     -4.067701   -0.848908    0.726502
  H     -3.450963   -1.199508   -0.885862
  H     -2.611856   -1.813796    0.541285
  C     -0.910359    0.473466   -1.737820
  C      0.409263    0.301663   -2.265780
  H     -1.717555    0.903592   -2.321860
  C      1.447078    0.077894   -1.359890
  C      2.661460   -0.167665   -2.072616
  S      0.897990    0.240602   -3.888808
  C      2.510256   -0.104728   -3.424422
  H      1.630048    1.141531   -0.624672
  H      3.619450   -0.323761   -1.598045
  H      3.271210   -0.222561   -4.180893
  H     -0.646269   -3.267953   -0.274974
  H     -0.971470   -2.419905    2.292482
  H      1.393482   -1.487267    3.136218
  O      1.734664    2.301545    0.126079
  O      0.561378    1.023042    1.518993
  C      1.128962    2.114760    1.198999
  C      1.078340    3.227661    2.204054
  H      0.968607    4.188117    1.705706
  H      2.023149    3.253751    2.749647
  H      0.275400    3.084096    2.921561
  H      3.212210   -1.866649    1.202153
  H      1.918805   -2.935703   -0.937448

 Multiplicity           Mult            ....    1
 Number of Electrons    NEL             ....  164
 Basis Dimension        Dim             ....  358

ORBITAL ENERGIES
----------------

  NO   OCC          E(Eh)            E(eV)
   0   2.0000     -89.764330     -2442.6116
   1   2.0000     -19.634285      -534.2761
   2   2.0000     -19.619980      -533.8868
   3   2.0000     -14.834438      -403.6656
   4   2.0000     -10.695762      -291.0465
   5   2.0000     -10.654884      -289.9341
   6   2.0000     -10.625986      -289.1478
   7   2.0000     -10.625874      -289.1447
   8   2.0000     -10.624028      -289.0945
   9   2.0000     -10.623079      -289.0687
  10   2.0000     -10.615267      -288.8561
  11   2.0000     -10.613357      -288.8041
  12   2.0000     -10.612824      -288.7896
  13   2.0000     -10.610253      -288.7197
  14   2.0000     -10.589424      -288.1529
  15   2.0000     -10.588914      -288.1390
  16   2.0000     -10.553386      -287.1722
  17   2.0000     -10.550630      -287.0972
  18   2.0000     -10.543839      -286.9124
  19   2.0000      -8.403710      -228.6766
  20   2.0000      -6.293583      -171.2571
  21   2.0000      -6.290028      -171.1604
  22   2.0000      -6.288700      -171.1242
  23   2.0000      -4.020841      -109.4126
  24   2.0000      -2.338000       -63.6202
  25   2.0000      -2.306925       -62.7746
  26   2.0000      -2.303892       -62.6921
  27   2.0000      -1.323819       -36.0229
  28   2.0000      -1.225217       -33.3399
  29   2.0000      -1.207122       -32.8475
  30   2.0000      -1.160792       -31.5867
  31   2.0000      -1.127773       -30.6883
  32   2.0000      -1.024465       -27.8771
  33   2.0000      -0.973458       -26.4891
  34   2.0000      -0.969582       -26.3837
  35   2.0000      -0.966710       -26.3055
  36   2.0000      -0.959044       -26.0969
  37   2.0000      -0.938737       -25.5443
  38   2.0000      -0.900348       -24.4997
  39   2.0000      -0.872125       -23.7317
  40   2.0000      -0.798172       -21.7194
  41   2.0000      -0.782034       -21.2802
  42   2.0000      -0.777091       -21.1457
  43   2.0000      -0.776478       -21.1290
  44   2.0000      -0.761933       -20.7333
  45   2.0000      -0.759970       -20.6798
  46   2.0000      -0.742461       -20.2034
  47   2.0000      -0.721789       -19.6409
  48   2.0000      -0.693060       -18.8591
  49   2.0000      -0.684400       -18.6235
  50   2.0000      -0.663527       -18.0555
  51   2.0000      -0.658910       -17.9299
  52   2.0000      -0.647796       -17.6274
  53   2.0000      -0.637923       -17.3588
  54   2.0000      -0.631173       -17.1751
  55   2.0000      -0.628040       -17.0898
  56   2.0000      -0.621531       -16.9127
  57   2.0000      -0.610711       -16.6183
  58   2.0000      -0.599871       -16.3233
  59   2.0000      -0.597368       -16.2552
  60   2.0000      -0.596569       -16.2335
  61   2.0000      -0.591094       -16.0845
  62   2.0000      -0.579214       -15.7612
  63   2.0000      -0.567906       -15.4535
  64   2.0000      -0.565778       -15.3956
  65   2.0000      -0.562019       -15.2933
  66   2.0000      -0.554494       -15.0885
  67   2.0000      -0.546812       -14.8795
  68   2.0000      -0.542134       -14.7522
  69   2.0000      -0.535274       -14.5656
  70   2.0000      -0.529284       -14.4026
  71   2.0000      -0.518171       -14.1002
  72   2.0000      -0.512878       -13.9561
  73   2.0000      -0.500299       -13.6138
  74   2.0000      -0.494695       -13.4613
  75   2.0000      -0.486079       -13.2269
  76   2.0000      -0.477959       -13.0059
  77   2.0000      -0.450053       -12.2466
  78   2.0000      -0.444209       -12.0876
  79   2.0000      -0.418540       -11.3891
  80   2.0000      -0.415440       -11.3047
  81   2.0000      -0.394677       -10.7397
  82   0.0000      -0.204536        -5.5657
  83   0.0000      -0.143127        -3.8947
  84   0.0000      -0.132464        -3.6045
  85   0.0000      -0.086860        -2.3636
  86   0.0000      -0.073895        -2.0108

MULLIKEN ATOMIC CHARGES
-----------------------
   0 Ir:    0.606721
   1 C :   -0.238206
   2 C :   -0.262331
   3 C :   -0.267180
   4 C :   -0.228599
   5 C :   -0.154479
   6 N :   -0.433488
   7 C :   -0.125065
   8 C :   -0.683784
   9 H :    0.269843
  10 H :    0.224650
  11 H :    0.253994
  12 C :   -0.634219
  13 H :    0.280194
  14 H :    0.259225
  15 H :    0.232491
  16 H :    0.233434
  17 C :    0.068991
  18 C :   -0.123915
  19 H :    0.285828
  20 C :   -0.560870
  21 C :   -0.099786
  22 S :    0.341945
  23 C :   -0.427671
  24 H :    0.472892
  25 H :    0.266707
  26 H :    0.298087
  27 H :    0.285542
  28 H :    0.282237
  29 H :    0.298163
  30 O :   -0.479018
  31 O :   -0.511423
  32 C :    0.630363
  33 C :   -0.743947
  34 H :    0.272515
  35 H :    0.274799
  36 H :    0.260514
  37 H :    0.282297
  38 H :    0.292549
Sum of atomic charges:    1.0000000

LOEWDIN ATOMIC CHARGES
----------------------
   0 Ir:   -0.257954
   1 C :   -0.055038
   2 C :   -0.097789
   3 C :   -0.092822
   4 C :   -0.044599
   5 C :   -0.016395
   6 N :   -0.003138
   7 C :   -0.069315
   8 C :   -0.362626
   9 H :    0.156360
  10 H :    0.132931
  11 H :    0.143456
  12 C :   -0.343719
  13 H :    0.155215
  14 H :    0.150866
  15 H :    0.137936
  16 H :    0.133228
  17 C :    0.028364
  18 C :   -0.187610
  19 H :    0.160530
  20 C :   -0.219690
  21 C :   -0.125851
  22 S :    0.497595
  23 C :   -0.258369
  24 H :    0.354044
  25 H :    0.162280
  26 H :    0.169328
  27 H :    0.182038
  28 H :    0.179816
  29 H :    0.188386
  30 O :   -0.262179
  31 O :   -0.183891
  32 C :    0.163125
  33 C :   -0.372029
  34 H :    0.164270
  35 H :    0.171772
  36 H :    0.155316
  37 H :    0.181786
  38 H :    0.184374

  Mayer bond orders larger than 0.100000
B(  0-Ir,  1-C ) :   0.4377 B(  0-Ir,  2-C ) :   0.4141 B(  0-Ir,  3-C ) :   0.4646
B(  0-Ir,  4-C ) :   0.4297 B(  0-Ir,  5-C ) :   0.3764 B(  0-Ir,  6-N ) :   0.4651
B(  0-Ir, 20-C ) :   0.4744 B(  0-Ir, 31-O ) :   0.5251 B(  1-C ,  2-C ) :   1.1296
B(  1-C ,  4-C ) :   1.2272 B(  1-C , 27-H ) :   0.9076 B(  2-C ,  5-C ) :   1.2031
B(  2-C , 28-H ) :   0.9105 B(  3-C ,  4-C ) :   1.1337 B(  3-C ,  5-C ) :   1.1832
B(  3-C , 37-H ) :   0.9127 B(  4-C , 38-H ) :   0.9001 B(  5-C , 29-H ) :   0.9011
B(  6-N ,  7-C ) :   0.8960 B(  6-N , 17-C ) :   1.6487 B(  7-C ,  8-C ) :   0.9906
B(  7-C , 12-C ) :   0.9665 B(  7-C , 13-H ) :   0.8757 B(  8-C ,  9-H ) :   0.9046
B(  8-C , 10-H ) :   0.9129 B(  8-C , 11-H ) :   0.9119 B( 12-C , 14-H ) :   0.9077
B( 12-C , 15-H ) :   0.9153 B( 12-C , 16-H ) :   0.9118 B( 17-C , 18-C ) :   1.1103
B( 17-C , 19-H ) :   0.8762 B( 18-C , 20-C ) :   1.2275 B( 18-C , 22-S ) :   1.2438
B( 20-C , 21-C ) :   1.2655 B( 20-C , 24-H ) :   0.3563 B( 21-C , 23-C ) :   1.5449
B( 21-C , 25-H ) :   0.9025 B( 22-S , 23-C ) :   1.2159 B( 23-C , 26-H ) :   0.8913
B( 24-H , 30-O ) :   0.3342 B( 30-O , 32-C ) :   1.5778 B( 31-O , 32-C ) :   1.3699
B( 32-C , 33-C ) :   0.9445 B( 33-C , 34-H ) :   0.9005 B( 33-C , 35-H ) :   0.8938
B( 33-C , 36-H ) :   0.9083

Dispersion correction           -0.030706880
FINAL SINGLE POINT ENERGY     -1288.401870633099

DIPOLE MOMENT
-------------
                                X             Y             Z
Electronic contribution:     37.21314     -73.29918      71.12492
Nuclear contribution   :    -37.82668      72.77286     -71.41445
                        -----------------------------------------
Total Dipole Moment    :     -0.61354      -0.52632      -0.28953
                        -----------------------------------------
Magnitude (a.u.)       :      0.85865
Magnitude (Debye)      :      2.18251

Rotational constants in cm-1:     0.010538     0.008890     0.008218
Rotational constants in MHz :   315.927201   266.530225   246.381425

                             ****ORCA TERMINATED NORMALLY****
TOTAL RUN TIME: 0 days 1 hours 12 minutes 28 seconds 289 msec
