                         Program Version 5.0.3 -  RELEASE  -
|  1> ! Opt PBEh-3c
|  2> %geom Constraints
|  3> { B 0 20 2.1285714285714286 C }
|  4> { B 24 30 1.4857142857142858 C }
|  5>     end
|  6> end
|  7> %output
|  8> xyzfile=True
|  9> end
| 10> %scf
| 11> maxiter 250
| 12> end
| 13> %output
| 14> Print[P_Hirshfeld] = 1
| 15> end
| 16> % maxcore
| 17> 4000
| 18> *xyz 1 1
| 19> Ir   0.63149709  -0.70952942   0.40655875
| 20> C    0.10331408  -2.81897807   0.34301190
| 21> C    0.06965704  -2.35838069   1.70398082
| 22> C    2.22140580  -2.09650310   0.90435001
| 23> C    1.41221641  -2.65376008  -0.15284899
| 24> C    1.39206990  -1.94314305   2.03822860
| 25> N   -1.04751064   0.14686645  -0.52958273
| 26> C   -2.30626908   0.42474454   0.17808516
| 27> C   -3.09508879   1.58310750  -0.41318207
| 28> H   -3.91351845   1.83245136   0.26072468
| 29> H   -3.54842092   1.33984585  -1.37514492
| 30> H   -2.48255573   2.47775430  -0.52731999
| 31> C   -3.14049944  -0.84971283   0.24480063
| 32> H   -2.00199753   0.69508559   1.19010226
| 33> H   -4.03767021  -0.67030582   0.83547447
| 34> H   -3.45402267  -1.16986380  -0.74962778
| 35> H   -2.59745834  -1.66790487   0.71536896
| 36> C   -0.89076349   0.40481642  -1.77341156
| 37> C    0.44213887   0.19383210  -2.27192958
| 38> H   -1.68972256   0.79533693  -2.39579732
| 39> C    1.49931372   0.21721178  -1.35501643
| 40> C    2.72230649  -0.11067601  -2.02275295
| 41> S    0.91900270  -0.21752713  -3.84260776
| 42> C    2.55792449  -0.36802937  -3.34633112
| 43> H    1.52194092   1.20426723  -0.66847504
| 44> H    3.68974560  -0.09997518  -1.54200446
| 45> H    3.31502459  -0.61385057  -4.07537197
| 46> H   -0.73419936  -3.21475226  -0.21332004
| 47> H   -0.77530231  -2.38907281   2.37509073
| 48> H    1.69360093  -1.51372022   2.98308034
| 49> O    1.40797013   2.44875607   0.16113823
| 50> O    0.55000272   0.96570773   1.58474423
| 51> C    0.95936348   2.14158567   1.26774182
| 52> C    0.89107860   3.15939804   2.37197828
| 53> H    0.86382675   4.16767270   1.96796306
| 54> H    1.78682878   3.07123913   2.98968362
| 55> H    0.03298698   2.99227570   3.01931301
| 56> H    3.27822123  -1.88252374   0.85802713
| 57> H    1.75293228  -2.91455611  -1.14398185
| 58> *
| 59>
| 60>                          ****END OF INPUT****
 Total Charge           Charge          ....    1
 Multiplicity           Mult            ....    1
 Number of Electrons    NEL             ....  164
Dispersion correction           -0.031095910
FINAL SINGLE POINT ENERGY     -1288.398172746316
Dispersion correction            ... done
Dispersion correction           -0.031018054
FINAL SINGLE POINT ENERGY     -1288.398141613917
Dispersion correction            ... done
Dispersion correction           -0.031026223
FINAL SINGLE POINT ENERGY     -1288.398000279955
Dispersion correction            ... done
FINAL SINGLE POINT ENERGY     -1288.398488552126
FINAL SINGLE POINT ENERGY     -1288.398534178153
FINAL SINGLE POINT ENERGY     -1288.398614367957
FINAL SINGLE POINT ENERGY     -1288.398639986837
FINAL SINGLE POINT ENERGY     -1288.398653180773
FINAL SINGLE POINT ENERGY     -1288.398660331370
FINAL SINGLE POINT ENERGY     -1288.398678043939
FINAL SINGLE POINT ENERGY     -1288.398688254335
FINAL SINGLE POINT ENERGY     -1288.398700062911
FINAL SINGLE POINT ENERGY     -1288.398711583309
FINAL SINGLE POINT ENERGY     -1288.398720142182
FINAL SINGLE POINT ENERGY     -1288.398727043065
Dispersion correction            ... done
Dispersion correction           -0.030902116
FINAL SINGLE POINT ENERGY     -1288.398728821459
Dispersion correction            ... done
Dispersion correction           -0.030905620
FINAL SINGLE POINT ENERGY     -1288.398727801849
Dispersion correction            ... done
                    ***********************HURRAY********************

CARTESIAN COORDINATES (ANGSTROEM)
---------------------------------
  Ir     0.635171   -0.716210    0.407558
  C      0.149715   -2.835038    0.309992
  C      0.005888   -2.385339    1.669414
  C      2.207386   -2.074545    1.034609
  C      1.492533   -2.648418   -0.076881
  C      1.284986   -1.944064    2.102626
  N     -1.052508    0.134639   -0.516780
  C     -2.310290    0.387749    0.201845
  C     -3.091353    1.578726   -0.334171
  H     -3.909249    1.800139    0.349960
  H     -3.544235    1.385421   -1.307530
  H     -2.472997    2.473800   -0.404977
  C     -3.153855   -0.882541    0.202469
  H     -2.008146    0.608809    1.226312
  H     -4.045811   -0.732653    0.809200
  H     -3.476428   -1.142139   -0.806635
  H     -2.613085   -1.731468    0.617933
  C     -0.908285    0.420362   -1.757297
  C      0.414852    0.215882   -2.274990
  H     -1.714678    0.824946   -2.360569
  C      1.467600    0.137878   -1.355511
  C      2.686530   -0.155236   -2.048169
  S      0.890631   -0.057468   -3.875483
  C      2.522517   -0.284817   -3.390880
  H      1.548279    1.150927   -0.673960
  H      3.652497   -0.208281   -1.567230
  H      3.278470   -0.477689   -4.136809
  H     -0.632133   -3.251692   -0.308305
  H     -0.886296   -2.434942    2.274977
  H      1.503249   -1.510193    3.068245
  O      1.515580    2.404803    0.122327
  O      0.567947    0.987203    1.554759
  C      1.019874    2.140071    1.222790
  C      0.947568    3.195567    2.290088
  H      0.899852    4.187792    1.849279
  H      1.854083    3.146059    2.896119
  H      0.100231    3.038778    2.953283
  H      3.262189   -1.850576    1.074331
  H      1.911092   -2.897053   -1.041198

 Multiplicity           Mult            ....    1
 Number of Electrons    NEL             ....  164
 Basis Dimension        Dim             ....  358

ORBITAL ENERGIES
----------------

  NO   OCC          E(Eh)            E(eV)
   0   2.0000     -89.770314     -2442.7744
   1   2.0000     -19.625128      -534.0269
   2   2.0000     -19.601166      -533.3748
   3   2.0000     -14.839197      -403.7951
   4   2.0000     -10.683940      -290.7248
   5   2.0000     -10.659115      -290.0493
   6   2.0000     -10.634721      -289.3855
   7   2.0000     -10.627853      -289.1986
   8   2.0000     -10.626628      -289.1653
   9   2.0000     -10.624975      -289.1203
  10   2.0000     -10.619076      -288.9598
  11   2.0000     -10.616528      -288.8904
  12   2.0000     -10.614245      -288.8283
  13   2.0000     -10.613852      -288.8176
  14   2.0000     -10.593046      -288.2514
  15   2.0000     -10.590437      -288.1804
  16   2.0000     -10.555143      -287.2200
  17   2.0000     -10.551284      -287.1150
  18   2.0000     -10.536499      -286.7127
  19   2.0000      -8.409692      -228.8394
  20   2.0000      -6.299549      -171.4195
  21   2.0000      -6.295947      -171.3214
  22   2.0000      -6.294732      -171.2884
  23   2.0000      -4.022801      -109.4660
  24   2.0000      -2.340403       -63.6856
  25   2.0000      -2.308724       -62.8236
  26   2.0000      -2.306283       -62.7571
  27   2.0000      -1.309938       -35.6452
  28   2.0000      -1.213184       -33.0124
  29   2.0000      -1.210576       -32.9414
  30   2.0000      -1.163452       -31.6591
  31   2.0000      -1.132622       -30.8202
  32   2.0000      -1.027528       -27.9604
  33   2.0000      -0.976325       -26.5672
  34   2.0000      -0.974363       -26.5138
  35   2.0000      -0.969490       -26.3812
  36   2.0000      -0.962783       -26.1987
  37   2.0000      -0.929820       -25.3017
  38   2.0000      -0.901532       -24.5319
  39   2.0000      -0.876030       -23.8380
  40   2.0000      -0.801699       -21.8153
  41   2.0000      -0.785567       -21.3764
  42   2.0000      -0.779570       -21.2132
  43   2.0000      -0.778813       -21.1926
  44   2.0000      -0.764276       -20.7970
  45   2.0000      -0.754920       -20.5424
  46   2.0000      -0.743747       -20.2384
  47   2.0000      -0.724152       -19.7052
  48   2.0000      -0.691015       -18.8035
  49   2.0000      -0.679202       -18.4820
  50   2.0000      -0.665084       -18.0979
  51   2.0000      -0.650302       -17.6956
  52   2.0000      -0.646507       -17.5923
  53   2.0000      -0.634430       -17.2637
  54   2.0000      -0.632780       -17.2188
  55   2.0000      -0.628500       -17.1024
  56   2.0000      -0.622827       -16.9480
  57   2.0000      -0.614379       -16.7181
  58   2.0000      -0.602986       -16.4081
  59   2.0000      -0.599837       -16.3224
  60   2.0000      -0.599086       -16.3020
  61   2.0000      -0.593152       -16.1405
  62   2.0000      -0.582291       -15.8449
  63   2.0000      -0.573423       -15.6036
  64   2.0000      -0.564364       -15.3571
  65   2.0000      -0.559541       -15.2259
  66   2.0000      -0.551515       -15.0075
  67   2.0000      -0.548008       -14.9120
  68   2.0000      -0.541463       -14.7339
  69   2.0000      -0.536933       -14.6107
  70   2.0000      -0.529054       -14.3963
  71   2.0000      -0.518920       -14.1205
  72   2.0000      -0.514547       -14.0015
  73   2.0000      -0.498653       -13.5690
  74   2.0000      -0.488248       -13.2859
  75   2.0000      -0.485277       -13.2051
  76   2.0000      -0.477999       -13.0070
  77   2.0000      -0.446157       -12.1405
  78   2.0000      -0.442781       -12.0487
  79   2.0000      -0.423393       -11.5211
  80   2.0000      -0.415460       -11.3052
  81   2.0000      -0.395860       -10.7719
  82   0.0000      -0.210837        -5.7372
  83   0.0000      -0.143148        -3.8953
  84   0.0000      -0.138312        -3.7636
  85   0.0000      -0.091868        -2.4998
  86   0.0000      -0.077847        -2.1183

MULLIKEN ATOMIC CHARGES
-----------------------
   0 Ir:    0.607569
   1 C :   -0.231035
   2 C :   -0.263203
   3 C :   -0.264496
   4 C :   -0.231079
   5 C :   -0.155292
   6 N :   -0.426039
   7 C :   -0.129254
   8 C :   -0.682739
   9 H :    0.270026
  10 H :    0.223645
  11 H :    0.258019
  12 C :   -0.634008
  13 H :    0.283508
  14 H :    0.261062
  15 H :    0.231511
  16 H :    0.233467
  17 C :    0.072277
  18 C :   -0.126895
  19 H :    0.288503
  20 C :   -0.568625
  21 C :   -0.091915
  22 S :    0.341992
  23 C :   -0.432784
  24 H :    0.474855
  25 H :    0.270080
  26 H :    0.299938
  27 H :    0.285737
  28 H :    0.284292
  29 H :    0.301564
  30 O :   -0.468113
  31 O :   -0.527287
  32 C :    0.618525
  33 C :   -0.743397
  34 H :    0.269586
  35 H :    0.269330
  36 H :    0.254703
  37 H :    0.283826
  38 H :    0.292143
Sum of atomic charges:    1.0000000

LOEWDIN ATOMIC CHARGES
----------------------
   0 Ir:   -0.254520
   1 C :   -0.053358
   2 C :   -0.090197
   3 C :   -0.087264
   4 C :   -0.047448
   5 C :   -0.015360
   6 N :    0.003354
   7 C :   -0.070389
   8 C :   -0.362459
   9 H :    0.156722
  10 H :    0.132635
  11 H :    0.145444
  12 C :   -0.343414
  13 H :    0.156885
  14 H :    0.151849
  15 H :    0.137389
  16 H :    0.133620
  17 C :    0.029044
  18 C :   -0.171412
  19 H :    0.162150
  20 C :   -0.216009
  21 C :   -0.117476
  22 S :    0.503331
  23 C :   -0.260993
  24 H :    0.327751
  25 H :    0.164465
  26 H :    0.170039
  27 H :    0.182231
  28 H :    0.180965
  29 H :    0.190359
  30 O :   -0.266162
  31 O :   -0.199197
  32 C :    0.152428
  33 C :   -0.374290
  34 H :    0.160483
  35 H :    0.168739
  36 H :    0.153627
  37 H :    0.182539
  38 H :    0.183898

  Mayer bond orders larger than 0.100000
B(  0-Ir,  1-C ) :   0.4262 B(  0-Ir,  2-C ) :   0.4319 B(  0-Ir,  3-C ) :   0.4659
B(  0-Ir,  4-C ) :   0.4285 B(  0-Ir,  5-C ) :   0.3814 B(  0-Ir,  6-N ) :   0.4615
B(  0-Ir, 20-C ) :   0.4370 B(  0-Ir, 31-O ) :   0.5534 B(  1-C ,  2-C ) :   1.1281
B(  1-C ,  4-C ) :   1.2382 B(  1-C , 27-H ) :   0.9073 B(  2-C ,  5-C ) :   1.1876
B(  2-C , 28-H ) :   0.9099 B(  3-C ,  4-C ) :   1.1244 B(  3-C ,  5-C ) :   1.1939
B(  3-C , 37-H ) :   0.9119 B(  4-C , 38-H ) :   0.8993 B(  5-C , 29-H ) :   0.8997
B(  6-N ,  7-C ) :   0.8938 B(  6-N , 17-C ) :   1.6601 B(  7-C ,  8-C ) :   0.9902
B(  7-C , 12-C ) :   0.9663 B(  7-C , 13-H ) :   0.8735 B(  8-C ,  9-H ) :   0.9044
B(  8-C , 10-H ) :   0.9133 B(  8-C , 11-H ) :   0.9102 B( 12-C , 14-H ) :   0.9072
B( 12-C , 15-H ) :   0.9155 B( 12-C , 16-H ) :   0.9120 B( 17-C , 18-C ) :   1.0959
B( 17-C , 19-H ) :   0.8762 B( 18-C , 20-C ) :   1.2201 B( 18-C , 22-S ) :   1.2654
B( 20-C , 21-C ) :   1.2458 B( 20-C , 24-H ) :   0.4301 B( 21-C , 23-C ) :   1.5596
B( 21-C , 25-H ) :   0.9015 B( 22-S , 23-C ) :   1.2014 B( 23-C , 26-H ) :   0.8908
B( 24-H , 30-O ) :   0.2807 B( 30-O , 32-C ) :   1.6593 B( 31-O , 32-C ) :   1.3115
B( 32-C , 33-C ) :   0.9431 B( 33-C , 34-H ) :   0.9040 B( 33-C , 35-H ) :   0.8971
B( 33-C , 36-H ) :   0.9092

Dispersion correction           -0.030909010
FINAL SINGLE POINT ENERGY     -1288.398725957791

DIPOLE MOMENT
-------------
                                X             Y             Z
Electronic contribution:     39.79065     -70.16904      69.52579
Nuclear contribution   :    -40.43376      69.30032     -70.00079
                        -----------------------------------------
Total Dipole Moment    :     -0.64311      -0.86872      -0.47500
                        -----------------------------------------
Magnitude (a.u.)       :      1.18063
Magnitude (Debye)      :      3.00093

Rotational constants in cm-1:     0.010543     0.009144     0.008229
Rotational constants in MHz :   316.086020   274.143762   246.694893

                             ****ORCA TERMINATED NORMALLY****
TOTAL RUN TIME: 0 days 2 hours 9 minutes 49 seconds 446 msec
