                         Program Version 5.0.3 -  RELEASE  -
|  1> ! Opt PBEh-3c
|  2> %geom Constraints
|  3> { B 0 20 2.3 C }
|  4> { B 24 30 1.3857142857142857 C }
|  5>     end
|  6> end
|  7> %output
|  8> xyzfile=True
|  9> end
| 10> %scf
| 11> maxiter 250
| 12> end
| 13> %output
| 14> Print[P_Hirshfeld] = 1
| 15> end
| 16> % maxcore
| 17> 4000
| 18> *xyz 1 1
| 19> Ir   0.60898988  -0.72370297   0.46259997
| 20> C    0.08632357  -2.82085681   0.35161054
| 21> C    0.02977339  -2.35989702   1.71484073
| 22> C    2.19738174  -2.11096873   0.96045117
| 23> C    1.40292251  -2.65186009  -0.11764715
| 24> C    1.35406860  -1.96465056   2.08119140
| 25> N   -1.04248564   0.13674846  -0.51151298
| 26> C   -2.31478400   0.41079749   0.17651034
| 27> C   -3.09454125   1.57036482  -0.42498767
| 28> H   -3.92130630   1.82140236   0.23807956
| 29> H   -3.53579232   1.32814088  -1.39274478
| 30> H   -2.47911958   2.46385472  -0.53199690
| 31> C   -3.15013236  -0.86336561   0.22589999
| 32> H   -2.02976841   0.68084815   1.19427418
| 33> H   -4.05846948  -0.68630858   0.80006881
| 34> H   -3.44507979  -1.18142978  -0.77491969
| 35> H   -2.61645849  -1.68336941   0.70408607
| 36> C   -0.87639876   0.38275612  -1.75633993
| 37> C    0.45634093   0.19676904  -2.26848384
| 38> H   -1.68307173   0.74920677  -2.38442723
| 39> C    1.54878134   0.31574525  -1.41498332
| 40> C    2.75082518  -0.01968489  -2.10235752
| 41> S    0.88635675  -0.27874689  -3.84410632
| 42> C    2.54316252  -0.35279380  -3.40560829
| 43> H    1.54483874   1.26021459  -0.62504763
| 44> H    3.73488496   0.03959303  -1.66064405
| 45> H    3.28081755  -0.61681145  -4.14822296
| 46> H   -0.74284596  -3.20933498  -0.22199352
| 47> H   -0.82548944  -2.39670418   2.37297295
| 48> H    1.64115574  -1.54723372   3.03591772
| 49> O    1.45738802   2.39761965   0.18653238
| 50> O    0.54595555   0.96000270   1.62357638
| 51> C    0.98585051   2.11953785   1.29471608
| 52> C    0.93075383   3.15988234   2.37612702
| 53> H    0.89167124   4.15889714   1.95033565
| 54> H    1.83903199   3.09123610   2.97797908
| 55> H    0.08539520   3.00241254   3.04194319
| 56> H    3.25300857  -1.88837928   0.92598413
| 57> H    1.75943526  -2.89074120  -1.10893352
| 58> *
| 59>
| 60>                          ****END OF INPUT****
 Total Charge           Charge          ....    1
 Multiplicity           Mult            ....    1
 Number of Electrons    NEL             ....  164
Dispersion correction           -0.030852373
FINAL SINGLE POINT ENERGY     -1288.400119184996
Dispersion correction            ... done
Dispersion correction           -0.030946657
FINAL SINGLE POINT ENERGY     -1288.396369086331
Dispersion correction            ... done
Dispersion correction           -0.030841997
FINAL SINGLE POINT ENERGY     -1288.400267476406
Dispersion correction            ... done
FINAL SINGLE POINT ENERGY     -1288.398306452151
FINAL SINGLE POINT ENERGY     -1288.400363219834
FINAL SINGLE POINT ENERGY     -1288.400394710846
FINAL SINGLE POINT ENERGY     -1288.400426432877
Dispersion correction            ... done
Dispersion correction           -0.030723748
FINAL SINGLE POINT ENERGY     -1288.400450540471
Dispersion correction            ... done
Dispersion correction           -0.030709061
FINAL SINGLE POINT ENERGY     -1288.400450481888
Dispersion correction            ... done
                    ***********************HURRAY********************

CARTESIAN COORDINATES (ANGSTROEM)
---------------------------------
  Ir     0.609755   -0.725690    0.460196
  C      0.079776   -2.823161    0.368616
  C      0.016356   -2.357295    1.728817
  C      2.189339   -2.115016    0.983358
  C      1.400345   -2.661613   -0.094971
  C      1.337412   -1.958586    2.097636
  N     -1.044851    0.130640   -0.514361
  C     -2.318704    0.392527    0.175448
  C     -3.104127    1.555139   -0.413347
  H     -3.932210    1.794159    0.252479
  H     -3.544173    1.321762   -1.383816
  H     -2.493669    2.453216   -0.510118
  C     -3.150444   -0.884551    0.210701
  H     -2.035901    0.653289    1.196305
  H     -4.061044   -0.715561    0.783797
  H     -3.441570   -1.193822   -0.793984
  H     -2.616093   -1.707641    0.682512
  C     -0.880070    0.394942   -1.756501
  C      0.450143    0.216818   -2.272364
  H     -1.688032    0.770440   -2.377294
  C      1.532771    0.263940   -1.399554
  C      2.738508   -0.043199   -2.094093
  S      0.891555   -0.163698   -3.869515
  C      2.541466   -0.287790   -3.418891
  H      1.555578    1.233182   -0.608125
  H      3.718323   -0.026786   -1.639473
  H      3.284362   -0.513303   -4.168891
  H     -0.746500   -3.213369   -0.207991
  H     -0.842605   -2.388345    2.382180
  H      1.619901   -1.534695    3.050901
  O      1.514090    2.374003    0.177375
  O      0.545687    0.971566    1.610638
  C      1.013225    2.116464    1.280895
  C      0.957655    3.174266    2.344442
  H      0.940253    4.167311    1.903516
  H      1.855360    3.100763    2.961300
  H      0.099522    3.038730    2.998489
  H      3.246411   -1.898723    0.956253
  H      1.761571   -2.911122   -1.081824

 Multiplicity           Mult            ....    1
 Number of Electrons    NEL             ....  164
 Basis Dimension        Dim             ....  358

ORBITAL ENERGIES
----------------

  NO   OCC          E(Eh)            E(eV)
   0   2.0000     -89.762660     -2442.5661
   1   2.0000     -19.628889      -534.1292
   2   2.0000     -19.604947      -533.4777
   3   2.0000     -14.836875      -403.7319
   4   2.0000     -10.688851      -290.8584
   5   2.0000     -10.658011      -290.0192
   6   2.0000     -10.630871      -289.2807
   7   2.0000     -10.630640      -289.2744
   8   2.0000     -10.627622      -289.1923
   9   2.0000     -10.626872      -289.1719
  10   2.0000     -10.624084      -289.0960
  11   2.0000     -10.622232      -289.0456
  12   2.0000     -10.614060      -288.8232
  13   2.0000     -10.609334      -288.6947
  14   2.0000     -10.585950      -288.0583
  15   2.0000     -10.584838      -288.0281
  16   2.0000     -10.555211      -287.2219
  17   2.0000     -10.550976      -287.1067
  18   2.0000     -10.538676      -286.7720
  19   2.0000      -8.402088      -228.6324
  20   2.0000      -6.292012      -171.2144
  21   2.0000      -6.288428      -171.1168
  22   2.0000      -6.287009      -171.0782
  23   2.0000      -4.025110      -109.5288
  24   2.0000      -2.343397       -63.7671
  25   2.0000      -2.310219       -62.8643
  26   2.0000      -2.308276       -62.8114
  27   2.0000      -1.315656       -35.8008
  28   2.0000      -1.217824       -33.1387
  29   2.0000      -1.208789       -32.8928
  30   2.0000      -1.167388       -31.7663
  31   2.0000      -1.126315       -30.6486
  32   2.0000      -1.024875       -27.8883
  33   2.0000      -0.981065       -26.6961
  34   2.0000      -0.972817       -26.4717
  35   2.0000      -0.966260       -26.2933
  36   2.0000      -0.958913       -26.0934
  37   2.0000      -0.933407       -25.3993
  38   2.0000      -0.901342       -24.5268
  39   2.0000      -0.872517       -23.7424
  40   2.0000      -0.797877       -21.7113
  41   2.0000      -0.783262       -21.3136
  42   2.0000      -0.782656       -21.2972
  43   2.0000      -0.780597       -21.2411
  44   2.0000      -0.767585       -20.8871
  45   2.0000      -0.758377       -20.6365
  46   2.0000      -0.742469       -20.2036
  47   2.0000      -0.722613       -19.6633
  48   2.0000      -0.691405       -18.8141
  49   2.0000      -0.679562       -18.4918
  50   2.0000      -0.663632       -18.0583
  51   2.0000      -0.653070       -17.7709
  52   2.0000      -0.647541       -17.6205
  53   2.0000      -0.637187       -17.3387
  54   2.0000      -0.635813       -17.3014
  55   2.0000      -0.631978       -17.1970
  56   2.0000      -0.622331       -16.9345
  57   2.0000      -0.610564       -16.6143
  58   2.0000      -0.603210       -16.4142
  59   2.0000      -0.602578       -16.3970
  60   2.0000      -0.598000       -16.2724
  61   2.0000      -0.590177       -16.0595
  62   2.0000      -0.578265       -15.7354
  63   2.0000      -0.568754       -15.4766
  64   2.0000      -0.562868       -15.3164
  65   2.0000      -0.560843       -15.2613
  66   2.0000      -0.552246       -15.0274
  67   2.0000      -0.548037       -14.9129
  68   2.0000      -0.540617       -14.7109
  69   2.0000      -0.535631       -14.5753
  70   2.0000      -0.528153       -14.3718
  71   2.0000      -0.518789       -14.1170
  72   2.0000      -0.514325       -13.9955
  73   2.0000      -0.502206       -13.6657
  74   2.0000      -0.491859       -13.3842
  75   2.0000      -0.480346       -13.0709
  76   2.0000      -0.473371       -12.8811
  77   2.0000      -0.446642       -12.1537
  78   2.0000      -0.445306       -12.1174
  79   2.0000      -0.420472       -11.4416
  80   2.0000      -0.417382       -11.3575
  81   2.0000      -0.399475       -10.8703
  82   0.0000      -0.202804        -5.5186
  83   0.0000      -0.150316        -4.0903
  84   0.0000      -0.141442        -3.8488
  85   0.0000      -0.090326        -2.4579
  86   0.0000      -0.073842        -2.0093

MULLIKEN ATOMIC CHARGES
-----------------------
   0 Ir:    0.608495
   1 C :   -0.220061
   2 C :   -0.278481
   3 C :   -0.249467
   4 C :   -0.238800
   5 C :   -0.162234
   6 N :   -0.432192
   7 C :   -0.125995
   8 C :   -0.685341
   9 H :    0.270059
  10 H :    0.224689
  11 H :    0.257811
  12 C :   -0.635071
  13 H :    0.281320
  14 H :    0.261652
  15 H :    0.231446
  16 H :    0.231680
  17 C :    0.070699
  18 C :   -0.152352
  19 H :    0.287395
  20 C :   -0.500905
  21 C :   -0.121207
  22 S :    0.325370
  23 C :   -0.429991
  24 H :    0.488072
  25 H :    0.264993
  26 H :    0.297463
  27 H :    0.288537
  28 H :    0.287701
  29 H :    0.303056
  30 O :   -0.482396
  31 O :   -0.526529
  32 C :    0.624983
  33 C :   -0.744465
  34 H :    0.271318
  35 H :    0.269960
  36 H :    0.256779
  37 H :    0.288097
  38 H :    0.293909
Sum of atomic charges:    1.0000000

LOEWDIN ATOMIC CHARGES
----------------------
   0 Ir:   -0.241427
   1 C :   -0.045888
   2 C :   -0.081240
   3 C :   -0.071977
   4 C :   -0.050465
   5 C :   -0.017986
   6 N :   -0.006195
   7 C :   -0.069622
   8 C :   -0.363050
   9 H :    0.156516
  10 H :    0.133008
  11 H :    0.145369
  12 C :   -0.343708
  13 H :    0.155807
  14 H :    0.151933
  15 H :    0.137396
  16 H :    0.132930
  17 C :    0.032427
  18 C :   -0.185322
  19 H :    0.161059
  20 C :   -0.211251
  21 C :   -0.130515
  22 S :    0.484693
  23 C :   -0.260940
  24 H :    0.323744
  25 H :    0.161811
  26 H :    0.168449
  27 H :    0.183574
  28 H :    0.183118
  29 H :    0.191467
  30 O :   -0.269887
  31 O :   -0.196132
  32 C :    0.159915
  33 C :   -0.373615
  34 H :    0.161368
  35 H :    0.169387
  36 H :    0.155004
  37 H :    0.184542
  38 H :    0.185700

  Mayer bond orders larger than 0.100000
B(  0-Ir,  1-C ) :   0.4218 B(  0-Ir,  2-C ) :   0.4851 B(  0-Ir,  3-C ) :   0.4604
B(  0-Ir,  4-C ) :   0.4450 B(  0-Ir,  5-C ) :   0.3981 B(  0-Ir,  6-N ) :   0.4651
B(  0-Ir, 20-C ) :   0.3491 B(  0-Ir, 31-O ) :   0.5520 B(  1-C ,  2-C ) :   1.1258
B(  1-C ,  4-C ) :   1.2391 B(  1-C , 27-H ) :   0.9050 B(  2-C ,  5-C ) :   1.1557
B(  2-C , 28-H ) :   0.9093 B(  3-C ,  4-C ) :   1.1152 B(  3-C ,  5-C ) :   1.2163
B(  3-C , 37-H ) :   0.9088 B(  4-C , 38-H ) :   0.9007 B(  5-C , 29-H ) :   0.8990
B(  6-N ,  7-C ) :   0.8931 B(  6-N , 17-C ) :   1.6662 B(  7-C ,  8-C ) :   0.9909
B(  7-C , 12-C ) :   0.9676 B(  7-C , 13-H ) :   0.8747 B(  8-C ,  9-H ) :   0.9043
B(  8-C , 10-H ) :   0.9131 B(  8-C , 11-H ) :   0.9101 B( 12-C , 14-H ) :   0.9071
B( 12-C , 15-H ) :   0.9156 B( 12-C , 16-H ) :   0.9124 B( 17-C , 18-C ) :   1.0881
B( 17-C , 19-H ) :   0.8757 B( 18-C , 20-C ) :   1.2631 B( 18-C , 22-S ) :   1.2375
B( 20-C , 21-C ) :   1.2751 B( 20-C , 24-H ) :   0.4079 B( 21-C , 23-C ) :   1.5464
B( 21-C , 25-H ) :   0.9044 B( 22-S , 23-C ) :   1.2105 B( 23-C , 26-H ) :   0.8916
B( 24-H , 30-O ) :   0.2895 B( 30-O , 32-C ) :   1.6303 B( 31-O , 32-C ) :   1.3231
B( 32-C , 33-C ) :   0.9465 B( 33-C , 34-H ) :   0.9033 B( 33-C , 35-H ) :   0.8964
B( 33-C , 36-H ) :   0.9084

Dispersion correction           -0.030711543
FINAL SINGLE POINT ENERGY     -1288.400452356336

DIPOLE MOMENT
-------------
                                X             Y             Z
Electronic contribution:     37.25839     -70.38173      74.52619
Nuclear contribution   :    -37.87958      69.48338     -74.79579
                        -----------------------------------------
Total Dipole Moment    :     -0.62119      -0.89836      -0.26960
                        -----------------------------------------
Magnitude (a.u.)       :      1.12499
Magnitude (Debye)      :      2.85950

Rotational constants in cm-1:     0.010556     0.008965     0.008172
Rotational constants in MHz :   316.451220   268.778853   244.999598

                             ****ORCA TERMINATED NORMALLY****
TOTAL RUN TIME: 0 days 1 hours 21 minutes 35 seconds 801 msec
