                         Program Version 5.0.3 -  RELEASE  -
|  1> ! Opt PBEh-3c
|  2> %geom Constraints
|  3> { B 0 20 2.0 C }
|  4> { B 24 30 1.4 C }
|  5>     end
|  6> end
|  7> %output
|  8> xyzfile=True
|  9> end
| 10> %scf
| 11> maxiter 250
| 12> end
| 13> %output
| 14> Print[P_Hirshfeld] = 1
| 15> end
| 16> % maxcore
| 17> 4000
| 18> *xyz 1 1
| 19> Ir   0.62195679  -0.73185506   0.39481092
| 20> C    0.16901721  -2.85358425   0.31812691
| 21> C   -0.07868173  -2.41749418   1.66897518
| 22> C    2.15440644  -2.05424373   1.18772881
| 23> C    1.54086288  -2.65621534   0.03894975
| 24> C    1.14362096  -1.94402255   2.18781938
| 25> N   -1.07517959   0.11684877  -0.51115184
| 26> C   -2.33972045   0.31119650   0.21244415
| 27> C   -3.13257947   1.52441884  -0.25204205
| 28> H   -3.95915126   1.68925906   0.43725850
| 29> H   -3.57359183   1.39041305  -1.24073977
| 30> H   -2.52547160   2.42998055  -0.25783467
| 31> C   -3.16921163  -0.96544964   0.12500527
| 32> H   -2.04926188   0.47244008   1.25170715
| 33> H   -4.06693711  -0.86748885   0.73406425
| 34> H   -3.48181606  -1.16095429  -0.90152162
| 35> H   -2.62113167  -1.83491622   0.48420329
| 36> C   -0.93116662   0.48278671  -1.73223145
| 37> C    0.38497929   0.29883576  -2.26223017
| 38> H   -1.73818742   0.92754539  -2.30486630
| 39> C    1.40067877   0.01745172  -1.33879707
| 40> C    2.62608699  -0.21685040  -2.04725519
| 41> S    0.90213039   0.30105760  -3.87401675
| 42> C    2.50081729  -0.09212317  -3.39594853
| 43> H    1.60979857   1.13625441  -0.69937286
| 44> H    3.57341434  -0.40774709  -1.56372845
| 45> H    3.27379006  -0.18870544  -4.14319064
| 46> H   -0.55111943  -3.30154301  -0.35082693
| 47> H   -1.01379473  -2.47695756   2.20433832
| 48> H    1.27870426  -1.49936790   3.16365156
| 49> O    1.71249611   2.32953669   0.05278051
| 50> O    0.59645826   1.03292831   1.47766960
| 51> C    1.13938806   2.13167935   1.14154592
| 52> C    1.10024238   3.24313567   2.14971734
| 53> H    0.99579942   4.20627029   1.65581146
| 54> H    2.04636074   3.25890545   2.69355216
| 55> H    0.29881437   3.10207554   2.86952151
| 56> H    3.20099340  -1.82443064   1.31419122
| 57> H    2.03555558  -2.90988049  -0.88737874
| 58> *
| 59>
| 60>                          ****END OF INPUT****
 Total Charge           Charge          ....    1
 Multiplicity           Mult            ....    1
 Number of Electrons    NEL             ....  164
Dispersion correction           -0.030911427
FINAL SINGLE POINT ENERGY     -1288.396568179543
Dispersion correction            ... done
Dispersion correction           -0.030866266
FINAL SINGLE POINT ENERGY     -1288.396585993979
Dispersion correction            ... done
Dispersion correction           -0.030885986
FINAL SINGLE POINT ENERGY     -1288.395557718995
Dispersion correction            ... done
FINAL SINGLE POINT ENERGY     -1288.396898660177
FINAL SINGLE POINT ENERGY     -1288.396941034666
FINAL SINGLE POINT ENERGY     -1288.396983245496
FINAL SINGLE POINT ENERGY     -1288.397050559049
FINAL SINGLE POINT ENERGY     -1288.397063183339
FINAL SINGLE POINT ENERGY     -1288.397071179936
FINAL SINGLE POINT ENERGY     -1288.397075230341
FINAL SINGLE POINT ENERGY     -1288.397076956324
FINAL SINGLE POINT ENERGY     -1288.397078344085
FINAL SINGLE POINT ENERGY     -1288.397080370163
FINAL SINGLE POINT ENERGY     -1288.397083509332
Dispersion correction            ... done
Dispersion correction           -0.030819242
FINAL SINGLE POINT ENERGY     -1288.397087063752
Dispersion correction            ... done
Dispersion correction           -0.030820568
FINAL SINGLE POINT ENERGY     -1288.397089026460
Dispersion correction            ... done
                    ***********************HURRAY********************

CARTESIAN COORDINATES (ANGSTROEM)
---------------------------------
  Ir     0.622798   -0.738680    0.382688
  C      0.189214   -2.862211    0.309354
  C     -0.098033   -2.441772    1.658753
  C      2.139715   -2.043377    1.235917
  C      1.569494   -2.654814    0.073309
  C      1.097349   -1.954147    2.211676
  N     -1.082290    0.107840   -0.507381
  C     -2.344866    0.288915    0.222482
  C     -3.129759    1.520375   -0.205822
  H     -3.956334    1.669395    0.487065
  H     -3.569878    1.420265   -1.198923
  H     -2.516454    2.421471   -0.183037
  C     -3.181270   -0.980192    0.099192
  H     -2.052930    0.418901    1.265728
  H     -4.074912   -0.898419    0.716627
  H     -3.500844   -1.140792   -0.931237
  H     -2.634350   -1.863401    0.425419
  C     -0.942678    0.489565   -1.724617
  C      0.372006    0.306766   -2.255901
  H     -1.750124    0.943642   -2.289043
  C      1.371741   -0.025410   -1.329132
  C      2.605683   -0.237016   -2.033920
  S      0.912281    0.383354   -3.858374
  C      2.499808   -0.045839   -3.376783
  H      1.605692    1.154628   -0.748701
  H      3.544926   -0.461028   -1.548717
  H      3.282982   -0.113667   -4.116561
  H     -0.504380   -3.323690   -0.378113
  H     -1.048918   -2.509795    2.164446
  H      1.199205   -1.511861    3.192482
  O      1.709230    2.338163   -0.008076
  O      0.624991    1.043893    1.444869
  C      1.156680    2.139868    1.095161
  C      1.138460    3.257644    2.096333
  H      1.038743    4.219677    1.599549
  H      2.089339    3.265596    2.632124
  H      0.342388    3.126670    2.823926
  H      3.180274   -1.806794    1.395394
  H      2.094391   -2.904531   -0.837418

 Multiplicity           Mult            ....    1
 Number of Electrons    NEL             ....  164
 Basis Dimension        Dim             ....  358

ORBITAL ENERGIES
----------------

  NO   OCC          E(Eh)            E(eV)
   0   2.0000     -89.767198     -2442.6896
   1   2.0000     -19.636036      -534.3237
   2   2.0000     -19.627517      -534.0919
   3   2.0000     -14.834251      -403.6605
   4   2.0000     -10.698845      -291.1304
   5   2.0000     -10.654368      -289.9201
   6   2.0000     -10.628160      -289.2069
   7   2.0000     -10.620473      -288.9978
   8   2.0000     -10.620260      -288.9920
   9   2.0000     -10.617759      -288.9239
  10   2.0000     -10.612833      -288.7899
  11   2.0000     -10.612591      -288.7833
  12   2.0000     -10.610525      -288.7271
  13   2.0000     -10.607241      -288.6377
  14   2.0000     -10.592877      -288.2468
  15   2.0000     -10.592332      -288.2320
  16   2.0000     -10.552855      -287.1578
  17   2.0000     -10.550650      -287.0978
  18   2.0000     -10.545802      -286.9659
  19   2.0000      -8.406520      -228.7530
  20   2.0000      -6.296378      -171.3332
  21   2.0000      -6.292851      -171.2372
  22   2.0000      -6.291509      -171.2007
  23   2.0000      -4.017119      -109.3114
  24   2.0000      -2.333628       -63.5013
  25   2.0000      -2.304826       -62.7175
  26   2.0000      -2.300496       -62.5997
  27   2.0000      -1.326489       -36.0956
  28   2.0000      -1.228421       -33.4270
  29   2.0000      -1.207939       -32.8697
  30   2.0000      -1.155313       -31.4377
  31   2.0000      -1.130539       -30.7635
  32   2.0000      -1.025686       -27.9103
  33   2.0000      -0.973380       -26.4870
  34   2.0000      -0.968802       -26.3624
  35   2.0000      -0.962805       -26.1993
  36   2.0000      -0.958254       -26.0754
  37   2.0000      -0.940589       -25.5947
  38   2.0000      -0.900065       -24.4920
  39   2.0000      -0.873443       -23.7676
  40   2.0000      -0.799727       -21.7617
  41   2.0000      -0.783982       -21.3332
  42   2.0000      -0.772838       -21.0300
  43   2.0000      -0.771790       -21.0015
  44   2.0000      -0.760660       -20.6986
  45   2.0000      -0.756722       -20.5914
  46   2.0000      -0.743519       -20.2322
  47   2.0000      -0.721083       -19.6217
  48   2.0000      -0.698520       -19.0077
  49   2.0000      -0.685322       -18.6486
  50   2.0000      -0.664746       -18.0887
  51   2.0000      -0.661121       -17.9900
  52   2.0000      -0.649004       -17.6603
  53   2.0000      -0.638168       -17.3654
  54   2.0000      -0.629005       -17.1161
  55   2.0000      -0.623070       -16.9546
  56   2.0000      -0.620552       -16.8861
  57   2.0000      -0.612661       -16.6713
  58   2.0000      -0.602342       -16.3906
  59   2.0000      -0.594899       -16.1880
  60   2.0000      -0.592155       -16.1134
  61   2.0000      -0.590622       -16.0716
  62   2.0000      -0.580053       -15.7841
  63   2.0000      -0.569477       -15.4963
  64   2.0000      -0.567501       -15.4425
  65   2.0000      -0.562880       -15.3167
  66   2.0000      -0.555520       -15.1165
  67   2.0000      -0.546056       -14.8590
  68   2.0000      -0.542200       -14.7540
  69   2.0000      -0.535076       -14.5602
  70   2.0000      -0.532551       -14.4915
  71   2.0000      -0.518440       -14.1075
  72   2.0000      -0.512781       -13.9535
  73   2.0000      -0.501633       -13.6501
  74   2.0000      -0.497216       -13.5299
  75   2.0000      -0.491447       -13.3730
  76   2.0000      -0.474421       -12.9097
  77   2.0000      -0.453087       -12.3291
  78   2.0000      -0.441747       -12.0205
  79   2.0000      -0.419981       -11.4283
  80   2.0000      -0.412304       -11.2194
  81   2.0000      -0.391098       -10.6423
  82   0.0000      -0.206547        -5.6204
  83   0.0000      -0.143769        -3.9122
  84   0.0000      -0.120219        -3.2713
  85   0.0000      -0.088016        -2.3950
  86   0.0000      -0.076355        -2.0777

MULLIKEN ATOMIC CHARGES
-----------------------
   0 Ir:    0.619355
   1 C :   -0.263650
   2 C :   -0.244935
   3 C :   -0.285137
   4 C :   -0.214829
   5 C :   -0.148656
   6 N :   -0.431606
   7 C :   -0.128111
   8 C :   -0.678425
   9 H :    0.268820
  10 H :    0.224045
  11 H :    0.253069
  12 C :   -0.632448
  13 H :    0.277855
  14 H :    0.257916
  15 H :    0.232859
  16 H :    0.235260
  17 C :    0.070906
  18 C :   -0.115926
  19 H :    0.285363
  20 C :   -0.602508
  21 C :   -0.086095
  22 S :    0.349408
  23 C :   -0.424502
  24 H :    0.470897
  25 H :    0.269794
  26 H :    0.299116
  27 H :    0.282445
  28 H :    0.278418
  29 H :    0.293874
  30 O :   -0.476192
  31 O :   -0.503353
  32 C :    0.631076
  33 C :   -0.743370
  34 H :    0.272823
  35 H :    0.275788
  36 H :    0.261940
  37 H :    0.278153
  38 H :    0.290563
Sum of atomic charges:    1.0000000

LOEWDIN ATOMIC CHARGES
----------------------
   0 Ir:   -0.262121
   1 C :   -0.067803
   2 C :   -0.099437
   3 C :   -0.105462
   4 C :   -0.040055
   5 C :   -0.022796
   6 N :    0.000595
   7 C :   -0.069646
   8 C :   -0.361554
   9 H :    0.156076
  10 H :    0.132689
  11 H :    0.143077
  12 C :   -0.343742
  13 H :    0.153973
  14 H :    0.150424
  15 H :    0.138131
  16 H :    0.134053
  17 C :    0.026806
  18 C :   -0.188575
  19 H :    0.160680
  20 C :   -0.216678
  21 C :   -0.125319
  22 S :    0.504444
  23 C :   -0.256027
  24 H :    0.369447
  25 H :    0.163674
  26 H :    0.170235
  27 H :    0.180650
  28 H :    0.177040
  29 H :    0.185416
  30 O :   -0.258320
  31 O :   -0.177484
  32 C :    0.163736
  33 C :   -0.371610
  34 H :    0.163848
  35 H :    0.172448
  36 H :    0.156578
  37 H :    0.179821
  38 H :    0.182790

  Mayer bond orders larger than 0.100000
B(  0-Ir,  1-C ) :   0.4655 B(  0-Ir,  2-C ) :   0.3523 B(  0-Ir,  3-C ) :   0.4762
B(  0-Ir,  4-C ) :   0.4111 B(  0-Ir,  5-C ) :   0.3342 B(  0-Ir,  6-N ) :   0.4639
B(  0-Ir, 20-C ) :   0.5845 B(  0-Ir, 31-O ) :   0.5111 B(  1-C ,  2-C ) :   1.1220
B(  1-C ,  4-C ) :   1.2142 B(  1-C , 27-H ) :   0.9106 B(  2-C ,  5-C ) :   1.2671
B(  2-C , 28-H ) :   0.9101 B(  3-C ,  4-C ) :   1.1546 B(  3-C ,  5-C ) :   1.1491
B(  3-C , 37-H ) :   0.9156 B(  4-C , 38-H ) :   0.8993 B(  5-C , 29-H ) :   0.9029
B(  6-N ,  7-C ) :   0.8963 B(  6-N , 17-C ) :   1.6424 B(  7-C ,  8-C ) :   0.9899
B(  7-C , 12-C ) :   0.9666 B(  7-C , 13-H ) :   0.8778 B(  8-C ,  9-H ) :   0.9049
B(  8-C , 10-H ) :   0.9133 B(  8-C , 11-H ) :   0.9126 B( 12-C , 14-H ) :   0.9079
B( 12-C , 15-H ) :   0.9151 B( 12-C , 16-H ) :   0.9116 B( 17-C , 18-C ) :   1.1201
B( 17-C , 19-H ) :   0.8767 B( 18-C , 20-C ) :   1.2001 B( 18-C , 22-S ) :   1.2465
B( 20-C , 21-C ) :   1.2408 B( 20-C , 24-H ) :   0.3253 B( 21-C , 23-C ) :   1.5434
B( 21-C , 25-H ) :   0.9009 B( 22-S , 23-C ) :   1.2159 B( 23-C , 26-H ) :   0.8914
B( 24-H , 30-O ) :   0.3609 B( 30-O , 32-C ) :   1.5570 B( 31-O , 32-C ) :   1.3902
B( 32-C , 33-C ) :   0.9434 B( 33-C , 34-H ) :   0.9005 B( 33-C , 35-H ) :   0.8930
B( 33-C , 36-H ) :   0.9076

Dispersion correction           -0.030822075
FINAL SINGLE POINT ENERGY     -1288.397089300003

DIPOLE MOMENT
-------------
                                X             Y             Z
Electronic contribution:     38.36152     -74.87705      67.30483
Nuclear contribution   :    -38.95539      74.54412     -67.62427
                        -----------------------------------------
Total Dipole Moment    :     -0.59387      -0.33293      -0.31944
                        -----------------------------------------
Magnitude (a.u.)       :      0.75204
Magnitude (Debye)      :      1.91154

Rotational constants in cm-1:     0.010565     0.008981     0.008270
Rotational constants in MHz :   316.721620   269.233831   247.917754

                             ****ORCA TERMINATED NORMALLY****
TOTAL RUN TIME: 0 days 2 hours 13 minutes 57 seconds 591 msec
