                         Program Version 5.0.3 -  RELEASE  -
|  1> ! Opt PBEh-3c
|  2> %geom Constraints
|  3> { B 0 20 2.257142857142857 C }
|  4> { B 24 30 1.4857142857142858 C }
|  5>     end
|  6> end
|  7> %output
|  8> xyzfile=True
|  9> end
| 10> %scf
| 11> maxiter 250
| 12> end
| 13> %output
| 14> Print[P_Hirshfeld] = 1
| 15> end
| 16> % maxcore
| 17> 4000
| 18> *xyz 1 1
| 19> Ir   0.61883833  -0.70571148   0.41850781
| 20> C    0.07569259  -2.80186947   0.34167961
| 21> C    0.11420647  -2.34193332   1.70501466
| 22> C    2.22476705  -2.10609778   0.80442445
| 23> C    1.35689159  -2.64145092  -0.21938996
| 24> C    1.46387050  -1.95412776   1.98067859
| 25> N   -1.04674753   0.16290821  -0.52970729
| 26> C   -2.30940158   0.46876751   0.15948701
| 27> C   -3.10742930   1.58189638  -0.50066984
| 28> H   -3.92967610   1.86313422   0.15589348
| 29> H   -3.55690556   1.27896498  -1.44760863
| 30> H   -2.50352813   2.47461414  -0.66553014
| 31> C   -3.13078448  -0.80724152   0.30247883
| 32> H   -2.00794201   0.80165884   1.15369778
| 33> H   -4.03555639  -0.59759966   0.87104747
| 34> H   -3.43123734  -1.19642527  -0.67116660
| 35> H   -2.58583254  -1.58586598   0.83417556
| 36> C   -0.87218495   0.38612301  -1.77544774
| 37> C    0.47045816   0.16318050  -2.25576234
| 38> H   -1.66190782   0.75669396  -2.42195896
| 39> C    1.55195940   0.35610968  -1.39582977
| 40> C    2.76668753  -0.02946690  -2.03948640
| 41> S    0.92278674  -0.46008312  -3.76832918
| 42> C    2.57802527  -0.48514110  -3.30537972
| 43> H    1.52047506   1.28646944  -0.67113066
| 44> H    3.74359680   0.08042454  -1.59157249
| 45> H    3.32443018  -0.81291440  -4.01300465
| 46> H   -0.79488918  -3.18040848  -0.17449040
| 47> H   -0.69575676  -2.37049013   2.41846550
| 48> H    1.81906807  -1.53970694   2.91333935
| 49> O    1.33333459   2.47652888   0.22259019
| 50> O    0.53602748   0.93788321   1.62484338
| 51> C    0.91639616   2.13369063   1.32701956
| 52> C    0.84971664   3.11416011   2.46506030
| 53> H    0.81652276   4.13451678   2.09313711
| 54> H    1.74791852   3.01009144   3.07684439
| 55> H   -0.00455536   2.92438121   3.11156240
| 56> H    3.27619584  -1.88605050   0.69709371
| 57> H    1.64583933  -2.89042299  -1.22983629
| 58> *
| 59>
| 60>                          ****END OF INPUT****
 Total Charge           Charge          ....    1
 Multiplicity           Mult            ....    1
 Number of Electrons    NEL             ....  164
Dispersion correction           -0.031119145
FINAL SINGLE POINT ENERGY     -1288.400219091969
Dispersion correction            ... done
Dispersion correction           -0.031041948
FINAL SINGLE POINT ENERGY     -1288.400207450896
Dispersion correction            ... done
Dispersion correction           -0.031046023
FINAL SINGLE POINT ENERGY     -1288.399944377536
Dispersion correction            ... done
FINAL SINGLE POINT ENERGY     -1288.400472158330
FINAL SINGLE POINT ENERGY     -1288.400494015524
FINAL SINGLE POINT ENERGY     -1288.400520128696
FINAL SINGLE POINT ENERGY     -1288.400543445960
FINAL SINGLE POINT ENERGY     -1288.400548412365
FINAL SINGLE POINT ENERGY     -1288.400557119531
FINAL SINGLE POINT ENERGY     -1288.400566255281
FINAL SINGLE POINT ENERGY     -1288.400574300177
FINAL SINGLE POINT ENERGY     -1288.400577210945
FINAL SINGLE POINT ENERGY     -1288.400582095463
FINAL SINGLE POINT ENERGY     -1288.400584999944
Dispersion correction            ... done
Dispersion correction           -0.030946334
FINAL SINGLE POINT ENERGY     -1288.400586735657
Dispersion correction            ... done
Dispersion correction           -0.030946081
FINAL SINGLE POINT ENERGY     -1288.400586452429
Dispersion correction            ... done
                    ***********************HURRAY********************

CARTESIAN COORDINATES (ANGSTROEM)
---------------------------------
  Ir     0.624671   -0.709395    0.423093
  C      0.103202   -2.814075    0.330926
  C      0.073038   -2.355230    1.694627
  C      2.222507   -2.094082    0.893616
  C      1.409210   -2.642573   -0.166463
  C      1.400675   -1.949612    2.031621
  N     -1.045764    0.150975   -0.523080
  C     -2.307618    0.437998    0.176273
  C     -3.092633    1.588710   -0.434218
  H     -3.913217    1.849198    0.232871
  H     -3.542874    1.332568   -1.394302
  H     -2.478042    2.480515   -0.558915
  C     -3.141781   -0.835522    0.256432
  H     -2.007382    0.721827    1.185773
  H     -4.040952   -0.649033    0.841803
  H     -3.451912   -1.168581   -0.734831
  H     -2.600177   -1.647551    0.739384
  C     -0.884345    0.389887   -1.769054
  C      0.450947    0.178425   -2.267099
  H     -1.683698    0.765119   -2.400752
  C      1.528956    0.290316   -1.387305
  C      2.741638   -0.066602   -2.052071
  S      0.902434   -0.338455   -3.817991
  C      2.553345   -0.423686   -3.349817
  H      1.524985    1.240643   -0.663421
  H      3.718041   -0.005775   -1.593845
  H      3.299315   -0.710088   -4.075583
  H     -0.736679   -3.205573   -0.224843
  H     -0.769081   -2.392898    2.369266
  H      1.705336   -1.528567    2.979222
  O      1.386786    2.450726    0.187430
  O      0.545205    0.954876    1.608115
  C      0.947506    2.136346    1.294138
  C      0.880197    3.145029    2.406548
  H      0.841926    4.155675    2.009321
  H      1.781951    3.060228    3.016026
  H      0.029140    2.967428    3.060379
  H      3.277336   -1.871563    0.839906
  H      1.747178   -2.888439   -1.162438

 Multiplicity           Mult            ....    1
 Number of Electrons    NEL             ....  164
 Basis Dimension        Dim             ....  358

ORBITAL ENERGIES
----------------

  NO   OCC          E(Eh)            E(eV)
   0   2.0000     -89.769220     -2442.7447
   1   2.0000     -19.621809      -533.9366
   2   2.0000     -19.591219      -533.1042
   3   2.0000     -14.840788      -403.8384
   4   2.0000     -10.679329      -290.5993
   5   2.0000     -10.661434      -290.1124
   6   2.0000     -10.636505      -289.4340
   7   2.0000     -10.631960      -289.3103
   8   2.0000     -10.630858      -289.2804
   9   2.0000     -10.627146      -289.1793
  10   2.0000     -10.625203      -289.1265
  11   2.0000     -10.623383      -289.0770
  12   2.0000     -10.615001      -288.8489
  13   2.0000     -10.613519      -288.8085
  14   2.0000     -10.591092      -288.1983
  15   2.0000     -10.588299      -288.1223
  16   2.0000     -10.556253      -287.2502
  17   2.0000     -10.551508      -287.1211
  18   2.0000     -10.532946      -286.6160
  19   2.0000      -8.408599      -228.8096
  20   2.0000      -6.298524      -171.3915
  21   2.0000      -6.294890      -171.2927
  22   2.0000      -6.293551      -171.2562
  23   2.0000      -4.025582      -109.5417
  24   2.0000      -2.343876       -63.7801
  25   2.0000      -2.310671       -62.8765
  26   2.0000      -2.309300       -62.8392
  27   2.0000      -1.304582       -35.4995
  28   2.0000      -1.213695       -33.0263
  29   2.0000      -1.206877       -32.8408
  30   2.0000      -1.168020       -31.7834
  31   2.0000      -1.132052       -30.8047
  32   2.0000      -1.027966       -27.9724
  33   2.0000      -0.981784       -26.7157
  34   2.0000      -0.973954       -26.5026
  35   2.0000      -0.971592       -26.4384
  36   2.0000      -0.963183       -26.2095
  37   2.0000      -0.926213       -25.2035
  38   2.0000      -0.902448       -24.5568
  39   2.0000      -0.876145       -23.8411
  40   2.0000      -0.800978       -21.7957
  41   2.0000      -0.785408       -21.3720
  42   2.0000      -0.784035       -21.3347
  43   2.0000      -0.782518       -21.2934
  44   2.0000      -0.768451       -20.9106
  45   2.0000      -0.754800       -20.5392
  46   2.0000      -0.743357       -20.2278
  47   2.0000      -0.724345       -19.7104
  48   2.0000      -0.692126       -18.8337
  49   2.0000      -0.674607       -18.3570
  50   2.0000      -0.665492       -18.1090
  51   2.0000      -0.649713       -17.6796
  52   2.0000      -0.645826       -17.5738
  53   2.0000      -0.637108       -17.3366
  54   2.0000      -0.634112       -17.2551
  55   2.0000      -0.628088       -17.0911
  56   2.0000      -0.622800       -16.9472
  57   2.0000      -0.614170       -16.7124
  58   2.0000      -0.603942       -16.4341
  59   2.0000      -0.603518       -16.4226
  60   2.0000      -0.601239       -16.3605
  61   2.0000      -0.592311       -16.1176
  62   2.0000      -0.582075       -15.8391
  63   2.0000      -0.574335       -15.6284
  64   2.0000      -0.564743       -15.3674
  65   2.0000      -0.555967       -15.1286
  66   2.0000      -0.551644       -15.0110
  67   2.0000      -0.548345       -14.9212
  68   2.0000      -0.540695       -14.7131
  69   2.0000      -0.536544       -14.6001
  70   2.0000      -0.527952       -14.3663
  71   2.0000      -0.519412       -14.1339
  72   2.0000      -0.515360       -14.0236
  73   2.0000      -0.500818       -13.6280
  74   2.0000      -0.486986       -13.2516
  75   2.0000      -0.481633       -13.1059
  76   2.0000      -0.475009       -12.9256
  77   2.0000      -0.444818       -12.1041
  78   2.0000      -0.442602       -12.0438
  79   2.0000      -0.424705       -11.5568
  80   2.0000      -0.416440       -11.3319
  81   2.0000      -0.399998       -10.8845
  82   0.0000      -0.207592        -5.6489
  83   0.0000      -0.151004        -4.1090
  84   0.0000      -0.141791        -3.8583
  85   0.0000      -0.096289        -2.6202
  86   0.0000      -0.077622        -2.1122

MULLIKEN ATOMIC CHARGES
-----------------------
   0 Ir:    0.606057
   1 C :   -0.217519
   2 C :   -0.275815
   3 C :   -0.249629
   4 C :   -0.241311
   5 C :   -0.160798
   6 N :   -0.423735
   7 C :   -0.127051
   8 C :   -0.686494
   9 H :    0.270980
  10 H :    0.223848
  11 H :    0.260625
  12 C :   -0.635405
  13 H :    0.283982
  14 H :    0.262921
  15 H :    0.230929
  16 H :    0.232623
  17 C :    0.072860
  18 C :   -0.150493
  19 H :    0.290547
  20 C :   -0.521175
  21 C :   -0.106063
  22 S :    0.326374
  23 C :   -0.434336
  24 H :    0.488565
  25 H :    0.269026
  26 H :    0.299604
  27 H :    0.288296
  28 H :    0.288445
  29 H :    0.304519
  30 O :   -0.471714
  31 O :   -0.535897
  32 C :    0.613962
  33 C :   -0.744072
  34 H :    0.268693
  35 H :    0.266210
  36 H :    0.252406
  37 H :    0.287728
  38 H :    0.292304
Sum of atomic charges:    1.0000000

LOEWDIN ATOMIC CHARGES
----------------------
   0 Ir:   -0.244225
   1 C :   -0.045096
   2 C :   -0.077969
   3 C :   -0.070246
   4 C :   -0.054358
   5 C :   -0.017758
   6 N :    0.001787
   7 C :   -0.070161
   8 C :   -0.363196
   9 H :    0.157073
  10 H :    0.132824
  11 H :    0.146802
  12 C :   -0.343314
  13 H :    0.157341
  14 H :    0.152590
  15 H :    0.137135
  16 H :    0.133690
  17 C :    0.031886
  18 C :   -0.170475
  19 H :    0.162834
  20 C :   -0.204961
  21 C :   -0.122404
  22 S :    0.491975
  23 C :   -0.263304
  24 H :    0.304519
  25 H :    0.164159
  26 H :    0.169419
  27 H :    0.183443
  28 H :    0.183510
  29 H :    0.192296
  30 O :   -0.271823
  31 O :   -0.205969
  32 C :    0.149873
  33 C :   -0.375806
  34 H :    0.159339
  35 H :    0.166934
  36 H :    0.152818
  37 H :    0.184294
  38 H :    0.184523

  Mayer bond orders larger than 0.100000
B(  0-Ir,  1-C ) :   0.4167 B(  0-Ir,  2-C ) :   0.4801 B(  0-Ir,  3-C ) :   0.4635
B(  0-Ir,  4-C ) :   0.4412 B(  0-Ir,  5-C ) :   0.3958 B(  0-Ir,  6-N ) :   0.4602
B(  0-Ir, 20-C ) :   0.3444 B(  0-Ir, 31-O ) :   0.5714 B(  1-C ,  2-C ) :   1.1264
B(  1-C ,  4-C ) :   1.2447 B(  1-C , 27-H ) :   0.9051 B(  2-C ,  5-C ) :   1.1563
B(  2-C , 28-H ) :   0.9091 B(  3-C ,  4-C ) :   1.1113 B(  3-C ,  5-C ) :   1.2176
B(  3-C , 37-H ) :   0.9087 B(  4-C , 38-H ) :   0.9003 B(  5-C , 29-H ) :   0.8985
B(  6-N ,  7-C ) :   0.8922 B(  6-N , 17-C ) :   1.6778 B(  7-C ,  8-C ) :   0.9909
B(  7-C , 12-C ) :   0.9674 B(  7-C , 13-H ) :   0.8721 B(  8-C ,  9-H ) :   0.9041
B(  8-C , 10-H ) :   0.9132 B(  8-C , 11-H ) :   0.9087 B( 12-C , 14-H ) :   0.9068
B( 12-C , 15-H ) :   0.9156 B( 12-C , 16-H ) :   0.9120 B( 17-C , 18-C ) :   1.0729
B( 17-C , 19-H ) :   0.8752 B( 18-C , 20-C ) :   1.2523 B( 18-C , 22-S ) :   1.2579
B( 20-C , 21-C ) :   1.2510 B( 20-C , 24-H ) :   0.4619 B( 21-C , 23-C ) :   1.5567
B( 21-C , 25-H ) :   0.9029 B( 22-S , 23-C ) :   1.1998 B( 23-C , 26-H ) :   0.8911
B( 24-H , 30-O ) :   0.2562 B( 30-O , 32-C ) :   1.6903 B( 31-O , 32-C ) :   1.2849
B( 32-C , 33-C ) :   0.9443 B( 33-C , 34-H ) :   0.9052 B( 33-C , 35-H ) :   0.8989
B( 33-C , 36-H ) :   0.9097

Dispersion correction           -0.030946832
FINAL SINGLE POINT ENERGY     -1288.400585179248

DIPOLE MOMENT
-------------
                                X             Y             Z
Electronic contribution:     38.85523     -67.92727      70.52607
Nuclear contribution   :    -39.48521      66.81361     -70.98353
                        -----------------------------------------
Total Dipole Moment    :     -0.62998      -1.11366      -0.45746
                        -----------------------------------------
Magnitude (a.u.)       :      1.35882
Magnitude (Debye)      :      3.45384

Rotational constants in cm-1:     0.010648     0.009164     0.008236
Rotational constants in MHz :   319.218032   274.737406   246.912992

                             ****ORCA TERMINATED NORMALLY****
TOTAL RUN TIME: 0 days 2 hours 9 minutes 36 seconds 317 msec
