                         Program Version 5.0.3 -  RELEASE  -
|  1> ! Opt PBEh-3c
|  2> %geom Constraints
|  3> { B 0 20 2.1285714285714286 C }
|  4> { B 24 30 1.4285714285714286 C }
|  5>     end
|  6> end
|  7> %output
|  8> xyzfile=True
|  9> end
| 10> %scf
| 11> maxiter 250
| 12> end
| 13> %output
| 14> Print[P_Hirshfeld] = 1
| 15> end
| 16> % maxcore
| 17> 4000
| 18> *xyz 1 1
| 19> Ir   0.62134915  -0.71583438   0.42424748
| 20> C    0.13276595  -2.83093356   0.33112495
| 21> C   -0.01278633  -2.37170438   1.68743929
| 22> C    2.19151265  -2.07344644   1.05598614
| 23> C    1.47629807  -2.64843744  -0.05498685
| 24> C    1.26878889  -1.93430072   2.12139583
| 25> N   -1.05836030   0.13257979  -0.51575899
| 26> C   -2.32542261   0.37061253   0.19247800
| 27> C   -3.11778270   1.55117360  -0.35016919
| 28> H   -3.94249370   1.76322924   0.32867029
| 29> H   -3.56260732   1.35059622  -1.32580756
| 30> H   -2.51056907   2.45400266  -0.41872924
| 31> C   -3.15479582  -0.90896476   0.18644341
| 32> H   -2.03522969   0.59618659   1.21954319
| 33> H   -4.05620885  -0.76786172   0.78127428
| 34> H   -3.46156778  -1.17455570  -0.82603656
| 35> H   -2.61064706  -1.75111863   0.61092238
| 36> C   -0.90677895   0.43074676  -1.75244444
| 37> C    0.41659775   0.24196775  -2.27417030
| 38> H   -1.71494169   0.83304924  -2.35519024
| 39> C    1.47757862   0.15603660  -1.37069377
| 40> C    2.68817091  -0.13407180  -2.07329749
| 41> S    0.87851215  -0.01230434  -3.88505722
| 42> C    2.51215043  -0.24675718  -3.41741593
| 43> H    1.58230501   1.15237680  -0.63507983
| 44> H    3.65804674  -0.19569572  -1.60144830
| 45> H    3.26211805  -0.43256497  -4.17115522
| 46> H   -0.64955284  -3.24694555  -0.28700372
| 47> H   -0.90503365  -2.41848707   2.29316281
| 48> H    1.48691754  -1.49696694   3.08551350
| 49> O    1.62098460   2.35726181   0.15775857
| 50> O    0.55065225   0.99798778   1.55877138
| 51> C    1.06504356   2.12560645   1.23937388
| 52> C    0.99486007   3.19865020   2.28795689
| 53> H    0.97470098   4.18424410   1.83013252
| 54> H    1.89028685   3.14243023   2.90959284
| 55> H    0.13295129   3.06919195   2.93780148
| 56> H    3.24621115  -1.84857018   1.09409754
| 57> H    1.89534576  -2.89921884  -1.01850171
| 58> *
| 59>
| 60>                          ****END OF INPUT****
 Total Charge           Charge          ....    1
 Multiplicity           Mult            ....    1
 Number of Electrons    NEL             ....  164
Dispersion correction           -0.030908856
FINAL SINGLE POINT ENERGY     -1288.399803294099
Dispersion correction            ... done
Dispersion correction           -0.030854979
FINAL SINGLE POINT ENERGY     -1288.399817134745
Dispersion correction            ... done
Dispersion correction           -0.030859793
FINAL SINGLE POINT ENERGY     -1288.399153210526
Dispersion correction            ... done
FINAL SINGLE POINT ENERGY     -1288.400122357727
FINAL SINGLE POINT ENERGY     -1288.400160082432
FINAL SINGLE POINT ENERGY     -1288.400191910109
FINAL SINGLE POINT ENERGY     -1288.400212550690
FINAL SINGLE POINT ENERGY     -1288.400217421751
FINAL SINGLE POINT ENERGY     -1288.400218007689
FINAL SINGLE POINT ENERGY     -1288.400212896255
FINAL SINGLE POINT ENERGY     -1288.400208977576
FINAL SINGLE POINT ENERGY     -1288.400207885636
FINAL SINGLE POINT ENERGY     -1288.400209858358
FINAL SINGLE POINT ENERGY     -1288.400213338277
FINAL SINGLE POINT ENERGY     -1288.400216441191
FINAL SINGLE POINT ENERGY     -1288.400218764338
Dispersion correction            ... done
Dispersion correction           -0.030761113
FINAL SINGLE POINT ENERGY     -1288.400219389821
Dispersion correction            ... done
Dispersion correction           -0.030763812
FINAL SINGLE POINT ENERGY     -1288.400219000227
Dispersion correction            ... done
                    ***********************HURRAY********************

CARTESIAN COORDINATES (ANGSTROEM)
---------------------------------
  Ir     0.619748   -0.722229    0.418011
  C      0.139789   -2.838632    0.332438
  C     -0.047788   -2.381765    1.684857
  C      2.172835   -2.069976    1.116898
  C      1.496385   -2.655167   -0.010135
  C      1.213218   -1.933385    2.153926
  N     -1.064217    0.128011   -0.512947
  C     -2.333347    0.341639    0.198689
  C     -3.130626    1.532786   -0.313232
  H     -3.958322    1.721125    0.368772
  H     -3.571059    1.357547   -1.295732
  H     -2.527922    2.440330   -0.354408
  C     -3.157435   -0.940628    0.154385
  H     -2.047454    0.541472    1.232355
  H     -4.061111   -0.820902    0.750581
  H     -3.460235   -1.178356   -0.866167
  H     -2.611121   -1.792965    0.554871
  C     -0.912983    0.463445   -1.740885
  C      0.406667    0.280048   -2.268194
  H     -1.720350    0.886888   -2.329608
  C      1.452994    0.098919   -1.360255
  C      2.663923   -0.170689   -2.072695
  S      0.882256    0.143815   -3.888846
  C      2.501791   -0.172001   -3.423662
  H      1.616054    1.125622   -0.635486
  H      3.626510   -0.296068   -1.598343
  H      3.256451   -0.319485   -4.181188
  H     -0.618801   -3.265688   -0.307213
  H     -0.958327   -2.429067    2.262471
  H      1.398838   -1.490756    3.122433
  O      1.708844    2.321326    0.140722
  O      0.557196    1.015892    1.527350
  C      1.111317    2.121041    1.209995
  C      1.041389    3.220570    2.230006
  H      0.944781    4.187855    1.742518
  H      1.974096    3.235679    2.796460
  H      0.223705    3.070300    2.929557
  H      3.225881   -1.846730    1.191094
  H      1.945799   -2.910633   -0.958654

 Multiplicity           Mult            ....    1
 Number of Electrons    NEL             ....  164
 Basis Dimension        Dim             ....  358

ORBITAL ENERGIES
----------------

  NO   OCC          E(Eh)            E(eV)
   0   2.0000     -89.766690     -2442.6758
   1   2.0000     -19.630326      -534.1683
   2   2.0000     -19.611450      -533.6547
   3   2.0000     -14.836366      -403.7180
   4   2.0000     -10.690545      -290.9045
   5   2.0000     -10.656534      -289.9790
   6   2.0000     -10.629287      -289.2376
   7   2.0000     -10.626970      -289.1746
   8   2.0000     -10.624940      -289.1193
   9   2.0000     -10.624252      -289.1006
  10   2.0000     -10.617178      -288.9081
  11   2.0000     -10.614549      -288.8366
  12   2.0000     -10.613455      -288.8068
  13   2.0000     -10.611646      -288.7576
  14   2.0000     -10.590800      -288.1903
  15   2.0000     -10.589757      -288.1619
  16   2.0000     -10.554185      -287.1940
  17   2.0000     -10.550986      -287.1069
  18   2.0000     -10.540658      -286.8259
  19   2.0000      -8.406080      -228.7411
  20   2.0000      -6.295943      -171.3213
  21   2.0000      -6.292367      -171.2240
  22   2.0000      -6.291096      -171.1894
  23   2.0000      -4.021913      -109.4418
  24   2.0000      -2.339265       -63.6546
  25   2.0000      -2.307886       -62.8008
  26   2.0000      -2.305157       -62.7265
  27   2.0000      -1.317700       -35.8564
  28   2.0000      -1.219334       -33.1798
  29   2.0000      -1.208871       -32.8951
  30   2.0000      -1.162022       -31.6202
  31   2.0000      -1.129758       -30.7423
  32   2.0000      -1.025674       -27.9100
  33   2.0000      -0.974800       -26.5257
  34   2.0000      -0.971626       -26.4393
  35   2.0000      -0.967984       -26.3402
  36   2.0000      -0.960563       -26.1383
  37   2.0000      -0.934872       -25.4391
  38   2.0000      -0.900895       -24.5146
  39   2.0000      -0.873757       -23.7761
  40   2.0000      -0.799652       -21.7597
  41   2.0000      -0.783514       -21.3205
  42   2.0000      -0.778142       -21.1743
  43   2.0000      -0.777584       -21.1591
  44   2.0000      -0.762915       -20.7600
  45   2.0000      -0.757064       -20.6007
  46   2.0000      -0.743506       -20.2318
  47   2.0000      -0.722732       -19.6665
  48   2.0000      -0.691243       -18.8097
  49   2.0000      -0.682941       -18.5838
  50   2.0000      -0.663972       -18.0676
  51   2.0000      -0.654838       -17.8190
  52   2.0000      -0.646969       -17.6049
  53   2.0000      -0.636311       -17.3149
  54   2.0000      -0.632282       -17.2053
  55   2.0000      -0.628651       -17.1065
  56   2.0000      -0.622191       -16.9307
  57   2.0000      -0.612081       -16.6556
  58   2.0000      -0.601164       -16.3585
  59   2.0000      -0.598551       -16.2874
  60   2.0000      -0.597719       -16.2648
  61   2.0000      -0.592039       -16.1102
  62   2.0000      -0.580612       -15.7993
  63   2.0000      -0.569733       -15.5032
  64   2.0000      -0.563686       -15.3387
  65   2.0000      -0.562958       -15.3189
  66   2.0000      -0.552778       -15.0419
  67   2.0000      -0.547363       -14.8945
  68   2.0000      -0.542079       -14.7507
  69   2.0000      -0.535877       -14.5819
  70   2.0000      -0.529165       -14.3993
  71   2.0000      -0.518521       -14.1097
  72   2.0000      -0.513590       -13.9755
  73   2.0000      -0.498665       -13.5694
  74   2.0000      -0.492409       -13.3991
  75   2.0000      -0.485614       -13.2142
  76   2.0000      -0.478128       -13.0105
  77   2.0000      -0.448250       -12.1975
  78   2.0000      -0.443696       -12.0736
  79   2.0000      -0.420455       -11.4412
  80   2.0000      -0.415830       -11.3153
  81   2.0000      -0.395450       -10.7607
  82   0.0000      -0.207379        -5.6431
  83   0.0000      -0.143227        -3.8974
  84   0.0000      -0.134879        -3.6703
  85   0.0000      -0.088805        -2.4165
  86   0.0000      -0.075497        -2.0544

MULLIKEN ATOMIC CHARGES
-----------------------
   0 Ir:    0.605753
   1 C :   -0.236775
   2 C :   -0.262876
   3 C :   -0.266830
   4 C :   -0.227464
   5 C :   -0.153972
   6 N :   -0.430481
   7 C :   -0.126595
   8 C :   -0.683289
   9 H :    0.270029
  10 H :    0.224178
  11 H :    0.255293
  12 C :   -0.634257
  13 H :    0.281825
  14 H :    0.259924
  15 H :    0.232250
  16 H :    0.233396
  17 C :    0.069941
  18 C :   -0.125736
  19 H :    0.286800
  20 C :   -0.563714
  21 C :   -0.096214
  22 S :    0.342680
  23 C :   -0.429433
  24 H :    0.472332
  25 H :    0.268458
  26 H :    0.298884
  27 H :    0.285628
  28 H :    0.283035
  29 H :    0.299598
  30 O :   -0.473473
  31 O :   -0.518929
  32 C :    0.625976
  33 C :   -0.743913
  34 H :    0.271111
  35 H :    0.272934
  36 H :    0.258063
  37 H :    0.283215
  38 H :    0.292648
Sum of atomic charges:    1.0000000

LOEWDIN ATOMIC CHARGES
----------------------
   0 Ir:   -0.255875
   1 C :   -0.055811
   2 C :   -0.094077
   3 C :   -0.091581
   4 C :   -0.043878
   5 C :   -0.015664
   6 N :   -0.000469
   7 C :   -0.069635
   8 C :   -0.362490
   9 H :    0.156551
  10 H :    0.132774
  11 H :    0.144103
  12 C :   -0.343614
  13 H :    0.156039
  14 H :    0.151237
  15 H :    0.137775
  16 H :    0.133253
  17 C :    0.028268
  18 C :   -0.181219
  19 H :    0.161132
  20 C :   -0.218636
  21 C :   -0.122049
  22 S :    0.500477
  23 C :   -0.259378
  24 H :    0.343577
  25 H :    0.163222
  26 H :    0.169673
  27 H :    0.182203
  28 H :    0.180189
  29 H :    0.189222
  30 O :   -0.264226
  31 O :   -0.191179
  32 C :    0.158696
  33 C :   -0.372965
  34 H :    0.163094
  35 H :    0.170678
  36 H :    0.154103
  37 H :    0.182244
  38 H :    0.184233

  Mayer bond orders larger than 0.100000
B(  0-Ir,  1-C ) :   0.4340 B(  0-Ir,  2-C ) :   0.4226 B(  0-Ir,  3-C ) :   0.4664
B(  0-Ir,  4-C ) :   0.4277 B(  0-Ir,  5-C ) :   0.3777 B(  0-Ir,  6-N ) :   0.4631
B(  0-Ir, 20-C ) :   0.4582 B(  0-Ir, 31-O ) :   0.5380 B(  1-C ,  2-C ) :   1.1272
B(  1-C ,  4-C ) :   1.2319 B(  1-C , 27-H ) :   0.9077 B(  2-C ,  5-C ) :   1.1984
B(  2-C , 28-H ) :   0.9101 B(  3-C ,  4-C ) :   1.1309 B(  3-C ,  5-C ) :   1.1851
B(  3-C , 37-H ) :   0.9124 B(  4-C , 38-H ) :   0.8995 B(  5-C , 29-H ) :   0.9005
B(  6-N ,  7-C ) :   0.8952 B(  6-N , 17-C ) :   1.6532 B(  7-C ,  8-C ) :   0.9905
B(  7-C , 12-C ) :   0.9661 B(  7-C , 13-H ) :   0.8749 B(  8-C ,  9-H ) :   0.9045
B(  8-C , 10-H ) :   0.9130 B(  8-C , 11-H ) :   0.9114 B( 12-C , 14-H ) :   0.9075
B( 12-C , 15-H ) :   0.9153 B( 12-C , 16-H ) :   0.9118 B( 17-C , 18-C ) :   1.1049
B( 17-C , 19-H ) :   0.8761 B( 18-C , 20-C ) :   1.2253 B( 18-C , 22-S ) :   1.2529
B( 20-C , 21-C ) :   1.2574 B( 20-C , 24-H ) :   0.3883 B( 21-C , 23-C ) :   1.5509
B( 21-C , 25-H ) :   0.9019 B( 22-S , 23-C ) :   1.2105 B( 23-C , 26-H ) :   0.8911
B( 24-H , 30-O ) :   0.3101 B( 30-O , 32-C ) :   1.6140 B( 31-O , 32-C ) :   1.3439
B( 32-C , 33-C ) :   0.9436 B( 33-C , 34-H ) :   0.9017 B( 33-C , 35-H ) :   0.8951
B( 33-C , 36-H ) :   0.9089

Dispersion correction           -0.030765671
FINAL SINGLE POINT ENERGY     -1288.400218593173

DIPOLE MOMENT
-------------
                                X             Y             Z
Electronic contribution:     38.04412     -71.97034      70.55735
Nuclear contribution   :    -38.69266      71.30490     -70.92815
                        -----------------------------------------
Total Dipole Moment    :     -0.64854      -0.66544      -0.37081
                        -----------------------------------------
Magnitude (a.u.)       :      1.00046
Magnitude (Debye)      :      2.54296

Rotational constants in cm-1:     0.010519     0.008966     0.008237
Rotational constants in MHz :   315.365261   268.781855   246.939608

                             ****ORCA TERMINATED NORMALLY****
TOTAL RUN TIME: 0 days 2 hours 13 minutes 29 seconds 630 msec
