                         Program Version 5.0.3 -  RELEASE  -
|  1> ! Opt PBEh-3c
|  2> %geom Constraints
|  3> { B 0 20 2.0 C }
|  4> { B 24 30 1.4285714285714286 C }
|  5>     end
|  6> end
|  7> %output
|  8> xyzfile=True
|  9> end
| 10> %scf
| 11> maxiter 250
| 12> end
| 13> %output
| 14> Print[P_Hirshfeld] = 1
| 15> end
| 16> % maxcore
| 17> 4000
| 18> *xyz 1 1
| 19> Ir   0.62459838  -0.72679426   0.39200490
| 20> C    0.16642755  -2.85022012   0.31581201
| 21> C   -0.06264844  -2.41073544   1.66836893
| 22> C    2.16529816  -2.05526266   1.15817650
| 23> C    1.53350085  -2.65462091   0.01665908
| 24> C    1.16963904  -1.94084701   2.17087968
| 25> N   -1.07240866   0.12336127  -0.51394858
| 26> C   -2.33510512   0.32615305   0.21032817
| 27> C   -3.13094656   1.53160515  -0.26891486
| 28> H   -3.95566202   1.70503280   0.42051744
| 29> H   -3.57495301   1.38236482  -1.25409759
| 30> H   -2.52544292   2.43801773  -0.28953599
| 31> C   -3.16318879  -0.95271140   0.14225538
| 32> H   -2.04153950   0.50125690   1.24643679
| 33> H   -4.06008715  -0.84646649   0.75110235
| 34> H   -3.47717148  -1.16330508  -0.88085502
| 35> H   -2.61392801  -1.81618241   0.51378135
| 36> C   -0.92821123   0.48080637  -1.73726027
| 37> C    0.38869564   0.29073648  -2.26446915
| 38> H   -1.73386249   0.92324519  -2.31357237
| 39> C    1.40736699   0.03109906  -1.33603917
| 40> C    2.63190021  -0.21695716  -2.04329451
| 41> S    0.90117530   0.25373695  -3.87594120
| 42> C    2.50302774  -0.12573201  -3.39355537
| 43> H    1.60334715   1.12367055  -0.69780809
| 44> H    3.58100206  -0.39192741  -1.55724694
| 45> H    3.27373729  -0.23805614  -4.14090678
| 46> H   -0.56482275  -3.29426469  -0.34366232
| 47> H   -0.99013565  -2.46846086   2.21705828
| 48> H    1.31950622  -1.49609718   3.14452801
| 49> O    1.69749122   2.34056871   0.07169338
| 50> O    0.58846640   1.02663598   1.48650160
| 51> C    1.12526364   2.13345633   1.15560358
| 52> C    1.07252458   3.23543057   2.17459296
| 53> H    0.97355032   4.20294742   1.68828805
| 54> H    2.01170078   3.24639399   2.73041641
| 55> H    0.26268169   3.08784359   2.88376808
| 56> H    3.21391674  -1.82680031   1.26943395
| 57> H    2.01466588  -2.90973143  -0.91635854
| 58> *
| 59>
| 60>                          ****END OF INPUT****
 Total Charge           Charge          ....    1
 Multiplicity           Mult            ....    1
 Number of Electrons    NEL             ....  164
Dispersion correction           -0.030943389
FINAL SINGLE POINT ENERGY     -1288.394810466689
Dispersion correction            ... done
Dispersion correction           -0.030897017
FINAL SINGLE POINT ENERGY     -1288.394858519275
Dispersion correction            ... done
Dispersion correction           -0.030910377
FINAL SINGLE POINT ENERGY     -1288.393943907627
Dispersion correction            ... done
FINAL SINGLE POINT ENERGY     -1288.395142062710
FINAL SINGLE POINT ENERGY     -1288.395178455526
FINAL SINGLE POINT ENERGY     -1288.395219103411
FINAL SINGLE POINT ENERGY     -1288.395265433849
FINAL SINGLE POINT ENERGY     -1288.395278071728
FINAL SINGLE POINT ENERGY     -1288.395284478796
FINAL SINGLE POINT ENERGY     -1288.395288285672
FINAL SINGLE POINT ENERGY     -1288.395289302068
FINAL SINGLE POINT ENERGY     -1288.395290318009
FINAL SINGLE POINT ENERGY     -1288.395291813230
FINAL SINGLE POINT ENERGY     -1288.395294336534
Dispersion correction            ... done
Dispersion correction           -0.030849394
FINAL SINGLE POINT ENERGY     -1288.395297770102
Dispersion correction            ... done
Dispersion correction           -0.030850804
FINAL SINGLE POINT ENERGY     -1288.395299529117
Dispersion correction            ... done
                    ***********************HURRAY********************

CARTESIAN COORDINATES (ANGSTROEM)
---------------------------------
  Ir     0.625874   -0.733846    0.380726
  C      0.186374   -2.859190    0.306011
  C     -0.082329   -2.435608    1.657699
  C      2.151652   -2.045944    1.206332
  C      1.562468   -2.653865    0.049974
  C      1.123830   -1.952253    2.194837
  N     -1.078773    0.114031   -0.510102
  C     -2.339073    0.304983    0.220939
  C     -3.126613    1.529048   -0.223371
  H     -3.951036    1.687595    0.469967
  H     -3.570026    1.412950   -1.213264
  H     -2.514513    2.431233   -0.216322
  C     -3.174695   -0.966646    0.118684
  H     -2.043553    0.450017    1.261159
  H     -4.067367   -0.875256    0.736130
  H     -3.495820   -1.143745   -0.908549
  H     -2.626980   -1.844093    0.458660
  C     -0.939490    0.486192   -1.730131
  C      0.375751    0.297283   -2.259109
  H     -1.745824    0.937676   -2.298148
  C      1.378785   -0.011750   -1.325645
  C      2.612052   -0.236406   -2.030031
  S      0.911300    0.335986   -3.862838
  C      2.502570   -0.078293   -3.375911
  H      1.596710    1.138158   -0.744395
  H      3.553305   -0.443501   -1.541210
  H      3.283609   -0.160663   -4.116446
  H     -0.518776   -3.315932   -0.372836
  H     -1.025893   -2.501972    2.177144
  H      1.240488   -1.510010    3.174052
  O      1.690938    2.347333    0.010478
  O      0.616326    1.036737    1.455829
  C      1.140584    2.140961    1.109510
  C      1.108482    3.250426    2.120691
  H      1.013891    4.216329    1.630578
  H      2.052499    3.254555    2.668489
  H      0.303930    3.113195    2.837898
  H      3.194886   -1.811866    1.351382
  H      2.073823   -2.904657   -0.868122

 Multiplicity           Mult            ....    1
 Number of Electrons    NEL             ....  164
 Basis Dimension        Dim             ....  358

ORBITAL ENERGIES
----------------

  NO   OCC          E(Eh)            E(eV)
   0   2.0000     -89.768931     -2442.7368
   1   2.0000     -19.633466      -534.2538
   2   2.0000     -19.621707      -533.9338
   3   2.0000     -14.835733      -403.7008
   4   2.0000     -10.695353      -291.0353
   5   2.0000     -10.655358      -289.9470
   6   2.0000     -10.630448      -289.2692
   7   2.0000     -10.621090      -289.0145
   8   2.0000     -10.620904      -289.0095
   9   2.0000     -10.618706      -288.9497
  10   2.0000     -10.613363      -288.8043
  11   2.0000     -10.613274      -288.8019
  12   2.0000     -10.611125      -288.7434
  13   2.0000     -10.608068      -288.6602
  14   2.0000     -10.593847      -288.2732
  15   2.0000     -10.592446      -288.2351
  16   2.0000     -10.553362      -287.1716
  17   2.0000     -10.550946      -287.1058
  18   2.0000     -10.543725      -286.9093
  19   2.0000      -8.408247      -228.8000
  20   2.0000      -6.298096      -171.3799
  21   2.0000      -6.294551      -171.2834
  22   2.0000      -6.293265      -171.2484
  23   2.0000      -4.017831      -109.3307
  24   2.0000      -2.334456       -63.5238
  25   2.0000      -2.305484       -62.7354
  26   2.0000      -2.301239       -62.6199
  27   2.0000      -1.322496       -35.9869
  28   2.0000      -1.224462       -33.3193
  29   2.0000      -1.209138       -32.9023
  30   2.0000      -1.156103       -31.4592
  31   2.0000      -1.131738       -30.7962
  32   2.0000      -1.026499       -27.9325
  33   2.0000      -0.974795       -26.5255
  34   2.0000      -0.969413       -26.3791
  35   2.0000      -0.963856       -26.2278
  36   2.0000      -0.959116       -26.0989
  37   2.0000      -0.938002       -25.5243
  38   2.0000      -0.900533       -24.5048
  39   2.0000      -0.874484       -23.7959
  40   2.0000      -0.800742       -21.7893
  41   2.0000      -0.784853       -21.3569
  42   2.0000      -0.773440       -21.0464
  43   2.0000      -0.772386       -21.0177
  44   2.0000      -0.758973       -20.6527
  45   2.0000      -0.756822       -20.5942
  46   2.0000      -0.744334       -20.2544
  47   2.0000      -0.721707       -19.6387
  48   2.0000      -0.695824       -18.9343
  49   2.0000      -0.685669       -18.6580
  50   2.0000      -0.664794       -18.0900
  51   2.0000      -0.658625       -17.9221
  52   2.0000      -0.647854       -17.6290
  53   2.0000      -0.637540       -17.3483
  54   2.0000      -0.629484       -17.1291
  55   2.0000      -0.623619       -16.9695
  56   2.0000      -0.621260       -16.9053
  57   2.0000      -0.613540       -16.6953
  58   2.0000      -0.603159       -16.4128
  59   2.0000      -0.595423       -16.2023
  60   2.0000      -0.592813       -16.1313
  61   2.0000      -0.591248       -16.0887
  62   2.0000      -0.580870       -15.8063
  63   2.0000      -0.569379       -15.4936
  64   2.0000      -0.567132       -15.4324
  65   2.0000      -0.563363       -15.3299
  66   2.0000      -0.554179       -15.0800
  67   2.0000      -0.546642       -14.8749
  68   2.0000      -0.542182       -14.7535
  69   2.0000      -0.535627       -14.5752
  70   2.0000      -0.532385       -14.4869
  71   2.0000      -0.518675       -14.1139
  72   2.0000      -0.513110       -13.9624
  73   2.0000      -0.500066       -13.6075
  74   2.0000      -0.495280       -13.4773
  75   2.0000      -0.491042       -13.3619
  76   2.0000      -0.474833       -12.9209
  77   2.0000      -0.452094       -12.3021
  78   2.0000      -0.441657       -12.0181
  79   2.0000      -0.421140       -11.4598
  80   2.0000      -0.412387       -11.2216
  81   2.0000      -0.391371       -10.6497
  82   0.0000      -0.209039        -5.6882
  83   0.0000      -0.143906        -3.9159
  84   0.0000      -0.121863        -3.3161
  85   0.0000      -0.088918        -2.4196
  86   0.0000      -0.076963        -2.0943

MULLIKEN ATOMIC CHARGES
-----------------------
   0 Ir:    0.619564
   1 C :   -0.259274
   2 C :   -0.246610
   3 C :   -0.283563
   4 C :   -0.217080
   5 C :   -0.148434
   6 N :   -0.429557
   7 C :   -0.128389
   8 C :   -0.679512
   9 H :    0.269262
  10 H :    0.223983
  11 H :    0.253863
  12 C :   -0.632797
  13 H :    0.279419
  14 H :    0.258500
  15 H :    0.232757
  16 H :    0.235314
  17 C :    0.070693
  18 C :   -0.113741
  19 H :    0.286158
  20 C :   -0.609759
  21 C :   -0.082039
  22 S :    0.351137
  23 C :   -0.426100
  24 H :    0.469317
  25 H :    0.270731
  26 H :    0.299544
  27 H :    0.282622
  28 H :    0.278883
  29 H :    0.294882
  30 O :   -0.472438
  31 O :   -0.508336
  32 C :    0.628261
  33 C :   -0.743265
  34 H :    0.271888
  35 H :    0.274587
  36 H :    0.260313
  37 H :    0.278582
  38 H :    0.290633
Sum of atomic charges:    1.0000000

LOEWDIN ATOMIC CHARGES
----------------------
   0 Ir:   -0.260975
   1 C :   -0.066203
   2 C :   -0.099691
   3 C :   -0.104227
   4 C :   -0.041363
   5 C :   -0.021274
   6 N :    0.002843
   7 C :   -0.069791
   8 C :   -0.361749
   9 H :    0.156298
  10 H :    0.132706
  11 H :    0.143454
  12 C :   -0.343580
  13 H :    0.154800
  14 H :    0.150701
  15 H :    0.138071
  16 H :    0.134110
  17 C :    0.026252
  18 C :   -0.183277
  19 H :    0.161124
  20 C :   -0.219067
  21 C :   -0.121580
  22 S :    0.507298
  23 C :   -0.256814
  24 H :    0.363308
  25 H :    0.164193
  26 H :    0.170435
  27 H :    0.180705
  28 H :    0.177352
  29 H :    0.186032
  30 O :   -0.259868
  31 O :   -0.182203
  32 C :    0.160750
  33 C :   -0.372131
  34 H :    0.163134
  35 H :    0.171707
  36 H :    0.155734
  37 H :    0.180045
  38 H :    0.182742

  Mayer bond orders larger than 0.100000
B(  0-Ir,  1-C ) :   0.4596 B(  0-Ir,  2-C ) :   0.3582 B(  0-Ir,  3-C ) :   0.4746
B(  0-Ir,  4-C ) :   0.4118 B(  0-Ir,  5-C ) :   0.3383 B(  0-Ir,  6-N ) :   0.4632
B(  0-Ir, 20-C ) :   0.5740 B(  0-Ir, 31-O ) :   0.5192 B(  1-C ,  2-C ) :   1.1230
B(  1-C ,  4-C ) :   1.2181 B(  1-C , 27-H ) :   0.9103 B(  2-C ,  5-C ) :   1.2587
B(  2-C , 28-H ) :   0.9101 B(  3-C ,  4-C ) :   1.1507 B(  3-C ,  5-C ) :   1.1538
B(  3-C , 37-H ) :   0.9154 B(  4-C , 38-H ) :   0.8992 B(  5-C , 29-H ) :   0.9025
B(  6-N ,  7-C ) :   0.8960 B(  6-N , 17-C ) :   1.6443 B(  7-C ,  8-C ) :   0.9899
B(  7-C , 12-C ) :   0.9662 B(  7-C , 13-H ) :   0.8767 B(  8-C ,  9-H ) :   0.9047
B(  8-C , 10-H ) :   0.9132 B(  8-C , 11-H ) :   0.9122 B( 12-C , 14-H ) :   0.9077
B( 12-C , 15-H ) :   0.9151 B( 12-C , 16-H ) :   0.9114 B( 17-C , 18-C ) :   1.1171
B( 17-C , 19-H ) :   0.8766 B( 18-C , 20-C ) :   1.1946 B( 18-C , 22-S ) :   1.2549
B( 20-C , 21-C ) :   1.2358 B( 20-C , 24-H ) :   0.3492 B( 21-C , 23-C ) :   1.5496
B( 21-C , 25-H ) :   0.9004 B( 22-S , 23-C ) :   1.2109 B( 23-C , 26-H ) :   0.8913
B( 24-H , 30-O ) :   0.3422 B( 30-O , 32-C ) :   1.5810 B( 31-O , 32-C ) :   1.3732
B( 32-C , 33-C ) :   0.9427 B( 33-C , 34-H ) :   0.9013 B( 33-C , 35-H ) :   0.8939
B( 33-C , 36-H ) :   0.9080

Dispersion correction           -0.030852467
FINAL SINGLE POINT ENERGY     -1288.395299679519

DIPOLE MOMENT
-------------
                                X             Y             Z
Electronic contribution:     38.64417     -74.17544      67.07500
Nuclear contribution   :    -39.26038      73.75655     -67.45579
                        -----------------------------------------
Total Dipole Moment    :     -0.61621      -0.41889      -0.38079
                        -----------------------------------------
Magnitude (a.u.)       :      0.83677
Magnitude (Debye)      :      2.12690

Rotational constants in cm-1:     0.010546     0.009027     0.008276
Rotational constants in MHz :   316.151369   270.634184   248.093793

                             ****ORCA TERMINATED NORMALLY****
TOTAL RUN TIME: 0 days 2 hours 6 minutes 11 seconds 307 msec
