                         Program Version 5.0.3 -  RELEASE  -
|  1> ! Opt PBEh-3c
|  2> %geom Constraints
|  3> { B 0 20 2.2142857142857144 C }
|  4> { B 24 30 1.3714285714285714 C }
|  5>     end
|  6> end
|  7> %output
|  8> xyzfile=True
|  9> end
| 10> %scf
| 11> maxiter 250
| 12> end
| 13> %output
| 14> Print[P_Hirshfeld] = 1
| 15> end
| 16> % maxcore
| 17> 4000
| 18> *xyz 1 1
| 19> Ir   0.60818032  -0.72302532   0.45414942
| 20> C    0.11040839  -2.82938881   0.35263083
| 21> C   -0.02828606  -2.36382523   1.70804943
| 22> C    2.17702003  -2.08745459   1.07193021
| 23> C    1.45277294  -2.65323367  -0.03905213
| 24> C    1.26188439  -1.94029287   2.13986788
| 25> N   -1.05563509   0.12602726  -0.51062463
| 26> C   -2.33141672   0.36131895   0.18470597
| 27> C   -3.12124918   1.53925678  -0.36759210
| 28> H   -3.95141185   1.75244023   0.30424470
| 29> H   -3.55837599   1.33559574  -1.34604046
| 30> H   -2.51464582   2.44263440  -0.43424391
| 31> C   -3.15850864  -0.91940869   0.17311275
| 32> H   -2.05311456   0.59051261   1.21430181
| 33> H   -4.06820835  -0.77774892   0.75511475
| 34> H   -3.45126176  -1.18969632  -0.84229181
| 35> H   -2.61929019  -1.75921865   0.60840220
| 36> C   -0.89644568   0.41983501  -1.74730710
| 37> C    0.42808174   0.24779340  -2.27378915
| 38> H   -1.70762374   0.80972192  -2.35473097
| 39> C    1.50761125   0.20444060  -1.39666792
| 40> C    2.70764230  -0.08425606  -2.11000400
| 41> S    0.86547684  -0.03046920  -3.89227298
| 42> C    2.50885341  -0.22828348  -3.44961051
| 43> H    1.60140290   1.18235616  -0.59820761
| 44> H    3.68647257  -0.12422979  -1.65472335
| 45> H    3.24853798  -0.41909856  -4.21226825
| 46> H   -0.67734203  -3.23803600  -0.26353659
| 47> H   -0.91814632  -2.40589364   2.31782646
| 48> H    1.48733375  -1.50635502   3.10384622
| 49> O    1.65239621   2.32629884   0.18217621
| 50> O    0.53940060   0.99759754   1.57853387
| 51> C    1.07728371   2.11207323   1.26046161
| 52> C    1.01702542   3.19622637   2.29651340
| 53> H    0.98560007   4.17613500   1.82692745
| 54> H    1.92282507   3.15300377   2.90407197
| 55> H    0.16546524   3.07038216   2.96020996
| 56> H    3.23225332  -1.86366252   1.10233271
| 57> H    1.86640368  -2.90088270  -1.00570626
| 58> *
| 59>
| 60>                          ****END OF INPUT****
 Total Charge           Charge          ....    1
 Multiplicity           Mult            ....    1
 Number of Electrons    NEL             ....  164
Dispersion correction           -0.030764701
FINAL SINGLE POINT ENERGY     -1288.401664490724
Dispersion correction            ... done
Dispersion correction           -0.030714539
FINAL SINGLE POINT ENERGY     -1288.401604710771
Dispersion correction            ... done
Dispersion correction           -0.030721502
FINAL SINGLE POINT ENERGY     -1288.400733082305
Dispersion correction            ... done
FINAL SINGLE POINT ENERGY     -1288.401960119299
FINAL SINGLE POINT ENERGY     -1288.402011831642
FINAL SINGLE POINT ENERGY     -1288.402043276547
FINAL SINGLE POINT ENERGY     -1288.402097054712
FINAL SINGLE POINT ENERGY     -1288.402102035986
FINAL SINGLE POINT ENERGY     -1288.402102042180
FINAL SINGLE POINT ENERGY     -1288.402101187668
FINAL SINGLE POINT ENERGY     -1288.402103707481
FINAL SINGLE POINT ENERGY     -1288.402105381486
FINAL SINGLE POINT ENERGY     -1288.402106184842
FINAL SINGLE POINT ENERGY     -1288.402107622283
FINAL SINGLE POINT ENERGY     -1288.402109698878
FINAL SINGLE POINT ENERGY     -1288.402112352832
Dispersion correction            ... done
Dispersion correction           -0.030616223
FINAL SINGLE POINT ENERGY     -1288.402114746945
Dispersion correction            ... done
Dispersion correction           -0.030618403
FINAL SINGLE POINT ENERGY     -1288.402116565110
Dispersion correction            ... done
                    ***********************HURRAY********************

CARTESIAN COORDINATES (ANGSTROEM)
---------------------------------
  Ir     0.608439   -0.729337    0.449486
  C      0.118100   -2.837580    0.355510
  C     -0.064130   -2.371651    1.705788
  C      2.159118   -2.084573    1.135497
  C      1.473978   -2.661549    0.008199
  C      1.205745   -1.936696    2.173410
  N     -1.059862    0.119911   -0.507651
  C     -2.337758    0.331805    0.190823
  C     -3.129565    1.523884   -0.327867
  H     -3.962526    1.713569    0.347370
  H     -3.562327    1.349539   -1.313892
  H     -2.525247    2.430530   -0.364458
  C     -3.162117   -0.949643    0.137287
  H     -2.064087    0.531762    1.227782
  H     -4.073674   -0.829182    0.721265
  H     -3.451531   -1.188315   -0.886956
  H     -2.622025   -1.802165    0.545875
  C     -0.902592    0.447081   -1.736987
  C      0.417542    0.281159   -2.270341
  H     -1.714332    0.855695   -2.330832
  C      1.484843    0.141610   -1.388020
  C      2.685235   -0.121403   -2.111307
  S      0.866634    0.125050   -3.901536
  C      2.498064   -0.150626   -3.460607
  H      1.633022    1.151210   -0.592554
  H      3.657930   -0.224372   -1.652658
  H      3.241884   -0.299747   -4.228511
  H     -0.646004   -3.256647   -0.282894
  H     -0.972721   -2.413691    2.287077
  H      1.397755   -1.495636    3.141420
  O      1.727805    2.291437    0.163564
  O      0.547842    1.013970    1.551508
  C      1.118884    2.107084    1.232961
  C      1.061803    3.217829    2.239692
  H      0.943288    4.177620    1.741891
  H      2.008142    3.251627    2.782182
  H      0.262106    3.068224    2.959585
  H      3.213035   -1.863069    1.202545
  H      1.918673   -2.915521   -0.942902

 Multiplicity           Mult            ....    1
 Number of Electrons    NEL             ....  164
 Basis Dimension        Dim             ....  358

ORBITAL ENERGIES
----------------

  NO   OCC          E(Eh)            E(eV)
   0   2.0000     -89.762180     -2442.5531
   1   2.0000     -19.633377      -534.2514
   2   2.0000     -19.615862      -533.7747
   3   2.0000     -14.834342      -403.6630
   4   2.0000     -10.694399      -291.0094
   5   2.0000     -10.655405      -289.9483
   6   2.0000     -10.628521      -289.2168
   7   2.0000     -10.626247      -289.1549
   8   2.0000     -10.625498      -289.1345
   9   2.0000     -10.624643      -289.1112
  10   2.0000     -10.619415      -288.9690
  11   2.0000     -10.616336      -288.8852
  12   2.0000     -10.613003      -288.7945
  13   2.0000     -10.609011      -288.6859
  14   2.0000     -10.587571      -288.1024
  15   2.0000     -10.586722      -288.0793
  16   2.0000     -10.553908      -287.1864
  17   2.0000     -10.550531      -287.0945
  18   2.0000     -10.542685      -286.8810
  19   2.0000      -8.401612      -228.6195
  20   2.0000      -6.291502      -171.2005
  21   2.0000      -6.287941      -171.1036
  22   2.0000      -6.286575      -171.0664
  23   2.0000      -4.022812      -109.4663
  24   2.0000      -2.340450       -63.6869
  25   2.0000      -2.308307       -62.8122
  26   2.0000      -2.305780       -62.7435
  27   2.0000      -1.322407       -35.9845
  28   2.0000      -1.223828       -33.3020
  29   2.0000      -1.206694       -32.8358
  30   2.0000      -1.163720       -31.6664
  31   2.0000      -1.126101       -30.6428
  32   2.0000      -1.023778       -27.8584
  33   2.0000      -0.976705       -26.5775
  34   2.0000      -0.969730       -26.3877
  35   2.0000      -0.966688       -26.3049
  36   2.0000      -0.958295       -26.0765
  37   2.0000      -0.937763       -25.5178
  38   2.0000      -0.900347       -24.4997
  39   2.0000      -0.871526       -23.7154
  40   2.0000      -0.797359       -21.6972
  41   2.0000      -0.781065       -21.2539
  42   2.0000      -0.779400       -21.2086
  43   2.0000      -0.779029       -21.1985
  44   2.0000      -0.764330       -20.7985
  45   2.0000      -0.760506       -20.6944
  46   2.0000      -0.741923       -20.1887
  47   2.0000      -0.722134       -19.6503
  48   2.0000      -0.691511       -18.8170
  49   2.0000      -0.682720       -18.5778
  50   2.0000      -0.662905       -18.0386
  51   2.0000      -0.657630       -17.8950
  52   2.0000      -0.647560       -17.6210
  53   2.0000      -0.637953       -17.3596
  54   2.0000      -0.633040       -17.2259
  55   2.0000      -0.630464       -17.1558
  56   2.0000      -0.621714       -16.9177
  57   2.0000      -0.609673       -16.5901
  58   2.0000      -0.599843       -16.3226
  59   2.0000      -0.599170       -16.3043
  60   2.0000      -0.598267       -16.2797
  61   2.0000      -0.590661       -16.0727
  62   2.0000      -0.578439       -15.7401
  63   2.0000      -0.567577       -15.4446
  64   2.0000      -0.564448       -15.3594
  65   2.0000      -0.561963       -15.2918
  66   2.0000      -0.553984       -15.0747
  67   2.0000      -0.546959       -14.8835
  68   2.0000      -0.541691       -14.7402
  69   2.0000      -0.534938       -14.5564
  70   2.0000      -0.528519       -14.3817
  71   2.0000      -0.518092       -14.0980
  72   2.0000      -0.513326       -13.9683
  73   2.0000      -0.500542       -13.6204
  74   2.0000      -0.494864       -13.4659
  75   2.0000      -0.480401       -13.0724
  76   2.0000      -0.478613       -13.0237
  77   2.0000      -0.448341       -12.2000
  78   2.0000      -0.445028       -12.1098
  79   2.0000      -0.418201       -11.3798
  80   2.0000      -0.417198       -11.3525
  81   2.0000      -0.397013       -10.8033
  82   0.0000      -0.202622        -5.5136
  83   0.0000      -0.142604        -3.8804
  84   0.0000      -0.140241        -3.8161
  85   0.0000      -0.086847        -2.3632
  86   0.0000      -0.072817        -1.9814

MULLIKEN ATOMIC CHARGES
-----------------------
   0 Ir:    0.603673
   1 C :   -0.233244
   2 C :   -0.269916
   3 C :   -0.261515
   4 C :   -0.228604
   5 C :   -0.157044
   6 N :   -0.434954
   7 C :   -0.126067
   8 C :   -0.682678
   9 H :    0.269461
  10 H :    0.224433
  11 H :    0.254892
  12 C :   -0.634217
  13 H :    0.280222
  14 H :    0.259751
  15 H :    0.232221
  16 H :    0.232279
  17 C :    0.069830
  18 C :   -0.137209
  19 H :    0.285451
  20 C :   -0.525530
  21 C :   -0.112918
  22 S :    0.335529
  23 C :   -0.427570
  24 H :    0.476479
  25 H :    0.265758
  26 H :    0.297550
  27 H :    0.286766
  28 H :    0.284263
  29 H :    0.300281
  30 O :   -0.482214
  31 O :   -0.516157
  32 C :    0.630313
  33 C :   -0.744442
  34 H :    0.272256
  35 H :    0.274195
  36 H :    0.259771
  37 H :    0.285047
  38 H :    0.293856
Sum of atomic charges:    1.0000000

LOEWDIN ATOMIC CHARGES
----------------------
   0 Ir:   -0.251600
   1 C :   -0.054040
   2 C :   -0.090375
   3 C :   -0.087422
   4 C :   -0.042263
   5 C :   -0.015412
   6 N :   -0.006187
   7 C :   -0.069270
   8 C :   -0.362395
   9 H :    0.156233
  10 H :    0.132779
  11 H :    0.143913
  12 C :   -0.343865
  13 H :    0.155135
  14 H :    0.151092
  15 H :    0.137757
  16 H :    0.132693
  17 C :    0.030207
  18 C :   -0.189490
  19 H :    0.160206
  20 C :   -0.216940
  21 C :   -0.129128
  22 S :    0.491290
  23 C :   -0.259076
  24 H :    0.344342
  25 H :    0.161739
  26 H :    0.168845
  27 H :    0.182826
  28 H :    0.181034
  29 H :    0.189740
  30 O :   -0.265088
  31 O :   -0.187307
  32 C :    0.163526
  33 C :   -0.372375
  34 H :    0.164271
  35 H :    0.171428
  36 H :    0.154769
  37 H :    0.183129
  38 H :    0.185283

  Mayer bond orders larger than 0.100000
B(  0-Ir,  1-C ) :   0.4323 B(  0-Ir,  2-C ) :   0.4480 B(  0-Ir,  3-C ) :   0.4647
B(  0-Ir,  4-C ) :   0.4348 B(  0-Ir,  5-C ) :   0.3884 B(  0-Ir,  6-N ) :   0.4650
B(  0-Ir, 20-C ) :   0.4171 B(  0-Ir, 31-O ) :   0.5333 B(  1-C ,  2-C ) :   1.1261
B(  1-C ,  4-C ) :   1.2322 B(  1-C , 27-H ) :   0.9069 B(  2-C ,  5-C ) :   1.1832
B(  2-C , 28-H ) :   0.9100 B(  3-C ,  4-C ) :   1.1275 B(  3-C ,  5-C ) :   1.1934
B(  3-C , 37-H ) :   0.9112 B(  4-C , 38-H ) :   0.8999 B(  5-C , 29-H ) :   0.9001
B(  6-N ,  7-C ) :   0.8948 B(  6-N , 17-C ) :   1.6535 B(  7-C ,  8-C ) :   0.9906
B(  7-C , 12-C ) :   0.9668 B(  7-C , 13-H ) :   0.8763 B(  8-C ,  9-H ) :   0.9046
B(  8-C , 10-H ) :   0.9130 B(  8-C , 11-H ) :   0.9116 B( 12-C , 14-H ) :   0.9076
B( 12-C , 15-H ) :   0.9154 B( 12-C , 16-H ) :   0.9123 B( 17-C , 18-C ) :   1.1048
B( 17-C , 19-H ) :   0.8761 B( 18-C , 20-C ) :   1.2479 B( 18-C , 22-S ) :   1.2370
B( 20-C , 21-C ) :   1.2768 B( 20-C , 24-H ) :   0.3708 B( 21-C , 23-C ) :   1.5427
B( 21-C , 25-H ) :   0.9034 B( 22-S , 23-C ) :   1.2172 B( 23-C , 26-H ) :   0.8913
B( 24-H , 30-O ) :   0.3208 B( 30-O , 32-C ) :   1.5887 B( 31-O , 32-C ) :   1.3582
B( 32-C , 33-C ) :   0.9455 B( 33-C , 34-H ) :   0.9006 B( 33-C , 35-H ) :   0.8942
B( 33-C , 36-H ) :   0.9086

Dispersion correction           -0.030619488
FINAL SINGLE POINT ENERGY     -1288.402117572513

DIPOLE MOMENT
-------------
                                X             Y             Z
Electronic contribution:     37.02985     -72.45073      73.67197
Nuclear contribution   :    -37.65696      71.80812     -73.91973
                        -----------------------------------------
Total Dipole Moment    :     -0.62710      -0.64261      -0.24776
                        -----------------------------------------
Magnitude (a.u.)       :      0.93144
Magnitude (Debye)      :      2.36754

Rotational constants in cm-1:     0.010530     0.008831     0.008185
Rotational constants in MHz :   315.668611   264.757051   245.393154

                             ****ORCA TERMINATED NORMALLY****
TOTAL RUN TIME: 0 days 2 hours 20 minutes 34 seconds 119 msec
