                         Program Version 5.0.3 -  RELEASE  -
|  1> ! Opt PBEh-3c
|  2> %geom Constraints
|  3> { B 0 20 2.257142857142857 C }
|  4> { B 24 30 1.4428571428571428 C }
|  5>     end
|  6> end
|  7> %output
|  8> xyzfile=True
|  9> end
| 10> %scf
| 11> maxiter 250
| 12> end
| 13> %output
| 14> Print[P_Hirshfeld] = 1
| 15> end
| 16> % maxcore
| 17> 4000
| 18> *xyz 1 1
| 19> Ir   0.61772985  -0.71267028   0.43561267
| 20> C    0.08968415  -2.81254540   0.34058072
| 21> C    0.07050509  -2.35215734   1.70440260
| 22> C    2.21565021  -2.10266338   0.89008659
| 23> C    1.39245033  -2.64474630  -0.16600015
| 24> C    1.40410501  -1.95569413   2.03394870
| 25> N   -1.04500865   0.14968620  -0.52063152
| 26> C   -2.31083621   0.43680993   0.17214929
| 27> C   -3.09690238   1.58164483  -0.44799485
| 28> H   -3.91985746   1.84465055   0.21517100
| 29> H   -3.54403641   1.31823642  -1.40757975
| 30> H   -2.48418412   2.47413757  -0.57695876
| 31> C   -3.14223927  -0.83811379   0.25691449
| 32> H   -2.01563019   0.72776034   1.18118222
| 33> H   -4.04657623  -0.64900816   0.83343518
| 34> H   -3.44375385  -1.18057944  -0.73382054
| 35> H   -2.60283835  -1.64457587   0.75147799
| 36> C   -0.87858927   0.38617043  -1.76631008
| 37> C    0.45822860   0.18082065  -2.26426992
| 38> H   -1.67818451   0.75655782  -2.40078446
| 39> C    1.54231965   0.32100923  -1.39922803
| 40> C    2.75187071  -0.03928634  -2.06480514
| 41> S    0.90258503  -0.35679140  -3.81259322
| 42> C    2.55673242  -0.42037736  -3.35529325
| 43> H    1.52818345   1.26188412  -0.65163270
| 44> H    3.73117230   0.03593821  -1.61499831
| 45> H    3.30006875  -0.71347344  -4.08112647
| 46> H   -0.75569556  -3.19973778  -0.20984111
| 47> H   -0.76705935  -2.38698352   2.38494544
| 48> H    1.71754331  -1.53788691   2.98009804
| 49> O    1.39400712   2.43951682   0.19597761
| 50> O    0.54267112   0.95166121   1.61928955
| 51> C    0.95144449   2.12992734   1.30363060
| 52> C    0.88877350   3.14206610   2.41255948
| 53> H    0.85325384   4.15167587   2.01243532
| 54> H    1.79113260   3.05635139   3.02106159
| 55> H    0.03799759   2.96889015   3.06789402
| 56> H    3.27003057  -1.88021375   0.82682128
| 57> H    1.72262213  -2.88870066  -1.16506607
| 58> *
| 59>
| 60>                          ****END OF INPUT****
 Total Charge           Charge          ....    1
 Multiplicity           Mult            ....    1
 Number of Electrons    NEL             ....  164
Dispersion correction           -0.031015366
FINAL SINGLE POINT ENERGY     -1288.400268776367
Dispersion correction            ... done
Dispersion correction           -0.030937786
FINAL SINGLE POINT ENERGY     -1288.400168149226
Dispersion correction            ... done
Dispersion correction           -0.030946690
FINAL SINGLE POINT ENERGY     -1288.399941940650
Dispersion correction            ... done
FINAL SINGLE POINT ENERGY     -1288.400526799820
FINAL SINGLE POINT ENERGY     -1288.400564599376
FINAL SINGLE POINT ENERGY     -1288.400589236834
FINAL SINGLE POINT ENERGY     -1288.400614700584
FINAL SINGLE POINT ENERGY     -1288.400622716276
FINAL SINGLE POINT ENERGY     -1288.400629027940
FINAL SINGLE POINT ENERGY     -1288.400634759072
Dispersion correction            ... done
Dispersion correction           -0.030867678
FINAL SINGLE POINT ENERGY     -1288.400640067903
Dispersion correction            ... done
Dispersion correction           -0.030865646
FINAL SINGLE POINT ENERGY     -1288.400642582214
Dispersion correction            ... done
                    ***********************HURRAY********************

CARTESIAN COORDINATES (ANGSTROEM)
---------------------------------
  Ir     0.619187   -0.714625    0.436303
  C      0.090611   -2.817218    0.351823
  C      0.050751   -2.353758    1.713233
  C      2.208454   -2.104150    0.928633
  C      1.401687   -2.652431   -0.135953
  C      1.376881   -1.951428    2.058710
  N     -1.045580    0.141681   -0.521384
  C     -2.312291    0.416084    0.175211
  C     -3.099120    1.572269   -0.423402
  H     -3.922212    1.821864    0.244722
  H     -3.546005    1.326786   -1.387786
  H     -2.487219    2.467564   -0.535669
  C     -3.144858   -0.859603    0.235171
  H     -2.018850    0.688858    1.189825
  H     -4.050008   -0.681021    0.813872
  H     -3.445235   -1.182869   -0.762341
  H     -2.606858   -1.676025    0.714504
  C     -0.883368    0.394493   -1.765688
  C      0.449575    0.198665   -2.271157
  H     -1.686770    0.772131   -2.390796
  C      1.524257    0.264008   -1.385186
  C      2.736976   -0.065544   -2.061415
  S      0.904309   -0.238257   -3.847044
  C      2.551397   -0.353749   -3.377725
  H      1.534166    1.226983   -0.637123
  H      3.712513   -0.033889   -1.598446
  H      3.299643   -0.605696   -4.113848
  H     -0.745394   -3.208405   -0.209953
  H     -0.796703   -2.386429    2.381350
  H      1.675581   -1.528134    3.007231
  O      1.444449    2.413502    0.178942
  O      0.543299    0.963224    1.608759
  C      0.976636    2.127466    1.285311
  C      0.915413    3.160387    2.374360
  H      0.892076    4.163118    1.956409
  H      1.812832    3.077232    2.990416
  H      0.058256    3.005771    3.025816
  H      3.264558   -1.886042    0.883319
  H      1.746334   -2.903626   -1.128261

 Multiplicity           Mult            ....    1
 Number of Electrons    NEL             ....  164
 Basis Dimension        Dim             ....  358

ORBITAL ENERGIES
----------------

  NO   OCC          E(Eh)            E(eV)
   0   2.0000     -89.766746     -2442.6773
   1   2.0000     -19.625005      -534.0235
   2   2.0000     -19.597790      -533.2830
   3   2.0000     -14.839119      -403.7930
   4   2.0000     -10.683623      -290.7162
   5   2.0000     -10.659823      -290.0685
   6   2.0000     -10.632661      -289.3294
   7   2.0000     -10.631241      -289.2908
   8   2.0000     -10.630322      -289.2658
   9   2.0000     -10.626439      -289.1601
  10   2.0000     -10.623851      -289.0897
  11   2.0000     -10.622489      -289.0526
  12   2.0000     -10.614538      -288.8363
  13   2.0000     -10.611895      -288.7644
  14   2.0000     -10.589254      -288.1482
  15   2.0000     -10.587148      -288.0910
  16   2.0000     -10.555706      -287.2354
  17   2.0000     -10.551281      -287.1149
  18   2.0000     -10.535662      -286.6899
  19   2.0000      -8.406141      -228.7427
  20   2.0000      -6.296057      -171.3244
  21   2.0000      -6.292449      -171.2262
  22   2.0000      -6.291092      -171.1893
  23   2.0000      -4.025041      -109.5269
  24   2.0000      -2.343250       -63.7631
  25   2.0000      -2.310171       -62.8629
  26   2.0000      -2.308556       -62.8190
  27   2.0000      -1.309665       -35.6378
  28   2.0000      -1.212870       -33.0039
  29   2.0000      -1.210356       -32.9354
  30   2.0000      -1.167257       -31.7627
  31   2.0000      -1.129819       -30.7439
  32   2.0000      -1.026678       -27.9373
  33   2.0000      -0.980904       -26.6918
  34   2.0000      -0.972924       -26.4746
  35   2.0000      -0.969673       -26.3861
  36   2.0000      -0.961558       -26.1653
  37   2.0000      -0.929543       -25.2941
  38   2.0000      -0.901919       -24.5425
  39   2.0000      -0.874675       -23.8011
  40   2.0000      -0.799814       -21.7640
  41   2.0000      -0.783970       -21.3329
  42   2.0000      -0.783226       -21.3127
  43   2.0000      -0.781702       -21.2712
  44   2.0000      -0.767623       -20.8881
  45   2.0000      -0.755605       -20.5611
  46   2.0000      -0.743375       -20.2283
  47   2.0000      -0.723522       -19.6880
  48   2.0000      -0.691642       -18.8205
  49   2.0000      -0.677453       -18.4344
  50   2.0000      -0.664763       -18.0891
  51   2.0000      -0.650130       -17.6909
  52   2.0000      -0.647344       -17.6151
  53   2.0000      -0.636312       -17.3149
  54   2.0000      -0.634919       -17.2770
  55   2.0000      -0.630182       -17.1481
  56   2.0000      -0.622671       -16.9437
  57   2.0000      -0.612718       -16.6729
  58   2.0000      -0.603178       -16.4133
  59   2.0000      -0.602670       -16.3995
  60   2.0000      -0.600075       -16.3289
  61   2.0000      -0.591566       -16.0973
  62   2.0000      -0.580525       -15.7969
  63   2.0000      -0.572001       -15.5649
  64   2.0000      -0.563961       -15.3462
  65   2.0000      -0.558408       -15.1950
  66   2.0000      -0.551641       -15.0109
  67   2.0000      -0.548272       -14.9192
  68   2.0000      -0.540496       -14.7076
  69   2.0000      -0.536597       -14.6015
  70   2.0000      -0.528209       -14.3733
  71   2.0000      -0.519067       -14.1245
  72   2.0000      -0.514842       -14.0096
  73   2.0000      -0.501058       -13.6345
  74   2.0000      -0.488817       -13.3014
  75   2.0000      -0.481158       -13.0930
  76   2.0000      -0.475320       -12.9341
  77   2.0000      -0.445606       -12.1256
  78   2.0000      -0.443940       -12.0802
  79   2.0000      -0.422766       -11.5041
  80   2.0000      -0.416926       -11.3451
  81   2.0000      -0.399400       -10.8682
  82   0.0000      -0.206002        -5.6056
  83   0.0000      -0.149403        -4.0655
  84   0.0000      -0.141630        -3.8540
  85   0.0000      -0.093325        -2.5395
  86   0.0000      -0.076012        -2.0684

MULLIKEN ATOMIC CHARGES
-----------------------
   0 Ir:    0.606857
   1 C :   -0.218104
   2 C :   -0.276036
   3 C :   -0.249829
   4 C :   -0.241072
   5 C :   -0.161225
   6 N :   -0.427677
   7 C :   -0.126522
   8 C :   -0.686076
   9 H :    0.270580
  10 H :    0.224267
  11 H :    0.259203
  12 C :   -0.635274
  13 H :    0.283038
  14 H :    0.262300
  15 H :    0.231127
  16 H :    0.232366
  17 C :    0.071709
  18 C :   -0.147675
  19 H :    0.289116
  20 C :   -0.519702
  21 C :   -0.110540
  22 S :    0.327883
  23 C :   -0.432690
  24 H :    0.487358
  25 H :    0.267264
  26 H :    0.298780
  27 H :    0.288175
  28 H :    0.287789
  29 H :    0.303533
  30 O :   -0.475558
  31 O :   -0.531119
  32 C :    0.619472
  33 C :   -0.744210
  34 H :    0.269883
  35 H :    0.267933
  36 H :    0.254529
  37 H :    0.287430
  38 H :    0.292717
Sum of atomic charges:    1.0000000

LOEWDIN ATOMIC CHARGES
----------------------
   0 Ir:   -0.244713
   1 C :   -0.044848
   2 C :   -0.081230
   3 C :   -0.071426
   4 C :   -0.053769
   5 C :   -0.018079
   6 N :   -0.001257
   7 C :   -0.069959
   8 C :   -0.363161
   9 H :    0.156834
  10 H :    0.132925
  11 H :    0.146066
  12 C :   -0.343497
  13 H :    0.156773
  14 H :    0.152273
  15 H :    0.137239
  16 H :    0.133423
  17 C :    0.031822
  18 C :   -0.176460
  19 H :    0.162074
  20 C :   -0.208816
  21 C :   -0.124972
  22 S :    0.490478
  23 C :   -0.262123
  24 H :    0.315107
  25 H :    0.163182
  26 H :    0.169088
  27 H :    0.183350
  28 H :    0.183171
  29 H :    0.191729
  30 O :   -0.270631
  31 O :   -0.201355
  32 C :    0.154213
  33 C :   -0.374693
  34 H :    0.160208
  35 H :    0.168070
  36 H :    0.153950
  37 H :    0.184152
  38 H :    0.184862

  Mayer bond orders larger than 0.100000
B(  0-Ir,  1-C ) :   0.4179 B(  0-Ir,  2-C ) :   0.4774 B(  0-Ir,  3-C ) :   0.4609
B(  0-Ir,  4-C ) :   0.4420 B(  0-Ir,  5-C ) :   0.3960 B(  0-Ir,  6-N ) :   0.4631
B(  0-Ir, 20-C ) :   0.3551 B(  0-Ir, 31-O ) :   0.5623 B(  1-C ,  2-C ) :   1.1276
B(  1-C ,  4-C ) :   1.2421 B(  1-C , 27-H ) :   0.9051 B(  2-C ,  5-C ) :   1.1571
B(  2-C , 28-H ) :   0.9094 B(  3-C ,  4-C ) :   1.1138 B(  3-C ,  5-C ) :   1.2168
B(  3-C , 37-H ) :   0.9089 B(  4-C , 38-H ) :   0.9007 B(  5-C , 29-H ) :   0.8989
B(  6-N ,  7-C ) :   0.8927 B(  6-N , 17-C ) :   1.6706 B(  7-C ,  8-C ) :   0.9908
B(  7-C , 12-C ) :   0.9674 B(  7-C , 13-H ) :   0.8731 B(  8-C ,  9-H ) :   0.9042
B(  8-C , 10-H ) :   0.9131 B(  8-C , 11-H ) :   0.9094 B( 12-C , 14-H ) :   0.9070
B( 12-C , 15-H ) :   0.9156 B( 12-C , 16-H ) :   0.9122 B( 17-C , 18-C ) :   1.0820
B( 17-C , 19-H ) :   0.8755 B( 18-C , 20-C ) :   1.2533 B( 18-C , 22-S ) :   1.2505
B( 20-C , 21-C ) :   1.2611 B( 20-C , 24-H ) :   0.4351 B( 21-C , 23-C ) :   1.5526
B( 21-C , 25-H ) :   0.9035 B( 22-S , 23-C ) :   1.2046 B( 23-C , 26-H ) :   0.8913
B( 24-H , 30-O ) :   0.2728 B( 30-O , 32-C ) :   1.6623 B( 31-O , 32-C ) :   1.3025
B( 32-C , 33-C ) :   0.9452 B( 33-C , 34-H ) :   0.9043 B( 33-C , 35-H ) :   0.8977
B( 33-C , 36-H ) :   0.9091

Dispersion correction           -0.030862643
FINAL SINGLE POINT ENERGY     -1288.400645327036

DIPOLE MOMENT
-------------
                                X             Y             Z
Electronic contribution:     38.22271     -68.95387      72.02514
Nuclear contribution   :    -38.84682      67.95299     -72.41307
                        -----------------------------------------
Total Dipole Moment    :     -0.62411      -1.00088      -0.38793
                        -----------------------------------------
Magnitude (a.u.)       :      1.24168
Magnitude (Debye)      :      3.15610

Rotational constants in cm-1:     0.010598     0.009093     0.008212
Rotational constants in MHz :   317.715394   272.587117   246.183119

                             ****ORCA TERMINATED NORMALLY****
TOTAL RUN TIME: 0 days 1 hours 32 minutes 23 seconds 739 msec
