                         Program Version 5.0.3 -  RELEASE  -
|  1> ! Opt PBEh-3c
|  2> %geom Constraints
|  3> { B 0 20 2.0 C }
|  4> { B 24 30 1.4142857142857144 C }
|  5>     end
|  6> end
|  7> %output
|  8> xyzfile=True
|  9> end
| 10> %scf
| 11> maxiter 250
| 12> end
| 13> %output
| 14> Print[P_Hirshfeld] = 1
| 15> end
| 16> % maxcore
| 17> 4000
| 18> *xyz 1 1
| 19> Ir   0.62327895  -0.72927629   0.39351048
| 20> C    0.16758614  -2.85186319   0.31683267
| 21> C   -0.07077650  -2.41414796   1.66859104
| 22> C    2.15982780  -2.05494985   1.17291509
| 23> C    1.53707661  -2.65545094   0.02767289
| 24> C    1.15659724  -1.94263070   2.17933329
| 25> N   -1.07373807   0.12020055  -0.51252450
| 26> C   -2.33738527   0.31882133   0.21134740
| 27> C   -3.13178533   1.52807529  -0.26072784
| 28> H   -3.95748349   1.69723463   0.42857882
| 29> H   -3.57422585   1.38628587  -1.24770708
| 30> H   -2.52553852   2.43413261  -0.27401213
| 31> C   -3.16614353  -0.95900160   0.13373710
| 32> H   -2.04541737   0.48715805   1.24904781
| 33> H   -4.06347174  -0.85683979   0.74266987
| 34> H   -3.47940671  -1.16219231  -0.89109262
| 35> H   -2.61747964  -1.82543988   0.49923796
| 36> C   -0.92955166   0.48191631  -1.73471160
| 37> C    0.38697655   0.29491366  -2.26329144
| 38> H   -1.73584997   0.92557025  -2.30919955
| 39> C    1.40412930   0.02439168  -1.33724733
| 40> C    2.62909392  -0.21691615  -2.04513537
| 41> S    0.90179569   0.27745266  -3.87502534
| 42> C    2.50204505  -0.10899221  -3.39470938
| 43> H    1.60661499   1.12942320  -0.69811618
| 44> H    3.57730073  -0.39982900  -1.56025618
| 45> H    3.27389047  -0.21350690  -4.14203553
| 46> H   -0.55815741  -3.29774667  -0.34744857
| 47> H   -1.00208849  -2.47273187   2.21065257
| 48> H    1.29911035  -1.49804141   3.15414927
| 49> O    1.70544605   2.33458874   0.06255774
| 50> O    0.59234912   1.02971493   1.48232462
| 51> C    1.13245325   2.13239968   1.14875251
| 52> C    1.08619024   3.23938356   2.16208519
| 53> H    0.98422026   4.20454889   1.67168700
| 54> H    2.02885369   3.25322678   2.71191924
| 55> H    0.28056610   3.09501295   2.87661511
| 56> H    3.20747985  -1.82593611   1.29182261
| 57> H    2.02498720  -2.90976888  -0.90205963
| 58> *
| 59>
| 60>                          ****END OF INPUT****
 Total Charge           Charge          ....    1
 Multiplicity           Mult            ....    1
 Number of Electrons    NEL             ....  164
Dispersion correction           -0.030927907
FINAL SINGLE POINT ENERGY     -1288.395657970276
Dispersion correction            ... done
Dispersion correction           -0.030882289
FINAL SINGLE POINT ENERGY     -1288.395692630585
Dispersion correction            ... done
Dispersion correction           -0.030899071
FINAL SINGLE POINT ENERGY     -1288.394716518462
Dispersion correction            ... done
FINAL SINGLE POINT ENERGY     -1288.395989439101
FINAL SINGLE POINT ENERGY     -1288.396028805747
FINAL SINGLE POINT ENERGY     -1288.396070239420
FINAL SINGLE POINT ENERGY     -1288.396126100677
FINAL SINGLE POINT ENERGY     -1288.396139031750
FINAL SINGLE POINT ENERGY     -1288.396146161210
FINAL SINGLE POINT ENERGY     -1288.396150299844
FINAL SINGLE POINT ENERGY     -1288.396151581746
FINAL SINGLE POINT ENERGY     -1288.396152643969
FINAL SINGLE POINT ENERGY     -1288.396154240148
FINAL SINGLE POINT ENERGY     -1288.396157845507
Dispersion correction            ... done
Dispersion correction           -0.030835411
FINAL SINGLE POINT ENERGY     -1288.396160636697
Dispersion correction            ... done
Dispersion correction           -0.030836681
FINAL SINGLE POINT ENERGY     -1288.396162469678
Dispersion correction            ... done
                    ***********************HURRAY********************

CARTESIAN COORDINATES (ANGSTROEM)
---------------------------------
  Ir     0.624308   -0.736214    0.381811
  C      0.187535   -2.860647    0.307668
  C     -0.090125   -2.438625    1.658300
  C      2.145780   -2.044872    1.220738
  C      1.565702   -2.654396    0.061294
  C      1.110893   -1.953314    2.203107
  N     -1.080474    0.111008   -0.508790
  C     -2.341926    0.297174    0.221615
  C     -3.128137    1.524868   -0.214995
  H     -3.953660    1.678786    0.478076
  H     -3.569863    1.416552   -1.206521
  H     -2.515439    2.426550   -0.200237
  C     -3.177930   -0.973267    0.109093
  H     -2.048222    0.434925    1.263353
  H     -4.071151   -0.886524    0.726438
  H     -3.498170   -1.142413   -0.919758
  H     -2.630646   -1.853523    0.442517
  C     -0.940969    0.487801   -1.727474
  C      0.374033    0.301921   -2.257499
  H     -1.747832    0.940510   -2.293794
  C      1.375397   -0.018350   -1.327147
  C      2.609055   -0.236574   -2.031675
  S      0.912016    0.359234   -3.860678
  C      2.501448   -0.062221   -3.376176
  H      1.600908    1.145918   -0.746083
  H      3.549306   -0.451877   -1.544479
  H      3.283611   -0.137375   -4.116305
  H     -0.512072   -3.319578   -0.375412
  H     -1.037248   -2.505777    2.171116
  H      1.220416   -1.511089    3.183136
  O      1.699950    2.342404    0.001456
  O      0.620388    1.040198    1.450685
  C      1.148409    2.140284    1.102544
  C      1.123193    3.254015    2.108651
  H      1.026139    4.217944    1.615087
  H      2.070603    3.260085    2.650559
  H      0.322783    3.119995    2.830994
  H      3.187766   -1.809693    1.372809
  H      2.083592   -2.904650   -0.853285

 Multiplicity           Mult            ....    1
 Number of Electrons    NEL             ....  164
 Basis Dimension        Dim             ....  358

ORBITAL ENERGIES
----------------

  NO   OCC          E(Eh)            E(eV)
   0   2.0000     -89.768078     -2442.7136
   1   2.0000     -19.634731      -534.2882
   2   2.0000     -19.624553      -534.0112
   3   2.0000     -14.835011      -403.6812
   4   2.0000     -10.697071      -291.0821
   5   2.0000     -10.654872      -289.9338
   6   2.0000     -10.629322      -289.2386
   7   2.0000     -10.620696      -289.0038
   8   2.0000     -10.620685      -289.0035
   9   2.0000     -10.618247      -288.9372
  10   2.0000     -10.613059      -288.7960
  11   2.0000     -10.612975      -288.7937
  12   2.0000     -10.610821      -288.7351
  13   2.0000     -10.607658      -288.6490
  14   2.0000     -10.593339      -288.2594
  15   2.0000     -10.592401      -288.2339
  16   2.0000     -10.553115      -287.1649
  17   2.0000     -10.550802      -287.1019
  18   2.0000     -10.544750      -286.9372
  19   2.0000      -8.407397      -228.7769
  20   2.0000      -6.297250      -171.3569
  21   2.0000      -6.293714      -171.2607
  22   2.0000      -6.292401      -171.2249
  23   2.0000      -4.017486      -109.3213
  24   2.0000      -2.334055       -63.5129
  25   2.0000      -2.305164       -62.7267
  26   2.0000      -2.300879       -62.6101
  27   2.0000      -1.324465       -36.0405
  28   2.0000      -1.226400       -33.3720
  29   2.0000      -1.208553       -32.8864
  30   2.0000      -1.155713       -31.4485
  31   2.0000      -1.131145       -30.7800
  32   2.0000      -1.026100       -27.9216
  33   2.0000      -0.974097       -26.5065
  34   2.0000      -0.969110       -26.3708
  35   2.0000      -0.963338       -26.2138
  36   2.0000      -0.958693       -26.0874
  37   2.0000      -0.939280       -25.5591
  38   2.0000      -0.900305       -24.4986
  39   2.0000      -0.873973       -23.7820
  40   2.0000      -0.800244       -21.7757
  41   2.0000      -0.784423       -21.3452
  42   2.0000      -0.773137       -21.0381
  43   2.0000      -0.772088       -21.0096
  44   2.0000      -0.759650       -20.6711
  45   2.0000      -0.756890       -20.5960
  46   2.0000      -0.743949       -20.2439
  47   2.0000      -0.721378       -19.6297
  48   2.0000      -0.697145       -18.9703
  49   2.0000      -0.685537       -18.6544
  50   2.0000      -0.664720       -18.0879
  51   2.0000      -0.659885       -17.9564
  52   2.0000      -0.648377       -17.6432
  53   2.0000      -0.637913       -17.3585
  54   2.0000      -0.629241       -17.1225
  55   2.0000      -0.623357       -16.9624
  56   2.0000      -0.620918       -16.8960
  57   2.0000      -0.613106       -16.6835
  58   2.0000      -0.602756       -16.4018
  59   2.0000      -0.595162       -16.1952
  60   2.0000      -0.592487       -16.1224
  61   2.0000      -0.590942       -16.0804
  62   2.0000      -0.580465       -15.7953
  63   2.0000      -0.568773       -15.4771
  64   2.0000      -0.567964       -15.4551
  65   2.0000      -0.563129       -15.3235
  66   2.0000      -0.554814       -15.0972
  67   2.0000      -0.546358       -14.8672
  68   2.0000      -0.542194       -14.7538
  69   2.0000      -0.535308       -14.5665
  70   2.0000      -0.532513       -14.4904
  71   2.0000      -0.518551       -14.1105
  72   2.0000      -0.512941       -13.9578
  73   2.0000      -0.500794       -13.6273
  74   2.0000      -0.496190       -13.5020
  75   2.0000      -0.491304       -13.3691
  76   2.0000      -0.474639       -12.9156
  77   2.0000      -0.452614       -12.3163
  78   2.0000      -0.441716       -12.0197
  79   2.0000      -0.420565       -11.4441
  80   2.0000      -0.412349       -11.2206
  81   2.0000      -0.391241       -10.6462
  82   0.0000      -0.207829        -5.6553
  83   0.0000      -0.143838        -3.9140
  84   0.0000      -0.121056        -3.2941
  85   0.0000      -0.088468        -2.4073
  86   0.0000      -0.076611        -2.0847

MULLIKEN ATOMIC CHARGES
-----------------------
   0 Ir:    0.619554
   1 C :   -0.261369
   2 C :   -0.245827
   3 C :   -0.284355
   4 C :   -0.215989
   5 C :   -0.148517
   6 N :   -0.430551
   7 C :   -0.128257
   8 C :   -0.678980
   9 H :    0.269046
  10 H :    0.224014
  11 H :    0.253471
  12 C :   -0.632629
  13 H :    0.278661
  14 H :    0.258217
  15 H :    0.232807
  16 H :    0.235288
  17 C :    0.070760
  18 C :   -0.114677
  19 H :    0.285765
  20 C :   -0.606509
  21 C :   -0.083942
  22 S :    0.350301
  23 C :   -0.425328
  24 H :    0.470042
  25 H :    0.270268
  26 H :    0.299329
  27 H :    0.282536
  28 H :    0.278652
  29 H :    0.294389
  30 O :   -0.474261
  31 O :   -0.505899
  32 C :    0.629687
  33 C :   -0.743317
  34 H :    0.272345
  35 H :    0.275183
  36 H :    0.261119
  37 H :    0.278367
  38 H :    0.290606
Sum of atomic charges:    1.0000000

LOEWDIN ATOMIC CHARGES
----------------------
   0 Ir:   -0.261521
   1 C :   -0.066965
   2 C :   -0.099619
   3 C :   -0.104854
   4 C :   -0.040723
   5 C :   -0.021986
   6 N :    0.001747
   7 C :   -0.069719
   8 C :   -0.361653
   9 H :    0.156189
  10 H :    0.132697
  11 H :    0.143268
  12 C :   -0.343658
  13 H :    0.154397
  14 H :    0.150566
  15 H :    0.138100
  16 H :    0.134081
  17 C :    0.026519
  18 C :   -0.185845
  19 H :    0.160905
  20 C :   -0.218011
  21 C :   -0.123375
  22 S :    0.505909
  23 C :   -0.256432
  24 H :    0.366371
  25 H :    0.163937
  26 H :    0.170335
  27 H :    0.180678
  28 H :    0.177198
  29 H :    0.185731
  30 O :   -0.259144
  31 O :   -0.179896
  32 C :    0.162225
  33 C :   -0.371867
  34 H :    0.163485
  35 H :    0.172075
  36 H :    0.156152
  37 H :    0.179935
  38 H :    0.182768

  Mayer bond orders larger than 0.100000
B(  0-Ir,  1-C ) :   0.4624 B(  0-Ir,  2-C ) :   0.3554 B(  0-Ir,  3-C ) :   0.4753
B(  0-Ir,  4-C ) :   0.4115 B(  0-Ir,  5-C ) :   0.3363 B(  0-Ir,  6-N ) :   0.4636
B(  0-Ir, 20-C ) :   0.5790 B(  0-Ir, 31-O ) :   0.5152 B(  1-C ,  2-C ) :   1.1225
B(  1-C ,  4-C ) :   1.2162 B(  1-C , 27-H ) :   0.9105 B(  2-C ,  5-C ) :   1.2627
B(  2-C , 28-H ) :   0.9101 B(  3-C ,  4-C ) :   1.1526 B(  3-C ,  5-C ) :   1.1515
B(  3-C , 37-H ) :   0.9155 B(  4-C , 38-H ) :   0.8993 B(  5-C , 29-H ) :   0.9027
B(  6-N ,  7-C ) :   0.8961 B(  6-N , 17-C ) :   1.6434 B(  7-C ,  8-C ) :   0.9899
B(  7-C , 12-C ) :   0.9664 B(  7-C , 13-H ) :   0.8772 B(  8-C ,  9-H ) :   0.9048
B(  8-C , 10-H ) :   0.9132 B(  8-C , 11-H ) :   0.9124 B( 12-C , 14-H ) :   0.9078
B( 12-C , 15-H ) :   0.9151 B( 12-C , 16-H ) :   0.9115 B( 17-C , 18-C ) :   1.1186
B( 17-C , 19-H ) :   0.8767 B( 18-C , 20-C ) :   1.1972 B( 18-C , 22-S ) :   1.2508
B( 20-C , 21-C ) :   1.2383 B( 20-C , 24-H ) :   0.3376 B( 21-C , 23-C ) :   1.5466
B( 21-C , 25-H ) :   0.9006 B( 22-S , 23-C ) :   1.2133 B( 23-C , 26-H ) :   0.8913
B( 24-H , 30-O ) :   0.3513 B( 30-O , 32-C ) :   1.5692 B( 31-O , 32-C ) :   1.3815
B( 32-C , 33-C ) :   0.9431 B( 33-C , 34-H ) :   0.9009 B( 33-C , 35-H ) :   0.8934
B( 33-C , 36-H ) :   0.9078

Dispersion correction           -0.030837904
FINAL SINGLE POINT ENERGY     -1288.396162628681

DIPOLE MOMENT
-------------
                                X             Y             Z
Electronic contribution:     38.49833     -74.51768      67.19849
Nuclear contribution   :    -39.10372      74.14124     -67.54923
                        -----------------------------------------
Total Dipole Moment    :     -0.60539      -0.37644      -0.35074
                        -----------------------------------------
Magnitude (a.u.)       :      0.79449
Magnitude (Debye)      :      2.01944

Rotational constants in cm-1:     0.010555     0.009005     0.008273
Rotational constants in MHz :   316.424428   269.953183   248.016979

                             ****ORCA TERMINATED NORMALLY****
TOTAL RUN TIME: 0 days 2 hours 7 minutes 6 seconds 486 msec
