                         Program Version 5.0.3 -  RELEASE  -
|  1> ! Opt PBEh-3c
|  2> %geom Constraints
|  3> { B 0 20 2.1714285714285713 C }
|  4> { B 24 30 1.3714285714285714 C }
|  5>     end
|  6> end
|  7> %output
|  8> xyzfile=True
|  9> end
| 10> %scf
| 11> maxiter 250
| 12> end
| 13> %output
| 14> Print[P_Hirshfeld] = 1
| 15> end
| 16> % maxcore
| 17> 4000
| 18> *xyz 1 1
| 19> Ir   0.60802734  -0.72294337   0.44514839
| 20> C    0.10832194  -2.83170239   0.36366416
| 21> C   -0.04097141  -2.36127592   1.71571869
| 22> C    2.16908501  -2.08440621   1.09305455
| 23> C    1.45495372  -2.65960325  -0.01828945
| 24> C    1.24277679  -1.93080787   2.15259363
| 25> N   -1.06043454   0.12502418  -0.51315317
| 26> C   -2.33748787   0.34479594   0.18402138
| 27> C   -3.13630020   1.52265121  -0.35558019
| 28> H   -3.96799452   1.72177840   0.31851983
| 29> H   -3.57177934   1.32584824  -1.33620018
| 30> H   -2.53688416   2.43150305  -0.41239798
| 31> C   -3.15667422  -0.94094016   0.15805087
| 32> H   -2.06121320   0.56491227   1.21625935
| 33> H   -4.06900177  -0.81065838   0.73865253
| 34> H   -3.44470851  -1.20283800  -0.86089512
| 35> H   -2.61390398  -1.78189047   0.58641362
| 36> C   -0.90087429   0.44333575  -1.74421272
| 37> C    0.42143521   0.27456885  -2.27232359
| 38> H   -1.71091690   0.84819356  -2.34298768
| 39> C    1.48834904   0.15870803  -1.38536677
| 40> C    2.69103080  -0.11453612  -2.10206704
| 41> S    0.87235827   0.08091091  -3.89842496
| 42> C    2.50537093  -0.17622324  -3.45001661
| 43> H    1.62110719   1.15633701  -0.59434754
| 44> H    3.66380887  -0.20070083  -1.64019733
| 45> H    3.25055590  -0.33892250  -4.21382615
| 46> H   -0.67329883  -3.24680937  -0.25593071
| 47> H   -0.93533222  -2.40022476   2.31887762
| 48> H    1.45989840  -1.48906584   3.11496198
| 49> O    1.70531497   2.30556039   0.17532691
| 50> O    0.54036097   1.00969407   1.55932510
| 51> C    1.10431011   2.10972726   1.24509121
| 52> C    1.04611062   3.20712771   2.26700672
| 53> H    1.01476745   4.18080313   1.78435471
| 54> H    1.95331048   3.17233708   2.87289431
| 55> H    0.19496100   3.09045907   2.93260310
| 56> H    3.22458596  -1.86367106   1.13316552
| 57> H    1.87634514  -2.91786644  -0.97874690
| 58> *
| 59>
| 60>                          ****END OF INPUT****
 Total Charge           Charge          ....    1
 Multiplicity           Mult            ....    1
 Number of Electrons    NEL             ....  164
Dispersion correction           -0.030763428
FINAL SINGLE POINT ENERGY     -1288.402060234998
Dispersion correction            ... done
Dispersion correction           -0.030717050
FINAL SINGLE POINT ENERGY     -1288.401989821014
Dispersion correction            ... done
Dispersion correction           -0.030725351
FINAL SINGLE POINT ENERGY     -1288.401051473808
Dispersion correction            ... done
FINAL SINGLE POINT ENERGY     -1288.402355476888
FINAL SINGLE POINT ENERGY     -1288.402406576626
FINAL SINGLE POINT ENERGY     -1288.402443970578
FINAL SINGLE POINT ENERGY     -1288.402489114773
FINAL SINGLE POINT ENERGY     -1288.402495579723
FINAL SINGLE POINT ENERGY     -1288.402496389380
FINAL SINGLE POINT ENERGY     -1288.402496061000
FINAL SINGLE POINT ENERGY     -1288.402499265256
FINAL SINGLE POINT ENERGY     -1288.402504143079
FINAL SINGLE POINT ENERGY     -1288.402507847392
FINAL SINGLE POINT ENERGY     -1288.402511907457
Dispersion correction            ... done
Dispersion correction           -0.030641425
FINAL SINGLE POINT ENERGY     -1288.402516168925
Dispersion correction            ... done
Dispersion correction           -0.030641186
FINAL SINGLE POINT ENERGY     -1288.402519913686
Dispersion correction            ... done
                    ***********************HURRAY********************

CARTESIAN COORDINATES (ANGSTROEM)
---------------------------------
  Ir     0.610764   -0.730463    0.437530
  C      0.130195   -2.842130    0.350835
  C     -0.075922   -2.380176    1.699073
  C      2.153828   -2.075527    1.162186
  C      1.492419   -2.661637    0.027386
  C      1.179505   -1.933403    2.184698
  N     -1.064637    0.117396   -0.508474
  C     -2.340888    0.319070    0.195145
  C     -3.134370    1.517999   -0.304790
  H     -3.966898    1.696543    0.373917
  H     -3.567582    1.358246   -1.293092
  H     -2.530688    2.425520   -0.328169
  C     -3.164411   -0.962173    0.124825
  H     -2.065518    0.504422    1.234435
  H     -4.074104   -0.851896    0.713716
  H     -3.456835   -1.185253   -0.902067
  H     -2.621770   -1.820403    0.517773
  C     -0.910626    0.460416   -1.734293
  C      0.407495    0.293962   -2.269277
  H     -1.722215    0.880086   -2.320277
  C      1.461549    0.101513   -1.378808
  C      2.666725   -0.149183   -2.101061
  S      0.872821    0.200153   -3.899487
  C      2.494598   -0.118793   -3.452191
  H      1.636469    1.143382   -0.607885
  H      3.632890   -0.285897   -1.637298
  H      3.245325   -0.247183   -4.217119
  H     -0.619419   -3.270309   -0.298537
  H     -0.994025   -2.425910    2.264740
  H      1.351655   -1.487947    3.154431
  O      1.743910    2.289345    0.137796
  O      0.559174    1.022673    1.531410
  C      1.134098    2.110338    1.209747
  C      1.085435    3.227356    2.209829
  H      0.970822    4.185087    1.707207
  H      2.033015    3.259045    2.750266
  H      0.286243    3.085370    2.931753
  H      3.205834   -1.852244    1.249571
  H      1.954508   -2.918204   -0.914703

 Multiplicity           Mult            ....    1
 Number of Electrons    NEL             ....  164
 Basis Dimension        Dim             ....  358

ORBITAL ENERGIES
----------------

  NO   OCC          E(Eh)            E(eV)
   0   2.0000     -89.762797     -2442.5699
   1   2.0000     -19.634614      -534.2850
   2   2.0000     -19.619625      -533.8771
   3   2.0000     -14.833883      -403.6505
   4   2.0000     -10.696064      -291.0547
   5   2.0000     -10.654784      -289.9314
   6   2.0000     -10.627120      -289.1786
   7   2.0000     -10.624818      -289.1160
   8   2.0000     -10.624541      -289.1085
   9   2.0000     -10.624191      -289.0989
  10   2.0000     -10.617350      -288.9128
  11   2.0000     -10.614257      -288.8286
  12   2.0000     -10.612759      -288.7878
  13   2.0000     -10.609365      -288.6955
  14   2.0000     -10.588490      -288.1275
  15   2.0000     -10.587586      -288.1028
  16   2.0000     -10.553496      -287.1752
  17   2.0000     -10.550435      -287.0919
  18   2.0000     -10.543900      -286.9141
  19   2.0000      -8.402202      -228.6356
  20   2.0000      -6.292085      -171.2163
  21   2.0000      -6.288531      -171.1196
  22   2.0000      -6.287175      -171.0827
  23   2.0000      -4.021659      -109.4349
  24   2.0000      -2.339004       -63.6475
  25   2.0000      -2.307448       -62.7888
  26   2.0000      -2.304617       -62.7118
  27   2.0000      -1.324326       -36.0367
  28   2.0000      -1.225666       -33.3521
  29   2.0000      -1.206473       -32.8298
  30   2.0000      -1.162053       -31.6211
  31   2.0000      -1.126561       -30.6553
  32   2.0000      -1.023809       -27.8593
  33   2.0000      -0.974841       -26.5268
  34   2.0000      -0.968669       -26.3588
  35   2.0000      -0.967048       -26.3147
  36   2.0000      -0.958383       -26.0789
  37   2.0000      -0.939005       -25.5516
  38   2.0000      -0.900139       -24.4940
  39   2.0000      -0.871521       -23.7153
  40   2.0000      -0.797472       -21.7003
  41   2.0000      -0.781259       -21.2591
  42   2.0000      -0.778001       -21.1705
  43   2.0000      -0.777624       -21.1602
  44   2.0000      -0.762979       -20.7617
  45   2.0000      -0.760844       -20.7036
  46   2.0000      -0.741957       -20.1897
  47   2.0000      -0.721905       -19.6440
  48   2.0000      -0.692423       -18.8418
  49   2.0000      -0.683664       -18.6034
  50   2.0000      -0.662997       -18.0411
  51   2.0000      -0.659085       -17.9346
  52   2.0000      -0.647936       -17.6312
  53   2.0000      -0.637999       -17.3608
  54   2.0000      -0.631941       -17.1960
  55   2.0000      -0.629121       -17.1192
  56   2.0000      -0.621593       -16.9144
  57   2.0000      -0.609836       -16.5945
  58   2.0000      -0.598910       -16.2972
  59   2.0000      -0.598403       -16.2834
  60   2.0000      -0.597610       -16.2618
  61   2.0000      -0.590858       -16.0781
  62   2.0000      -0.578555       -15.7433
  63   2.0000      -0.567886       -15.4530
  64   2.0000      -0.565095       -15.3770
  65   2.0000      -0.561872       -15.2893
  66   2.0000      -0.554612       -15.0918
  67   2.0000      -0.546593       -14.8735
  68   2.0000      -0.541957       -14.7474
  69   2.0000      -0.535043       -14.5593
  70   2.0000      -0.528885       -14.3917
  71   2.0000      -0.517987       -14.0951
  72   2.0000      -0.513028       -13.9602
  73   2.0000      -0.500617       -13.6225
  74   2.0000      -0.495119       -13.4729
  75   2.0000      -0.483258       -13.1501
  76   2.0000      -0.478351       -13.0166
  77   2.0000      -0.449500       -12.2315
  78   2.0000      -0.444604       -12.0983
  79   2.0000      -0.417935       -11.3726
  80   2.0000      -0.416474       -11.3328
  81   2.0000      -0.395743       -10.7687
  82   0.0000      -0.203055        -5.5254
  83   0.0000      -0.142760        -3.8847
  84   0.0000      -0.136068        -3.7026
  85   0.0000      -0.086431        -2.3519
  86   0.0000      -0.073275        -1.9939

MULLIKEN ATOMIC CHARGES
-----------------------
   0 Ir:    0.604459
   1 C :   -0.238373
   2 C :   -0.265249
   3 C :   -0.266042
   4 C :   -0.226281
   5 C :   -0.155102
   6 N :   -0.434761
   7 C :   -0.126065
   8 C :   -0.682076
   9 H :    0.269321
  10 H :    0.224399
  11 H :    0.254278
  12 C :   -0.633878
  13 H :    0.279584
  14 H :    0.259202
  15 H :    0.232404
  16 H :    0.232812
  17 C :    0.069418
  18 C :   -0.129971
  19 H :    0.285130
  20 C :   -0.541639
  21 C :   -0.107581
  22 S :    0.338762
  23 C :   -0.427291
  24 H :    0.474252
  25 H :    0.266230
  26 H :    0.297691
  27 H :    0.285952
  28 H :    0.282986
  29 H :    0.299063
  30 O :   -0.481435
  31 O :   -0.512214
  32 C :    0.631188
  33 C :   -0.744210
  34 H :    0.272704
  35 H :    0.274871
  36 H :    0.260627
  37 H :    0.283549
  38 H :    0.293285
Sum of atomic charges:    1.0000000

LOEWDIN ATOMIC CHARGES
----------------------
   0 Ir:   -0.255623
   1 C :   -0.056383
   2 C :   -0.093581
   3 C :   -0.091955
   4 C :   -0.041319
   5 C :   -0.015800
   6 N :   -0.005249
   7 C :   -0.069282
   8 C :   -0.362272
   9 H :    0.156169
  10 H :    0.132760
  11 H :    0.143614
  12 C :   -0.343857
  13 H :    0.154814
  14 H :    0.150860
  15 H :    0.137855
  16 H :    0.132886
  17 C :    0.029501
  18 C :   -0.189679
  19 H :    0.160128
  20 C :   -0.218536
  21 C :   -0.128239
  22 S :    0.494071
  23 C :   -0.258521
  24 H :    0.351285
  25 H :    0.161887
  26 H :    0.169032
  27 H :    0.182422
  28 H :    0.180245
  29 H :    0.188936
  30 O :   -0.262975
  31 O :   -0.184244
  32 C :    0.164157
  33 C :   -0.372004
  34 H :    0.164531
  35 H :    0.171810
  36 H :    0.155281
  37 H :    0.182427
  38 H :    0.184846

  Mayer bond orders larger than 0.100000
B(  0-Ir,  1-C ) :   0.4375 B(  0-Ir,  2-C ) :   0.4293 B(  0-Ir,  3-C ) :   0.4663
B(  0-Ir,  4-C ) :   0.4306 B(  0-Ir,  5-C ) :   0.3813 B(  0-Ir,  6-N ) :   0.4650
B(  0-Ir, 20-C ) :   0.4487 B(  0-Ir, 31-O ) :   0.5271 B(  1-C ,  2-C ) :   1.1267
B(  1-C ,  4-C ) :   1.2287 B(  1-C , 27-H ) :   0.9076 B(  2-C ,  5-C ) :   1.1968
B(  2-C , 28-H ) :   0.9102 B(  3-C ,  4-C ) :   1.1328 B(  3-C ,  5-C ) :   1.1846
B(  3-C , 37-H ) :   0.9121 B(  4-C , 38-H ) :   0.8998 B(  5-C , 29-H ) :   0.9006
B(  6-N ,  7-C ) :   0.8954 B(  6-N , 17-C ) :   1.6502 B(  7-C ,  8-C ) :   0.9905
B(  7-C , 12-C ) :   0.9667 B(  7-C , 13-H ) :   0.8767 B(  8-C ,  9-H ) :   0.9047
B(  8-C , 10-H ) :   0.9130 B(  8-C , 11-H ) :   0.9119 B( 12-C , 14-H ) :   0.9077
B( 12-C , 15-H ) :   0.9153 B( 12-C , 16-H ) :   0.9122 B( 17-C , 18-C ) :   1.1092
B( 17-C , 19-H ) :   0.8763 B( 18-C , 20-C ) :   1.2384 B( 18-C , 22-S ) :   1.2387
B( 20-C , 21-C ) :   1.2734 B( 20-C , 24-H ) :   0.3573 B( 21-C , 23-C ) :   1.5426
B( 21-C , 25-H ) :   0.9029 B( 22-S , 23-C ) :   1.2178 B( 23-C , 26-H ) :   0.8914
B( 24-H , 30-O ) :   0.3322 B( 30-O , 32-C ) :   1.5767 B( 31-O , 32-C ) :   1.3689
B( 32-C , 33-C ) :   0.9451 B( 33-C , 34-H ) :   0.9003 B( 33-C , 35-H ) :   0.8938
B( 33-C , 36-H ) :   0.9083

Dispersion correction           -0.030642865
FINAL SINGLE POINT ENERGY     -1288.402522028862

DIPOLE MOMENT
-------------
                                X             Y             Z
Electronic contribution:     37.24210     -73.00962      72.56633
Nuclear contribution   :    -37.85889      72.44991     -72.81569
                        -----------------------------------------
Total Dipole Moment    :     -0.61678      -0.55971      -0.24936
                        -----------------------------------------
Magnitude (a.u.)       :      0.86941
Magnitude (Debye)      :      2.20987

Rotational constants in cm-1:     0.010535     0.008838     0.008199
Rotational constants in MHz :   315.838383   264.969429   245.794482

                             ****ORCA TERMINATED NORMALLY****
TOTAL RUN TIME: 0 days 2 hours 8 minutes 4 seconds 692 msec
