                         Program Version 5.0.3 -  RELEASE  -
|  1> ! Opt PBEh-3c
|  2> %geom Constraints
|  3> { B 0 20 2.6 C }
|  4> { B 24 30 1.5 C }
|  5>     end
|  6> end
|  7> %output
|  8> xyzfile=True
|  9> end
| 10> %scf
| 11> maxiter 250
| 12> end
| 13> %output
| 14> Print[P_Hirshfeld] = 1
| 15> end
| 16> % maxcore
| 17> 4000
| 18> %pal nprocs 8
| 19> end
| 20> *xyz 1 1
| 21> Ir   0.58647000  -0.72605000   0.67088000
| 22> C   -0.03532000  -2.66547000   1.28626000
| 23> C    0.54903000  -1.99193000   2.40125000
| 24> C    2.15034000  -2.20377000   0.77386000
| 25> C    0.95465000  -2.79712000   0.26295000
| 26> C    1.91512000  -1.70980000   2.08138000
| 27> N   -1.03979000  -0.11902000  -0.49958000
| 28> C   -2.42468000  -0.07143000   0.01446000
| 29> C   -2.81354000   1.32885000   0.47253000
| 30> H   -3.84911000   1.31439000   0.81124000
| 31> H   -2.74425000   2.04559000  -0.34715000
| 32> H   -2.19835000   1.68013000   1.29543000
| 33> C   -3.42136000  -0.60629000  -1.00840000
| 34> H   -2.43383000  -0.73247000   0.88084000
| 35> H   -4.38089000  -0.76336000  -0.52069000
| 36> H   -3.60043000   0.09879000  -1.82124000
| 37> H   -3.10326000  -1.55627000  -1.43905000
| 38> C   -0.82053000   0.20253000  -1.71954000
| 39> C    0.50570000   0.18582000  -2.23635000
| 40> H   -1.64285000   0.46384000  -2.37833000
| 41> C    1.64818000   0.17371000  -1.45195000
| 42> C    2.78663000  -0.02136000  -2.29616000
| 43> S    0.80691000   0.02436000  -3.91455000
| 44> C    2.47738000  -0.09910000  -3.62752000
| 45> H    1.78238000   0.89277000  -0.43425000
| 46> H    3.81569000  -0.03746000  -1.96710000
| 47> H    3.15103000  -0.20251000  -4.46779000
| 48> H   -1.05660000  -3.01727000   1.24136000
| 49> H    0.05439000  -1.76025000   3.33499000
| 50> H    2.63311000  -1.22371000   2.72467000
| 51> O    1.86922000   1.90132000   0.57338000
| 52> O    0.16502000   1.02749000   1.67688000
| 53> C    0.94424000   2.00026000   1.38963000
| 54> C    0.73164000   3.32081000   2.06139000
| 55> H    0.73103000   4.09199000   1.29258000
| 56> H    1.58118000   3.52911000   2.71209000
| 57> H   -0.18296000   3.38040000   2.64257000
| 58> H    3.07574000  -2.08904000   0.22776000
| 59> H    0.83204000  -3.26929000  -0.69799000
| 60> *
| 61>
| 62>                          ****END OF INPUT****
 Total Charge           Charge          ....    1
 Multiplicity           Mult            ....    1
 Number of Electrons    NEL             ....  164
Dispersion correction           -0.030187854
FINAL SINGLE POINT ENERGY     -1288.380395370428
Dispersion correction            ... done
Dispersion correction           -0.030021789
FINAL SINGLE POINT ENERGY     -1288.386084657889
Dispersion correction            ... done
Dispersion correction           -0.030128135
FINAL SINGLE POINT ENERGY     -1288.388886835396
Dispersion correction            ... done
FINAL SINGLE POINT ENERGY     -1288.390378392900
FINAL SINGLE POINT ENERGY     -1288.391971497051
FINAL SINGLE POINT ENERGY     -1288.393002795705
FINAL SINGLE POINT ENERGY     -1288.393629726645
FINAL SINGLE POINT ENERGY     -1288.394101763395
FINAL SINGLE POINT ENERGY     -1288.394485123078
FINAL SINGLE POINT ENERGY     -1288.394825124579
FINAL SINGLE POINT ENERGY     -1288.397888260742
FINAL SINGLE POINT ENERGY     -1288.397892548935
FINAL SINGLE POINT ENERGY     -1288.397897587957
FINAL SINGLE POINT ENERGY     -1288.397902817203
FINAL SINGLE POINT ENERGY     -1288.397908355798
FINAL SINGLE POINT ENERGY     -1288.397914908169
FINAL SINGLE POINT ENERGY     -1288.397921425564
Dispersion correction            ... done
Dispersion correction           -0.030963816
FINAL SINGLE POINT ENERGY     -1288.397925191420
Dispersion correction            ... done
Dispersion correction           -0.030965455
FINAL SINGLE POINT ENERGY     -1288.397926699106
Dispersion correction            ... done
                    ***********************HURRAY********************

CARTESIAN COORDINATES (ANGSTROEM)
---------------------------------
  Ir     0.581270   -0.728443    0.470865
  C      0.033287   -2.809871    0.329942
  C      0.122257   -2.368653    1.702602
  C      2.200153   -2.138376    0.743556
  C      1.293580   -2.638486   -0.266119
  C      1.492126   -2.015389    1.950521
  N     -1.037504    0.182936   -0.512258
  C     -2.307150    0.531134    0.144439
  C     -3.124217    1.560495   -0.618621
  H     -3.955879    1.881993    0.006751
  H     -3.561500    1.161972   -1.535614
  H     -2.541128    2.449213   -0.862264
  C     -3.107328   -0.737676    0.410841
  H     -2.012563    0.964630    1.101698
  H     -4.019770   -0.486627    0.949471
  H     -3.395066   -1.227564   -0.520396
  H     -2.557514   -1.450187    1.024334
  C     -0.821971    0.382178   -1.753181
  C      0.531193    0.137445   -2.214592
  H     -1.591566    0.749140   -2.426467
  C      1.648520    0.570703   -1.512364
  C      2.842763    0.127031   -2.149172
  S      0.933750   -0.738536   -3.627575
  C      2.609677   -0.580565   -3.286034
  H      1.559725    1.415989   -0.733195
  H      3.834991    0.371530   -1.799075
  H      3.335140   -1.004331   -3.963902
  H     -0.858849   -3.169236   -0.162426
  H     -0.663380   -2.408138    2.443142
  H      1.883840   -1.632552    2.881972
  O      1.228977    2.467815    0.283794
  O      0.545835    0.880994    1.696534
  C      0.869403    2.100643    1.394537
  C      0.801753    3.056834    2.553596
  H      0.722626    4.080977    2.199145
  H      1.720196    2.975702    3.138192
  H     -0.025993    2.828814    3.222036
  H      3.242428   -1.899246    0.591898
  H      1.547259   -2.845102   -1.295869

 Multiplicity           Mult            ....    1
 Number of Electrons    NEL             ....  164
 Basis Dimension        Dim             ....  358

ORBITAL ENERGIES
----------------

  NO   OCC          E(Eh)            E(eV)
   0   2.0000     -89.761265     -2442.5282
   1   2.0000     -19.620165      -533.8918
   2   2.0000     -19.578515      -532.7585
   3   2.0000     -14.843013      -403.8989
   4   2.0000     -10.674824      -290.4767
   5   2.0000     -10.663923      -290.1801
   6   2.0000     -10.640005      -289.5292
   7   2.0000     -10.638837      -289.4975
   8   2.0000     -10.636144      -289.4242
   9   2.0000     -10.635303      -289.4013
  10   2.0000     -10.633899      -289.3631
  11   2.0000     -10.633362      -289.3485
  12   2.0000     -10.617383      -288.9137
  13   2.0000     -10.610313      -288.7213
  14   2.0000     -10.583508      -287.9919
  15   2.0000     -10.583013      -287.9784
  16   2.0000     -10.558182      -287.3027
  17   2.0000     -10.552699      -287.1535
  18   2.0000     -10.529219      -286.5146
  19   2.0000      -8.400504      -228.5893
  20   2.0000      -6.290654      -171.1774
  21   2.0000      -6.287001      -171.0780
  22   2.0000      -6.285128      -171.0270
  23   2.0000      -4.032940      -109.7419
  24   2.0000      -2.352473       -64.0141
  25   2.0000      -2.317886       -63.0729
  26   2.0000      -2.316488       -63.0348
  27   2.0000      -1.298038       -35.3214
  28   2.0000      -1.215324       -33.0707
  29   2.0000      -1.202331       -32.7171
  30   2.0000      -1.176869       -32.0242
  31   2.0000      -1.126502       -30.6537
  32   2.0000      -1.028116       -27.9765
  33   2.0000      -0.991966       -26.9928
  34   2.0000      -0.981868       -26.7180
  35   2.0000      -0.965453       -26.2713
  36   2.0000      -0.960298       -26.1310
  37   2.0000      -0.922280       -25.0965
  38   2.0000      -0.904605       -24.6156
  39   2.0000      -0.874590       -23.7988
  40   2.0000      -0.797881       -21.7114
  41   2.0000      -0.792735       -21.5714
  42   2.0000      -0.790799       -21.5187
  43   2.0000      -0.781685       -21.2707
  44   2.0000      -0.775558       -21.1040
  45   2.0000      -0.754608       -20.5339
  46   2.0000      -0.744100       -20.2480
  47   2.0000      -0.722453       -19.6589
  48   2.0000      -0.695848       -18.9350
  49   2.0000      -0.670668       -18.2498
  50   2.0000      -0.664603       -18.0848
  51   2.0000      -0.653035       -17.7700
  52   2.0000      -0.649156       -17.6644
  53   2.0000      -0.641766       -17.4633
  54   2.0000      -0.635141       -17.2831
  55   2.0000      -0.626402       -17.0453
  56   2.0000      -0.624324       -16.9887
  57   2.0000      -0.613393       -16.6913
  58   2.0000      -0.612027       -16.6541
  59   2.0000      -0.609976       -16.5983
  60   2.0000      -0.597181       -16.2501
  61   2.0000      -0.588667       -16.0184
  62   2.0000      -0.577489       -15.7143
  63   2.0000      -0.572802       -15.5867
  64   2.0000      -0.564465       -15.3599
  65   2.0000      -0.554102       -15.0779
  66   2.0000      -0.551374       -15.0037
  67   2.0000      -0.548541       -14.9266
  68   2.0000      -0.538953       -14.6657
  69   2.0000      -0.534697       -14.5498
  70   2.0000      -0.528316       -14.3762
  71   2.0000      -0.522989       -14.2313
  72   2.0000      -0.516555       -14.0562
  73   2.0000      -0.508321       -13.8321
  74   2.0000      -0.487153       -13.2561
  75   2.0000      -0.481192       -13.0939
  76   2.0000      -0.464409       -12.6372
  77   2.0000      -0.450813       -12.2672
  78   2.0000      -0.439286       -11.9536
  79   2.0000      -0.424766       -11.5585
  80   2.0000      -0.417439       -11.3591
  81   2.0000      -0.405487       -11.0339
  82   0.0000      -0.201429        -5.4812
  83   0.0000      -0.168337        -4.5807
  84   0.0000      -0.142342        -3.8733
  85   0.0000      -0.105653        -2.8750
  86   0.0000      -0.078009        -2.1227

MULLIKEN ATOMIC CHARGES
-----------------------
   0 Ir:    0.626113
   1 C :   -0.207949
   2 C :   -0.298250
   3 C :   -0.230192
   4 C :   -0.244680
   5 C :   -0.163769
   6 N :   -0.421858
   7 C :   -0.115851
   8 C :   -0.696946
   9 H :    0.273891
  10 H :    0.226217
  11 H :    0.262189
  12 C :   -0.640599
  13 H :    0.281642
  14 H :    0.266104
  15 H :    0.230956
  16 H :    0.233435
  17 C :    0.066715
  18 C :   -0.242059
  19 H :    0.294106
  20 C :   -0.369295
  21 C :   -0.145632
  22 S :    0.287592
  23 C :   -0.428316
  24 H :    0.481993
  25 H :    0.269187
  26 H :    0.297401
  27 H :    0.293446
  28 H :    0.295788
  29 H :    0.309332
  30 O :   -0.474988
  31 O :   -0.550030
  32 C :    0.606421
  33 C :   -0.746587
  34 H :    0.267319
  35 H :    0.263808
  36 H :    0.249416
  37 H :    0.297783
  38 H :    0.296148
Sum of atomic charges:    1.0000000

LOEWDIN ATOMIC CHARGES
----------------------
   0 Ir:   -0.202837
   1 C :   -0.039879
   2 C :   -0.049360
   3 C :   -0.044261
   4 C :   -0.054622
   5 C :   -0.026086
   6 N :   -0.005358
   7 C :   -0.067921
   8 C :   -0.365125
   9 H :    0.158070
  10 H :    0.134163
  11 H :    0.147717
  12 C :   -0.343222
  13 H :    0.157024
  14 H :    0.153668
  15 H :    0.137365
  16 H :    0.134795
  17 C :    0.038008
  18 C :   -0.189892
  19 H :    0.163963
  20 C :   -0.168061
  21 C :   -0.146483
  22 S :    0.453663
  23 C :   -0.262433
  24 H :    0.261347
  25 H :    0.163145
  26 H :    0.167759
  27 H :    0.186569
  28 H :    0.187430
  29 H :    0.195125
  30 O :   -0.276180
  31 O :   -0.215952
  32 C :    0.147098
  33 C :   -0.378596
  34 H :    0.158242
  35 H :    0.165336
  36 H :    0.151159
  37 H :    0.188941
  38 H :    0.185682

  Mayer bond orders larger than 0.100000
B(  0-Ir,  1-C ) :   0.4185 B(  0-Ir,  2-C ) :   0.5674 B(  0-Ir,  3-C ) :   0.4674
B(  0-Ir,  4-C ) :   0.4488 B(  0-Ir,  5-C ) :   0.4028 B(  0-Ir,  6-N ) :   0.4620
B(  0-Ir, 20-C ) :   0.1839 B(  0-Ir, 31-O ) :   0.6101 B(  1-C ,  2-C ) :   1.1089
B(  1-C ,  4-C ) :   1.2523 B(  1-C , 27-H ) :   0.9029 B(  2-C ,  5-C ) :   1.1267
B(  2-C , 28-H ) :   0.9054 B(  3-C ,  4-C ) :   1.1012 B(  3-C ,  5-C ) :   1.2366
B(  3-C , 37-H ) :   0.9016 B(  4-C , 38-H ) :   0.8957 B(  5-C , 29-H ) :   0.8966
B(  6-N ,  7-C ) :   0.8897 B(  6-N , 17-C ) :   1.7103 B(  7-C ,  8-C ) :   0.9930
B(  7-C , 12-C ) :   0.9698 B(  7-C , 13-H ) :   0.8705 B(  8-C ,  9-H ) :   0.9029
B(  8-C , 10-H ) :   0.9121 B(  8-C , 11-H ) :   0.9071 B( 12-C , 14-H ) :   0.9059
B( 12-C , 15-H ) :   0.9151 B( 12-C , 16-H ) :   0.9102 B( 17-C , 18-C ) :   1.0359
B( 17-C , 19-H ) :   0.8735 B( 18-C , 20-C ) :   1.3234 B( 18-C , 22-S ) :   1.2100
B( 20-C , 21-C ) :   1.2595 B( 20-C , 24-H ) :   0.5598 B( 21-C , 23-C ) :   1.5475
B( 21-C , 25-H ) :   0.9032 B( 22-S , 23-C ) :   1.2001 B( 23-C , 26-H ) :   0.8926
B( 24-H , 30-O ) :   0.1914 B( 30-O , 32-C ) :   1.7509 B( 31-O , 32-C ) :   1.2357
B( 32-C , 33-C ) :   0.9452 B( 33-C , 34-H ) :   0.9066 B( 33-C , 35-H ) :   0.9004
B( 33-C , 36-H ) :   0.9106

Dispersion correction           -0.030967104
FINAL SINGLE POINT ENERGY     -1288.397927258516

DIPOLE MOMENT
-------------
                                X             Y             Z
Electronic contribution:     34.48430     -67.27166      73.71783
Nuclear contribution   :    -35.11069      65.87637     -73.98736
                        -----------------------------------------
Total Dipole Moment    :     -0.62639      -1.39530      -0.26953
                        -----------------------------------------
Magnitude (a.u.)       :      1.55302
Magnitude (Debye)      :      3.94746

Rotational constants in cm-1:     0.010847     0.009096     0.008236
Rotational constants in MHz :   325.178645   272.686830   246.898371

                             ****ORCA TERMINATED NORMALLY****
TOTAL RUN TIME: 0 days 0 hours 48 minutes 58 seconds 735 msec
