                         Program Version 5.0.3 -  RELEASE  -
|  1> ! Opt PBEh-3c
|  2> %geom Constraints
|  3> { B 0 20 2.4714285714285715 C }
|  4> { B 24 30 1.457142857142857 C }
|  5>     end
|  6> end
|  7> %output
|  8> xyzfile=True
|  9> end
| 10> %scf
| 11> maxiter 250
| 12> end
| 13> %output
| 14> Print[P_Hirshfeld] = 1
| 15> end
| 16> % maxcore
| 17> 4000
| 18> *xyz 1 1
| 19> Ir   0.58830024  -0.72247386   0.44886536
| 20> C    0.03224985  -2.80369559   0.33430082
| 21> C    0.12343272  -2.35492463   1.70301205
| 22> C    2.20161082  -2.13606348   0.73788810
| 23> C    1.29306687  -2.64242687  -0.26633040
| 24> C    1.49290055  -1.99922388   1.94391074
| 25> N   -1.04388708   0.17987174  -0.52164908
| 26> C   -2.31186262   0.51915425   0.14219522
| 27> C   -3.13564064   1.55105448  -0.61044718
| 28> H   -3.96693803   1.86426139   0.01960396
| 29> H   -3.57356390   1.15735720  -1.52921232
| 30> H   -2.55728947   2.44424357  -0.84905120
| 31> C   -3.10833883  -0.75324721   0.40345671
| 32> H   -2.01441555   0.94658533   1.10129041
| 33> H   -4.01916946  -0.50747262   0.94723049
| 34> H   -3.39871440  -1.23807375  -0.52957723
| 35> H   -2.55399056  -1.46774262   1.01029168
| 36> C   -0.83414868   0.38708017  -1.76274754
| 37> C    0.51941158   0.14990227  -2.22251103
| 38> H   -1.60577050   0.75545170  -2.43266215
| 39> C    1.62601581   0.52700610  -1.47039983
| 40> C    2.82788934   0.09431343  -2.10277399
| 41> S    0.93927703  -0.66716213  -3.66199270
| 42> C    2.61009590  -0.55283500  -3.27759886
| 43> H    1.54675112   1.39534675  -0.69405323
| 44> H    3.81568206   0.30614287  -1.72007887
| 45> H    3.34370352  -0.95377774  -3.96057382
| 46> H   -0.86140073  -3.16377698  -0.15488401
| 47> H   -0.66065606  -2.38836123   2.44523174
| 48> H    1.88652357  -1.60815477   2.87111954
| 49> O    1.28287657   2.47047650   0.27526009
| 50> O    0.53667339   0.89658016   1.66991009
| 51> C    0.89202917   2.10689771   1.37929130
| 52> C    0.82191552   3.06534662   2.53583937
| 53> H    0.77135668   4.09102766   2.18070763
| 54> H    1.72650590   2.96446400   3.13868945
| 55> H   -0.02383802   2.85413159   3.18704758
| 56> H    3.24547016  -1.90501786   0.58552475
| 57> H    1.54525617  -2.86307527  -1.29338359
| 58> *
| 59>
| 60>                          ****END OF INPUT****
 Total Charge           Charge          ....    1
 Multiplicity           Mult            ....    1
 Number of Electrons    NEL             ....  164
Dispersion correction           -0.031053978
FINAL SINGLE POINT ENERGY     -1288.398379829326
Dispersion correction            ... done
Dispersion correction           -0.031042403
FINAL SINGLE POINT ENERGY     -1288.397297238239
Dispersion correction            ... done
Dispersion correction           -0.030985891
FINAL SINGLE POINT ENERGY     -1288.398482367788
Dispersion correction            ... done
FINAL SINGLE POINT ENERGY     -1288.397267812162
FINAL SINGLE POINT ENERGY     -1288.398540644430
FINAL SINGLE POINT ENERGY     -1288.398555616867
FINAL SINGLE POINT ENERGY     -1288.398571954075
FINAL SINGLE POINT ENERGY     -1288.398579879961
FINAL SINGLE POINT ENERGY     -1288.398589037814
FINAL SINGLE POINT ENERGY     -1288.398600571267
Dispersion correction            ... done
Dispersion correction           -0.030925413
FINAL SINGLE POINT ENERGY     -1288.398602012762
Dispersion correction            ... done
Dispersion correction           -0.030921682
FINAL SINGLE POINT ENERGY     -1288.398604029285
Dispersion correction            ... done
                    ***********************HURRAY********************

CARTESIAN COORDINATES (ANGSTROEM)
---------------------------------
  Ir     0.593314   -0.718653    0.452672
  C      0.042255   -2.802896    0.343573
  C      0.116956   -2.351056    1.711477
  C      2.205821   -2.128272    0.767792
  C      1.309246   -2.640462   -0.244209
  C      1.481864   -1.988652    1.965086
  N     -1.045338    0.169036   -0.520303
  C     -2.315194    0.494683    0.147454
  C     -3.123123    1.562905   -0.571566
  H     -3.951244    1.867024    0.067153
  H     -3.565140    1.207652   -1.503870
  H     -2.530146    2.454160   -0.779160
  C     -3.123943   -0.780159    0.354309
  H     -2.021788    0.882894    1.124148
  H     -4.036360   -0.548664    0.901745
  H     -3.411481   -1.226395   -0.598596
  H     -2.578048   -1.522037    0.935495
  C     -0.846956    0.376367   -1.764165
  C      0.503375    0.152550   -2.233132
  H     -1.628329    0.736287   -2.427348
  C      1.605108    0.486764   -1.452899
  C      2.809759    0.071831   -2.091300
  S      0.930967   -0.609021   -3.698396
  C      2.598212   -0.524952   -3.294082
  H      1.535008    1.370161   -0.676986
  H      3.795750    0.260609   -1.692205
  H      3.334942   -0.902419   -3.987013
  H     -0.844489   -3.167178   -0.154994
  H     -0.675478   -2.384095    2.444678
  H      1.864202   -1.593433    2.895259
  O      1.310019    2.464023    0.259022
  O      0.535046    0.913128    1.662726
  C      0.907060    2.114616    1.365048
  C      0.844543    3.086335    2.510366
  H      0.799802    4.108477    2.144442
  H      1.749920    2.986362    3.112247
  H     -0.001252    2.886732    3.165024
  H      3.251833   -1.899073    0.628552
  H      1.572674   -2.865989   -1.267304

 Multiplicity           Mult            ....    1
 Number of Electrons    NEL             ....  164
 Basis Dimension        Dim             ....  358

ORBITAL ENERGIES
----------------

  NO   OCC          E(Eh)            E(eV)
   0   2.0000     -89.763419     -2442.5868
   1   2.0000     -19.621370      -533.9246
   2   2.0000     -19.584129      -532.9113
   3   2.0000     -14.841911      -403.8689
   4   2.0000     -10.677777      -290.5571
   5   2.0000     -10.662968      -290.1541
   6   2.0000     -10.637867      -289.4711
   7   2.0000     -10.634389      -289.3764
   8   2.0000     -10.634211      -289.3716
   9   2.0000     -10.633861      -289.3621
  10   2.0000     -10.631949      -289.3100
  11   2.0000     -10.631231      -289.2905
  12   2.0000     -10.616452      -288.8883
  13   2.0000     -10.610845      -288.7358
  14   2.0000     -10.585265      -288.0397
  15   2.0000     -10.583527      -287.9924
  16   2.0000     -10.557495      -287.2840
  17   2.0000     -10.552302      -287.1427
  18   2.0000     -10.531052      -286.5645
  19   2.0000      -8.402737      -228.6501
  20   2.0000      -6.292804      -171.2359
  21   2.0000      -6.289151      -171.1365
  22   2.0000      -6.287481      -171.0911
  23   2.0000      -4.030390      -109.6725
  24   2.0000      -2.349499       -63.9331
  25   2.0000      -2.315333       -63.0034
  26   2.0000      -2.313937       -62.9654
  27   2.0000      -1.301849       -35.4251
  28   2.0000      -1.214524       -33.0489
  29   2.0000      -1.205371       -32.7998
  30   2.0000      -1.173983       -31.9457
  31   2.0000      -1.127816       -30.6894
  32   2.0000      -1.027819       -27.9684
  33   2.0000      -0.988766       -26.9057
  34   2.0000      -0.979014       -26.6403
  35   2.0000      -0.966741       -26.3064
  36   2.0000      -0.960875       -26.1467
  37   2.0000      -0.924579       -25.1591
  38   2.0000      -0.903828       -24.5944
  39   2.0000      -0.874757       -23.8033
  40   2.0000      -0.798590       -21.7307
  41   2.0000      -0.789943       -21.4954
  42   2.0000      -0.788339       -21.4518
  43   2.0000      -0.782028       -21.2801
  44   2.0000      -0.773512       -21.0483
  45   2.0000      -0.755073       -20.5466
  46   2.0000      -0.744235       -20.2517
  47   2.0000      -0.723178       -19.6787
  48   2.0000      -0.694406       -18.8957
  49   2.0000      -0.672246       -18.2927
  50   2.0000      -0.665536       -18.1102
  51   2.0000      -0.651707       -17.7338
  52   2.0000      -0.647711       -17.6251
  53   2.0000      -0.640643       -17.4328
  54   2.0000      -0.635916       -17.3041
  55   2.0000      -0.627807       -17.0835
  56   2.0000      -0.623767       -16.9736
  57   2.0000      -0.612563       -16.6687
  58   2.0000      -0.609535       -16.5863
  59   2.0000      -0.608584       -16.5604
  60   2.0000      -0.598186       -16.2775
  61   2.0000      -0.589438       -16.0394
  62   2.0000      -0.578807       -15.7501
  63   2.0000      -0.572432       -15.5767
  64   2.0000      -0.564375       -15.3574
  65   2.0000      -0.553840       -15.0708
  66   2.0000      -0.552634       -15.0379
  67   2.0000      -0.548547       -14.9267
  68   2.0000      -0.539082       -14.6692
  69   2.0000      -0.535653       -14.5759
  70   2.0000      -0.528184       -14.3726
  71   2.0000      -0.521380       -14.1875
  72   2.0000      -0.516271       -14.0484
  73   2.0000      -0.505934       -13.7672
  74   2.0000      -0.487914       -13.2768
  75   2.0000      -0.481432       -13.1004
  76   2.0000      -0.466590       -12.6966
  77   2.0000      -0.448998       -12.2179
  78   2.0000      -0.440646       -11.9906
  79   2.0000      -0.424401       -11.5485
  80   2.0000      -0.417157       -11.3514
  81   2.0000      -0.404176       -10.9982
  82   0.0000      -0.201523        -5.4837
  83   0.0000      -0.164200        -4.4681
  84   0.0000      -0.142077        -3.8661
  85   0.0000      -0.101680        -2.7668
  86   0.0000      -0.077259        -2.1023

MULLIKEN ATOMIC CHARGES
-----------------------
   0 Ir:    0.616857
   1 C :   -0.208673
   2 C :   -0.292802
   3 C :   -0.233808
   4 C :   -0.246311
   5 C :   -0.164442
   6 N :   -0.423833
   7 C :   -0.119106
   8 C :   -0.693873
   9 H :    0.272956
  10 H :    0.225562
  11 H :    0.261338
  12 C :   -0.638934
  13 H :    0.282282
  14 H :    0.265059
  15 H :    0.230815
  16 H :    0.232837
  17 C :    0.069064
  18 C :   -0.204104
  19 H :    0.292899
  20 C :   -0.431830
  21 C :   -0.132568
  22 S :    0.299523
  23 C :   -0.431165
  24 H :    0.497417
  25 H :    0.268126
  26 H :    0.297859
  27 H :    0.292069
  28 H :    0.293389
  29 H :    0.307164
  30 O :   -0.478100
  31 O :   -0.544319
  32 C :    0.611327
  33 C :   -0.745565
  34 H :    0.268314
  35 H :    0.264650
  36 H :    0.251032
  37 H :    0.294363
  38 H :    0.294527
Sum of atomic charges:    1.0000000

LOEWDIN ATOMIC CHARGES
----------------------
   0 Ir:   -0.218534
   1 C :   -0.039266
   2 C :   -0.059871
   3 C :   -0.050490
   4 C :   -0.056573
   5 C :   -0.024331
   6 N :   -0.003782
   7 C :   -0.068751
   8 C :   -0.364631
   9 H :    0.157702
  10 H :    0.133718
  11 H :    0.147250
  12 C :   -0.343384
  13 H :    0.157073
  14 H :    0.153325
  15 H :    0.137227
  16 H :    0.134264
  17 C :    0.035843
  18 C :   -0.182328
  19 H :    0.163480
  20 C :   -0.185400
  21 C :   -0.138323
  22 S :    0.465936
  23 C :   -0.263342
  24 H :    0.281001
  25 H :    0.163057
  26 H :    0.168120
  27 H :    0.185593
  28 H :    0.186270
  29 H :    0.193974
  30 O :   -0.276689
  31 O :   -0.211500
  32 C :    0.150632
  33 C :   -0.377168
  34 H :    0.158881
  35 H :    0.165982
  36 H :    0.152121
  37 H :    0.187361
  38 H :    0.185557

  Mayer bond orders larger than 0.100000
B(  0-Ir,  1-C ) :   0.4186 B(  0-Ir,  2-C ) :   0.5391 B(  0-Ir,  3-C ) :   0.4633
B(  0-Ir,  4-C ) :   0.4494 B(  0-Ir,  5-C ) :   0.4016 B(  0-Ir,  6-N ) :   0.4619
B(  0-Ir, 20-C ) :   0.2378 B(  0-Ir, 31-O ) :   0.5915 B(  1-C ,  2-C ) :   1.1158
B(  1-C ,  4-C ) :   1.2476 B(  1-C , 27-H ) :   0.9031 B(  2-C ,  5-C ) :   1.1337
B(  2-C , 28-H ) :   0.9070 B(  3-C ,  4-C ) :   1.1044 B(  3-C ,  5-C ) :   1.2336
B(  3-C , 37-H ) :   0.9037 B(  4-C , 38-H ) :   0.8984 B(  5-C , 29-H ) :   0.8976
B(  6-N ,  7-C ) :   0.8909 B(  6-N , 17-C ) :   1.6983 B(  7-C ,  8-C ) :   0.9922
B(  7-C , 12-C ) :   0.9691 B(  7-C , 13-H ) :   0.8712 B(  8-C ,  9-H ) :   0.9033
B(  8-C , 10-H ) :   0.9125 B(  8-C , 11-H ) :   0.9078 B( 12-C , 14-H ) :   0.9062
B( 12-C , 15-H ) :   0.9153 B( 12-C , 16-H ) :   0.9111 B( 17-C , 18-C ) :   1.0478
B( 17-C , 19-H ) :   0.8738 B( 18-C , 20-C ) :   1.2977 B( 18-C , 22-S ) :   1.2267
B( 20-C , 21-C ) :   1.2584 B( 20-C , 24-H ) :   0.5004 B( 21-C , 23-C ) :   1.5502
B( 21-C , 25-H ) :   0.9037 B( 22-S , 23-C ) :   1.2003 B( 23-C , 26-H ) :   0.8921
B( 24-H , 30-O ) :   0.2246 B( 30-O , 32-C ) :   1.7164 B( 31-O , 32-C ) :   1.2601
B( 32-C , 33-C ) :   0.9457 B( 33-C , 34-H ) :   0.9058 B( 33-C , 35-H ) :   0.8998
B( 33-C , 36-H ) :   0.9101

Dispersion correction           -0.030923321
FINAL SINGLE POINT ENERGY     -1288.398602809794

DIPOLE MOMENT
-------------
                                X             Y             Z
Electronic contribution:     35.60144     -67.17790      72.49889
Nuclear contribution   :    -36.23627      65.88299     -72.80900
                        -----------------------------------------
Total Dipole Moment    :     -0.63483      -1.29490      -0.31011
                        -----------------------------------------
Magnitude (a.u.)       :      1.47511
Magnitude (Debye)      :      3.74943

Rotational constants in cm-1:     0.010760     0.009111     0.008267
Rotational constants in MHz :   322.572755   273.136976   247.831378

                             ****ORCA TERMINATED NORMALLY****
TOTAL RUN TIME: 0 days 1 hours 39 minutes 19 seconds 730 msec
