                         Program Version 5.0.3 -  RELEASE  -
|  1> ! Opt PBEh-3c
|  2> %geom Constraints
|  3> { B 0 20 2.085714285714286 C }
|  4> { B 24 30 1.4428571428571428 C }
|  5>     end
|  6> end
|  7> %output
|  8> xyzfile=True
|  9> end
| 10> %scf
| 11> maxiter 250
| 12> end
| 13> %output
| 14> Print[P_Hirshfeld] = 1
| 15> end
| 16> % maxcore
| 17> 4000
| 18> *xyz 1 1
| 19> Ir   0.62157159  -0.71369103   0.41210600
| 20> C    0.13410191  -2.83215253   0.33700681
| 21> C   -0.01853303  -2.37057604   1.69136284
| 22> C    2.18771326  -2.06694775   1.06728876
| 23> C    1.48035401  -2.65091196  -0.04288344
| 24> C    1.25722025  -1.92532683   2.12767068
| 25> N   -1.06358502   0.13447008  -0.51922645
| 26> C   -2.33045700   0.36073042   0.19213593
| 27> C   -3.13300854   1.53769408  -0.34327602
| 28> H   -3.95829129   1.73926327   0.33793515
| 29> H   -3.57768041   1.33801766  -1.31921631
| 30> H   -2.53346454   2.44592081  -0.40812244
| 31> C   -3.15122862  -0.92453619   0.18035750
| 32> H   -2.04003320   0.58299365   1.21995572
| 33> H   -4.05418072  -0.79190054   0.77483804
| 34> H   -3.45520871  -1.18774983  -0.83357364
| 35> H   -2.60219221  -1.76498046   0.60164067
| 36> C   -0.91207736   0.45290509  -1.75122353
| 37> C    0.40969066   0.26318172  -2.27279735
| 38> H   -1.71823888   0.86895649  -2.34690674
| 39> C    1.45808808   0.11978634  -1.35887452
| 40> C    2.67157746  -0.16286405  -2.06357055
| 41> S    0.88468549   0.07044864  -3.88671681
| 42> C    2.50862224  -0.21417886  -3.41267346
| 43> H    1.59603499   1.13048829  -0.64411991
| 44> H    3.63550487  -0.26090474  -1.58560757
| 45> H    3.26362033  -0.38119355  -4.16577463
| 46> H   -0.64317453  -3.25517843  -0.28267181
| 47> H   -0.91394001  -2.41524823   2.29240040
| 48> H    1.46926787  -1.48148717   3.09017861
| 49> O    1.66541281   2.34845006   0.15276224
| 50> O    0.55139609   1.00859162   1.53850252
| 51> C    1.08758208   2.12709239   1.22528661
| 52> C    1.01598735   3.20521027   2.26888183
| 53> H    1.01889916   4.18920059   1.80718178
| 54> H    1.89935735   3.13746055   2.90629912
| 55> H    0.14075139   3.09142949   2.90362509
| 56> H    3.24236650  -1.84324571   1.11233469
| 57> H    1.90485833  -2.91002768  -1.00177580
| 58> *
| 59>
| 60>                          ****END OF INPUT****
 Total Charge           Charge          ....    1
 Multiplicity           Mult            ....    1
 Number of Electrons    NEL             ....  164
Dispersion correction           -0.030922284
FINAL SINGLE POINT ENERGY     -1288.398265064916
Dispersion correction            ... done
Dispersion correction           -0.030873531
FINAL SINGLE POINT ENERGY     -1288.398310394463
Dispersion correction            ... done
Dispersion correction           -0.030877279
FINAL SINGLE POINT ENERGY     -1288.397576640984
Dispersion correction            ... done
FINAL SINGLE POINT ENERGY     -1288.398587964795
FINAL SINGLE POINT ENERGY     -1288.398615483667
FINAL SINGLE POINT ENERGY     -1288.398641735326
FINAL SINGLE POINT ENERGY     -1288.398663113919
FINAL SINGLE POINT ENERGY     -1288.398671137093
FINAL SINGLE POINT ENERGY     -1288.398672442973
FINAL SINGLE POINT ENERGY     -1288.398670019712
FINAL SINGLE POINT ENERGY     -1288.398667846609
FINAL SINGLE POINT ENERGY     -1288.398666141460
FINAL SINGLE POINT ENERGY     -1288.398666813465
FINAL SINGLE POINT ENERGY     -1288.398670556282
Dispersion correction            ... done
Dispersion correction           -0.030798891
FINAL SINGLE POINT ENERGY     -1288.398677077293
Dispersion correction            ... done
Dispersion correction           -0.030800864
FINAL SINGLE POINT ENERGY     -1288.398681738171
Dispersion correction            ... done
                    ***********************HURRAY********************

CARTESIAN COORDINATES (ANGSTROEM)
---------------------------------
  Ir     0.622136   -0.721912    0.404121
  C      0.153066   -2.842970    0.324499
  C     -0.051071   -2.392680    1.676838
  C      2.172025   -2.060219    1.130439
  C      1.513570   -2.653139   -0.001604
  C      1.197910   -1.932994    2.158107
  N     -1.068583    0.127590   -0.514923
  C     -2.334389    0.337147    0.202759
  C     -3.133116    1.532099   -0.297654
  H     -3.958978    1.714923    0.388006
  H     -3.576075    1.364349   -1.280337
  H     -2.530452    2.439907   -0.333400
  C     -3.158694   -0.944915    0.152408
  H     -2.044303    0.529193    1.236794
  H     -4.059008   -0.830358    0.754659
  H     -3.467001   -1.173945   -0.868477
  H     -2.609702   -1.800437    0.542249
  C     -0.920688    0.472349   -1.740984
  C      0.397655    0.284748   -2.267729
  H     -1.727094    0.904571   -2.324301
  C      1.431008    0.067993   -1.348585
  C      2.648067   -0.194745   -2.058324
  S      0.889793    0.188659   -3.884377
  C      2.501208   -0.157182   -3.409785
  H      1.610108    1.119661   -0.662585
  H      3.604478   -0.341907   -1.577602
  H      3.263008   -0.291305   -4.162637
  H     -0.594437   -3.278412   -0.322446
  H     -0.968073   -2.445081    2.243532
  H      1.368884   -1.487830    3.128129
  O      1.705890    2.331355    0.114885
  O      0.568309    1.021001    1.509308
  C      1.117311    2.127063    1.188626
  C      1.053824    3.225344    2.210968
  H      0.969446    4.194991    1.726150
  H      1.983370    3.228434    2.782822
  H      0.231197    3.081039    2.906057
  H      3.223265   -1.833830    1.219058
  H      1.975506   -2.909367   -0.943923

 Multiplicity           Mult            ....    1
 Number of Electrons    NEL             ....  164
 Basis Dimension        Dim             ....  358

ORBITAL ENERGIES
----------------

  NO   OCC          E(Eh)            E(eV)
   0   2.0000     -89.768171     -2442.7161
   1   2.0000     -19.630263      -534.1666
   2   2.0000     -19.612311      -533.6781
   3   2.0000     -14.836696      -403.7270
   4   2.0000     -10.690534      -290.9042
   5   2.0000     -10.656474      -289.9774
   6   2.0000     -10.630490      -289.2703
   7   2.0000     -10.625644      -289.1385
   8   2.0000     -10.623747      -289.0868
   9   2.0000     -10.623143      -289.0704
  10   2.0000     -10.615503      -288.8625
  11   2.0000     -10.613493      -288.8078
  12   2.0000     -10.612894      -288.7915
  13   2.0000     -10.612507      -288.7810
  14   2.0000     -10.592231      -288.2292
  15   2.0000     -10.590686      -288.1872
  16   2.0000     -10.554060      -287.1906
  17   2.0000     -10.551061      -287.1090
  18   2.0000     -10.540758      -286.8286
  19   2.0000      -8.407533      -228.7806
  20   2.0000      -6.297387      -171.3606
  21   2.0000      -6.293812      -171.2633
  22   2.0000      -6.292567      -171.2294
  23   2.0000      -4.020984      -109.4165
  24   2.0000      -2.338118       -63.6234
  25   2.0000      -2.307396       -62.7874
  26   2.0000      -2.304275       -62.7025
  27   2.0000      -1.317526       -35.8517
  28   2.0000      -1.219290       -33.1786
  29   2.0000      -1.209365       -32.9085
  30   2.0000      -1.160594       -31.5814
  31   2.0000      -1.130882       -30.7729
  32   2.0000      -1.026219       -27.9248
  33   2.0000      -0.973484       -26.4898
  34   2.0000      -0.972988       -26.4763
  35   2.0000      -0.966963       -26.3124
  36   2.0000      -0.960900       -26.1474
  37   2.0000      -0.934744       -25.4357
  38   2.0000      -0.900947       -24.5160
  39   2.0000      -0.874352       -23.7923
  40   2.0000      -0.800366       -21.7791
  41   2.0000      -0.784312       -21.3422
  42   2.0000      -0.776974       -21.1425
  43   2.0000      -0.776282       -21.1237
  44   2.0000      -0.761700       -20.7269
  45   2.0000      -0.756491       -20.5852
  46   2.0000      -0.743973       -20.2445
  47   2.0000      -0.722780       -19.6678
  48   2.0000      -0.691512       -18.8170
  49   2.0000      -0.683697       -18.6043
  50   2.0000      -0.664310       -18.0768
  51   2.0000      -0.654903       -17.8208
  52   2.0000      -0.646895       -17.6029
  53   2.0000      -0.636119       -17.3097
  54   2.0000      -0.631549       -17.1853
  55   2.0000      -0.627309       -17.0700
  56   2.0000      -0.622296       -16.9335
  57   2.0000      -0.612895       -16.6777
  58   2.0000      -0.602156       -16.3855
  59   2.0000      -0.597535       -16.2598
  60   2.0000      -0.596501       -16.2316
  61   2.0000      -0.592295       -16.1172
  62   2.0000      -0.581093       -15.8123
  63   2.0000      -0.570310       -15.5189
  64   2.0000      -0.563895       -15.3444
  65   2.0000      -0.563184       -15.3250
  66   2.0000      -0.552764       -15.0415
  67   2.0000      -0.547337       -14.8938
  68   2.0000      -0.542217       -14.7545
  69   2.0000      -0.536132       -14.5889
  70   2.0000      -0.529800       -14.4166
  71   2.0000      -0.518655       -14.1133
  72   2.0000      -0.513510       -13.9733
  73   2.0000      -0.498360       -13.5611
  74   2.0000      -0.491907       -13.3855
  75   2.0000      -0.488278       -13.2867
  76   2.0000      -0.477436       -12.9917
  77   2.0000      -0.448855       -12.2140
  78   2.0000      -0.443096       -12.0573
  79   2.0000      -0.421067       -11.4578
  80   2.0000      -0.414818       -11.2878
  81   2.0000      -0.394205       -10.7269
  82   0.0000      -0.209027        -5.6879
  83   0.0000      -0.143578        -3.9069
  84   0.0000      -0.131302        -3.5729
  85   0.0000      -0.089116        -2.4250
  86   0.0000      -0.076437        -2.0800

MULLIKEN ATOMIC CHARGES
-----------------------
   0 Ir:    0.608425
   1 C :   -0.241319
   2 C :   -0.258391
   3 C :   -0.271033
   4 C :   -0.225636
   5 C :   -0.152099
   6 N :   -0.429317
   7 C :   -0.126900
   8 C :   -0.683023
   9 H :    0.270081
  10 H :    0.224118
  11 H :    0.255132
  12 C :   -0.634009
  13 H :    0.281815
  14 H :    0.259683
  15 H :    0.232366
  16 H :    0.234028
  17 C :    0.069895
  18 C :   -0.119980
  19 H :    0.286946
  20 C :   -0.581888
  21 C :   -0.089483
  22 S :    0.346274
  23 C :   -0.429351
  24 H :    0.470454
  25 H :    0.269515
  26 H :    0.299272
  27 H :    0.284835
  28 H :    0.281981
  29 H :    0.298669
  30 O :   -0.471222
  31 O :   -0.517539
  32 C :    0.625316
  33 C :   -0.743605
  34 H :    0.271086
  35 H :    0.272839
  36 H :    0.258060
  37 H :    0.281947
  38 H :    0.292058
Sum of atomic charges:    1.0000000

LOEWDIN ATOMIC CHARGES
----------------------
   0 Ir:   -0.257885
   1 C :   -0.058050
   2 C :   -0.096391
   3 C :   -0.095176
   4 C :   -0.043703
   5 C :   -0.016358
   6 N :    0.001544
   7 C :   -0.069733
   8 C :   -0.362430
   9 H :    0.156596
  10 H :    0.132780
  11 H :    0.144028
  12 C :   -0.343524
  13 H :    0.156063
  14 H :    0.151156
  15 H :    0.137843
  16 H :    0.133544
  17 C :    0.027281
  18 C :   -0.179463
  19 H :    0.161320
  20 C :   -0.220007
  21 C :   -0.120067
  22 S :    0.504162
  23 C :   -0.259013
  24 H :    0.347253
  25 H :    0.163697
  26 H :    0.169991
  27 H :    0.181788
  28 H :    0.179478
  29 H :    0.188557
  30 O :   -0.263066
  31 O :   -0.190369
  32 C :    0.157946
  33 C :   -0.372909
  34 H :    0.162843
  35 H :    0.170638
  36 H :    0.154260
  37 H :    0.181639
  38 H :    0.183735

  Mayer bond orders larger than 0.100000
B(  0-Ir,  1-C ) :   0.4384 B(  0-Ir,  2-C ) :   0.4047 B(  0-Ir,  3-C ) :   0.4680
B(  0-Ir,  4-C ) :   0.4232 B(  0-Ir,  5-C ) :   0.3688 B(  0-Ir,  6-N ) :   0.4629
B(  0-Ir, 20-C ) :   0.4894 B(  0-Ir, 31-O ) :   0.5356 B(  1-C ,  2-C ) :   1.1271
B(  1-C ,  4-C ) :   1.2296 B(  1-C , 27-H ) :   0.9084 B(  2-C ,  5-C ) :   1.2122
B(  2-C , 28-H ) :   0.9101 B(  3-C ,  4-C ) :   1.1351 B(  3-C ,  5-C ) :   1.1774
B(  3-C , 37-H ) :   0.9132 B(  4-C , 38-H ) :   0.8993 B(  5-C , 29-H ) :   0.9009
B(  6-N ,  7-C ) :   0.8956 B(  6-N , 17-C ) :   1.6510 B(  7-C ,  8-C ) :   0.9904
B(  7-C , 12-C ) :   0.9659 B(  7-C , 13-H ) :   0.8748 B(  8-C ,  9-H ) :   0.9045
B(  8-C , 10-H ) :   0.9130 B(  8-C , 11-H ) :   0.9114 B( 12-C , 14-H ) :   0.9075
B( 12-C , 15-H ) :   0.9152 B( 12-C , 16-H ) :   0.9115 B( 17-C , 18-C ) :   1.1075
B( 17-C , 19-H ) :   0.8762 B( 18-C , 20-C ) :   1.2134 B( 18-C , 22-S ) :   1.2577
B( 20-C , 21-C ) :   1.2489 B( 20-C , 24-H ) :   0.3860 B( 21-C , 23-C ) :   1.5534
B( 21-C , 25-H ) :   0.9012 B( 22-S , 23-C ) :   1.2086 B( 23-C , 26-H ) :   0.8910
B( 24-H , 30-O ) :   0.3127 B( 30-O , 32-C ) :   1.6141 B( 31-O , 32-C ) :   1.3460
B( 32-C , 33-C ) :   0.9429 B( 33-C , 34-H ) :   0.9019 B( 33-C , 35-H ) :   0.8951
B( 33-C , 36-H ) :   0.9088

Dispersion correction           -0.030803977
FINAL SINGLE POINT ENERGY     -1288.398683629683

DIPOLE MOMENT
-------------
                                X             Y             Z
Electronic contribution:     38.26890     -72.23447      69.23919
Nuclear contribution   :    -38.91575      71.60853     -69.63946
                        -----------------------------------------
Total Dipole Moment    :     -0.64684      -0.62593      -0.40027
                        -----------------------------------------
Magnitude (a.u.)       :      0.98510
Magnitude (Debye)      :      2.50391

Rotational constants in cm-1:     0.010518     0.008999     0.008255
Rotational constants in MHz :   315.328575   269.781808   247.476833

                             ****ORCA TERMINATED NORMALLY****
TOTAL RUN TIME: 0 days 2 hours 2 minutes 0 seconds 965 msec
