                         Program Version 5.0.3 -  RELEASE  -
|  1> ! Opt PBEh-3c
|  2> %geom Constraints
|  3> { B 0 20 2.0428571428571427 C }
|  4> { B 24 30 1.3 C }
|  5>     end
|  6> end
|  7> %output
|  8> xyzfile=True
|  9> end
| 10> %scf
| 11> maxiter 250
| 12> end
| 13> %output
| 14> Print[P_Hirshfeld] = 1
| 15> end
| 16> % maxcore
| 17> 4000
| 18> %pal nprocs 4
| 19> end
| 20> *xyz 1 1
| 21> Ir   0.60940163  -0.74817690   0.41479795
| 22> C    0.16094340  -2.86010591   0.34483730
| 23> C   -0.13082593  -2.42015156   1.68641966
| 24> C    2.11632619  -2.05530364   1.27562080
| 25> C    1.54429822  -2.66547561   0.11276336
| 26> C    1.07030846  -1.94077783   2.24201120
| 27> N   -1.08100444   0.09627853  -0.50567193
| 28> C   -2.35616716   0.26430198   0.20747463
| 29> C   -3.14371564   1.49336461  -0.22381880
| 30> H   -3.97817269   1.63482051   0.46116353
| 31> H   -3.57303049   1.39533189  -1.22180703
| 32> H   -2.53578903   2.39778717  -0.19111357
| 33> C   -3.18450660  -1.00780130   0.06655024
| 34> H   -2.08134116   0.39172460   1.25574148
| 35> H   -4.08930537  -0.93262445   0.66847025
| 36> H   -3.48509900  -1.16704187  -0.96980024
| 37> H   -2.63975077  -1.88989921   0.39942496
| 38> C   -0.93322031   0.48451701  -1.71998700
| 39> C    0.38050930   0.32432959  -2.26090705
| 40> H   -1.74526900   0.93100855  -2.28460941
| 41> C    1.39866021  -0.00995591  -1.36910365
| 42> C    2.61924149  -0.20339890  -2.08534783
| 43> S    0.89474222   0.42854932  -3.87711340
| 44> C    2.48962343   0.00727268  -3.42667254
| 45> H    1.65581600   1.19801451  -0.67883761
| 46> H    3.56631439  -0.43629762  -1.62021609
| 47> H    3.26158968  -0.04824996  -4.17921233
| 48> H   -0.53414457  -3.31648011  -0.34456940
| 49> H   -1.08393935  -2.47636403   2.18938696
| 50> H    1.17165375  -1.49098800   3.21953500
| 51> O    1.78068138   2.29809956   0.02937735
| 52> O    0.61178079   1.05421037   1.45921165
| 53> C    1.18738705   2.12450406   1.12479949
| 54> C    1.18940121   3.25800779   2.10460819
| 55> H    1.05838986   4.20924182   1.59355075
| 56> H    2.15942558   3.29180532   2.60369417
| 57> H    0.42022262   3.12986713   2.86051493
| 58> H    3.15789503  -1.82344365   1.43526097
| 59> H    2.07003967  -2.92131052  -0.79568693
| 60> *
| 61>
| 62>                          ****END OF INPUT****
 Total Charge           Charge          ....    1
 Multiplicity           Mult            ....    1
 Number of Electrons    NEL             ....  164
Dispersion correction           -0.030704153
FINAL SINGLE POINT ENERGY     -1288.406426071863
Dispersion correction            ... done
Dispersion correction           -0.030676873
FINAL SINGLE POINT ENERGY     -1288.406656196319
Dispersion correction            ... done
Dispersion correction           -0.030671825
FINAL SINGLE POINT ENERGY     -1288.406752981169
Dispersion correction            ... done
FINAL SINGLE POINT ENERGY     -1288.406820532711
FINAL SINGLE POINT ENERGY     -1288.406879303550
FINAL SINGLE POINT ENERGY     -1288.406915763254
FINAL SINGLE POINT ENERGY     -1288.406939527996
FINAL SINGLE POINT ENERGY     -1288.406956039034
FINAL SINGLE POINT ENERGY     -1288.406968361666
FINAL SINGLE POINT ENERGY     -1288.406976997264
FINAL SINGLE POINT ENERGY     -1288.406982761418
FINAL SINGLE POINT ENERGY     -1288.406986203968
FINAL SINGLE POINT ENERGY     -1288.406987802340
Dispersion correction            ... done
Dispersion correction           -0.030648097
FINAL SINGLE POINT ENERGY     -1288.406988630018
Dispersion correction            ... done
Dispersion correction           -0.030647901
FINAL SINGLE POINT ENERGY     -1288.406990876821
Dispersion correction            ... done
                    ***********************HURRAY********************

CARTESIAN COORDINATES (ANGSTROEM)
---------------------------------
  Ir     0.605986   -0.752529    0.397828
  C      0.185124   -2.866829    0.339229
  C     -0.155295   -2.438272    1.674566
  C      2.094585   -2.031434    1.333849
  C      1.576474   -2.658339    0.158772
  C      1.011774   -1.937130    2.268320
  N     -1.094156    0.088825   -0.504117
  C     -2.369167    0.234265    0.213555
  C     -3.156007    1.476619   -0.178524
  H     -3.991991    1.595655    0.508893
  H     -3.583245    1.411717   -1.180128
  H     -2.547672    2.379062   -0.114956
  C     -3.197484   -1.032806    0.032648
  H     -2.094691    0.328567    1.265480
  H     -4.097864   -0.981071    0.643640
  H     -3.505723   -1.153915   -1.006599
  H     -2.648864   -1.926174    0.327220
  C     -0.948508    0.503376   -1.710317
  C      0.363647    0.345711   -2.252927
  H     -1.760123    0.963865   -2.264043
  C      1.363591   -0.055935   -1.366841
  C      2.589879   -0.231388   -2.080129
  S      0.899489    0.526628   -3.856481
  C      2.479607    0.053800   -3.410511
  H      1.688806    1.226018   -0.728057
  H      3.527096   -0.509124   -1.619523
  H      3.260108    0.023181   -4.155631
  H     -0.476609   -3.343673   -0.368780
  H     -1.126199   -2.503413    2.141139
  H      1.072557   -1.485904    3.248364
  O      1.828472    2.304929   -0.016407
  O      0.637202    1.074919    1.410157
  C      1.227401    2.133828    1.080404
  C      1.248189    3.269568    2.056619
  H      1.129545    4.221853    1.544488
  H      2.219455    3.290341    2.554089
  H      0.478463    3.152920    2.813738
  H      3.126860   -1.786196    1.529906
  H      2.138656   -2.912325   -0.728194

 Multiplicity           Mult            ....    1
 Number of Electrons    NEL             ....  164
 Basis Dimension        Dim             ....  358

ORBITAL ENERGIES
----------------

  NO   OCC          E(Eh)            E(eV)
   0   2.0000     -89.759922     -2442.4917
   1   2.0000     -19.648358      -534.6590
   2   2.0000     -19.645226      -534.5738
   3   2.0000     -14.828127      -403.4939
   4   2.0000     -10.711266      -291.4684
   5   2.0000     -10.650431      -289.8130
   6   2.0000     -10.619983      -288.9844
   7   2.0000     -10.618966      -288.9567
   8   2.0000     -10.618417      -288.9418
   9   2.0000     -10.615728      -288.8686
  10   2.0000     -10.610806      -288.7347
  11   2.0000     -10.610093      -288.7153
  12   2.0000     -10.609079      -288.6877
  13   2.0000     -10.605937      -288.6022
  14   2.0000     -10.591644      -288.2133
  15   2.0000     -10.587557      -288.1021
  16   2.0000     -10.553071      -287.1636
  17   2.0000     -10.550799      -287.1018
  18   2.0000     -10.549226      -287.0590
  19   2.0000      -8.399269      -228.5557
  20   2.0000      -6.289157      -171.1367
  21   2.0000      -6.285690      -171.0423
  22   2.0000      -6.284169      -171.0009
  23   2.0000      -4.015158      -109.2580
  24   2.0000      -2.331379       -63.4400
  25   2.0000      -2.302524       -62.6549
  26   2.0000      -2.298207       -62.5374
  27   2.0000      -1.340844       -36.4862
  28   2.0000      -1.243133       -33.8274
  29   2.0000      -1.202484       -32.7213
  30   2.0000      -1.154088       -31.4043
  31   2.0000      -1.124807       -30.6075
  32   2.0000      -1.021857       -27.8061
  33   2.0000      -0.968276       -26.3481
  34   2.0000      -0.966387       -26.2967
  35   2.0000      -0.960056       -26.1244
  36   2.0000      -0.955635       -26.0041
  37   2.0000      -0.949088       -25.8260
  38   2.0000      -0.898094       -24.4384
  39   2.0000      -0.868663       -23.6375
  40   2.0000      -0.795021       -21.6336
  41   2.0000      -0.779911       -21.2225
  42   2.0000      -0.774584       -21.0775
  43   2.0000      -0.771028       -20.9807
  44   2.0000      -0.768805       -20.9202
  45   2.0000      -0.755779       -20.5658
  46   2.0000      -0.740501       -20.1500
  47   2.0000      -0.721670       -19.6376
  48   2.0000      -0.702757       -19.1230
  49   2.0000      -0.682844       -18.5811
  50   2.0000      -0.671143       -18.2627
  51   2.0000      -0.664605       -18.0848
  52   2.0000      -0.653661       -17.7870
  53   2.0000      -0.636917       -17.3314
  54   2.0000      -0.627872       -17.0853
  55   2.0000      -0.622002       -16.9255
  56   2.0000      -0.618412       -16.8279
  57   2.0000      -0.608513       -16.5585
  58   2.0000      -0.598261       -16.2795
  59   2.0000      -0.593028       -16.1371
  60   2.0000      -0.591123       -16.0853
  61   2.0000      -0.588738       -16.0204
  62   2.0000      -0.577682       -15.7195
  63   2.0000      -0.576348       -15.6832
  64   2.0000      -0.561434       -15.2774
  65   2.0000      -0.561228       -15.2718
  66   2.0000      -0.559321       -15.2199
  67   2.0000      -0.544063       -14.8047
  68   2.0000      -0.542596       -14.7648
  69   2.0000      -0.536356       -14.5950
  70   2.0000      -0.529201       -14.4003
  71   2.0000      -0.518475       -14.1084
  72   2.0000      -0.512789       -13.9537
  73   2.0000      -0.507040       -13.7972
  74   2.0000      -0.503541       -13.7020
  75   2.0000      -0.489261       -13.3135
  76   2.0000      -0.473669       -12.8892
  77   2.0000      -0.453828       -12.3493
  78   2.0000      -0.442103       -12.0302
  79   2.0000      -0.415193       -11.2980
  80   2.0000      -0.412695       -11.2300
  81   2.0000      -0.390550       -10.6274
  82   0.0000      -0.196258        -5.3404
  83   0.0000      -0.143015        -3.8916
  84   0.0000      -0.118086        -3.2133
  85   0.0000      -0.084687        -2.3045
  86   0.0000      -0.079758        -2.1703

MULLIKEN ATOMIC CHARGES
-----------------------
   0 Ir:    0.606674
   1 C :   -0.274340
   2 C :   -0.242519
   3 C :   -0.284716
   4 C :   -0.209521
   5 C :   -0.152329
   6 N :   -0.440367
   7 C :   -0.125446
   8 C :   -0.676479
   9 H :    0.267446
  10 H :    0.224368
  11 H :    0.250533
  12 C :   -0.631651
  13 H :    0.272301
  14 H :    0.255783
  15 H :    0.233324
  16 H :    0.234425
  17 C :    0.071836
  18 C :   -0.132261
  19 H :    0.282291
  20 C :   -0.544065
  21 C :   -0.111252
  22 S :    0.340590
  23 C :   -0.419607
  24 H :    0.480721
  25 H :    0.265676
  26 H :    0.297326
  27 H :    0.282742
  28 H :    0.278001
  29 H :    0.291315
  30 O :   -0.492239
  31 O :   -0.485820
  32 C :    0.638547
  33 C :   -0.743704
  34 H :    0.276628
  35 H :    0.279790
  36 H :    0.267461
  37 H :    0.277849
  38 H :    0.290692
Sum of atomic charges:    1.0000000

LOEWDIN ATOMIC CHARGES
----------------------
   0 Ir:   -0.267926
   1 C :   -0.070894
   2 C :   -0.096503
   3 C :   -0.106732
   4 C :   -0.035300
   5 C :   -0.026839
   6 N :   -0.009224
   7 C :   -0.068950
   8 C :   -0.361285
   9 H :    0.155303
  10 H :    0.132654
  11 H :    0.141842
  12 C :   -0.344395
  13 H :    0.151138
  14 H :    0.149388
  15 H :    0.138365
  16 H :    0.133503
  17 C :    0.029446
  18 C :   -0.209116
  19 H :    0.158844
  20 C :   -0.204387
  21 C :   -0.141537
  22 S :    0.491752
  23 C :   -0.254183
  24 H :    0.385173
  25 H :    0.161232
  26 H :    0.169198
  27 H :    0.180952
  28 H :    0.176760
  29 H :    0.184024
  30 O :   -0.249762
  31 O :   -0.160835
  32 C :    0.174599
  33 C :   -0.370172
  34 H :    0.167023
  35 H :    0.174764
  36 H :    0.159163
  37 H :    0.179531
  38 H :    0.183385

  Mayer bond orders larger than 0.100000
B(  0-Ir,  1-C ) :   0.4813 B(  0-Ir,  2-C ) :   0.3478 B(  0-Ir,  3-C ) :   0.4796
B(  0-Ir,  4-C ) :   0.4141 B(  0-Ir,  5-C ) :   0.3340 B(  0-Ir,  6-N ) :   0.4668
B(  0-Ir, 20-C ) :   0.5943 B(  0-Ir, 31-O ) :   0.4821 B(  1-C ,  2-C ) :   1.1212
B(  1-C ,  4-C ) :   1.2026 B(  1-C , 27-H ) :   0.9110 B(  2-C ,  5-C ) :   1.2791
B(  2-C , 28-H ) :   0.9099 B(  3-C ,  4-C ) :   1.1644 B(  3-C ,  5-C ) :   1.1398
B(  3-C , 37-H ) :   0.9154 B(  4-C , 38-H ) :   0.9002 B(  5-C , 29-H ) :   0.9040
B(  6-N ,  7-C ) :   0.8977 B(  6-N , 17-C ) :   1.6360 B(  7-C ,  8-C ) :   0.9898
B(  7-C , 12-C ) :   0.9681 B(  7-C , 13-H ) :   0.8811 B(  8-C ,  9-H ) :   0.9055
B(  8-C , 10-H ) :   0.9132 B(  8-C , 11-H ) :   0.9139 B( 12-C , 14-H ) :   0.9084
B( 12-C , 15-H ) :   0.9151 B( 12-C , 16-H ) :   0.9123 B( 17-C , 18-C ) :   1.1287
B( 17-C , 19-H ) :   0.8771 B( 18-C , 20-C ) :   1.2341 B( 18-C , 22-S ) :   1.2150
B( 20-C , 21-C ) :   1.2685 B( 20-C , 24-H ) :   0.2382 B( 21-C , 23-C ) :   1.5190
B( 21-C , 25-H ) :   0.9028 B( 22-S , 23-C ) :   1.2358 B( 23-C , 26-H ) :   0.8920
B( 24-H , 30-O ) :   0.4335 B( 30-O , 32-C ) :   1.4731 B( 31-O , 32-C ) :   1.4530
B( 32-C , 33-C ) :   0.9459 B( 33-C , 34-H ) :   0.8973 B( 33-C , 35-H ) :   0.8900
B( 33-C , 36-H ) :   0.9065

Dispersion correction           -0.030647745
FINAL SINGLE POINT ENERGY     -1288.406994038088

DIPOLE MOMENT
-------------
                                X             Y             Z
Electronic contribution:     36.80510     -77.01391      68.95781
Nuclear contribution   :    -37.30781      76.94644     -69.02884
                        -----------------------------------------
Total Dipole Moment    :     -0.50270      -0.06747      -0.07103
                        -----------------------------------------
Magnitude (a.u.)       :      0.51216
Magnitude (Debye)      :      1.30180

Rotational constants in cm-1:     0.010612     0.008738     0.008216
Rotational constants in MHz :   318.144134   261.962465   246.312957

                             ****ORCA TERMINATED NORMALLY****
TOTAL RUN TIME: 0 days 0 hours 34 minutes 22 seconds 85 msec
