                         Program Version 5.0.3 -  RELEASE  -
|  1> ! Opt PBEh-3c
|  2> %geom Constraints
|  3> { B 0 20 2.342857142857143 C }
|  4> { B 24 30 1.3714285714285714 C }
|  5>     end
|  6> end
|  7> %output
|  8> xyzfile=True
|  9> end
| 10> %scf
| 11> maxiter 250
| 12> end
| 13> %output
| 14> Print[P_Hirshfeld] = 1
| 15> end
| 16> % maxcore
| 17> 4000
| 18> *xyz 1 1
| 19> Ir   0.60150754  -0.72632137   0.47343029
| 20> C    0.07091431  -2.81907507   0.36148300
| 21> C    0.03599726  -2.35809786   1.72580124
| 22> C    2.19309548  -2.11978392   0.94139746
| 23> C    1.38043327  -2.65334060  -0.12738274
| 24> C    1.36926516  -1.97228210   2.07500954
| 25> N   -1.04152765   0.13767640  -0.51041913
| 26> C   -2.31686923   0.41716547   0.17023721
| 27> C   -3.09856282   1.56541249  -0.44982849
| 28> H   -3.92730800   1.82398626   0.20787354
| 29> H   -3.53748416   1.30781390  -1.41470903
| 30> H   -2.48554852   2.45906352  -0.56876792
| 31> C   -3.14872807  -0.85842484   0.23660448
| 32> H   -2.03530930   0.70273477   1.18480761
| 33> H   -4.06104278  -0.67381458   0.80200437
| 34> H   -3.43675928  -1.19485390  -0.76022695
| 35> H   -2.61610253  -1.66821185   0.73299968
| 36> C   -0.86908236   0.37696886  -1.75552429
| 37> C    0.46587230   0.19347100  -2.26460863
| 38> H   -1.67437380   0.73729182  -2.38909960
| 39> C    1.56348086   0.35058962  -1.42564914
| 40> C    2.76353815   0.00903140  -2.11183207
| 41> S    0.89036810  -0.31689367  -3.83284980
| 42> C    2.55053572  -0.36106879  -3.40442728
| 43> H    1.54665724   1.28374035  -0.61972105
| 44> H    3.74996003   0.09017561  -1.67892716
| 45> H    3.28609761  -0.63679404  -4.14490533
| 46> H   -0.76875822  -3.20166047  -0.20071485
| 47> H   -0.80984261  -2.39267069   2.39622929
| 48> H    1.67269066  -1.55939304   3.02659804
| 49> O    1.44852259   2.39717520   0.19932504
| 50> O    0.54264235   0.95436490   1.63554462
| 51> C    0.98111097   2.11528231   1.30821729
| 52> C    0.92943901   3.15170684   2.39333758
| 53> H    0.89091862   4.15224447   1.97110495
| 54> H    1.83868252   3.07973244   2.99339528
| 55> H    0.08516550   2.99308926   3.06028746
| 56> H    3.24806687  -1.89705893   0.88925371
| 57> H    1.72170713  -2.88978109  -1.12460817
| 58> *
| 59>
| 60>                          ****END OF INPUT****
 Total Charge           Charge          ....    1
 Multiplicity           Mult            ....    1
 Number of Electrons    NEL             ....  164
Dispersion correction           -0.030815098
FINAL SINGLE POINT ENERGY     -1288.399263171253
Dispersion correction            ... done
Dispersion correction           -0.030915601
FINAL SINGLE POINT ENERGY     -1288.395362389897
Dispersion correction            ... done
Dispersion correction           -0.030807871
FINAL SINGLE POINT ENERGY     -1288.399396398214
Dispersion correction            ... done
FINAL SINGLE POINT ENERGY     -1288.397247696141
FINAL SINGLE POINT ENERGY     -1288.399489720351
FINAL SINGLE POINT ENERGY     -1288.399518770392
FINAL SINGLE POINT ENERGY     -1288.399552456166
Dispersion correction            ... done
Dispersion correction           -0.030684507
FINAL SINGLE POINT ENERGY     -1288.399578641992
Dispersion correction            ... done
Dispersion correction           -0.030667516
FINAL SINGLE POINT ENERGY     -1288.399578592039
Dispersion correction            ... done
                    ***********************HURRAY********************

CARTESIAN COORDINATES (ANGSTROEM)
---------------------------------
  Ir     0.602978   -0.728390    0.471414
  C      0.064689   -2.821291    0.379079
  C      0.021595   -2.354357    1.740021
  C      2.185163   -2.124275    0.966654
  C      1.378730   -2.663731   -0.103044
  C      1.351610   -1.965446    2.092913
  N     -1.042833    0.131356   -0.513883
  C     -2.319609    0.398676    0.169063
  C     -3.106848    1.550692   -0.437490
  H     -3.936676    1.797118    0.223474
  H     -3.544869    1.302583   -1.405248
  H     -2.498628    2.448974   -0.545868
  C     -3.148273   -0.879748    0.220990
  H     -2.039992    0.674413    1.186939
  H     -4.062592   -0.703068    0.785770
  H     -3.432891   -1.206944   -0.779881
  H     -2.615167   -1.693146    0.710619
  C     -0.872324    0.389237   -1.756453
  C      0.459680    0.214395   -2.270628
  H     -1.679460    0.758545   -2.382208
  C      1.548802    0.297740   -1.410460
  C      2.751708   -0.015771   -2.105096
  S      0.893510   -0.199691   -3.863388
  C      2.547537   -0.295399   -3.422163
  H      1.557578    1.254551   -0.600492
  H      3.734558    0.021296   -1.658288
  H      3.287424   -0.532158   -4.171709
  H     -0.771726   -3.205604   -0.186787
  H     -0.828609   -2.382555    2.404983
  H      1.649625   -1.545642    3.043213
  O      1.504381    2.373514    0.190651
  O      0.541849    0.965679    1.623378
  C      1.007707    2.112036    1.295129
  C      0.954749    3.166058    2.362304
  H      0.937599    4.160633    1.924859
  H      1.853282    3.089578    2.977653
  H      0.097590    3.029082    3.017369
  H      3.241846   -1.908370    0.922823
  H      1.725678   -2.911380   -1.095465

 Multiplicity           Mult            ....    1
 Number of Electrons    NEL             ....  164
 Basis Dimension        Dim             ....  358

ORBITAL ENERGIES
----------------

  NO   OCC          E(Eh)            E(eV)
   0   2.0000     -89.761156     -2442.5252
   1   2.0000     -19.629254      -534.1392
   2   2.0000     -19.604475      -533.4649
   3   2.0000     -14.836681      -403.7266
   4   2.0000     -10.689246      -290.8692
   5   2.0000     -10.657950      -290.0176
   6   2.0000     -10.632012      -289.3118
   7   2.0000     -10.631307      -289.2926
   8   2.0000     -10.627545      -289.1902
   9   2.0000     -10.626458      -289.1606
  10   2.0000     -10.625677      -289.1394
  11   2.0000     -10.623890      -289.0908
  12   2.0000     -10.614161      -288.8260
  13   2.0000     -10.608450      -288.6706
  14   2.0000     -10.584442      -288.0173
  15   2.0000     -10.583371      -287.9882
  16   2.0000     -10.555352      -287.2257
  17   2.0000     -10.550982      -287.1068
  18   2.0000     -10.538665      -286.7716
  19   2.0000      -8.400590      -228.5917
  20   2.0000      -6.290531      -171.1741
  21   2.0000      -6.286949      -171.0766
  22   2.0000      -6.285482      -171.0367
  23   2.0000      -4.025875      -109.5496
  24   2.0000      -2.344351       -63.7930
  25   2.0000      -2.310935       -62.8837
  26   2.0000      -2.308965       -62.8301
  27   2.0000      -1.315979       -35.8096
  28   2.0000      -1.218326       -33.1523
  29   2.0000      -1.208442       -32.8834
  30   2.0000      -1.168512       -31.7968
  31   2.0000      -1.125018       -30.6133
  32   2.0000      -1.024491       -27.8778
  33   2.0000      -0.982400       -26.7325
  34   2.0000      -0.973786       -26.4981
  35   2.0000      -0.964902       -26.2563
  36   2.0000      -0.957972       -26.0677
  37   2.0000      -0.933581       -25.4040
  38   2.0000      -0.901449       -24.5297
  39   2.0000      -0.871916       -23.7260
  40   2.0000      -0.797235       -21.6939
  41   2.0000      -0.784331       -21.3427
  42   2.0000      -0.783472       -21.3194
  43   2.0000      -0.779883       -21.2217
  44   2.0000      -0.768517       -20.9124
  45   2.0000      -0.759106       -20.6563
  46   2.0000      -0.742190       -20.1960
  47   2.0000      -0.722481       -19.6597
  48   2.0000      -0.691560       -18.8183
  49   2.0000      -0.679031       -18.4774
  50   2.0000      -0.663479       -18.0542
  51   2.0000      -0.653269       -17.7764
  52   2.0000      -0.647718       -17.6253
  53   2.0000      -0.637711       -17.3530
  54   2.0000      -0.636703       -17.3256
  55   2.0000      -0.632569       -17.2131
  56   2.0000      -0.622350       -16.9350
  57   2.0000      -0.609972       -16.5982
  58   2.0000      -0.604253       -16.4426
  59   2.0000      -0.603561       -16.4237
  60   2.0000      -0.597190       -16.2504
  61   2.0000      -0.589388       -16.0381
  62   2.0000      -0.577416       -15.7123
  63   2.0000      -0.568135       -15.4598
  64   2.0000      -0.562542       -15.3076
  65   2.0000      -0.560490       -15.2517
  66   2.0000      -0.552362       -15.0305
  67   2.0000      -0.548134       -14.9155
  68   2.0000      -0.540413       -14.7054
  69   2.0000      -0.535237       -14.5645
  70   2.0000      -0.528042       -14.3688
  71   2.0000      -0.518926       -14.1207
  72   2.0000      -0.514412       -13.9979
  73   2.0000      -0.503180       -13.6922
  74   2.0000      -0.492365       -13.3979
  75   2.0000      -0.480313       -13.0700
  76   2.0000      -0.471001       -12.8166
  77   2.0000      -0.447158       -12.1678
  78   2.0000      -0.445131       -12.1126
  79   2.0000      -0.420217       -11.4347
  80   2.0000      -0.417495       -11.3606
  81   2.0000      -0.400083       -10.8868
  82   0.0000      -0.201638        -5.4869
  83   0.0000      -0.153212        -4.1691
  84   0.0000      -0.141312        -3.8453
  85   0.0000      -0.090392        -2.4597
  86   0.0000      -0.073543        -2.0012

MULLIKEN ATOMIC CHARGES
-----------------------
   0 Ir:    0.609671
   1 C :   -0.217835
   2 C :   -0.281988
   3 C :   -0.245863
   4 C :   -0.240260
   5 C :   -0.163668
   6 N :   -0.433432
   7 C :   -0.124961
   8 C :   -0.686478
   9 H :    0.270238
  10 H :    0.224986
  11 H :    0.257991
  12 C :   -0.635457
  13 H :    0.280953
  14 H :    0.261943
  15 H :    0.231451
  16 H :    0.231343
  17 C :    0.070478
  18 C :   -0.160119
  19 H :    0.287423
  20 C :   -0.484682
  21 C :   -0.127492
  22 S :    0.321182
  23 C :   -0.429158
  24 H :    0.491163
  25 H :    0.264181
  26 H :    0.296950
  27 H :    0.289286
  28 H :    0.288673
  29 H :    0.303517
  30 O :   -0.485067
  31 O :   -0.527559
  32 C :    0.625435
  33 C :   -0.744725
  34 H :    0.271467
  35 H :    0.269832
  36 H :    0.256823
  37 H :    0.289339
  38 H :    0.294419
Sum of atomic charges:    1.0000000

LOEWDIN ATOMIC CHARGES
----------------------
   0 Ir:   -0.236869
   1 C :   -0.044464
   2 C :   -0.078078
   3 C :   -0.067797
   4 C :   -0.051139
   5 C :   -0.019219
   6 N :   -0.008072
   7 C :   -0.069422
   8 C :   -0.363284
   9 H :    0.156538
  10 H :    0.133135
  11 H :    0.145468
  12 C :   -0.343744
  13 H :    0.155670
  14 H :    0.152024
  15 H :    0.137412
  16 H :    0.132846
  17 C :    0.033086
  18 C :   -0.188080
  19 H :    0.160961
  20 C :   -0.209755
  21 C :   -0.133600
  22 S :    0.480316
  23 C :   -0.260933
  24 H :    0.321196
  25 H :    0.161309
  26 H :    0.168118
  27 H :    0.183953
  28 H :    0.183663
  29 H :    0.191770
  30 O :   -0.270957
  31 O :   -0.196386
  32 C :    0.160965
  33 C :   -0.373671
  34 H :    0.161425
  35 H :    0.169352
  36 H :    0.155038
  37 H :    0.185122
  38 H :    0.186104

  Mayer bond orders larger than 0.100000
B(  0-Ir,  1-C ) :   0.4216 B(  0-Ir,  2-C ) :   0.4974 B(  0-Ir,  3-C ) :   0.4596
B(  0-Ir,  4-C ) :   0.4482 B(  0-Ir,  5-C ) :   0.4002 B(  0-Ir,  6-N ) :   0.4661
B(  0-Ir, 20-C ) :   0.3296 B(  0-Ir, 31-O ) :   0.5536 B(  1-C ,  2-C ) :   1.1243
B(  1-C ,  4-C ) :   1.2394 B(  1-C , 27-H ) :   0.9045 B(  2-C ,  5-C ) :   1.1496
B(  2-C , 28-H ) :   0.9090 B(  3-C ,  4-C ) :   1.1132 B(  3-C ,  5-C ) :   1.2209
B(  3-C , 37-H ) :   0.9079 B(  4-C , 38-H ) :   0.9008 B(  5-C , 29-H ) :   0.8988
B(  6-N ,  7-C ) :   0.8930 B(  6-N , 17-C ) :   1.6679 B(  7-C ,  8-C ) :   0.9912
B(  7-C , 12-C ) :   0.9679 B(  7-C , 13-H ) :   0.8747 B(  8-C ,  9-H ) :   0.9043
B(  8-C , 10-H ) :   0.9130 B(  8-C , 11-H ) :   0.9100 B( 12-C , 14-H ) :   0.9071
B( 12-C , 15-H ) :   0.9156 B( 12-C , 16-H ) :   0.9124 B( 17-C , 18-C ) :   1.0855
B( 17-C , 19-H ) :   0.8755 B( 18-C , 20-C ) :   1.2720 B( 18-C , 22-S ) :   1.2319
B( 20-C , 21-C ) :   1.2786 B( 20-C , 24-H ) :   0.4092 B( 21-C , 23-C ) :   1.5444
B( 21-C , 25-H ) :   0.9049 B( 22-S , 23-C ) :   1.2114 B( 23-C , 26-H ) :   0.8918
B( 24-H , 30-O ) :   0.2864 B( 30-O , 32-C ) :   1.6300 B( 31-O , 32-C ) :   1.3218
B( 32-C , 33-C ) :   0.9471 B( 33-C , 34-H ) :   0.9032 B( 33-C , 35-H ) :   0.8964
B( 33-C , 36-H ) :   0.9084

Dispersion correction           -0.030669492
FINAL SINGLE POINT ENERGY     -1288.399580118890

DIPOLE MOMENT
-------------
                                X             Y             Z
Electronic contribution:     36.58327     -70.42932      75.55859
Nuclear contribution   :    -37.20229      69.50298     -75.78852
                        -----------------------------------------
Total Dipole Moment    :     -0.61902      -0.92634      -0.22993
                        -----------------------------------------
Magnitude (a.u.)       :      1.13761
Magnitude (Debye)      :      2.89157

Rotational constants in cm-1:     0.010559     0.008935     0.008159
Rotational constants in MHz :   316.538213   267.850364   244.592724

                             ****ORCA TERMINATED NORMALLY****
TOTAL RUN TIME: 0 days 1 hours 17 minutes 56 seconds 881 msec
