                         Program Version 5.0.3 -  RELEASE  -
|  1> ! Opt PBEh-3c
|  2> %geom Constraints
|  3> { B 0 20 2.428571428571429 C }
|  4> { B 24 30 1.4285714285714286 C }
|  5>     end
|  6> end
|  7> %output
|  8> xyzfile=True
|  9> end
| 10> %scf
| 11> maxiter 250
| 12> end
| 13> %output
| 14> Print[P_Hirshfeld] = 1
| 15> end
| 16> % maxcore
| 17> 4000
| 18> *xyz 1 1
| 19> Ir   0.59091327  -0.72089685   0.45710275
| 20> C    0.03720098  -2.80367925   0.34790077
| 21> C    0.11279818  -2.35352988   1.71603372
| 22> C    2.20176736  -2.13244058   0.77163906
| 23> C    1.30433038  -2.64254848  -0.24059221
| 24> C    1.47809657  -1.99236834   1.96912383
| 25> N   -1.04494638   0.16714291  -0.52044332
| 26> C   -2.31579157   0.49251303   0.14577635
| 27> C   -3.12596267   1.55681804  -0.57663723
| 28> H   -3.95509003   1.86052057   0.06098014
| 29> H   -3.56677663   1.19804061  -1.50816475
| 30> H   -2.53547205   2.44922043  -0.78644575
| 31> C   -3.12312929  -0.78246263   0.35697822
| 32> H   -2.02341722   0.88494115   1.12113704
| 33> H   -4.03667886  -0.54959682   0.90194264
| 34> H   -3.40876840  -1.23308911  -0.59444363
| 35> H   -2.57761780  -1.52124912   0.94238238
| 36> C   -0.84585193   0.37582504  -1.76428209
| 37> C    0.50409324   0.15648227  -2.23480365
| 38> H   -1.62814969   0.73454624  -2.42701777
| 39> C    1.60427904   0.48227237  -1.44905381
| 40> C    2.80992235   0.07485471  -2.08994569
| 41> S    0.93409972  -0.58656116  -3.70876608
| 42> C    2.60049336  -0.50717975  -3.30056488
| 43> H    1.53294169   1.36817905  -0.66627332
| 44> H    3.79528316   0.25831614  -1.68682615
| 45> H    3.33845875  -0.87590013  -3.99689904
| 46> H   -0.85026071  -3.16600378  -0.15085574
| 47> H   -0.67940742  -2.38631370   2.44946009
| 48> H    1.86128602  -1.59819742   2.89939251
| 49> O    1.31870699   2.45580009   0.25731788
| 50> O    0.53446427   0.91374462   1.66525275
| 51> C    0.91190588   2.11166942   1.36466456
| 52> C    0.85320892   3.08912344   2.50496105
| 53> H    0.81250725   4.10975516   2.13444842
| 54> H    1.75817615   2.98817246   3.10731961
| 55> H    0.00661355   2.89561875   3.16039754
| 56> H    3.24802569  -1.90435912   0.63240288
| 57> H    1.56711793  -2.86799032  -1.26385902
| 58> *
| 59>
| 60>                          ****END OF INPUT****
 Total Charge           Charge          ....    1
 Multiplicity           Mult            ....    1
 Number of Electrons    NEL             ....  164
Dispersion correction           -0.031004669
FINAL SINGLE POINT ENERGY     -1288.398356041915
Dispersion correction            ... done
Dispersion correction           -0.031040736
FINAL SINGLE POINT ENERGY     -1288.396825864865
Dispersion correction            ... done
Dispersion correction           -0.030975617
FINAL SINGLE POINT ENERGY     -1288.398437111905
Dispersion correction            ... done
FINAL SINGLE POINT ENERGY     -1288.396757274721
FINAL SINGLE POINT ENERGY     -1288.398523677791
FINAL SINGLE POINT ENERGY     -1288.398537913969
FINAL SINGLE POINT ENERGY     -1288.398563416484
FINAL SINGLE POINT ENERGY     -1288.398573758434
FINAL SINGLE POINT ENERGY     -1288.398581654975
Dispersion correction            ... done
Dispersion correction           -0.030880719
FINAL SINGLE POINT ENERGY     -1288.398593579958
Dispersion correction            ... done
Dispersion correction           -0.030877185
FINAL SINGLE POINT ENERGY     -1288.398596269648
Dispersion correction            ... done
                    ***********************HURRAY********************

CARTESIAN COORDINATES (ANGSTROEM)
---------------------------------
  Ir     0.595050   -0.719267    0.457419
  C      0.043752   -2.804462    0.354947
  C      0.101717   -2.351501    1.721991
  C      2.202518   -2.128210    0.801224
  C      1.318101   -2.644029   -0.219268
  C      1.461826   -1.984009    1.988723
  N     -1.045466    0.159724   -0.520250
  C     -2.317371    0.473162    0.150037
  C     -3.120389    1.559833   -0.547079
  H     -3.948901    1.852735    0.096396
  H     -3.561754    1.226754   -1.487762
  H     -2.523769    2.453149   -0.734121
  C     -3.130794   -0.803667    0.324638
  H     -2.027399    0.838592    1.136464
  H     -4.044940   -0.582178    0.873385
  H     -3.415293   -1.227285   -0.639427
  H     -2.589107   -1.560203    0.890517
  C     -0.854285    0.374807   -1.765027
  C      0.492379    0.165197   -2.243560
  H     -1.642705    0.732551   -2.420882
  C      1.587991    0.439926   -1.431574
  C      2.795364    0.049942   -2.079913
  S      0.927969   -0.513080   -3.744807
  C      2.590930   -0.471588   -3.319056
  H      1.529111    1.342998   -0.648626
  H      3.779046    0.203250   -1.660425
  H      3.331271   -0.814568   -4.025950
  H     -0.836389   -3.170725   -0.153815
  H     -0.699341   -2.383279    2.445619
  H      1.832516   -1.584766    2.921920
  O      1.348195    2.445359    0.241815
  O      0.533856    0.926396    1.656514
  C      0.927449    2.115070    1.350373
  C      0.873123    3.106282    2.478385
  H      0.838550    4.122926    2.096488
  H      1.777359    3.007009    3.082143
  H      0.024934    2.924312    3.134920
  H      3.251117   -1.902991    0.676364
  H      1.593152   -2.874977   -1.238001

 Multiplicity           Mult            ....    1
 Number of Electrons    NEL             ....  164
 Basis Dimension        Dim             ....  358

ORBITAL ENERGIES
----------------

  NO   OCC          E(Eh)            E(eV)
   0   2.0000     -89.763235     -2442.5818
   1   2.0000     -19.623199      -533.9744
   2   2.0000     -19.588922      -533.0417
   3   2.0000     -14.840665      -403.8350
   4   2.0000     -10.680584      -290.6335
   5   2.0000     -10.661733      -290.1205
   6   2.0000     -10.636558      -289.4355
   7   2.0000     -10.633325      -289.3475
   8   2.0000     -10.632535      -289.3260
   9   2.0000     -10.631723      -289.3039
  10   2.0000     -10.630338      -289.2662
  11   2.0000     -10.629884      -289.2538
  12   2.0000     -10.615839      -288.8717
  13   2.0000     -10.610361      -288.7226
  14   2.0000     -10.585242      -288.0391
  15   2.0000     -10.583015      -287.9785
  16   2.0000     -10.556948      -287.2692
  17   2.0000     -10.551946      -287.1330
  18   2.0000     -10.532824      -286.6127
  19   2.0000      -8.402592      -228.6461
  20   2.0000      -6.292616      -171.2308
  21   2.0000      -6.288977      -171.1318
  22   2.0000      -6.287395      -171.0887
  23   2.0000      -4.029104      -109.6375
  24   2.0000      -2.348069       -63.8942
  25   2.0000      -2.314053       -62.9686
  26   2.0000      -2.312569       -62.9282
  27   2.0000      -1.305391       -35.5215
  28   2.0000      -1.213308       -33.0158
  29   2.0000      -1.208300       -32.8795
  30   2.0000      -1.172570       -31.9072
  31   2.0000      -1.127305       -30.6755
  32   2.0000      -1.027044       -27.9473
  33   2.0000      -0.987127       -26.8611
  34   2.0000      -0.977659       -26.6034
  35   2.0000      -0.966478       -26.2992
  36   2.0000      -0.960171       -26.1276
  37   2.0000      -0.926769       -25.2187
  38   2.0000      -0.903231       -24.5782
  39   2.0000      -0.874120       -23.7860
  40   2.0000      -0.798408       -21.7258
  41   2.0000      -0.788494       -21.4560
  42   2.0000      -0.787118       -21.4186
  43   2.0000      -0.781572       -21.2676
  44   2.0000      -0.772246       -21.0139
  45   2.0000      -0.755647       -20.5622
  46   2.0000      -0.743983       -20.2448
  47   2.0000      -0.723080       -19.6760
  48   2.0000      -0.693581       -18.8733
  49   2.0000      -0.674032       -18.3413
  50   2.0000      -0.665301       -18.1038
  51   2.0000      -0.650950       -17.7132
  52   2.0000      -0.647818       -17.6280
  53   2.0000      -0.639872       -17.4118
  54   2.0000      -0.636561       -17.3217
  55   2.0000      -0.629429       -17.1276
  56   2.0000      -0.623455       -16.9651
  57   2.0000      -0.612028       -16.6541
  58   2.0000      -0.608185       -16.5495
  59   2.0000      -0.607345       -16.5267
  60   2.0000      -0.598105       -16.2753
  61   2.0000      -0.589349       -16.0370
  62   2.0000      -0.578569       -15.7437
  63   2.0000      -0.571336       -15.5468
  64   2.0000      -0.563860       -15.3434
  65   2.0000      -0.555252       -15.1092
  66   2.0000      -0.552404       -15.0317
  67   2.0000      -0.548490       -14.9252
  68   2.0000      -0.539303       -14.6752
  69   2.0000      -0.535815       -14.5803
  70   2.0000      -0.528101       -14.3704
  71   2.0000      -0.520545       -14.1648
  72   2.0000      -0.515894       -14.0382
  73   2.0000      -0.505161       -13.7461
  74   2.0000      -0.488748       -13.2995
  75   2.0000      -0.481253       -13.0956
  76   2.0000      -0.467517       -12.7218
  77   2.0000      -0.448517       -12.2048
  78   2.0000      -0.441726       -12.0200
  79   2.0000      -0.423543       -11.5252
  80   2.0000      -0.417213       -11.3529
  81   2.0000      -0.403086       -10.9685
  82   0.0000      -0.201919        -5.4945
  83   0.0000      -0.161554        -4.3961
  84   0.0000      -0.141630        -3.8540
  85   0.0000      -0.098555        -2.6818
  86   0.0000      -0.076452        -2.0804

MULLIKEN ATOMIC CHARGES
-----------------------
   0 Ir:    0.613963
   1 C :   -0.209905
   2 C :   -0.289413
   3 C :   -0.235719
   4 C :   -0.246133
   5 C :   -0.165364
   6 N :   -0.426620
   7 C :   -0.120455
   8 C :   -0.692434
   9 H :    0.272314
  10 H :    0.225396
  11 H :    0.260723
  12 C :   -0.638061
  13 H :    0.282070
  14 H :    0.264360
  15 H :    0.230813
  16 H :    0.232493
  17 C :    0.070082
  18 C :   -0.188987
  19 H :    0.291593
  20 C :   -0.453065
  21 C :   -0.129873
  22 S :    0.305638
  23 C :   -0.431284
  24 H :    0.499689
  25 H :    0.266838
  26 H :    0.297665
  27 H :    0.291405
  28 H :    0.292258
  29 H :    0.306099
  30 O :   -0.480764
  31 O :   -0.539966
  32 C :    0.615294
  33 C :   -0.745289
  34 H :    0.269129
  35 H :    0.265743
  36 H :    0.252527
  37 H :    0.292927
  38 H :    0.294313
Sum of atomic charges:    1.0000000

LOEWDIN ATOMIC CHARGES
----------------------
   0 Ir:   -0.224291
   1 C :   -0.039637
   2 C :   -0.064655
   3 C :   -0.053498
   4 C :   -0.056491
   5 C :   -0.023772
   6 N :   -0.004691
   7 C :   -0.068994
   8 C :   -0.364408
   9 H :    0.157411
  10 H :    0.133548
  11 H :    0.146897
  12 C :   -0.343488
  13 H :    0.156780
  14 H :    0.153041
  15 H :    0.137205
  16 H :    0.133967
  17 C :    0.034929
  18 C :   -0.182587
  19 H :    0.162886
  20 C :   -0.193888
  21 C :   -0.136211
  22 S :    0.470867
  23 C :   -0.263107
  24 H :    0.292419
  25 H :    0.162548
  26 H :    0.168126
  27 H :    0.185148
  28 H :    0.185673
  29 H :    0.193366
  30 O :   -0.276353
  31 O :   -0.207578
  32 C :    0.153429
  33 C :   -0.376205
  34 H :    0.159468
  35 H :    0.166750
  36 H :    0.152934
  37 H :    0.186719
  38 H :    0.185745

  Mayer bond orders larger than 0.100000
B(  0-Ir,  1-C ) :   0.4192 B(  0-Ir,  2-C ) :   0.5272 B(  0-Ir,  3-C ) :   0.4616
B(  0-Ir,  4-C ) :   0.4505 B(  0-Ir,  5-C ) :   0.4018 B(  0-Ir,  6-N ) :   0.4632
B(  0-Ir, 20-C ) :   0.2628 B(  0-Ir, 31-O ) :   0.5810 B(  1-C ,  2-C ) :   1.1190
B(  1-C ,  4-C ) :   1.2447 B(  1-C , 27-H ) :   0.9033 B(  2-C ,  5-C ) :   1.1368
B(  2-C , 28-H ) :   0.9076 B(  3-C ,  4-C ) :   1.1063 B(  3-C ,  5-C ) :   1.2316
B(  3-C , 37-H ) :   0.9047 B(  4-C , 38-H ) :   0.8995 B(  5-C , 29-H ) :   0.8980
B(  6-N ,  7-C ) :   0.8916 B(  6-N , 17-C ) :   1.6897 B(  7-C ,  8-C ) :   0.9919
B(  7-C , 12-C ) :   0.9688 B(  7-C , 13-H ) :   0.8719 B(  8-C ,  9-H ) :   0.9036
B(  8-C , 10-H ) :   0.9126 B(  8-C , 11-H ) :   0.9082 B( 12-C , 14-H ) :   0.9064
B( 12-C , 15-H ) :   0.9154 B( 12-C , 16-H ) :   0.9115 B( 17-C , 18-C ) :   1.0576
B( 17-C , 19-H ) :   0.8742 B( 18-C , 20-C ) :   1.2890 B( 18-C , 22-S ) :   1.2308
B( 20-C , 21-C ) :   1.2626 B( 20-C , 24-H ) :   0.4714 B( 21-C , 23-C ) :   1.5491
B( 21-C , 25-H ) :   0.9041 B( 22-S , 23-C ) :   1.2025 B( 23-C , 26-H ) :   0.8920
B( 24-H , 30-O ) :   0.2422 B( 30-O , 32-C ) :   1.6922 B( 31-O , 32-C ) :   1.2768
B( 32-C , 33-C ) :   0.9462 B( 33-C , 34-H ) :   0.9052 B( 33-C , 35-H ) :   0.8990
B( 33-C , 36-H ) :   0.9097

Dispersion correction           -0.030874641
FINAL SINGLE POINT ENERGY     -1288.398598115288

DIPOLE MOMENT
-------------
                                X             Y             Z
Electronic contribution:     35.76995     -67.78072      73.29303
Nuclear contribution   :    -36.39802      66.57058     -73.59390
                        -----------------------------------------
Total Dipole Moment    :     -0.62807      -1.21014      -0.30087
                        -----------------------------------------
Magnitude (a.u.)       :      1.39622
Magnitude (Debye)      :      3.54890

Rotational constants in cm-1:     0.010691     0.009089     0.008246
Rotational constants in MHz :   320.518226   272.468500   247.220427

                             ****ORCA TERMINATED NORMALLY****
TOTAL RUN TIME: 0 days 1 hours 37 minutes 26 seconds 1 msec
