                         Program Version 5.0.3 -  RELEASE  -
|  1> ! Opt PBEh-3c
|  2> %geom Constraints
|  3> { B 0 20 2.6 C }
|  4> { B 24 30 1.3 C }
|  5>     end
|  6> end
|  7> %output
|  8> xyzfile=True
|  9> end
| 10> %scf
| 11> maxiter 250
| 12> end
| 13> %output
| 14> Print[P_Hirshfeld] = 1
| 15> end
| 16> % maxcore
| 17> 4000
| 18> *xyz 1 1
| 19> Ir   0.56010222  -0.74953433   0.53546343
| 20> C    0.00212736  -2.82347288   0.39938735
| 21> C    0.04703897  -2.37881623   1.77087700
| 22> C    2.16037102  -2.16690694   0.88119602
| 23> C    1.28376167  -2.66228033  -0.15668122
| 24> C    1.40962245  -2.03032198   2.06125554
| 25> N   -1.03434403   0.13755248  -0.49881077
| 26> C   -2.32290487   0.44846457   0.14454990
| 27> C   -3.11465695   1.53327099  -0.56911340
| 28> H   -3.95265429   1.82885239   0.06073945
| 29> H   -3.54214042   1.19743761  -1.51510055
| 30> H   -2.51500370   2.42552932  -0.75117914
| 31> C   -3.14073963  -0.82724939   0.30539826
| 32> H   -2.05683126   0.81801770   1.13648705
| 33> H   -4.06992061  -0.60322683   0.82732406
| 34> H   -3.39865606  -1.25707007  -0.66344733
| 35> H   -2.61592703  -1.58061874   0.89108055
| 36> C   -0.82789804   0.34814686  -1.74392403
| 37> C    0.51593328   0.17548764  -2.23905784
| 38> H   -1.62442064   0.68462011  -2.40210204
| 39> C    1.63037798   0.49976514  -1.47793187
| 40> C    2.82093433   0.15449635  -2.17493118
| 41> S    0.91564871  -0.46398256  -3.77679653
| 42> C    2.58765454  -0.36192228  -3.41366821
| 43> H    1.55515085   1.39489704  -0.60391135
| 44> H    3.81592520   0.33548247  -1.79467477
| 45> H    3.31438173  -0.67157320  -4.14964454
| 46> H   -0.87418827  -3.17912901  -0.12320867
| 47> H   -0.76359095  -2.41192757   2.48403993
| 48> H    1.77249422  -1.64662211   3.00395678
| 49> O    1.40495544   2.38728512   0.24458978
| 50> O    0.53976319   0.92539597   1.69199135
| 51> C    0.96424322   2.09124776   1.36141624
| 52> C    0.93265989   3.11902621   2.45448872
| 53> H    0.87257927   4.12164419   2.03971626
| 54> H    1.85955799   3.05320499   3.02787791
| 55> H    0.10956628   2.94798950   3.14438760
| 56> H    3.20973795  -1.93938309   0.76566779
| 57> H    1.56865901  -2.87458686  -1.17696741
| 58> *
| 59>
| 60>                          ****END OF INPUT****
 Total Charge           Charge          ....    1
 Multiplicity           Mult            ....    1
 Number of Electrons    NEL             ....  164
Dispersion correction           -0.030594022
FINAL SINGLE POINT ENERGY     -1288.389846349615
Dispersion correction            ... done
Dispersion correction           -0.030587418
FINAL SINGLE POINT ENERGY     -1288.389877845990
Dispersion correction            ... done
Dispersion correction           -0.030580836
FINAL SINGLE POINT ENERGY     -1288.389887942954
Dispersion correction            ... done
FINAL SINGLE POINT ENERGY     -1288.389892612928
FINAL SINGLE POINT ENERGY     -1288.389897792965
FINAL SINGLE POINT ENERGY     -1288.389902367800
FINAL SINGLE POINT ENERGY     -1288.389906684984
FINAL SINGLE POINT ENERGY     -1288.389913322290
FINAL SINGLE POINT ENERGY     -1288.389918166939
Dispersion correction            ... done
Dispersion correction           -0.030507596
FINAL SINGLE POINT ENERGY     -1288.389922300721
Dispersion correction            ... done
Dispersion correction           -0.030502494
FINAL SINGLE POINT ENERGY     -1288.389923812173
Dispersion correction            ... done
                    ***********************HURRAY********************

CARTESIAN COORDINATES (ANGSTROEM)
---------------------------------
  Ir     0.561071   -0.753008    0.548912
  C      0.006321   -2.828530    0.414774
  C      0.020738   -2.375091    1.783841
  C      2.154152   -2.168367    0.940073
  C      1.300176   -2.670397   -0.113272
  C      1.376277   -2.024262    2.101764
  N     -1.029565    0.126627   -0.494563
  C     -2.321593    0.424085    0.149922
  C     -3.102435    1.535733   -0.534477
  H     -3.940941    1.819361    0.100217
  H     -3.528390    1.230827   -1.491439
  H     -2.494591    2.427639   -0.688358
  C     -3.147565   -0.851607    0.263805
  H     -2.061895    0.760758    1.155056
  H     -4.078473   -0.640860    0.788316
  H     -3.402471   -1.247208   -0.720314
  H     -2.629174   -1.627500    0.825203
  C     -0.830278    0.343870   -1.740743
  C      0.507295    0.185247   -2.251551
  H     -1.635445    0.676797   -2.390262
  C      1.627959    0.467198   -1.484028
  C      2.812090    0.147601   -2.201557
  S      0.895006   -0.382374   -3.820726
  C      2.568020   -0.307774   -3.462945
  H      1.572225    1.364230   -0.585723
  H      3.810480    0.304126   -1.819438
  H      3.289044   -0.586335   -4.216726
  H     -0.857326   -3.189123   -0.125157
  H     -0.805389   -2.404290    2.479163
  H      1.717640   -1.634075    3.049874
  O      1.455506    2.363137    0.238026
  O      0.539772    0.936180    1.688700
  C      0.987535    2.089572    1.351436
  C      0.952035    3.135091    2.426600
  H      0.889947    4.130770    1.995470
  H      1.879369    3.081750    3.000549
  H      0.128729    2.972735    3.118044
  H      3.206413   -1.943979    0.847942
  H      1.607102   -2.889366   -1.125666

 Multiplicity           Mult            ....    1
 Number of Electrons    NEL             ....  164
 Basis Dimension        Dim             ....  358

ORBITAL ENERGIES
----------------

  NO   OCC          E(Eh)            E(eV)
   0   2.0000     -89.751449     -2442.2611
   1   2.0000     -19.632579      -534.2296
   2   2.0000     -19.602996      -533.4246
   3   2.0000     -14.835296      -403.6889
   4   2.0000     -10.692532      -290.9586
   5   2.0000     -10.657042      -289.9929
   6   2.0000     -10.637442      -289.4595
   7   2.0000     -10.635738      -289.4131
   8   2.0000     -10.635147      -289.3971
   9   2.0000     -10.632990      -289.3384
  10   2.0000     -10.632319      -289.3201
  11   2.0000     -10.618406      -288.9415
  12   2.0000     -10.614941      -288.8472
  13   2.0000     -10.602615      -288.5118
  14   2.0000     -10.574652      -287.7509
  15   2.0000     -10.573138      -287.7097
  16   2.0000     -10.556240      -287.2499
  17   2.0000     -10.550952      -287.1060
  18   2.0000     -10.539169      -286.7854
  19   2.0000      -8.390899      -228.3280
  20   2.0000      -6.280940      -170.9131
  21   2.0000      -6.277374      -170.8160
  22   2.0000      -6.275629      -170.7685
  23   2.0000      -4.030976      -109.6884
  24   2.0000      -2.350551       -63.9617
  25   2.0000      -2.316043       -63.0227
  26   2.0000      -2.313755       -62.9605
  27   2.0000      -1.318549       -35.8795
  28   2.0000      -1.222372       -33.2624
  29   2.0000      -1.206263       -32.8241
  30   2.0000      -1.175023       -31.9740
  31   2.0000      -1.116204       -30.3734
  32   2.0000      -1.022261       -27.8171
  33   2.0000      -0.989778       -26.9332
  34   2.0000      -0.979863       -26.6634
  35   2.0000      -0.957754       -26.0618
  36   2.0000      -0.950671       -25.8691
  37   2.0000      -0.934769       -25.4364
  38   2.0000      -0.901849       -24.5406
  39   2.0000      -0.868247       -23.6262
  40   2.0000      -0.794097       -21.6085
  41   2.0000      -0.790435       -21.5088
  42   2.0000      -0.788945       -21.4683
  43   2.0000      -0.777123       -21.1466
  44   2.0000      -0.771317       -20.9886
  45   2.0000      -0.764326       -20.7984
  46   2.0000      -0.741107       -20.1665
  47   2.0000      -0.722536       -19.6612
  48   2.0000      -0.692136       -18.8340
  49   2.0000      -0.674940       -18.3661
  50   2.0000      -0.662479       -18.0270
  51   2.0000      -0.655255       -17.8304
  52   2.0000      -0.649410       -17.6713
  53   2.0000      -0.641739       -17.4626
  54   2.0000      -0.640932       -17.4406
  55   2.0000      -0.635381       -17.2896
  56   2.0000      -0.623025       -16.9534
  57   2.0000      -0.610618       -16.6158
  58   2.0000      -0.610092       -16.6015
  59   2.0000      -0.605890       -16.4871
  60   2.0000      -0.593451       -16.1486
  61   2.0000      -0.584340       -15.9007
  62   2.0000      -0.572094       -15.5675
  63   2.0000      -0.566241       -15.4082
  64   2.0000      -0.559825       -15.2336
  65   2.0000      -0.556757       -15.1501
  66   2.0000      -0.553376       -15.0581
  67   2.0000      -0.548164       -14.9163
  68   2.0000      -0.539914       -14.6918
  69   2.0000      -0.532863       -14.4999
  70   2.0000      -0.526521       -14.3274
  71   2.0000      -0.520258       -14.1569
  72   2.0000      -0.516070       -14.0430
  73   2.0000      -0.508874       -13.8472
  74   2.0000      -0.495468       -13.4824
  75   2.0000      -0.479864       -13.0578
  76   2.0000      -0.461196       -12.5498
  77   2.0000      -0.452307       -12.3079
  78   2.0000      -0.443841       -12.0775
  79   2.0000      -0.417991       -11.3741
  80   2.0000      -0.415441       -11.3047
  81   2.0000      -0.400155       -10.8888
  82   0.0000      -0.199985        -5.4419
  83   0.0000      -0.165196        -4.4952
  84   0.0000      -0.141132        -3.8404
  85   0.0000      -0.089725        -2.4415
  86   0.0000      -0.074657        -2.0315

MULLIKEN ATOMIC CHARGES
-----------------------
   0 Ir:    0.620936
   1 C :   -0.210778
   2 C :   -0.296764
   3 C :   -0.231449
   4 C :   -0.240653
   5 C :   -0.168887
   6 N :   -0.442634
   7 C :   -0.121296
   8 C :   -0.689827
   9 H :    0.270532
  10 H :    0.226399
  11 H :    0.259041
  12 C :   -0.636679
  13 H :    0.278065
  14 H :    0.263352
  15 H :    0.231513
  16 H :    0.229470
  17 C :    0.068924
  18 C :   -0.210076
  19 H :    0.286710
  20 C :   -0.389867
  21 C :   -0.160861
  22 S :    0.296313
  23 C :   -0.422216
  24 H :    0.499197
  25 H :    0.260293
  26 H :    0.293641
  27 H :    0.293299
  28 H :    0.294004
  29 H :    0.306134
  30 O :   -0.498448
  31 O :   -0.533485
  32 C :    0.626883
  33 C :   -0.746263
  34 H :    0.272104
  35 H :    0.270310
  36 H :    0.257067
  37 H :    0.297078
  38 H :    0.298916
Sum of atomic charges:    1.0000000

LOEWDIN ATOMIC CHARGES
----------------------
   0 Ir:   -0.206258
   1 C :   -0.041939
   2 C :   -0.057913
   3 C :   -0.049379
   4 C :   -0.048111
   5 C :   -0.026294
   6 N :   -0.020269
   7 C :   -0.068365
   8 C :   -0.363946
   9 H :    0.156441
  10 H :    0.133724
  11 H :    0.146065
  12 C :   -0.344008
  13 H :    0.154369
  14 H :    0.152447
  15 H :    0.137505
  16 H :    0.132342
  17 C :    0.037043
  18 C :   -0.207524
  19 H :    0.160218
  20 C :   -0.201923
  21 C :   -0.152690
  22 S :    0.452923
  23 C :   -0.259747
  24 H :    0.309048
  25 H :    0.158491
  26 H :    0.166165
  27 H :    0.186184
  28 H :    0.186356
  29 H :    0.193346
  30 O :   -0.274367
  31 O :   -0.197257
  32 C :    0.167213
  33 C :   -0.373953
  34 H :    0.162041
  35 H :    0.169800
  36 H :    0.154787
  37 H :    0.188663
  38 H :    0.188774

  Mayer bond orders larger than 0.100000
B(  0-Ir,  1-C ) :   0.4258 B(  0-Ir,  2-C ) :   0.5588 B(  0-Ir,  3-C ) :   0.4592
B(  0-Ir,  4-C ) :   0.4606 B(  0-Ir,  5-C ) :   0.4055 B(  0-Ir,  6-N ) :   0.4752
B(  0-Ir, 20-C ) :   0.2348 B(  0-Ir, 31-O ) :   0.5634 B(  1-C ,  2-C ) :   1.1117
B(  1-C ,  4-C ) :   1.2403 B(  1-C , 27-H ) :   0.9026 B(  2-C ,  5-C ) :   1.1267
B(  2-C , 28-H ) :   0.9062 B(  3-C ,  4-C ) :   1.1053 B(  3-C ,  5-C ) :   1.2370
B(  3-C , 37-H ) :   0.9030 B(  4-C , 38-H ) :   0.8994 B(  5-C , 29-H ) :   0.8979
B(  6-N ,  7-C ) :   0.8914 B(  6-N , 17-C ) :   1.6700 B(  7-C ,  8-C ) :   0.9923
B(  7-C , 12-C ) :   0.9691 B(  7-C , 13-H ) :   0.8760 B(  8-C ,  9-H ) :   0.9040
B(  8-C , 10-H ) :   0.9126 B(  8-C , 11-H ) :   0.9093 B( 12-C , 14-H ) :   0.9067
B( 12-C , 15-H ) :   0.9155 B( 12-C , 16-H ) :   0.9125 B( 17-C , 18-C ) :   1.0803
B( 17-C , 19-H ) :   0.8748 B( 18-C , 20-C ) :   1.3117 B( 18-C , 22-S ) :   1.1957
B( 20-C , 21-C ) :   1.2929 B( 20-C , 24-H ) :   0.4351 B( 21-C , 23-C ) :   1.5343
B( 21-C , 25-H ) :   0.9062 B( 22-S , 23-C ) :   1.2148 B( 23-C , 26-H ) :   0.8931
B( 24-H , 30-O ) :   0.2573 B( 30-O , 32-C ) :   1.6333 B( 31-O , 32-C ) :   1.3137
B( 32-C , 33-C ) :   0.9497 B( 33-C , 34-H ) :   0.9029 B( 33-C , 35-H ) :   0.8958
B( 33-C , 36-H ) :   0.9084

Dispersion correction           -0.030500507
FINAL SINGLE POINT ENERGY     -1288.389923729713

DIPOLE MOMENT
-------------
                                X             Y             Z
Electronic contribution:     32.46470     -71.59258      82.73682
Nuclear contribution   :    -33.08432      70.52949     -82.69885
                        -----------------------------------------
Total Dipole Moment    :     -0.61962      -1.06309       0.03798
                        -----------------------------------------
Magnitude (a.u.)       :      1.23107
Magnitude (Debye)      :      3.12913

Rotational constants in cm-1:     0.010547     0.008735     0.008055
Rotational constants in MHz :   316.192730   261.857747   241.495477

                             ****ORCA TERMINATED NORMALLY****
TOTAL RUN TIME: 0 days 1 hours 26 minutes 14 seconds 75 msec
