                         Program Version 5.0.3 -  RELEASE  -
|  1> ! Opt PBEh-3c
|  2> %geom Constraints
|  3> { B 0 20 2.085714285714286 C }
|  4> { B 24 30 1.3571428571428572 C }
|  5>     end
|  6> end
|  7> %output
|  8> xyzfile=True
|  9> end
| 10> %scf
| 11> maxiter 250
| 12> end
| 13> %output
| 14> Print[P_Hirshfeld] = 1
| 15> end
| 16> % maxcore
| 17> 4000
| 18> *xyz 1 1
| 19> Ir   0.61069806  -0.73355353   0.42459160
| 20> C    0.11877422  -2.84456201   0.36144951
| 21> C   -0.07381308  -2.38278677   1.71109226
| 22> C    2.15143049  -2.08236354   1.15136534
| 23> C    1.47981565  -2.67137416   0.02492315
| 24> C    1.18481162  -1.93492139   2.18203977
| 25> N   -1.06796196   0.11652802  -0.51390051
| 26> C   -2.34248542   0.31417162   0.19307040
| 27> C   -3.14335646   1.50841802  -0.30616155
| 28> H   -3.97530634   1.68283919   0.37427874
| 29> H   -3.57775388   1.34511331  -1.29337124
| 30> H   -2.54501464   2.41947011  -0.33148829
| 31> C   -3.16111453  -0.97049417   0.12790961
| 32> H   -2.06435846   0.50224320   1.23124796
| 33> H   -4.07112534  -0.86095614   0.71645220
| 34> H   -3.45271925  -1.19853707  -0.89808846
| 35> H   -2.61544058  -1.82496664   0.52453138
| 36> C   -0.91214571   0.47487210  -1.73543825
| 37> C    0.40665443   0.30600374  -2.26562326
| 38> H   -1.72014239   0.90695991  -2.31692029
| 39> C    1.44319954   0.06842306  -1.36275034
| 40> C    2.65771879  -0.16854472  -2.07714935
| 41> S    0.89729476   0.26976150  -3.88954684
| 42> C    2.50784093  -0.08487432  -3.42838564
| 43> H    1.63511689   1.14717526  -0.62507888
| 44> H    3.61492802  -0.33471311  -1.60440817
| 45> H    3.26967323  -0.19313398  -4.18541911
| 46> H   -0.63741289  -3.27297245  -0.28013688
| 47> H   -0.98747847  -2.42337311   2.28407805
| 48> H    1.36711807  -1.48646095   3.14851930
| 49> O    1.74529860   2.29535019   0.11679081
| 50> O    0.56535787   1.02694752   1.51324753
| 51> C    1.13777708   2.11377706   1.19156934
| 52> C    1.09437561   3.23135200   2.19113203
| 53> H    0.98037971   4.18942986   1.68906534
| 54> H    2.04337657   3.26073078   2.72923567
| 55> H    0.29672613   3.09058567   2.91494715
| 56> H    3.20525269  -1.86516994   1.23178940
| 57> H    1.93338044  -2.93720414  -0.91871951
| 58> *
| 59>
| 60>                          ****END OF INPUT****
 Total Charge           Charge          ....    1
 Multiplicity           Mult            ....    1
 Number of Electrons    NEL             ....  164
Dispersion correction           -0.030791967
FINAL SINGLE POINT ENERGY     -1288.402466498078
Dispersion correction            ... done
Dispersion correction           -0.030753905
FINAL SINGLE POINT ENERGY     -1288.402711040717
Dispersion correction            ... done
Dispersion correction           -0.030736948
FINAL SINGLE POINT ENERGY     -1288.402803851734
Dispersion correction            ... done
FINAL SINGLE POINT ENERGY     -1288.402863447234
FINAL SINGLE POINT ENERGY     -1288.402910878305
FINAL SINGLE POINT ENERGY     -1288.402937281017
FINAL SINGLE POINT ENERGY     -1288.402950945489
FINAL SINGLE POINT ENERGY     -1288.402961618848
FINAL SINGLE POINT ENERGY     -1288.402969387357
FINAL SINGLE POINT ENERGY     -1288.402978078217
FINAL SINGLE POINT ENERGY     -1288.402983614922
FINAL SINGLE POINT ENERGY     -1288.402987037358
FINAL SINGLE POINT ENERGY     -1288.402989245131
Dispersion correction            ... done
Dispersion correction           -0.030687058
FINAL SINGLE POINT ENERGY     -1288.402990774626
Dispersion correction            ... done
Dispersion correction           -0.030688667
FINAL SINGLE POINT ENERGY     -1288.402991860294
Dispersion correction            ... done
                    ***********************HURRAY********************

CARTESIAN COORDINATES (ANGSTROEM)
---------------------------------
  Ir     0.613842   -0.738812    0.412864
  C      0.156674   -2.854054    0.336458
  C     -0.102399   -2.411296    1.683047
  C      2.137410   -2.059852    1.222143
  C      1.532230   -2.661649    0.069209
  C      1.117695   -1.940853    2.211776
  N     -1.075953    0.107422   -0.508279
  C     -2.347708    0.291204    0.206692
  C     -3.138702    1.508642   -0.250389
  H     -3.970184    1.665401    0.434878
  H     -3.572612    1.385397   -1.243593
  H     -2.532265    2.414630   -0.242282
  C     -3.175128   -0.984915    0.098716
  H     -2.067511    0.442512    1.250294
  H     -4.078831   -0.894666    0.700149
  H     -3.477607   -1.170307   -0.932723
  H     -2.629613   -1.857768    0.453733
  C     -0.928225    0.479463   -1.727234
  C      0.387339    0.310271   -2.262950
  H     -1.738477    0.920308   -2.298723
  C      1.411030    0.020793   -1.358490
  C      2.630756   -0.197267   -2.072904
  S      0.894331    0.343737   -3.881642
  C      2.495517   -0.048948   -3.420288
  H      1.632661    1.162285   -0.667682
  H      3.581394   -0.397695   -1.599982
  H      3.264393   -0.131509   -4.173463
  H     -0.558615   -3.300986   -0.338369
  H     -1.042348   -2.466439    2.210369
  H      1.245262   -1.493725    3.187512
  O      1.750268    2.302563    0.058797
  O      0.593987    1.040581    1.481577
  C      1.160134    2.122664    1.147674
  C      1.139790    3.247464    2.139170
  H      1.018873    4.202907    1.633755
  H      2.098947    3.276949    2.659038
  H      0.355576    3.112829    2.878544
  H      3.183345   -1.831438    1.356184
  H      2.034094   -2.916656   -0.852845

 Multiplicity           Mult            ....    1
 Number of Electrons    NEL             ....  164
 Basis Dimension        Dim             ....  358

ORBITAL ENERGIES
----------------

  NO   OCC          E(Eh)            E(eV)
   0   2.0000     -89.763366     -2442.5854
   1   2.0000     -19.638047      -534.3784
   2   2.0000     -19.629963      -534.1585
   3   2.0000     -14.832537      -403.6138
   4   2.0000     -10.701129      -291.1925
   5   2.0000     -10.653425      -289.8944
   6   2.0000     -10.623928      -289.0918
   7   2.0000     -10.623294      -289.0745
   8   2.0000     -10.622131      -289.0429
   9   2.0000     -10.620228      -288.9911
  10   2.0000     -10.612952      -288.7931
  11   2.0000     -10.612206      -288.7728
  12   2.0000     -10.609955      -288.7116
  13   2.0000     -10.609686      -288.7042
  14   2.0000     -10.590016      -288.1690
  15   2.0000     -10.588912      -288.1389
  16   2.0000     -10.552533      -287.1490
  17   2.0000     -10.550184      -287.0851
  18   2.0000     -10.547162      -287.0029
  19   2.0000      -8.402722      -228.6497
  20   2.0000      -6.292598      -171.2303
  21   2.0000      -6.289067      -171.1342
  22   2.0000      -6.287691      -171.0968
  23   2.0000      -4.018607      -109.3519
  24   2.0000      -2.335371       -63.5487
  25   2.0000      -2.305239       -62.7287
  26   2.0000      -2.301613       -62.6301
  27   2.0000      -1.329814       -36.1861
  28   2.0000      -1.231306       -33.5055
  29   2.0000      -1.205777       -32.8109
  30   2.0000      -1.157966       -31.5099
  31   2.0000      -1.127098       -30.6699
  32   2.0000      -1.023750       -27.8577
  33   2.0000      -0.970975       -26.4216
  34   2.0000      -0.968875       -26.3644
  35   2.0000      -0.964072       -26.2337
  36   2.0000      -0.957976       -26.0679
  37   2.0000      -0.942568       -25.6486
  38   2.0000      -0.899583       -24.4789
  39   2.0000      -0.871233       -23.7074
  40   2.0000      -0.797387       -21.6980
  41   2.0000      -0.781567       -21.2675
  42   2.0000      -0.774854       -21.0849
  43   2.0000      -0.774038       -21.0627
  44   2.0000      -0.763573       -20.7779
  45   2.0000      -0.759028       -20.6542
  46   2.0000      -0.741810       -20.1857
  47   2.0000      -0.721197       -19.6248
  48   2.0000      -0.696941       -18.9647
  49   2.0000      -0.684457       -18.6250
  50   2.0000      -0.663949       -18.0670
  51   2.0000      -0.662681       -18.0325
  52   2.0000      -0.649731       -17.6801
  53   2.0000      -0.638130       -17.3644
  54   2.0000      -0.629607       -17.1325
  55   2.0000      -0.625442       -17.0191
  56   2.0000      -0.620848       -16.8941
  57   2.0000      -0.610194       -16.6042
  58   2.0000      -0.599678       -16.3181
  59   2.0000      -0.595345       -16.2002
  60   2.0000      -0.594182       -16.1685
  61   2.0000      -0.590645       -16.0723
  62   2.0000      -0.578401       -15.7391
  63   2.0000      -0.570738       -15.5306
  64   2.0000      -0.564444       -15.3593
  65   2.0000      -0.561545       -15.2804
  66   2.0000      -0.556621       -15.1464
  67   2.0000      -0.545577       -14.8459
  68   2.0000      -0.542257       -14.7556
  69   2.0000      -0.535191       -14.5633
  70   2.0000      -0.529927       -14.4201
  71   2.0000      -0.517914       -14.0932
  72   2.0000      -0.512469       -13.9450
  73   2.0000      -0.502615       -13.6769
  74   2.0000      -0.497131       -13.5276
  75   2.0000      -0.488674       -13.2975
  76   2.0000      -0.476315       -12.9612
  77   2.0000      -0.452111       -12.3026
  78   2.0000      -0.443383       -12.0651
  79   2.0000      -0.417451       -11.3594
  80   2.0000      -0.414314       -11.2741
  81   2.0000      -0.392911       -10.6916
  82   0.0000      -0.202704        -5.5158
  83   0.0000      -0.143065        -3.8930
  84   0.0000      -0.126463        -3.4412
  85   0.0000      -0.085897        -2.3374
  86   0.0000      -0.074827        -2.0362

MULLIKEN ATOMIC CHARGES
-----------------------
   0 Ir:    0.609930
   1 C :   -0.253241
   2 C :   -0.254013
   3 C :   -0.277133
   4 C :   -0.219109
   5 C :   -0.151670
   6 N :   -0.434723
   7 C :   -0.126373
   8 C :   -0.679998
   9 H :    0.268770
  10 H :    0.224360
  11 H :    0.252780
  12 C :   -0.632979
  13 H :    0.277508
  14 H :    0.257927
  15 H :    0.232770
  16 H :    0.234004
  17 C :    0.069098
  18 C :   -0.120089
  19 H :    0.284384
  20 C :   -0.570545
  21 C :   -0.099475
  22 S :    0.343208
  23 C :   -0.425401
  24 H :    0.474343
  25 H :    0.267058
  26 H :    0.297831
  27 H :    0.284099
  28 H :    0.280209
  29 H :    0.295669
  30 O :   -0.482543
  31 O :   -0.502355
  32 C :    0.633803
  33 C :   -0.743834
  34 H :    0.273818
  35 H :    0.276678
  36 H :    0.263079
  37 H :    0.280155
  38 H :    0.291998
Sum of atomic charges:    1.0000000

LOEWDIN ATOMIC CHARGES
----------------------
   0 Ir:   -0.262187
   1 C :   -0.062506
   2 C :   -0.098345
   3 C :   -0.100876
   4 C :   -0.039247
   5 C :   -0.019002
   6 N :   -0.004189
   7 C :   -0.069343
   8 C :   -0.361912
   9 H :    0.155935
  10 H :    0.132732
  11 H :    0.142901
  12 C :   -0.343904
  13 H :    0.153750
  14 H :    0.150335
  15 H :    0.138064
  16 H :    0.133384
  17 C :    0.028416
  18 C :   -0.192973
  19 H :    0.159919
  20 C :   -0.218730
  21 C :   -0.129342
  22 S :    0.497261
  23 C :   -0.256874
  24 H :    0.367121
  25 H :    0.162128
  26 H :    0.169341
  27 H :    0.181528
  28 H :    0.178394
  29 H :    0.186751
  30 O :   -0.257981
  31 O :   -0.175874
  32 C :    0.166972
  33 C :   -0.371201
  34 H :    0.165138
  35 H :    0.172904
  36 H :    0.156762
  37 H :    0.180823
  38 H :    0.183929

  Mayer bond orders larger than 0.100000
B(  0-Ir,  1-C ) :   0.4553 B(  0-Ir,  2-C ) :   0.3861 B(  0-Ir,  3-C ) :   0.4717
B(  0-Ir,  4-C ) :   0.4217 B(  0-Ir,  5-C ) :   0.3591 B(  0-Ir,  6-N ) :   0.4648
B(  0-Ir, 20-C ) :   0.5235 B(  0-Ir, 31-O ) :   0.5097 B(  1-C ,  2-C ) :   1.1255
B(  1-C ,  4-C ) :   1.2181 B(  1-C , 27-H ) :   0.9092 B(  2-C ,  5-C ) :   1.2345
B(  2-C , 28-H ) :   0.9102 B(  3-C ,  4-C ) :   1.1463 B(  3-C ,  5-C ) :   1.1632
B(  3-C , 37-H ) :   0.9143 B(  4-C , 38-H ) :   0.8996 B(  5-C , 29-H ) :   0.9021
B(  6-N ,  7-C ) :   0.8964 B(  6-N , 17-C ) :   1.6443 B(  7-C ,  8-C ) :   0.9902
B(  7-C , 12-C ) :   0.9669 B(  7-C , 13-H ) :   0.8779 B(  8-C ,  9-H ) :   0.9049
B(  8-C , 10-H ) :   0.9131 B(  8-C , 11-H ) :   0.9126 B( 12-C , 14-H ) :   0.9080
B( 12-C , 15-H ) :   0.9152 B( 12-C , 16-H ) :   0.9119 B( 17-C , 18-C ) :   1.1179
B( 17-C , 19-H ) :   0.8767 B( 18-C , 20-C ) :   1.2219 B( 18-C , 22-S ) :   1.2372
B( 20-C , 21-C ) :   1.2647 B( 20-C , 24-H ) :   0.3170 B( 21-C , 23-C ) :   1.5390
B( 21-C , 25-H ) :   0.9021 B( 22-S , 23-C ) :   1.2206 B( 23-C , 26-H ) :   0.8916
B( 24-H , 30-O ) :   0.3660 B( 30-O , 32-C ) :   1.5410 B( 31-O , 32-C ) :   1.3987
B( 32-C , 33-C ) :   0.9448 B( 33-C , 34-H ) :   0.8994 B( 33-C , 35-H ) :   0.8924
B( 33-C , 36-H ) :   0.9076

Dispersion correction           -0.030689277
FINAL SINGLE POINT ENERGY     -1288.402992503155

DIPOLE MOMENT
-------------
                                X             Y             Z
Electronic contribution:     37.52720     -74.60969      70.27475
Nuclear contribution   :    -38.10737      74.25784     -70.50047
                        -----------------------------------------
Total Dipole Moment    :     -0.58017      -0.35186      -0.22572
                        -----------------------------------------
Magnitude (a.u.)       :      0.71508
Magnitude (Debye)      :      1.81760

Rotational constants in cm-1:     0.010556     0.008858     0.008225
Rotational constants in MHz :   316.473771   265.545100   246.573262

                             ****ORCA TERMINATED NORMALLY****
TOTAL RUN TIME: 0 days 2 hours 2 minutes 45 seconds 187 msec
