                         Program Version 5.0.3 -  RELEASE  -
|  1> ! Opt PBEh-3c
|  2> %geom Constraints
|  3> { B 0 20 2.3 C }
|  4> { B 24 30 1.3571428571428572 C }
|  5>     end
|  6> end
|  7> %output
|  8> xyzfile=True
|  9> end
| 10> %scf
| 11> maxiter 250
| 12> end
| 13> %output
| 14> Print[P_Hirshfeld] = 1
| 15> end
| 16> % maxcore
| 17> 4000
| 18> *xyz 1 1
| 19> Ir   0.60297761  -0.72838964   0.47141417
| 20> C    0.06468907  -2.82129113   0.37907865
| 21> C    0.02159487  -2.35435707   1.74002087
| 22> C    2.18516321  -2.12427461   0.96665420
| 23> C    1.37873008  -2.66373073  -0.10304378
| 24> C    1.35161003  -1.96544646   2.09291250
| 25> N   -1.04283340   0.13135604  -0.51388349
| 26> C   -2.31960870   0.39867556   0.16906269
| 27> C   -3.10684804   1.55069211  -0.43749046
| 28> H   -3.93667640   1.79711792   0.22347362
| 29> H   -3.54486921   1.30258313  -1.40524824
| 30> H   -2.49862764   2.44897369  -0.54586814
| 31> C   -3.14827281  -0.87974803   0.22098983
| 32> H   -2.03999193   0.67441349   1.18693866
| 33> H   -4.06259173  -0.70306801   0.78577002
| 34> H   -3.43289148  -1.20694381  -0.77988140
| 35> H   -2.61516670  -1.69314642   0.71061906
| 36> C   -0.87232361   0.38923656  -1.75645344
| 37> C    0.45968012   0.21439522  -2.27062782
| 38> H   -1.67945970   0.75854498  -2.38220841
| 39> C    1.54880235   0.29774041  -1.41046050
| 40> C    2.75170807  -0.01577127  -2.10509624
| 41> S    0.89350986  -0.19969057  -3.86338810
| 42> C    2.54753668  -0.29539856  -3.42216307
| 43> H    1.55757764   1.25455064  -0.60049248
| 44> H    3.73455751   0.02129597  -1.65828814
| 45> H    3.28742380  -0.53215841  -4.17170857
| 46> H   -0.77172607  -3.20560428  -0.18678735
| 47> H   -0.82860916  -2.38255517   2.40498256
| 48> H    1.64962474  -1.54564175   3.04321257
| 49> O    1.50438050   2.37351383   0.19065085
| 50> O    0.54184915   0.96567918   1.62337755
| 51> C    1.00770745   2.11203605   1.29512861
| 52> C    0.95474853   3.16605818   2.36230429
| 53> H    0.93759906   4.16063288   1.92485862
| 54> H    1.85328155   3.08957800   2.97765327
| 55> H    0.09759004   3.02908205   3.01736876
| 56> H    3.24184616  -1.90837035   0.92282350
| 57> H    1.72567842  -2.91137955  -1.09546520
| 58> *
| 59>
| 60>                          ****END OF INPUT****
 Total Charge           Charge          ....    1
 Multiplicity           Mult            ....    1
 Number of Electrons    NEL             ....  164
Dispersion correction           -0.030781329
FINAL SINGLE POINT ENERGY     -1288.400349017923
Dispersion correction            ... done
Dispersion correction           -0.030738780
FINAL SINGLE POINT ENERGY     -1288.400507304370
Dispersion correction            ... done
Dispersion correction           -0.030699679
FINAL SINGLE POINT ENERGY     -1288.400617854465
Dispersion correction            ... done
FINAL SINGLE POINT ENERGY     -1288.400665635754
FINAL SINGLE POINT ENERGY     -1288.400697801641
FINAL SINGLE POINT ENERGY     -1288.400708496080
FINAL SINGLE POINT ENERGY     -1288.400718301069
FINAL SINGLE POINT ENERGY     -1288.400729913507
FINAL SINGLE POINT ENERGY     -1288.400741622912
FINAL SINGLE POINT ENERGY     -1288.400755600040
FINAL SINGLE POINT ENERGY     -1288.400759533654
FINAL SINGLE POINT ENERGY     -1288.400761708998
FINAL SINGLE POINT ENERGY     -1288.400762696563
Dispersion correction            ... done
Dispersion correction           -0.030577971
FINAL SINGLE POINT ENERGY     -1288.400764254477
Dispersion correction            ... done
Dispersion correction           -0.030576681
FINAL SINGLE POINT ENERGY     -1288.400765196552
Dispersion correction            ... done
                    ***********************HURRAY********************

CARTESIAN COORDINATES (ANGSTROEM)
---------------------------------
  Ir     0.605569   -0.730878    0.470577
  C      0.108053   -2.833607    0.356183
  C     -0.041825   -2.368820    1.711253
  C      2.169780   -2.096625    1.096125
  C      1.454053   -2.657935   -0.022722
  C      1.246268   -1.949966    2.156225
  N     -1.050186    0.121502   -0.503967
  C     -2.328907    0.355981    0.187226
  C     -3.111467    1.541399   -0.359714
  H     -3.943648    1.753178    0.310095
  H     -3.545110    1.347475   -1.341645
  H     -2.500573    2.442519   -0.417053
  C     -3.160861   -0.921248    0.162040
  H     -2.055506    0.577216    1.219867
  H     -4.072476   -0.781238    0.741471
  H     -3.450382   -1.182171   -0.856748
  H     -2.626633   -1.766928    0.592226
  C     -0.890107    0.413001   -1.741242
  C      0.432940    0.247727   -2.273837
  H     -1.703930    0.797909   -2.348615
  C      1.522692    0.221008   -1.411655
  C      2.716009   -0.064902   -2.134226
  S      0.855222   -0.034303   -3.897979
  C      2.503766   -0.217331   -3.471654
  H      1.610118    1.200224   -0.589915
  H      3.699823   -0.097518   -1.689221
  H      3.236803   -0.407443   -4.240920
  H     -0.674792   -3.240124   -0.267563
  H     -0.937002   -2.410500    2.313347
  H      1.463856   -1.518830    3.123276
  O      1.643578    2.318834    0.177828
  O      0.545199    0.993479    1.589295
  C      1.075525    2.107294    1.262186
  C      1.019087    3.198909    2.289890
  H      0.963055    4.174131    1.812730
  H      1.937992    3.175746    2.878619
  H      0.183057    3.065609    2.971454
  H      3.224728   -1.872742    1.134688
  H      1.875599   -2.900841   -0.987182

 Multiplicity           Mult            ....    1
 Number of Electrons    NEL             ....  164
 Basis Dimension        Dim             ....  358

ORBITAL ENERGIES
----------------

  NO   OCC          E(Eh)            E(eV)
   0   2.0000     -89.760440     -2442.5057
   1   2.0000     -19.632152      -534.2180
   2   2.0000     -19.611524      -533.6567
   3   2.0000     -14.834831      -403.6763
   4   2.0000     -10.692959      -290.9702
   5   2.0000     -10.656267      -289.9718
   6   2.0000     -10.630571      -289.2725
   7   2.0000     -10.628709      -289.2219
   8   2.0000     -10.627408      -289.1865
   9   2.0000     -10.624230      -289.1000
  10   2.0000     -10.623239      -289.0730
  11   2.0000     -10.619696      -288.9766
  12   2.0000     -10.613414      -288.8057
  13   2.0000     -10.607975      -288.6577
  14   2.0000     -10.584994      -288.0323
  15   2.0000     -10.584421      -288.0167
  16   2.0000     -10.554538      -287.2036
  17   2.0000     -10.550595      -287.0963
  18   2.0000     -10.541311      -286.8437
  19   2.0000      -8.399902      -228.5730
  20   2.0000      -6.289818      -171.1547
  21   2.0000      -6.286249      -171.0575
  22   2.0000      -6.284826      -171.0188
  23   2.0000      -4.024524      -109.5129
  24   2.0000      -2.342664       -63.7471
  25   2.0000      -2.309709       -62.8504
  26   2.0000      -2.307456       -62.7891
  27   2.0000      -1.320567       -35.9345
  28   2.0000      -1.222424       -33.2639
  29   2.0000      -1.206865       -32.8405
  30   2.0000      -1.166442       -31.7405
  31   2.0000      -1.124545       -30.6004
  32   2.0000      -1.023518       -27.8513
  33   2.0000      -0.979867       -26.6635
  34   2.0000      -0.972010       -26.4497
  35   2.0000      -0.964709       -26.2511
  36   2.0000      -0.957399       -26.0522
  37   2.0000      -0.936478       -25.4829
  38   2.0000      -0.900598       -24.5065
  39   2.0000      -0.871146       -23.7051
  40   2.0000      -0.796775       -21.6814
  41   2.0000      -0.782294       -21.2873
  42   2.0000      -0.781568       -21.2675
  43   2.0000      -0.779452       -21.2100
  44   2.0000      -0.766665       -20.8620
  45   2.0000      -0.760931       -20.7060
  46   2.0000      -0.741646       -20.1812
  47   2.0000      -0.722328       -19.6556
  48   2.0000      -0.691101       -18.8058
  49   2.0000      -0.680901       -18.5282
  50   2.0000      -0.662713       -18.0333
  51   2.0000      -0.656103       -17.8535
  52   2.0000      -0.647537       -17.6204
  53   2.0000      -0.638323       -17.3697
  54   2.0000      -0.634975       -17.2785
  55   2.0000      -0.632159       -17.2019
  56   2.0000      -0.621917       -16.9232
  57   2.0000      -0.609189       -16.5769
  58   2.0000      -0.602264       -16.3884
  59   2.0000      -0.601560       -16.3693
  60   2.0000      -0.597019       -16.2457
  61   2.0000      -0.589751       -16.0479
  62   2.0000      -0.577358       -15.7107
  63   2.0000      -0.567301       -15.4370
  64   2.0000      -0.562943       -15.3185
  65   2.0000      -0.561784       -15.2869
  66   2.0000      -0.553386       -15.0584
  67   2.0000      -0.547388       -14.8952
  68   2.0000      -0.541065       -14.7231
  69   2.0000      -0.534699       -14.5499
  70   2.0000      -0.528215       -14.3734
  71   2.0000      -0.518350       -14.1050
  72   2.0000      -0.513799       -13.9812
  73   2.0000      -0.501991       -13.6599
  74   2.0000      -0.494431       -13.4542
  75   2.0000      -0.479824       -13.0567
  76   2.0000      -0.473913       -12.8958
  77   2.0000      -0.446803       -12.1581
  78   2.0000      -0.446022       -12.1369
  79   2.0000      -0.418795       -11.3960
  80   2.0000      -0.417512       -11.3611
  81   2.0000      -0.398836       -10.8529
  82   0.0000      -0.201255        -5.4764
  83   0.0000      -0.148230        -4.0335
  84   0.0000      -0.141557        -3.8520
  85   0.0000      -0.087707        -2.3866
  86   0.0000      -0.072544        -1.9740

MULLIKEN ATOMIC CHARGES
-----------------------
   0 Ir:    0.606385
   1 C :   -0.227429
   2 C :   -0.277221
   3 C :   -0.254952
   4 C :   -0.231091
   5 C :   -0.160384
   6 N :   -0.435457
   7 C :   -0.126843
   8 C :   -0.682691
   9 H :    0.269324
  10 H :    0.224542
  11 H :    0.256140
  12 C :   -0.634349
  13 H :    0.280175
  14 H :    0.260537
  15 H :    0.231874
  16 H :    0.231454
  17 C :    0.070473
  18 C :   -0.151515
  19 H :    0.285639
  20 C :   -0.495518
  21 C :   -0.124606
  22 S :    0.327622
  23 C :   -0.427545
  24 H :    0.483880
  25 H :    0.264591
  26 H :    0.296950
  27 H :    0.288012
  28 H :    0.286440
  29 H :    0.302237
  30 O :   -0.485901
  31 O :   -0.521307
  32 C :    0.629352
  33 C :   -0.744604
  34 H :    0.272214
  35 H :    0.272526
  36 H :    0.258589
  37 H :    0.287576
  38 H :    0.294883
Sum of atomic charges:    1.0000000

LOEWDIN ATOMIC CHARGES
----------------------
   0 Ir:   -0.242743
   1 C :   -0.051564
   2 C :   -0.083063
   3 C :   -0.079917
   4 C :   -0.042829
   5 C :   -0.015681
   6 N :   -0.008658
   7 C :   -0.069393
   8 C :   -0.362471
   9 H :    0.156197
  10 H :    0.132835
  11 H :    0.144545
  12 C :   -0.343876
  13 H :    0.155101
  14 H :    0.151434
  15 H :    0.137575
  16 H :    0.132477
  17 C :    0.032021
  18 C :   -0.190822
  19 H :    0.160155
  20 C :   -0.214226
  21 C :   -0.132991
  22 S :    0.484182
  23 C :   -0.259932
  24 H :    0.333805
  25 H :    0.161188
  26 H :    0.168299
  27 H :    0.183511
  28 H :    0.182305
  29 H :    0.190949
  30 O :   -0.267766
  31 O :   -0.190932
  32 C :    0.163718
  33 C :   -0.372760
  34 H :    0.163050
  35 H :    0.170817
  36 H :    0.155013
  37 H :    0.184347
  38 H :    0.186099

  Mayer bond orders larger than 0.100000
B(  0-Ir,  1-C ) :   0.4277 B(  0-Ir,  2-C ) :   0.4788 B(  0-Ir,  3-C ) :   0.4635
B(  0-Ir,  4-C ) :   0.4413 B(  0-Ir,  5-C ) :   0.3969 B(  0-Ir,  6-N ) :   0.4656
B(  0-Ir, 20-C ) :   0.3656 B(  0-Ir, 31-O ) :   0.5418 B(  1-C ,  2-C ) :   1.1234
B(  1-C ,  4-C ) :   1.2366 B(  1-C , 27-H ) :   0.9060 B(  2-C ,  5-C ) :   1.1649
B(  2-C , 28-H ) :   0.9094 B(  3-C ,  4-C ) :   1.1202 B(  3-C ,  5-C ) :   1.2061
B(  3-C , 37-H ) :   0.9096 B(  4-C , 38-H ) :   0.8998 B(  5-C , 29-H ) :   0.8992
B(  6-N ,  7-C ) :   0.8937 B(  6-N , 17-C ) :   1.6599 B(  7-C ,  8-C ) :   0.9907
B(  7-C , 12-C ) :   0.9673 B(  7-C , 13-H ) :   0.8764 B(  8-C ,  9-H ) :   0.9046
B(  8-C , 10-H ) :   0.9131 B(  8-C , 11-H ) :   0.9111 B( 12-C , 14-H ) :   0.9075
B( 12-C , 15-H ) :   0.9155 B( 12-C , 16-H ) :   0.9126 B( 17-C , 18-C ) :   1.0966
B( 17-C , 19-H ) :   0.8760 B( 18-C , 20-C ) :   1.2650 B( 18-C , 22-S ) :   1.2310
B( 20-C , 21-C ) :   1.2822 B( 20-C , 24-H ) :   0.3863 B( 21-C , 23-C ) :   1.5416
B( 21-C , 25-H ) :   0.9043 B( 22-S , 23-C ) :   1.2162 B( 23-C , 26-H ) :   0.8915
B( 24-H , 30-O ) :   0.3056 B( 30-O , 32-C ) :   1.6030 B( 31-O , 32-C ) :   1.3435
B( 32-C , 33-C ) :   0.9469 B( 33-C , 34-H ) :   0.9018 B( 33-C , 35-H ) :   0.8949
B( 33-C , 36-H ) :   0.9084

Dispersion correction           -0.030576872
FINAL SINGLE POINT ENERGY     -1288.400766295666

DIPOLE MOMENT
-------------
                                X             Y             Z
Electronic contribution:     36.91054     -71.60752      75.71491
Nuclear contribution   :    -37.53747      70.83437     -75.91889
                        -----------------------------------------
Total Dipole Moment    :     -0.62693      -0.77315      -0.20397
                        -----------------------------------------
Magnitude (a.u.)       :      1.01608
Magnitude (Debye)      :      2.58266

Rotational constants in cm-1:     0.010531     0.008833     0.008150
Rotational constants in MHz :   315.723410   264.806838   244.343493

                             ****ORCA TERMINATED NORMALLY****
TOTAL RUN TIME: 0 days 1 hours 58 minutes 12 seconds 399 msec
