                         Program Version 5.0.3 -  RELEASE  -
|  1> ! Opt PBEh-3c
|  2> %geom Constraints
|  3> { B 0 20 2.3857142857142857 C }
|  4> { B 24 30 1.3571428571428572 C }
|  5>     end
|  6> end
|  7> %output
|  8> xyzfile=True
|  9> end
| 10> %scf
| 11> maxiter 250
| 12> end
| 13> %output
| 14> Print[P_Hirshfeld] = 1
| 15> end
| 16> % maxcore
| 17> 4000
| 18> *xyz 1 1
| 19> Ir   0.59385342  -0.72951425   0.48469690
| 20> C    0.05629789  -2.81803859   0.37011028
| 21> C    0.04161718  -2.35857743   1.73572865
| 22> C    2.18829690  -2.12874072   0.92358642
| 23> C    1.35894674  -2.65459165  -0.13667593
| 24> C    1.38283335  -1.98161775   2.06918059
| 25> N   -1.04059952   0.13816960  -0.50874285
| 26> C   -2.31880285   0.42371821   0.16446560
| 27> C   -3.10199025   1.56048196  -0.47429670
| 28> H   -3.93262032   1.82689280   0.17790128
| 29> H   -3.53863817   1.28761914  -1.43605070
| 30> H   -2.49109292   2.45390877  -0.60535350
| 31> C   -3.14776455  -0.85263011   0.24840441
| 32> H   -2.04055822   0.72514413   1.17545215
| 33> H   -4.06373475  -0.66011824   0.80517497
| 34> H   -3.42936818  -1.20737814  -0.74391401
| 35> H   -2.61654544  -1.65204476   0.76279835
| 36> C   -0.86168814   0.37040990  -1.75415132
| 37> C    0.47545238   0.18913233  -2.25997504
| 38> H   -1.66544327   0.72468659  -2.39325566
| 39> C    1.57741269   0.38436546  -1.43619934
| 40> C    2.77585199   0.03836383  -2.12169474
| 41> S    0.89515975  -0.35463302  -3.82033908
| 42> C    2.55839003  -0.36776227  -3.40287507
| 43> H    1.54762568   1.30760489  -0.61556588
| 44> H    3.76431393   0.14177800  -1.69824310
| 45> H    3.29224007  -0.65397361  -4.14111307
| 46> H   -0.79294042  -3.19476122  -0.18159863
| 47> H   -0.79529823  -2.39179309   2.41743910
| 48> H    1.70144144  -1.57404733   3.01804175
| 49> O    1.43828013   2.39677978   0.21060476
| 50> O    0.54051237   0.94856509   1.64745240
| 51> C    0.97631048   2.11102847   1.32076025
| 52> C    0.92846758   3.14402120   2.40911117
| 53> H    0.88803204   4.14576699   1.98993924
| 54> H    1.84003671   3.07064195   3.00551397
| 55> H    0.08688771   2.98322322   3.07894979
| 56> H    3.24231610  -1.90549205   0.85504127
| 57> H    1.68587867  -2.88739804  -1.13956854
| 58> *
| 59>
| 60>                          ****END OF INPUT****
 Total Charge           Charge          ....    1
 Multiplicity           Mult            ....    1
 Number of Electrons    NEL             ....  164
Dispersion correction           -0.030789611
FINAL SINGLE POINT ENERGY     -1288.398122694332
Dispersion correction            ... done
Dispersion correction           -0.030744482
FINAL SINGLE POINT ENERGY     -1288.398266922928
Dispersion correction            ... done
Dispersion correction           -0.030706395
FINAL SINGLE POINT ENERGY     -1288.398344298880
Dispersion correction            ... done
FINAL SINGLE POINT ENERGY     -1288.398372838378
FINAL SINGLE POINT ENERGY     -1288.398379970823
FINAL SINGLE POINT ENERGY     -1288.398394989078
FINAL SINGLE POINT ENERGY     -1288.398398854231
FINAL SINGLE POINT ENERGY     -1288.398403477856
FINAL SINGLE POINT ENERGY     -1288.398406072540
FINAL SINGLE POINT ENERGY     -1288.398408093924
FINAL SINGLE POINT ENERGY     -1288.398409100362
FINAL SINGLE POINT ENERGY     -1288.398409261873
FINAL SINGLE POINT ENERGY     -1288.398409191584
Dispersion correction            ... done
Dispersion correction           -0.030611194
FINAL SINGLE POINT ENERGY     -1288.398409337920
Dispersion correction            ... done
Dispersion correction           -0.030609288
FINAL SINGLE POINT ENERGY     -1288.398409850547
Dispersion correction            ... done
                    ***********************HURRAY********************

CARTESIAN COORDINATES (ANGSTROEM)
---------------------------------
  Ir     0.602484   -0.733857    0.485584
  C      0.088462   -2.829062    0.356508
  C     -0.004688   -2.369531    1.718925
  C      2.182505   -2.116740    1.023361
  C      1.417270   -2.656644   -0.075742
  C      1.308917   -1.973413    2.121028
  N     -1.039390    0.126937   -0.502139
  C     -2.316794    0.391236    0.181643
  C     -3.089726    1.564087   -0.403533
  H     -3.920074    1.805109    0.258785
  H     -3.525281    1.341462   -1.378482
  H     -2.471233    2.457609   -0.490459
  C     -3.156372   -0.880889    0.200087
  H     -2.040365    0.642953    1.206459
  H     -4.067500   -0.714027    0.772981
  H     -3.446648   -1.176461   -0.808979
  H     -2.627812   -1.713242    0.662375
  C     -0.873599    0.379581   -1.746313
  C      0.455105    0.207390   -2.270603
  H     -1.685652    0.742807   -2.369653
  C      1.557921    0.315236   -1.432274
  C      2.750792   -0.002822   -2.140340
  S      0.866752   -0.226544   -3.865953
  C      2.527459   -0.304636   -3.449805
  H      1.567578    1.265025   -0.607770
  H      3.740446    0.047043   -1.710088
  H      3.256963   -0.548580   -4.207225
  H     -0.723899   -3.219201   -0.239481
  H     -0.876445   -2.409566    2.354928
  H      1.569670   -1.556958    3.083757
  O      1.504933    2.366909    0.182017
  O      0.550020    0.965563    1.626841
  C      1.011219    2.111069    1.289234
  C      0.959812    3.172750    2.348761
  H      0.900473    4.161866    1.902329
  H      1.880215    3.130305    2.934401
  H      0.128082    3.018199    3.031763
  H      3.238305   -1.892710    1.016851
  H      1.799468   -2.889066   -1.059042

 Multiplicity           Mult            ....    1
 Number of Electrons    NEL             ....  164
 Basis Dimension        Dim             ....  358

ORBITAL ENERGIES
----------------

  NO   OCC          E(Eh)            E(eV)
   0   2.0000     -89.759537     -2442.4812
   1   2.0000     -19.630037      -534.1605
   2   2.0000     -19.604536      -533.4665
   3   2.0000     -14.836177      -403.7129
   4   2.0000     -10.690012      -290.8900
   5   2.0000     -10.657759      -290.0124
   6   2.0000     -10.632432      -289.3232
   7   2.0000     -10.631753      -289.3047
   8   2.0000     -10.629238      -289.2363
   9   2.0000     -10.627523      -289.1896
  10   2.0000     -10.625069      -289.1228
  11   2.0000     -10.623851      -289.0897
  12   2.0000     -10.614165      -288.8261
  13   2.0000     -10.607477      -288.6441
  14   2.0000     -10.582877      -287.9747
  15   2.0000     -10.581919      -287.9486
  16   2.0000     -10.555463      -287.2287
  17   2.0000     -10.550801      -287.1019
  18   2.0000     -10.538919      -286.7786
  19   2.0000      -8.398982      -228.5479
  20   2.0000      -6.288941      -171.1308
  21   2.0000      -6.285357      -171.0332
  22   2.0000      -6.283849      -170.9922
  23   2.0000      -4.026581      -109.5688
  24   2.0000      -2.345222       -63.8167
  25   2.0000      -2.311606       -62.9020
  26   2.0000      -2.309573       -62.8467
  27   2.0000      -1.316725       -35.8299
  28   2.0000      -1.219278       -33.1782
  29   2.0000      -1.207957       -32.8702
  30   2.0000      -1.169408       -31.8212
  31   2.0000      -1.123610       -30.5750
  32   2.0000      -1.023924       -27.8624
  33   2.0000      -0.983352       -26.7584
  34   2.0000      -0.974631       -26.5211
  35   2.0000      -0.963506       -26.2183
  36   2.0000      -0.956797       -26.0358
  37   2.0000      -0.933989       -25.4151
  38   2.0000      -0.901222       -24.5235
  39   2.0000      -0.871355       -23.7108
  40   2.0000      -0.796624       -21.6773
  41   2.0000      -0.785104       -21.3638
  42   2.0000      -0.784106       -21.3366
  43   2.0000      -0.779112       -21.2007
  44   2.0000      -0.769234       -20.9319
  45   2.0000      -0.760059       -20.6823
  46   2.0000      -0.741968       -20.1900
  47   2.0000      -0.722402       -19.6576
  48   2.0000      -0.691321       -18.8118
  49   2.0000      -0.678522       -18.4635
  50   2.0000      -0.663003       -18.0412
  51   2.0000      -0.653702       -17.7881
  52   2.0000      -0.647919       -17.6308
  53   2.0000      -0.638451       -17.3731
  54   2.0000      -0.637218       -17.3396
  55   2.0000      -0.632873       -17.2214
  56   2.0000      -0.622476       -16.9384
  57   2.0000      -0.609449       -16.5840
  58   2.0000      -0.605021       -16.4635
  59   2.0000      -0.604263       -16.4428
  60   2.0000      -0.596426       -16.2296
  61   2.0000      -0.588931       -16.0256
  62   2.0000      -0.576423       -15.6853
  63   2.0000      -0.567425       -15.4404
  64   2.0000      -0.562413       -15.3040
  65   2.0000      -0.560166       -15.2429
  66   2.0000      -0.552502       -15.0343
  67   2.0000      -0.547936       -14.9101
  68   2.0000      -0.540273       -14.7016
  69   2.0000      -0.534688       -14.5496
  70   2.0000      -0.528019       -14.3681
  71   2.0000      -0.518951       -14.1214
  72   2.0000      -0.514551       -14.0016
  73   2.0000      -0.503949       -13.7132
  74   2.0000      -0.492779       -13.4092
  75   2.0000      -0.480200       -13.0669
  76   2.0000      -0.468793       -12.7565
  77   2.0000      -0.447439       -12.1754
  78   2.0000      -0.445185       -12.1141
  79   2.0000      -0.419789       -11.4230
  80   2.0000      -0.417678       -11.3656
  81   2.0000      -0.400396       -10.8953
  82   0.0000      -0.200860        -5.4657
  83   0.0000      -0.155624        -4.2348
  84   0.0000      -0.141199        -3.8422
  85   0.0000      -0.090181        -2.4540
  86   0.0000      -0.073491        -1.9998

MULLIKEN ATOMIC CHARGES
-----------------------
   0 Ir:    0.611589
   1 C :   -0.220874
   2 C :   -0.284298
   3 C :   -0.247513
   4 C :   -0.235310
   5 C :   -0.163056
   6 N :   -0.434356
   7 C :   -0.127344
   8 C :   -0.683521
   9 H :    0.269507
  10 H :    0.224635
  11 H :    0.258152
  12 C :   -0.634649
  13 H :    0.280303
  14 H :    0.261736
  15 H :    0.231539
  16 H :    0.230797
  17 C :    0.070544
  18 C :   -0.167720
  19 H :    0.286642
  20 C :   -0.468513
  21 C :   -0.133841
  22 S :    0.318063
  23 C :   -0.427914
  24 H :    0.492218
  25 H :    0.263802
  26 H :    0.296495
  27 H :    0.289416
  28 H :    0.289011
  29 H :    0.304326
  30 O :   -0.487711
  31 O :   -0.528066
  32 C :    0.626325
  33 C :   -0.745063
  34 H :    0.271394
  35 H :    0.270550
  36 H :    0.256825
  37 H :    0.290299
  38 H :    0.295581
Sum of atomic charges:    1.0000000

LOEWDIN ATOMIC CHARGES
----------------------
   0 Ir:   -0.231829
   1 C :   -0.048297
   2 C :   -0.074266
   3 C :   -0.070211
   4 C :   -0.045434
   5 C :   -0.017517
   6 N :   -0.009861
   7 C :   -0.069539
   8 C :   -0.362673
   9 H :    0.156290
  10 H :    0.132950
  11 H :    0.145579
  12 C :   -0.343785
  13 H :    0.155208
  14 H :    0.151956
  15 H :    0.137420
  16 H :    0.132480
  17 C :    0.034118
  18 C :   -0.191075
  19 H :    0.160550
  20 C :   -0.209154
  21 C :   -0.136774
  22 S :    0.476558
  23 C :   -0.260881
  24 H :    0.319826
  25 H :    0.160932
  26 H :    0.167814
  27 H :    0.184223
  28 H :    0.183750
  29 H :    0.192184
  30 O :   -0.271728
  31 O :   -0.195868
  32 C :    0.162215
  33 C :   -0.373695
  34 H :    0.161798
  35 H :    0.169769
  36 H :    0.154613
  37 H :    0.185644
  38 H :    0.186710

  Mayer bond orders larger than 0.100000
B(  0-Ir,  1-C ) :   0.4240 B(  0-Ir,  2-C ) :   0.5081 B(  0-Ir,  3-C ) :   0.4619
B(  0-Ir,  4-C ) :   0.4475 B(  0-Ir,  5-C ) :   0.4009 B(  0-Ir,  6-N ) :   0.4667
B(  0-Ir, 20-C ) :   0.3140 B(  0-Ir, 31-O ) :   0.5547 B(  1-C ,  2-C ) :   1.1200
B(  1-C ,  4-C ) :   1.2406 B(  1-C , 27-H ) :   0.9050 B(  2-C ,  5-C ) :   1.1490
B(  2-C , 28-H ) :   0.9086 B(  3-C ,  4-C ) :   1.1130 B(  3-C ,  5-C ) :   1.2195
B(  3-C , 37-H ) :   0.9078 B(  4-C , 38-H ) :   0.8999 B(  5-C , 29-H ) :   0.8983
B(  6-N ,  7-C ) :   0.8922 B(  6-N , 17-C ) :   1.6686 B(  7-C ,  8-C ) :   0.9910
B(  7-C , 12-C ) :   0.9679 B(  7-C , 13-H ) :   0.8759 B(  8-C ,  9-H ) :   0.9045
B(  8-C , 10-H ) :   0.9132 B(  8-C , 11-H ) :   0.9101 B( 12-C , 14-H ) :   0.9071
B( 12-C , 15-H ) :   0.9156 B( 12-C , 16-H ) :   0.9128 B( 17-C , 18-C ) :   1.0858
B( 17-C , 19-H ) :   0.8757 B( 18-C , 20-C ) :   1.2796 B( 18-C , 22-S ) :   1.2261
B( 20-C , 21-C ) :   1.2822 B( 20-C , 24-H ) :   0.4116 B( 21-C , 23-C ) :   1.5420
B( 21-C , 25-H ) :   0.9051 B( 22-S , 23-C ) :   1.2128 B( 23-C , 26-H ) :   0.8919
B( 24-H , 30-O ) :   0.2833 B( 30-O , 32-C ) :   1.6277 B( 31-O , 32-C ) :   1.3224
B( 32-C , 33-C ) :   0.9477 B( 33-C , 34-H ) :   0.9030 B( 33-C , 35-H ) :   0.8960
B( 33-C , 36-H ) :   0.9086

Dispersion correction           -0.030608330
FINAL SINGLE POINT ENERGY     -1288.398410393039

DIPOLE MOMENT
-------------
                                X             Y             Z
Electronic contribution:     36.71499     -70.72698      76.98467
Nuclear contribution   :    -37.33762      69.78772     -77.16374
                        -----------------------------------------
Total Dipole Moment    :     -0.62263      -0.93926      -0.17907
                        -----------------------------------------
Magnitude (a.u.)       :      1.14102
Magnitude (Debye)      :      2.90025

Rotational constants in cm-1:     0.010551     0.008896     0.008131
Rotational constants in MHz :   316.323456   266.708282   243.774623

                             ****ORCA TERMINATED NORMALLY****
TOTAL RUN TIME: 0 days 1 hours 52 minutes 22 seconds 768 msec
