                         Program Version 5.0.3 -  RELEASE  -
|  1> ! Opt PBEh-3c
|  2> %geom Constraints
|  3> { B 0 20 2.3 C }
|  4> { B 24 30 1.4857142857142858 C }
|  5>     end
|  6> end
|  7> %output
|  8> xyzfile=True
|  9> end
| 10> %scf
| 11> maxiter 250
| 12> end
| 13> %output
| 14> Print[P_Hirshfeld] = 1
| 15> end
| 16> % maxcore
| 17> 4000
| 18> *xyz 1 1
| 19> Ir   0.61386701  -0.70649361   0.42098806
| 20> C    0.06795212  -2.79903602   0.33842672
| 21> C    0.12430379  -2.34069453   1.70265424
| 22> C    2.22366606  -2.10957028   0.77795194
| 23> C    1.34198892  -2.63876168  -0.23766121
| 24> C    1.48004733  -1.96020160   1.96435817
| 25> N   -1.04748657   0.16768251  -0.52932705
| 26> C   -2.31081605   0.48247477   0.15449297
| 27> C   -3.11306385   1.57926700  -0.52718094
| 28> H   -3.93637018   1.86988325   0.12396220
| 29> H   -3.56147667   1.25675728  -1.46822227
| 30> H   -2.51301856   2.47134448  -0.70903128
| 31> C   -3.12753633  -0.79310126   0.32382936
| 32> H   -2.00961631   0.83648234   1.14153304
| 33> H   -4.03357130  -0.57437504   0.88689413
| 34> H   -3.42582177  -1.20393684  -0.64156561
| 35> H   -2.58093287  -1.55829062   0.87313936
| 36> C   -0.86614230   0.38264255  -1.77483675
| 37> C    0.47971843   0.15452026  -2.24842388
| 38> H   -1.65183604   0.74975072  -2.42838451
| 39> C    1.56712814   0.39942734  -1.41128148
| 40> C    2.77996620  -0.00240052  -2.04697900
| 41> S    0.92638747  -0.53007723  -3.73826511
| 42> C    2.58563717  -0.51672711  -3.28926284
| 43> H    1.52165485   1.31527720  -0.67864477
| 44> H    3.75909888   0.13728349  -1.61241777
| 45> H    3.32966921  -0.86833939  -3.98790018
| 46> H   -0.81031435  -3.17322693  -0.16780463
| 47> H   -0.67667251  -2.36985108   2.42629748
| 48> H    1.84821538  -1.55047935   2.89402678
| 49> O    1.31285319   2.48385043   0.23832768
| 50> O    0.53500406   0.92871243   1.63437437
| 51> C    0.90586022   2.13043070   1.34194717
| 52> C    0.83969643   3.09982874   2.48968984
| 53> H    0.80119400   4.12334270   2.12704331
| 54> H    1.74034936   2.99388279   3.09756386
| 55> H   -0.01143229   2.90131139   3.13779705
| 56> H    3.27298152  -1.88690505   0.65559364
| 57> H    1.61823826  -2.88249427  -1.25296199
| 58> *
| 59>
| 60>                          ****END OF INPUT****
 Total Charge           Charge          ....    1
 Multiplicity           Mult            ....    1
 Number of Electrons    NEL             ....  164
Dispersion correction           -0.031119881
FINAL SINGLE POINT ENERGY     -1288.400384852348
Dispersion correction            ... done
Dispersion correction           -0.031138050
FINAL SINGLE POINT ENERGY     -1288.399115052988
Dispersion correction            ... done
Dispersion correction           -0.031070240
FINAL SINGLE POINT ENERGY     -1288.400526219345
Dispersion correction            ... done
FINAL SINGLE POINT ENERGY     -1288.399423103496
FINAL SINGLE POINT ENERGY     -1288.400580426727
FINAL SINGLE POINT ENERGY     -1288.400583032306
FINAL SINGLE POINT ENERGY     -1288.400630129508
FINAL SINGLE POINT ENERGY     -1288.400642989845
Dispersion correction            ... done
Dispersion correction           -0.030982319
FINAL SINGLE POINT ENERGY     -1288.400654991290
Dispersion correction            ... done
Dispersion correction           -0.030970876
FINAL SINGLE POINT ENERGY     -1288.400664708395
Dispersion correction            ... done
                    ***********************HURRAY********************

CARTESIAN COORDINATES (ANGSTROEM)
---------------------------------
  Ir     0.616574   -0.707685    0.424398
  C      0.071883   -2.803305    0.347905
  C      0.105849   -2.342844    1.711004
  C      2.220019   -2.109240    0.817739
  C      1.355239   -2.644132   -0.208830
  C      1.454794   -1.955762    1.991066
  N     -1.046276    0.159683   -0.529197
  C     -2.310577    0.461497    0.159203
  C     -3.109278    1.576285   -0.497535
  H     -3.932135    1.854412    0.159586
  H     -3.557989    1.276274   -1.445748
  H     -2.506218    2.470170   -0.659055
  C     -3.131448   -0.815518    0.296346
  H     -2.011244    0.791189    1.155152
  H     -4.037841   -0.608257    0.863240
  H     -3.429203   -1.201977   -0.679212
  H     -2.587462   -1.595441    0.827035
  C     -0.871864    0.387410   -1.774582
  C      0.469788    0.170801   -2.258159
  H     -1.663589    0.757793   -2.418733
  C      1.550204    0.346955   -1.393862
  C      2.764895   -0.029545   -2.042149
  S      0.923186   -0.424232   -3.781991
  C      2.577111   -0.460907   -3.317065
  H      1.522160    1.280090   -0.661439
  H      3.741556    0.069721   -1.591228
  H      3.324178   -0.776728   -4.029419
  H     -0.797057   -3.181464   -0.171296
  H     -0.706608   -2.370734    2.421623
  H      1.807077   -1.541322    2.924829
  O      1.350940    2.464970    0.218386
  O      0.534918    0.941062    1.625423
  C      0.925578    2.131390    1.323529
  C      0.862369    3.120160    2.454151
  H      0.836602    4.138162    2.075292
  H      1.758452    3.014407    3.068753
  H      0.005308    2.939868    3.099620
  H      3.272048   -1.890301    0.714142
  H      1.647431   -2.893712   -1.218183

 Multiplicity           Mult            ....    1
 Number of Electrons    NEL             ....  164
 Basis Dimension        Dim             ....  358

ORBITAL ENERGIES
----------------

  NO   OCC          E(Eh)            E(eV)
   0   2.0000     -89.768657     -2442.7294
   1   2.0000     -19.620865      -533.9109
   2   2.0000     -19.588186      -533.0216
   3   2.0000     -14.841498      -403.8577
   4   2.0000     -10.677985      -290.5627
   5   2.0000     -10.662184      -290.1328
   6   2.0000     -10.637104      -289.4503
   7   2.0000     -10.634086      -289.3682
   8   2.0000     -10.631366      -289.2942
   9   2.0000     -10.627521      -289.1895
  10   2.0000     -10.627153      -289.1795
  11   2.0000     -10.626275      -289.1556
  12   2.0000     -10.615439      -288.8608
  13   2.0000     -10.613388      -288.8050
  14   2.0000     -10.590372      -288.1787
  15   2.0000     -10.587549      -288.1019
  16   2.0000     -10.556614      -287.2601
  17   2.0000     -10.551822      -287.1297
  18   2.0000     -10.531844      -286.5860
  19   2.0000      -8.408025      -228.7940
  20   2.0000      -6.297981      -171.3768
  21   2.0000      -6.294336      -171.2776
  22   2.0000      -6.292937      -171.2395
  23   2.0000      -4.026653      -109.5708
  24   2.0000      -2.345134       -63.8143
  25   2.0000      -2.311637       -62.9029
  26   2.0000      -2.310429       -62.8700
  27   2.0000      -1.302856       -35.4525
  28   2.0000      -1.214390       -33.0452
  29   2.0000      -1.205534       -32.8042
  30   2.0000      -1.169534       -31.8246
  31   2.0000      -1.131834       -30.7988
  32   2.0000      -1.028311       -27.9818
  33   2.0000      -0.983609       -26.7654
  34   2.0000      -0.975079       -26.5332
  35   2.0000      -0.971167       -26.4268
  36   2.0000      -0.963303       -26.2128
  37   2.0000      -0.925065       -25.1723
  38   2.0000      -0.903003       -24.5720
  39   2.0000      -0.876150       -23.8413
  40   2.0000      -0.800698       -21.7881
  41   2.0000      -0.785909       -21.3857
  42   2.0000      -0.785494       -21.3744
  43   2.0000      -0.783251       -21.3133
  44   2.0000      -0.769832       -20.9482
  45   2.0000      -0.754872       -20.5411
  46   2.0000      -0.743379       -20.2284
  47   2.0000      -0.724322       -19.7098
  48   2.0000      -0.692981       -18.8570
  49   2.0000      -0.673486       -18.3265
  50   2.0000      -0.665813       -18.1177
  51   2.0000      -0.650281       -17.6950
  52   2.0000      -0.645676       -17.5698
  53   2.0000      -0.638192       -17.3661
  54   2.0000      -0.634425       -17.2636
  55   2.0000      -0.627556       -17.0767
  56   2.0000      -0.622943       -16.9511
  57   2.0000      -0.614102       -16.7106
  58   2.0000      -0.605399       -16.4737
  59   2.0000      -0.604871       -16.4594
  60   2.0000      -0.600827       -16.3493
  61   2.0000      -0.591648       -16.0996
  62   2.0000      -0.581945       -15.8355
  63   2.0000      -0.574489       -15.6326
  64   2.0000      -0.564761       -15.3679
  65   2.0000      -0.554874       -15.0989
  66   2.0000      -0.552109       -15.0236
  67   2.0000      -0.548448       -14.9240
  68   2.0000      -0.540383       -14.7046
  69   2.0000      -0.536325       -14.5941
  70   2.0000      -0.527856       -14.3637
  71   2.0000      -0.519854       -14.1459
  72   2.0000      -0.515697       -14.0328
  73   2.0000      -0.501986       -13.6597
  74   2.0000      -0.486904       -13.2493
  75   2.0000      -0.481624       -13.1057
  76   2.0000      -0.473148       -12.8750
  77   2.0000      -0.445507       -12.1229
  78   2.0000      -0.441799       -12.0220
  79   2.0000      -0.425144       -11.5688
  80   2.0000      -0.416419       -11.3313
  81   2.0000      -0.401253       -10.9186
  82   0.0000      -0.206147        -5.6095
  83   0.0000      -0.154643        -4.2081
  84   0.0000      -0.141690        -3.8556
  85   0.0000      -0.098172        -2.6714
  86   0.0000      -0.077716        -2.1148

MULLIKEN ATOMIC CHARGES
-----------------------
   0 Ir:    0.607114
   1 C :   -0.212492
   2 C :   -0.279569
   3 C :   -0.242326
   4 C :   -0.246756
   5 C :   -0.163569
   6 N :   -0.423286
   7 C :   -0.123608
   8 C :   -0.690257
   9 H :    0.271946
  10 H :    0.224462
  11 H :    0.260995
  12 C :   -0.636876
  13 H :    0.283891
  14 H :    0.263760
  15 H :    0.230711
  16 H :    0.232943
  17 C :    0.072701
  18 C :   -0.161029
  19 H :    0.291804
  20 C :   -0.504323
  21 C :   -0.110208
  22 S :    0.319728
  23 C :   -0.434476
  24 H :    0.492760
  25 H :    0.269117
  26 H :    0.299422
  27 H :    0.289446
  28 H :    0.290005
  29 H :    0.304978
  30 O :   -0.472979
  31 O :   -0.538506
  32 C :    0.612242
  33 C :   -0.744225
  34 H :    0.268453
  35 H :    0.265117
  36 H :    0.251702
  37 H :    0.289105
  38 H :    0.292084
Sum of atomic charges:    1.0000000

LOEWDIN ATOMIC CHARGES
----------------------
   0 Ir:   -0.239706
   1 C :   -0.040904
   2 C :   -0.073660
   3 C :   -0.061960
   4 C :   -0.058824
   5 C :   -0.020907
   6 N :    0.001294
   7 C :   -0.069705
   8 C :   -0.363970
   9 H :    0.157390
  10 H :    0.133139
  11 H :    0.146992
  12 C :   -0.343326
  13 H :    0.157571
  14 H :    0.152890
  15 H :    0.137102
  16 H :    0.134048
  17 C :    0.032540
  18 C :   -0.171059
  19 H :    0.163301
  20 C :   -0.200171
  21 C :   -0.124938
  22 S :    0.486761
  23 C :   -0.263747
  24 H :    0.297093
  25 H :    0.164048
  26 H :    0.169200
  27 H :    0.183974
  28 H :    0.184476
  29 H :    0.192665
  30 O :   -0.273591
  31 O :   -0.208112
  32 C :    0.149177
  33 C :   -0.376313
  34 H :    0.158960
  35 H :    0.166269
  36 H :    0.152608
  37 H :    0.184870
  38 H :    0.184520

  Mayer bond orders larger than 0.100000
B(  0-Ir,  1-C ) :   0.4160 B(  0-Ir,  2-C ) :   0.4934 B(  0-Ir,  3-C ) :   0.4614
B(  0-Ir,  4-C ) :   0.4454 B(  0-Ir,  5-C ) :   0.3987 B(  0-Ir,  6-N ) :   0.4600
B(  0-Ir, 20-C ) :   0.3174 B(  0-Ir, 31-O ) :   0.5771 B(  1-C ,  2-C ) :   1.1262
B(  1-C ,  4-C ) :   1.2442 B(  1-C , 27-H ) :   0.9042 B(  2-C ,  5-C ) :   1.1480
B(  2-C , 28-H ) :   0.9086 B(  3-C ,  4-C ) :   1.1089 B(  3-C ,  5-C ) :   1.2248
B(  3-C , 37-H ) :   0.9072 B(  4-C , 38-H ) :   0.9008 B(  5-C , 29-H ) :   0.8984
B(  6-N ,  7-C ) :   0.8922 B(  6-N , 17-C ) :   1.6841 B(  7-C ,  8-C ) :   0.9913
B(  7-C , 12-C ) :   0.9680 B(  7-C , 13-H ) :   0.8711 B(  8-C ,  9-H ) :   0.9037
B(  8-C , 10-H ) :   0.9129 B(  8-C , 11-H ) :   0.9083 B( 12-C , 14-H ) :   0.9066
B( 12-C , 15-H ) :   0.9155 B( 12-C , 16-H ) :   0.9117 B( 17-C , 18-C ) :   1.0637
B( 17-C , 19-H ) :   0.8746 B( 18-C , 20-C ) :   1.2626 B( 18-C , 22-S ) :   1.2535
B( 20-C , 21-C ) :   1.2505 B( 20-C , 24-H ) :   0.4731 B( 21-C , 23-C ) :   1.5561
B( 21-C , 25-H ) :   0.9030 B( 22-S , 23-C ) :   1.1989 B( 23-C , 26-H ) :   0.8913
B( 24-H , 30-O ) :   0.2476 B( 30-O , 32-C ) :   1.7003 B( 31-O , 32-C ) :   1.2766
B( 32-C , 33-C ) :   0.9446 B( 33-C , 34-H ) :   0.9055 B( 33-C , 35-H ) :   0.8995
B( 33-C , 36-H ) :   0.9099

Dispersion correction           -0.030972680
FINAL SINGLE POINT ENERGY     -1288.400666152592

DIPOLE MOMENT
-------------
                                X             Y             Z
Electronic contribution:     37.96225     -67.29457      70.34522
Nuclear contribution   :    -38.58752      66.11294     -70.79594
                        -----------------------------------------
Total Dipole Moment    :     -0.62527      -1.18163      -0.45072
                        -----------------------------------------
Magnitude (a.u.)       :      1.41080
Magnitude (Debye)      :      3.58597

Rotational constants in cm-1:     0.010701     0.009168     0.008258
Rotational constants in MHz :   320.811338   274.851084   247.553670

                             ****ORCA TERMINATED NORMALLY****
TOTAL RUN TIME: 0 days 1 hours 33 minutes 7 seconds 857 msec
