                         Program Version 5.0.3 -  RELEASE  -
|  1> ! Opt PBEh-3c
|  2> %geom Constraints
|  3> { B 0 20 2.257142857142857 C }
|  4> { B 24 30 1.3571428571428572 C }
|  5>     end
|  6> end
|  7> %output
|  8> xyzfile=True
|  9> end
| 10> %scf
| 11> maxiter 250
| 12> end
| 13> %output
| 14> Print[P_Hirshfeld] = 1
| 15> end
| 16> % maxcore
| 17> 4000
| 18> *xyz 1 1
| 19> Ir   0.61049576  -0.72846140   0.46699680
| 20> C    0.10989448  -2.83117192   0.34873043
| 21> C   -0.02498688  -2.36949352   1.70630699
| 22> C    2.17991026  -2.09871669   1.06891544
| 23> C    1.45125015  -2.65493399  -0.04467978
| 24> C    1.26902784  -1.95468975   2.13954728
| 25> N   -1.04723065   0.12312394  -0.50452215
| 26> C   -2.32273600   0.36855401   0.18869280
| 27> C   -3.09959145   1.55495997  -0.36399309
| 28> H   -3.92892617   1.77644201   0.30625525
| 29> H   -3.53655520   1.35709125  -1.34364700
| 30> H   -2.48322829   2.45183258  -0.42879260
| 31> C   -3.16081639  -0.90480614   0.17443928
| 32> H   -2.04483831   0.59436660   1.21908260
| 33> H   -4.06953981  -0.75661219   0.75630233
| 34> H   -3.45539710  -1.17100819  -0.84153373
| 35> H   -2.62862394  -1.74989611   0.60849626
| 36> C   -0.88938002   0.39940158  -1.74529744
| 37> C    0.43530514   0.22808107  -2.27444893
| 38> H   -1.70313884   0.77804813  -2.35671049
| 39> C    1.52461306   0.23629483  -1.41013798
| 40> C    2.72179274  -0.05804553  -2.12367607
| 41> S    0.86149950  -0.09865888  -3.88836494
| 42> C    2.51230358  -0.25319375  -3.45539197
| 43> H    1.58098349   1.21018499  -0.60278451
| 44> H    3.70540858  -0.06705979  -1.67713611
| 45> H    3.24791558  -0.45893219  -4.21814375
| 46> H   -0.68055760  -3.23390030  -0.26788781
| 47> H   -0.91377217  -2.41255947   2.31776909
| 48> H    1.49780793  -1.52766280   3.10581947
| 49> O    1.58515781   2.34394230   0.16883282
| 50> O    0.55039317   0.98540887   1.59722161
| 51> C    1.04940115   2.11389270   1.26391719
| 52> C    0.99308601   3.19295973   2.30529901
| 53> H    0.94665375   4.17507741   1.84190662
| 54> H    1.90654747   3.15407419   2.90175386
| 55> H    0.15160548   3.05550419   2.97966158
| 56> H    3.23526231  -1.87497040   1.09622144
| 57> H    1.86237349  -2.89527737  -1.01427977
| 58> *
| 59>
| 60>                          ****END OF INPUT****
 Total Charge           Charge          ....    1
 Multiplicity           Mult            ....    1
 Number of Electrons    NEL             ....  164
Dispersion correction           -0.030752561
FINAL SINGLE POINT ENERGY     -1288.401303712400
Dispersion correction            ... done
Dispersion correction           -0.030708067
FINAL SINGLE POINT ENERGY     -1288.401543113013
Dispersion correction            ... done
Dispersion correction           -0.030685904
FINAL SINGLE POINT ENERGY     -1288.401623585097
Dispersion correction            ... done
FINAL SINGLE POINT ENERGY     -1288.401681384904
FINAL SINGLE POINT ENERGY     -1288.401728429632
FINAL SINGLE POINT ENERGY     -1288.401752528294
FINAL SINGLE POINT ENERGY     -1288.401761625495
FINAL SINGLE POINT ENERGY     -1288.401765919754
FINAL SINGLE POINT ENERGY     -1288.401766727578
FINAL SINGLE POINT ENERGY     -1288.401763443055
Dispersion correction            ... done
Dispersion correction           -0.030579798
FINAL SINGLE POINT ENERGY     -1288.401761871145
Dispersion correction            ... done
Dispersion correction           -0.030576895
FINAL SINGLE POINT ENERGY     -1288.401762721811
Dispersion correction            ... done
                    ***********************HURRAY********************

CARTESIAN COORDINATES (ANGSTROEM)
---------------------------------
  Ir     0.605083   -0.729948    0.461461
  C      0.098892   -2.833974    0.373651
  C     -0.050500   -2.361140    1.725172
  C      2.162159   -2.096974    1.107119
  C      1.446410   -2.666423   -0.006529
  C      1.236308   -1.939020    2.165119
  N     -1.054876    0.120837   -0.507883
  C     -2.335402    0.340385    0.184063
  C     -3.129421    1.521629   -0.355579
  H     -3.963026    1.721481    0.315964
  H     -3.561821    1.328631   -1.338287
  H     -2.527336    2.428975   -0.408239
  C     -3.157291   -0.943287    0.150769
  H     -2.064285    0.557625    1.218272
  H     -4.072710   -0.812515    0.726401
  H     -3.440031   -1.202461   -0.870367
  H     -2.618898   -1.786465    0.580316
  C     -0.893222    0.436989   -1.739416
  C      0.428072    0.275857   -2.272832
  H     -1.705642    0.836466   -2.338857
  C      1.505274    0.175234   -1.399988
  C      2.701847   -0.092960   -2.124740
  S      0.864936    0.081452   -3.905053
  C      2.503110   -0.161424   -3.471403
  H      1.631092    1.169069   -0.577047
  H      3.679561   -0.172318   -1.672233
  H      3.242332   -0.322276   -4.241405
  H     -0.683775   -3.244733   -0.247505
  H     -0.945465   -2.397429    2.327711
  H      1.454430   -1.499719    3.128389
  O      1.705717    2.293986    0.178485
  O      0.541791    1.006095    1.570906
  C      1.103527    2.103916    1.250645
  C      1.045399    3.209140    2.263101
  H      1.008921    4.178782    1.772702
  H      1.955110    3.182690    2.865693
  H      0.197104    3.094569    2.932609
  H      3.218101   -1.878241    1.146860
  H      1.867897   -2.923310   -0.967307

 Multiplicity           Mult            ....    1
 Number of Electrons    NEL             ....  164
 Basis Dimension        Dim             ....  358

ORBITAL ENERGIES
----------------

  NO   OCC          E(Eh)            E(eV)
   0   2.0000     -89.760667     -2442.5119
   1   2.0000     -19.633600      -534.2574
   2   2.0000     -19.615620      -533.7681
   3   2.0000     -14.834090      -403.6561
   4   2.0000     -10.694760      -291.0192
   5   2.0000     -10.655333      -289.9464
   6   2.0000     -10.629425      -289.2414
   7   2.0000     -10.627674      -289.1937
   8   2.0000     -10.626059      -289.1498
   9   2.0000     -10.623397      -289.0773
  10   2.0000     -10.620802      -289.0067
  11   2.0000     -10.618129      -288.9340
  12   2.0000     -10.613039      -288.7955
  13   2.0000     -10.608125      -288.6618
  14   2.0000     -10.586408      -288.0708
  15   2.0000     -10.585227      -288.0387
  16   2.0000     -10.554020      -287.1895
  17   2.0000     -10.550518      -287.0942
  18   2.0000     -10.542726      -286.8821
  19   2.0000      -8.400119      -228.5788
  20   2.0000      -6.290021      -171.1602
  21   2.0000      -6.286463      -171.0634
  22   2.0000      -6.285057      -171.0251
  23   2.0000      -4.023566      -109.4868
  24   2.0000      -2.341407       -63.7129
  25   2.0000      -2.308910       -62.8286
  26   2.0000      -2.306460       -62.7620
  27   2.0000      -1.322846       -35.9965
  28   2.0000      -1.224375       -33.3169
  29   2.0000      -1.206248       -32.8237
  30   2.0000      -1.164970       -31.7004
  31   2.0000      -1.124846       -30.6086
  32   2.0000      -1.023317       -27.8459
  33   2.0000      -0.978140       -26.6165
  34   2.0000      -0.970665       -26.4131
  35   2.0000      -0.965248       -26.2657
  36   2.0000      -0.957553       -26.0563
  37   2.0000      -0.937972       -25.5235
  38   2.0000      -0.900382       -24.5006
  39   2.0000      -0.870895       -23.6983
  40   2.0000      -0.796743       -21.6805
  41   2.0000      -0.781026       -21.2528
  42   2.0000      -0.780377       -21.2352
  43   2.0000      -0.779379       -21.2080
  44   2.0000      -0.765336       -20.8258
  45   2.0000      -0.761424       -20.7194
  46   2.0000      -0.741449       -20.1758
  47   2.0000      -0.722132       -19.6502
  48   2.0000      -0.691391       -18.8137
  49   2.0000      -0.682116       -18.5613
  50   2.0000      -0.662759       -18.0346
  51   2.0000      -0.657773       -17.8989
  52   2.0000      -0.647657       -17.6236
  53   2.0000      -0.638420       -17.3723
  54   2.0000      -0.633853       -17.2480
  55   2.0000      -0.631499       -17.1839
  56   2.0000      -0.621645       -16.9158
  57   2.0000      -0.608992       -16.5715
  58   2.0000      -0.600905       -16.3514
  59   2.0000      -0.600230       -16.3331
  60   2.0000      -0.597305       -16.2535
  61   2.0000      -0.589966       -16.0538
  62   2.0000      -0.577648       -15.7186
  63   2.0000      -0.567376       -15.4391
  64   2.0000      -0.563948       -15.3458
  65   2.0000      -0.561603       -15.2820
  66   2.0000      -0.554091       -15.0776
  67   2.0000      -0.547174       -14.8894
  68   2.0000      -0.541477       -14.7343
  69   2.0000      -0.534689       -14.5496
  70   2.0000      -0.528365       -14.3776
  71   2.0000      -0.518154       -14.0997
  72   2.0000      -0.513359       -13.9692
  73   2.0000      -0.501416       -13.6442
  74   2.0000      -0.495285       -13.4774
  75   2.0000      -0.479664       -13.0523
  76   2.0000      -0.476985       -12.9794
  77   2.0000      -0.447847       -12.1865
  78   2.0000      -0.445675       -12.1274
  79   2.0000      -0.418079       -11.3765
  80   2.0000      -0.417328       -11.3561
  81   2.0000      -0.397784       -10.8242
  82   0.0000      -0.201189        -5.4746
  83   0.0000      -0.144226        -3.9246
  84   0.0000      -0.141954        -3.8628
  85   0.0000      -0.086549        -2.3551
  86   0.0000      -0.072128        -1.9627

MULLIKEN ATOMIC CHARGES
-----------------------
   0 Ir:    0.603893
   1 C :   -0.228450
   2 C :   -0.274518
   3 C :   -0.256763
   4 C :   -0.232098
   5 C :   -0.159048
   6 N :   -0.436540
   7 C :   -0.125275
   8 C :   -0.683940
   9 H :    0.269600
  10 H :    0.224769
  11 H :    0.255160
  12 C :   -0.634545
  13 H :    0.279950
  14 H :    0.260067
  15 H :    0.232106
  16 H :    0.231800
  17 C :    0.069911
  18 C :   -0.143852
  19 H :    0.285411
  20 C :   -0.507622
  21 C :   -0.119996
  22 S :    0.331842
  23 C :   -0.427176
  24 H :    0.479039
  25 H :    0.264581
  26 H :    0.297068
  27 H :    0.287559
  28 H :    0.285254
  29 H :    0.300944
  30 O :   -0.484701
  31 O :   -0.517140
  32 C :    0.630625
  33 C :   -0.744370
  34 H :    0.272840
  35 H :    0.273385
  36 H :    0.259628
  37 H :    0.286281
  38 H :    0.294320
Sum of atomic charges:    1.0000000

LOEWDIN ATOMIC CHARGES
----------------------
   0 Ir:   -0.248187
   1 C :   -0.051124
   2 C :   -0.088333
   3 C :   -0.082772
   4 C :   -0.044132
   5 C :   -0.015810
   6 N :   -0.008318
   7 C :   -0.069162
   8 C :   -0.362675
   9 H :    0.156236
  10 H :    0.132924
  11 H :    0.144031
  12 C :   -0.343886
  13 H :    0.155032
  14 H :    0.151187
  15 H :    0.137716
  16 H :    0.132538
  17 C :    0.030966
  18 C :   -0.191896
  19 H :    0.160047
  20 C :   -0.215306
  21 C :   -0.131816
  22 S :    0.487294
  23 C :   -0.259175
  24 H :    0.341361
  25 H :    0.161181
  26 H :    0.168510
  27 H :    0.183164
  28 H :    0.181691
  29 H :    0.190178
  30 O :   -0.265469
  31 O :   -0.188013
  32 C :    0.164482
  33 C :   -0.372256
  34 H :    0.163585
  35 H :    0.171295
  36 H :    0.155513
  37 H :    0.183672
  38 H :    0.185730

  Mayer bond orders larger than 0.100000
B(  0-Ir,  1-C ) :   0.4284 B(  0-Ir,  2-C ) :   0.4626 B(  0-Ir,  3-C ) :   0.4623
B(  0-Ir,  4-C ) :   0.4394 B(  0-Ir,  5-C ) :   0.3936 B(  0-Ir,  6-N ) :   0.4664
B(  0-Ir, 20-C ) :   0.3940 B(  0-Ir, 31-O ) :   0.5352 B(  1-C ,  2-C ) :   1.1264
B(  1-C ,  4-C ) :   1.2340 B(  1-C , 27-H ) :   0.9062 B(  2-C ,  5-C ) :   1.1722
B(  2-C , 28-H ) :   0.9100 B(  3-C ,  4-C ) :   1.1234 B(  3-C ,  5-C ) :   1.2018
B(  3-C , 37-H ) :   0.9102 B(  4-C , 38-H ) :   0.9003 B(  5-C , 29-H ) :   0.8998
B(  6-N ,  7-C ) :   0.8947 B(  6-N , 17-C ) :   1.6545 B(  7-C ,  8-C ) :   0.9908
B(  7-C , 12-C ) :   0.9670 B(  7-C , 13-H ) :   0.8763 B(  8-C ,  9-H ) :   0.9046
B(  8-C , 10-H ) :   0.9130 B(  8-C , 11-H ) :   0.9114 B( 12-C , 14-H ) :   0.9076
B( 12-C , 15-H ) :   0.9154 B( 12-C , 16-H ) :   0.9124 B( 17-C , 18-C ) :   1.1025
B( 17-C , 19-H ) :   0.8760 B( 18-C , 20-C ) :   1.2578 B( 18-C , 22-S ) :   1.2317
B( 20-C , 21-C ) :   1.2827 B( 20-C , 24-H ) :   0.3718 B( 21-C , 23-C ) :   1.5406
B( 21-C , 25-H ) :   0.9041 B( 22-S , 23-C ) :   1.2184 B( 23-C , 26-H ) :   0.8915
B( 24-H , 30-O ) :   0.3181 B( 30-O , 32-C ) :   1.5901 B( 31-O , 32-C ) :   1.3547
B( 32-C , 33-C ) :   0.9465 B( 33-C , 34-H ) :   0.9012 B( 33-C , 35-H ) :   0.8944
B( 33-C , 36-H ) :   0.9081

Dispersion correction           -0.030575733
FINAL SINGLE POINT ENERGY     -1288.401763765393

DIPOLE MOMENT
-------------
                                X             Y             Z
Electronic contribution:     36.72076     -72.26516      74.86212
Nuclear contribution   :    -37.34262      71.58232     -75.06822
                        -----------------------------------------
Total Dipole Moment    :     -0.62185      -0.68284      -0.20609
                        -----------------------------------------
Magnitude (a.u.)       :      0.94628
Magnitude (Debye)      :      2.40525

Rotational constants in cm-1:     0.010537     0.008804     0.008159
Rotational constants in MHz :   315.879546   263.923002   244.588364

                             ****ORCA TERMINATED NORMALLY****
TOTAL RUN TIME: 0 days 1 hours 38 minutes 36 seconds 288 msec
