                         Program Version 5.0.3 -  RELEASE  -
|  1> ! Opt PBEh-3c
|  2> %geom Constraints
|  3> { B 0 20 2.085714285714286 C }
|  4> { B 24 30 1.4285714285714286 C }
|  5>     end
|  6> end
|  7> %output
|  8> xyzfile=True
|  9> end
| 10> %scf
| 11> maxiter 250
| 12> end
| 13> %output
| 14> Print[P_Hirshfeld] = 1
| 15> end
| 16> % maxcore
| 17> 4000
| 18> *xyz 1 1
| 19> Ir   0.61829935  -0.71590632   0.41429144
| 20> C    0.13109365  -2.83341144   0.34243908
| 21> C   -0.02889449  -2.37073819   1.69566592
| 22> C    2.18082978  -2.06735534   1.08282730
| 23> C    1.47992648  -2.65317269  -0.02996928
| 24> C    1.24385259  -1.92424693   2.13787719
| 25> N   -1.06585347   0.13186474  -0.51885354
| 26> C   -2.33463641   0.35118396   0.19136216
| 27> C   -3.13917932   1.52912690  -0.33901729
| 28> H   -3.96603946   1.72496771   0.34190863
| 29> H   -3.58166071   1.33377607  -1.31682620
| 30> H   -2.54165478   2.43909886  -0.39788288
| 31> C   -3.15263189  -0.93569554   0.17085925
| 32> H   -2.04707255   0.56887191   1.22100158
| 33> H   -4.05749354  -0.80824274   0.76360157
| 34> H   -3.45328414  -1.19423550  -0.84525826
| 35> H   -2.60307768  -1.77732012   0.58902392
| 36> C   -0.91303458   0.45964374  -1.74843787
| 37> C    0.40841546   0.27459146  -2.27138300
| 38> H   -1.71940475   0.87903050  -2.34144412
| 39> C    1.45484850   0.11214401  -1.35921766
| 40> C    2.66776398  -0.16393942  -2.06677695
| 41> S    0.88520935   0.11043503  -3.88845153
| 42> C    2.50658303  -0.18967324  -3.41721090
| 43> H    1.60637323   1.12928127  -0.63780359
| 44> H    3.63062028  -0.27560996  -1.58961383
| 45> H    3.26220114  -0.34658392  -4.17187289
| 46> H   -0.64228900  -3.25814120  -0.28091185
| 47> H   -0.92755410  -2.41461370   2.29184674
| 48> H    1.45049188  -1.47872625   3.10079124
| 49> O    1.69250535   2.33413486   0.15133886
| 50> O    0.54994011   1.01415212   1.53237404
| 51> C    1.10168656   2.12384140   1.22065932
| 52> C    1.03522437   3.20964383   2.25606082
| 53> H    1.02667638   4.18968311   1.78583479
| 54> H    1.92734771   3.15370549   2.88232718
| 55> H    0.16828648   3.09580009   2.90178713
| 56> H    3.23532296  -1.84424675   1.13389182
| 57> H    1.90963229  -2.91392790  -0.98609825
| 58> *
| 59>
| 60>                          ****END OF INPUT****
 Total Charge           Charge          ....    1
 Multiplicity           Mult            ....    1
 Number of Electrons    NEL             ....  164
Dispersion correction           -0.030896393
FINAL SINGLE POINT ENERGY     -1288.398818830909
Dispersion correction            ... done
Dispersion correction           -0.030849737
FINAL SINGLE POINT ENERGY     -1288.398855165917
Dispersion correction            ... done
Dispersion correction           -0.030853844
FINAL SINGLE POINT ENERGY     -1288.398048642833
Dispersion correction            ... done
FINAL SINGLE POINT ENERGY     -1288.399142962217
FINAL SINGLE POINT ENERGY     -1288.399170167398
FINAL SINGLE POINT ENERGY     -1288.399198425603
FINAL SINGLE POINT ENERGY     -1288.399228723893
FINAL SINGLE POINT ENERGY     -1288.399236405397
FINAL SINGLE POINT ENERGY     -1288.399238919792
FINAL SINGLE POINT ENERGY     -1288.399239336661
FINAL SINGLE POINT ENERGY     -1288.399239302016
FINAL SINGLE POINT ENERGY     -1288.399238550972
FINAL SINGLE POINT ENERGY     -1288.399239903853
FINAL SINGLE POINT ENERGY     -1288.399244598878
Dispersion correction            ... done
Dispersion correction           -0.030784969
FINAL SINGLE POINT ENERGY     -1288.399250358826
Dispersion correction            ... done
Dispersion correction           -0.030786500
FINAL SINGLE POINT ENERGY     -1288.399254541358
Dispersion correction            ... done
                    ***********************HURRAY********************

CARTESIAN COORDINATES (ANGSTROEM)
---------------------------------
  Ir     0.621305   -0.725226    0.405763
  C      0.153553   -2.845309    0.325943
  C     -0.059766   -2.396189    1.677452
  C      2.166614   -2.061524    1.145650
  C      1.516788   -2.655439    0.009745
  C      1.184740   -1.935374    2.166932
  N     -1.069071    0.124674   -0.513264
  C     -2.335725    0.329999    0.204237
  C     -3.133148    1.528941   -0.288749
  H     -3.959888    1.707292    0.397014
  H     -3.574661    1.368772   -1.273335
  H     -2.529831    2.436588   -0.317054
  C     -3.160725   -0.951145    0.144112
  H     -2.047122    0.515102    1.239979
  H     -4.061761   -0.840487    0.746033
  H     -3.467804   -1.172938   -0.878740
  H     -2.612584   -1.809725    0.528407
  C     -0.921263    0.474612   -1.738004
  C      0.396454    0.289868   -2.266609
  H     -1.728213    0.908977   -2.318971
  C      1.428345    0.060618   -1.349611
  C      2.645517   -0.195345   -2.060798
  S      0.890596    0.215674   -3.884361
  C      2.500296   -0.139140   -3.412105
  H      1.612950    1.124443   -0.662563
  H      3.601065   -0.351766   -1.581264
  H      3.263037   -0.264903   -4.165461
  H     -0.588733   -3.282353   -0.325889
  H     -0.980673   -2.448957    2.237717
  H      1.348562   -1.490041    3.138110
  O      1.711660    2.325401    0.104752
  O      0.573440    1.023037    1.505834
  C      1.123528    2.125707    1.181345
  C      1.065643    3.229632    2.197417
  H      0.970781    4.195917    1.707729
  H      2.001594    3.241517    2.758601
  H      0.251260    3.085021    2.901958
  H      3.217168   -1.835189    1.242077
  H      1.985442   -2.911550   -0.929288

 Multiplicity           Mult            ....    1
 Number of Electrons    NEL             ....  164
 Basis Dimension        Dim             ....  358

ORBITAL ENERGIES
----------------

  NO   OCC          E(Eh)            E(eV)
   0   2.0000     -89.767432     -2442.6960
   1   2.0000     -19.631475      -534.1996
   2   2.0000     -19.614966      -533.7504
   3   2.0000     -14.836091      -403.7106
   4   2.0000     -10.692167      -290.9487
   5   2.0000     -10.656000      -289.9645
   6   2.0000     -10.629479      -289.2428
   7   2.0000     -10.625281      -289.1286
   8   2.0000     -10.623442      -289.0785
   9   2.0000     -10.622714      -289.0587
  10   2.0000     -10.615072      -288.8508
  11   2.0000     -10.613324      -288.8032
  12   2.0000     -10.612350      -288.7767
  13   2.0000     -10.612079      -288.7693
  14   2.0000     -10.591727      -288.2155
  15   2.0000     -10.590463      -288.1811
  16   2.0000     -10.553842      -287.1846
  17   2.0000     -10.550949      -287.1059
  18   2.0000     -10.541756      -286.8558
  19   2.0000      -8.406792      -228.7604
  20   2.0000      -6.296649      -171.3405
  21   2.0000      -6.293080      -171.2434
  22   2.0000      -6.291816      -171.2090
  23   2.0000      -4.020624      -109.4068
  24   2.0000      -2.337703       -63.6121
  25   2.0000      -2.307058       -62.7782
  26   2.0000      -2.303870       -62.6915
  27   2.0000      -1.319431       -35.9035
  28   2.0000      -1.221088       -33.2275
  29   2.0000      -1.208854       -32.8946
  30   2.0000      -1.160172       -31.5699
  31   2.0000      -1.130279       -30.7565
  32   2.0000      -1.025847       -27.9147
  33   2.0000      -0.973023       -26.4773
  34   2.0000      -0.972373       -26.4596
  35   2.0000      -0.966505       -26.2999
  36   2.0000      -0.960438       -26.1348
  37   2.0000      -0.935973       -25.4691
  38   2.0000      -0.900758       -24.5109
  39   2.0000      -0.873881       -23.7795
  40   2.0000      -0.799921       -21.7670
  41   2.0000      -0.783873       -21.3303
  42   2.0000      -0.776599       -21.1323
  43   2.0000      -0.775916       -21.1138
  44   2.0000      -0.761355       -20.7175
  45   2.0000      -0.757264       -20.6062
  46   2.0000      -0.743726       -20.2378
  47   2.0000      -0.722412       -19.6578
  48   2.0000      -0.692070       -18.8322
  49   2.0000      -0.684271       -18.6200
  50   2.0000      -0.664134       -18.0720
  51   2.0000      -0.656149       -17.8547
  52   2.0000      -0.647098       -17.6084
  53   2.0000      -0.636709       -17.3257
  54   2.0000      -0.631220       -17.1764
  55   2.0000      -0.627061       -17.0632
  56   2.0000      -0.622111       -16.9285
  57   2.0000      -0.612463       -16.6660
  58   2.0000      -0.601768       -16.3749
  59   2.0000      -0.597180       -16.2501
  60   2.0000      -0.596117       -16.2212
  61   2.0000      -0.592049       -16.1105
  62   2.0000      -0.580631       -15.7998
  63   2.0000      -0.569424       -15.4948
  64   2.0000      -0.564860       -15.3706
  65   2.0000      -0.562962       -15.3190
  66   2.0000      -0.553224       -15.0540
  67   2.0000      -0.547098       -14.8873
  68   2.0000      -0.542226       -14.7547
  69   2.0000      -0.535894       -14.5824
  70   2.0000      -0.529922       -14.4199
  71   2.0000      -0.518526       -14.1098
  72   2.0000      -0.513327       -13.9683
  73   2.0000      -0.498796       -13.5729
  74   2.0000      -0.492626       -13.4050
  75   2.0000      -0.488404       -13.2901
  76   2.0000      -0.477305       -12.9881
  77   2.0000      -0.449551       -12.2329
  78   2.0000      -0.443208       -12.0603
  79   2.0000      -0.420493       -11.4422
  80   2.0000      -0.414748       -11.2859
  81   2.0000      -0.394022       -10.7219
  82   0.0000      -0.208136        -5.6637
  83   0.0000      -0.143495        -3.9047
  84   0.0000      -0.130535        -3.5520
  85   0.0000      -0.088570        -2.4101
  86   0.0000      -0.075995        -2.0679

MULLIKEN ATOMIC CHARGES
-----------------------
   0 Ir:    0.609028
   1 C :   -0.243133
   2 C :   -0.257770
   3 C :   -0.272015
   4 C :   -0.224656
   5 C :   -0.151898
   6 N :   -0.430101
   7 C :   -0.126859
   8 C :   -0.682558
   9 H :    0.269888
  10 H :    0.224170
  11 H :    0.254751
  12 C :   -0.633858
  13 H :    0.281156
  14 H :    0.259415
  15 H :    0.232449
  16 H :    0.234045
  17 C :    0.069675
  18 C :   -0.119460
  19 H :    0.286541
  20 C :   -0.581048
  21 C :   -0.090781
  22 S :    0.345954
  23 C :   -0.428769
  24 H :    0.470586
  25 H :    0.269107
  26 H :    0.299025
  27 H :    0.284697
  28 H :    0.281666
  29 H :    0.298227
  30 O :   -0.472885
  31 O :   -0.515238
  32 C :    0.626802
  33 C :   -0.743665
  34 H :    0.271449
  35 H :    0.273526
  36 H :    0.258841
  37 H :    0.281661
  38 H :    0.292035
Sum of atomic charges:    1.0000000

LOEWDIN ATOMIC CHARGES
----------------------
   0 Ir:   -0.258432
   1 C :   -0.058803
   2 C :   -0.096823
   3 C :   -0.096158
   4 C :   -0.042953
   5 C :   -0.016641
   6 N :    0.000720
   7 C :   -0.069672
   8 C :   -0.362349
   9 H :    0.156497
  10 H :    0.132780
  11 H :    0.143844
  12 C :   -0.343572
  13 H :    0.155703
  14 H :    0.151031
  15 H :    0.137888
  16 H :    0.133520
  17 C :    0.027423
  18 C :   -0.181370
  19 H :    0.161096
  20 C :   -0.220324
  21 C :   -0.121302
  22 S :    0.503200
  23 C :   -0.258679
  24 H :    0.350534
  25 H :    0.163441
  26 H :    0.169884
  27 H :    0.181738
  28 H :    0.179291
  29 H :    0.188286
  30 O :   -0.262526
  31 O :   -0.188132
  32 C :    0.159346
  33 C :   -0.372623
  34 H :    0.163209
  35 H :    0.171027
  36 H :    0.154618
  37 H :    0.181520
  38 H :    0.183764

  Mayer bond orders larger than 0.100000
B(  0-Ir,  1-C ) :   0.4410 B(  0-Ir,  2-C ) :   0.4020 B(  0-Ir,  3-C ) :   0.4685
B(  0-Ir,  4-C ) :   0.4229 B(  0-Ir,  5-C ) :   0.3673 B(  0-Ir,  6-N ) :   0.4631
B(  0-Ir, 20-C ) :   0.4943 B(  0-Ir, 31-O ) :   0.5317 B(  1-C ,  2-C ) :   1.1268
B(  1-C ,  4-C ) :   1.2279 B(  1-C , 27-H ) :   0.9085 B(  2-C ,  5-C ) :   1.2155
B(  2-C , 28-H ) :   0.9102 B(  3-C ,  4-C ) :   1.1369 B(  3-C ,  5-C ) :   1.1752
B(  3-C , 37-H ) :   0.9134 B(  4-C , 38-H ) :   0.8994 B(  5-C , 29-H ) :   0.9011
B(  6-N ,  7-C ) :   0.8957 B(  6-N , 17-C ) :   1.6500 B(  7-C ,  8-C ) :   0.9904
B(  7-C , 12-C ) :   0.9661 B(  7-C , 13-H ) :   0.8753 B(  8-C ,  9-H ) :   0.9046
B(  8-C , 10-H ) :   0.9130 B(  8-C , 11-H ) :   0.9116 B( 12-C , 14-H ) :   0.9076
B( 12-C , 15-H ) :   0.9152 B( 12-C , 16-H ) :   0.9116 B( 17-C , 18-C ) :   1.1092
B( 17-C , 19-H ) :   0.8763 B( 18-C , 20-C ) :   1.2141 B( 18-C , 22-S ) :   1.2548
B( 20-C , 21-C ) :   1.2514 B( 20-C , 24-H ) :   0.3759 B( 21-C , 23-C ) :   1.5515
B( 21-C , 25-H ) :   0.9013 B( 22-S , 23-C ) :   1.2102 B( 23-C , 26-H ) :   0.8911
B( 24-H , 30-O ) :   0.3203 B( 30-O , 32-C ) :   1.6026 B( 31-O , 32-C ) :   1.3541
B( 32-C , 33-C ) :   0.9432 B( 33-C , 34-H ) :   0.9015 B( 33-C , 35-H ) :   0.8947
B( 33-C , 36-H ) :   0.9086

Dispersion correction           -0.030788606
FINAL SINGLE POINT ENERGY     -1288.399255913393

DIPOLE MOMENT
-------------
                                X             Y             Z
Electronic contribution:     38.19264     -72.68184      69.42808
Nuclear contribution   :    -38.83082      72.10006     -69.80185
                        -----------------------------------------
Total Dipole Moment    :     -0.63818      -0.58178      -0.37378
                        -----------------------------------------
Magnitude (a.u.)       :      0.94098
Magnitude (Debye)      :      2.39179

Rotational constants in cm-1:     0.010523     0.008979     0.008249
Rotational constants in MHz :   315.483250   269.197233   247.303455

                             ****ORCA TERMINATED NORMALLY****
TOTAL RUN TIME: 0 days 2 hours 6 minutes 27 seconds 894 msec
