                         Program Version 5.0.3 -  RELEASE  -
|  1> ! Opt PBEh-3c
|  2> %geom Constraints
|  3> { B 0 20 2.5142857142857142 C }
|  4> { B 24 30 1.5 C }
|  5>     end
|  6> end
|  7> %output
|  8> xyzfile=True
|  9> end
| 10> %scf
| 11> maxiter 250
| 12> end
| 13> %output
| 14> Print[P_Hirshfeld] = 1
| 15> end
| 16> % maxcore
| 17> 4000
| 18> %pal nprocs 2
| 19> end
| 20> *xyz 1 1
| 21> Ir   0.58703444  -0.72438777   0.45540759
| 22> C    0.03403474  -2.80558922   0.32800388
| 23> C    0.12682116  -2.36016747   1.69862445
| 24> C    2.20309986  -2.13685671   0.73295152
| 25> C    1.29361653  -2.63984445  -0.27243531
| 26> C    1.49724585  -2.00668717   1.94080985
| 27> N   -1.04019747   0.18422202  -0.51761269
| 28> C   -2.30778721   0.53012834   0.14362334
| 29> C   -3.12975138   1.55754892  -0.61682565
| 30> H   -3.96101165   1.87619081   0.01050809
| 31> H   -3.56751157   1.15763679  -1.53299242
| 32> H   -2.55001170   2.44822982  -0.86133936
| 33> C   -3.10509950  -0.73989211   0.41355734
| 34> H   -2.01006190   0.96380060   1.09981292
| 35> H   -4.01559457  -0.48988357   0.95593925
| 36> H   -3.39613504  -1.23074237  -0.51612522
| 37> H   -2.55118246  -1.45080243   1.02510533
| 38> C   -0.82693201   0.38718045  -1.75831561
| 39> C    0.52675776   0.14156946  -2.21691129
| 40> H   -1.59579591   0.75677238  -2.43083533
| 41> C    1.64015926   0.55226037  -1.49397109
| 42> C    2.83756352   0.10774559  -2.12564024
| 43> S    0.93632759  -0.71846075  -3.63602007
| 44> C    2.61041499  -0.58023154  -3.27524709
| 45> H    1.55623471   1.40756825  -0.72211670
| 46> H    3.82805682   0.33893270  -1.76176724
| 47> H    3.33909043  -0.99949468  -3.95246006
| 48> H   -0.85990300  -3.16502809  -0.16107471
| 49> H   -0.65661832  -2.39641943   2.44154899
| 50> H    1.89175259  -1.61973705   2.86937034
| 51> O    1.24461801   2.47709249   0.28237967
| 52> O    0.54265995   0.88673391   1.68194439
| 53> C    0.87430609   2.10558486   1.38868091
| 54> C    0.80139778   3.05719539   2.55120662
| 55> H    0.73090046   4.08339439   2.20090888
| 56> H    1.71394044   2.96842300   3.14385444
| 57> H   -0.03376147   2.83042677   3.21082122
| 58> H    3.24586619  -1.90184675   0.57867621
| 59> H    1.54482597  -2.85337576  -1.30130510
| 60> *
| 61>
| 62>                          ****END OF INPUT****
 Total Charge           Charge          ....    1
 Multiplicity           Mult            ....    1
 Number of Electrons    NEL             ....  164
Dispersion correction           -0.031060369
FINAL SINGLE POINT ENERGY     -1288.399042890352
Dispersion correction            ... done
Dispersion correction           -0.031054641
FINAL SINGLE POINT ENERGY     -1288.398319354396
Dispersion correction            ... done
Dispersion correction           -0.031010698
FINAL SINGLE POINT ENERGY     -1288.399108281879
Dispersion correction            ... done
FINAL SINGLE POINT ENERGY     -1288.398588964973
FINAL SINGLE POINT ENERGY     -1288.399146692445
Dispersion correction            ... done
Dispersion correction           -0.030974656
FINAL SINGLE POINT ENERGY     -1288.399149064889
Dispersion correction            ... done
Dispersion correction           -0.030980272
FINAL SINGLE POINT ENERGY     -1288.399157251511
Dispersion correction            ... done
                    ***********************HURRAY********************

CARTESIAN COORDINATES (ANGSTROEM)
---------------------------------
  Ir     0.592410   -0.720222    0.442295
  C      0.036714   -2.802234    0.328434
  C      0.130604   -2.352420    1.696905
  C      2.206616   -2.133725    0.727725
  C      1.296270   -2.641115   -0.274386
  C      1.500566   -1.996752    1.935199
  N     -1.042829    0.184186   -0.522804
  C     -2.308766    0.526825    0.142778
  C     -3.133213    1.556498   -0.611981
  H     -3.963421    1.872136    0.018278
  H     -3.572633    1.159780   -1.528757
  H     -2.554778    2.448637   -0.854291
  C     -3.104912   -0.744501    0.410157
  H     -2.008674    0.957147    1.099714
  H     -4.014001   -0.496674    0.955896
  H     -3.398296   -1.232035   -0.520524
  H     -2.548977   -1.457332    1.017532
  C     -0.833199    0.390090   -1.763739
  C      0.520455    0.145137   -2.221368
  H     -1.602678    0.761208   -2.434576
  C      1.629184    0.530777   -1.476489
  C      2.829997    0.088506   -2.104550
  S      0.937666   -0.693534   -3.649008
  C      2.609479   -0.575973   -3.268838
  H      1.551074    1.396082   -0.711550
  H      3.818369    0.305541   -1.726400
  H      3.341475   -0.988024   -3.946884
  H     -0.857824   -3.162971   -0.158626
  H     -0.651987   -2.385467    2.440754
  H      1.895880   -1.605089    2.861439
  O      1.260093    2.483193    0.280174
  O      0.539300    0.892720    1.669787
  C      0.879947    2.109761    1.383099
  C      0.804557    3.058965    2.547488
  H      0.742679    4.086562    2.199696
  H      1.712191    2.962886    3.146497
  H     -0.036738    2.835273    3.200338
  H      3.250076   -1.902390    0.573083
  H      1.546693   -2.862263   -1.301757

 Multiplicity           Mult            ....    1
 Number of Electrons    NEL             ....  164
 Basis Dimension        Dim             ....  358

ORBITAL ENERGIES
----------------

  NO   OCC          E(Eh)            E(eV)
   0   2.0000     -89.763786     -2442.5968
   1   2.0000     -19.619462      -533.8727
   2   2.0000     -19.579363      -532.7816
   3   2.0000     -14.843303      -403.9068
   4   2.0000     -10.674688      -290.4730
   5   2.0000     -10.664230      -290.1884
   6   2.0000     -10.639034      -289.5028
   7   2.0000     -10.636143      -289.4242
   8   2.0000     -10.636038      -289.4213
   9   2.0000     -10.634960      -289.3920
  10   2.0000     -10.633445      -289.3508
  11   2.0000     -10.632250      -289.3182
  12   2.0000     -10.617157      -288.9075
  13   2.0000     -10.611624      -288.7570
  14   2.0000     -10.585720      -288.0521
  15   2.0000     -10.584968      -288.0316
  16   2.0000     -10.557931      -287.2959
  17   2.0000     -10.552794      -287.1561
  18   2.0000     -10.529257      -286.5157
  19   2.0000      -8.403050      -228.6586
  20   2.0000      -6.293166      -171.2458
  21   2.0000      -6.289502      -171.1460
  22   2.0000      -6.287725      -171.0977
  23   2.0000      -4.031592      -109.7052
  24   2.0000      -2.350809       -63.9688
  25   2.0000      -2.316557       -63.0367
  26   2.0000      -2.315220       -63.0003
  27   2.0000      -1.298059       -35.3220
  28   2.0000      -1.215947       -33.0876
  29   2.0000      -1.202115       -32.7112
  30   2.0000      -1.175202       -31.9789
  31   2.0000      -1.128651       -30.7122
  32   2.0000      -1.028768       -27.9942
  33   2.0000      -0.990134       -26.9429
  34   2.0000      -0.980287       -26.6750
  35   2.0000      -0.967314       -26.3220
  36   2.0000      -0.961962       -26.1763
  37   2.0000      -0.922233       -25.0952
  38   2.0000      -0.904560       -24.6143
  39   2.0000      -0.875456       -23.8224
  40   2.0000      -0.798826       -21.7372
  41   2.0000      -0.791217       -21.5301
  42   2.0000      -0.789424       -21.4813
  43   2.0000      -0.782623       -21.2963
  44   2.0000      -0.774622       -21.0785
  45   2.0000      -0.754992       -20.5444
  46   2.0000      -0.743939       -20.2436
  47   2.0000      -0.723333       -19.6829
  48   2.0000      -0.695685       -18.9306
  49   2.0000      -0.671017       -18.2593
  50   2.0000      -0.665112       -18.0986
  51   2.0000      -0.652610       -17.7584
  52   2.0000      -0.647965       -17.6320
  53   2.0000      -0.641357       -17.4522
  54   2.0000      -0.634668       -17.2702
  55   2.0000      -0.626025       -17.0350
  56   2.0000      -0.623986       -16.9795
  57   2.0000      -0.613103       -16.6834
  58   2.0000      -0.610605       -16.6154
  59   2.0000      -0.609590       -16.5878
  60   2.0000      -0.598279       -16.2800
  61   2.0000      -0.589496       -16.0410
  62   2.0000      -0.579270       -15.7627
  63   2.0000      -0.573914       -15.6170
  64   2.0000      -0.564851       -15.3704
  65   2.0000      -0.554013       -15.0755
  66   2.0000      -0.551735       -15.0135
  67   2.0000      -0.548723       -14.9315
  68   2.0000      -0.539053       -14.6684
  69   2.0000      -0.535508       -14.5719
  70   2.0000      -0.528300       -14.3758
  71   2.0000      -0.522331       -14.2133
  72   2.0000      -0.516479       -14.0541
  73   2.0000      -0.506602       -13.7853
  74   2.0000      -0.487118       -13.2552
  75   2.0000      -0.481613       -13.1054
  76   2.0000      -0.466236       -12.6869
  77   2.0000      -0.449295       -12.2259
  78   2.0000      -0.439749       -11.9662
  79   2.0000      -0.425341       -11.5741
  80   2.0000      -0.416965       -11.3462
  81   2.0000      -0.405226       -11.0268
  82   0.0000      -0.201022        -5.4701
  83   0.0000      -0.166225        -4.5232
  84   0.0000      -0.142621        -3.8809
  85   0.0000      -0.105146        -2.8612
  86   0.0000      -0.078040        -2.1236

MULLIKEN ATOMIC CHARGES
-----------------------
   0 Ir:    0.619667
   1 C :   -0.207917
   2 C :   -0.295671
   3 C :   -0.232072
   4 C :   -0.246513
   5 C :   -0.163253
   6 N :   -0.420578
   7 C :   -0.115846
   8 C :   -0.696755
   9 H :    0.274012
  10 H :    0.225992
  11 H :    0.261585
  12 C :   -0.640794
  13 H :    0.282412
  14 H :    0.265802
  15 H :    0.230840
  16 H :    0.233905
  17 C :    0.068401
  18 C :   -0.221543
  19 H :    0.294517
  20 C :   -0.406305
  21 C :   -0.134858
  22 S :    0.293671
  23 C :   -0.430804
  24 H :    0.490224
  25 H :    0.269766
  26 H :    0.298172
  27 H :    0.292653
  28 H :    0.294328
  29 H :    0.308295
  30 O :   -0.474290
  31 O :   -0.548272
  32 C :    0.606381
  33 C :   -0.745778
  34 H :    0.267436
  35 H :    0.263648
  36 H :    0.249330
  37 H :    0.295624
  38 H :    0.294586
Sum of atomic charges:    1.0000000

LOEWDIN ATOMIC CHARGES
----------------------
   0 Ir:   -0.213594
   1 C :   -0.038737
   2 C :   -0.055671
   3 C :   -0.047726
   4 C :   -0.057149
   5 C :   -0.024712
   6 N :   -0.002421
   7 C :   -0.068166
   8 C :   -0.365092
   9 H :    0.158134
  10 H :    0.134081
  11 H :    0.147391
  12 C :   -0.343247
  13 H :    0.157456
  14 H :    0.153585
  15 H :    0.137298
  16 H :    0.134912
  17 C :    0.036568
  18 C :   -0.182119
  19 H :    0.164178
  20 C :   -0.174981
  21 C :   -0.140453
  22 S :    0.461185
  23 C :   -0.263142
  24 H :    0.268253
  25 H :    0.163689
  26 H :    0.168212
  27 H :    0.186050
  28 H :    0.186747
  29 H :    0.194586
  30 O :   -0.276245
  31 O :   -0.215172
  32 C :    0.146882
  33 C :   -0.378271
  34 H :    0.158252
  35 H :    0.165223
  36 H :    0.151179
  37 H :    0.187904
  38 H :    0.185136

  Mayer bond orders larger than 0.100000
B(  0-Ir,  1-C ) :   0.4182 B(  0-Ir,  2-C ) :   0.5489 B(  0-Ir,  3-C ) :   0.4652
B(  0-Ir,  4-C ) :   0.4476 B(  0-Ir,  5-C ) :   0.4015 B(  0-Ir,  6-N ) :   0.4596
B(  0-Ir, 20-C ) :   0.2146 B(  0-Ir, 31-O ) :   0.6025 B(  1-C ,  2-C ) :   1.1133
B(  1-C ,  4-C ) :   1.2503 B(  1-C , 27-H ) :   0.9030 B(  2-C ,  5-C ) :   1.1314
B(  2-C , 28-H ) :   0.9064 B(  3-C ,  4-C ) :   1.1029 B(  3-C ,  5-C ) :   1.2347
B(  3-C , 37-H ) :   0.9027 B(  4-C , 38-H ) :   0.8972 B(  5-C , 29-H ) :   0.8971
B(  6-N ,  7-C ) :   0.8905 B(  6-N , 17-C ) :   1.7080 B(  7-C ,  8-C ) :   0.9927
B(  7-C , 12-C ) :   0.9697 B(  7-C , 13-H ) :   0.8698 B(  8-C ,  9-H ) :   0.9030
B(  8-C , 10-H ) :   0.9122 B(  8-C , 11-H ) :   0.9073 B( 12-C , 14-H ) :   0.9060
B( 12-C , 15-H ) :   0.9151 B( 12-C , 16-H ) :   0.9102 B( 17-C , 18-C ) :   1.0363
B( 17-C , 19-H ) :   0.8734 B( 18-C , 20-C ) :   1.3075 B( 18-C , 22-S ) :   1.2222
B( 20-C , 21-C ) :   1.2535 B( 20-C , 24-H ) :   0.5372 B( 21-C , 23-C ) :   1.5517
B( 21-C , 25-H ) :   0.9030 B( 22-S , 23-C ) :   1.1980 B( 23-C , 26-H ) :   0.8922
B( 24-H , 30-O ) :   0.2047 B( 30-O , 32-C ) :   1.7432 B( 31-O , 32-C ) :   1.2429
B( 32-C , 33-C ) :   0.9448 B( 33-C , 34-H ) :   0.9064 B( 33-C , 35-H ) :   0.9005
B( 33-C , 36-H ) :   0.9107

Dispersion correction           -0.030986599
FINAL SINGLE POINT ENERGY     -1288.399158517318

DIPOLE MOMENT
-------------
                                X             Y             Z
Electronic contribution:     35.49751     -66.85238      71.14248
Nuclear contribution   :    -36.13419      65.48342     -71.47367
                        -----------------------------------------
Total Dipole Moment    :     -0.63669      -1.36895      -0.33118
                        -----------------------------------------
Magnitude (a.u.)       :      1.54566
Magnitude (Debye)      :      3.92877

Rotational constants in cm-1:     0.010859     0.009136     0.008278
Rotational constants in MHz :   325.553277   273.899731   248.160961

                             ****ORCA TERMINATED NORMALLY****
TOTAL RUN TIME: 0 days 1 hours 38 minutes 47 seconds 826 msec
