                         Program Version 5.0.3 -  RELEASE  -
|  1> ! Opt PBEh-3c
|  2> %geom Constraints
|  3> { B 0 20 2.5142857142857142 C }
|  4> { B 24 30 1.457142857142857 C }
|  5>     end
|  6> end
|  7> %output
|  8> xyzfile=True
|  9> end
| 10> %scf
| 11> maxiter 250
| 12> end
| 13> %output
| 14> Print[P_Hirshfeld] = 1
| 15> end
| 16> % maxcore
| 17> 4000
| 18> *xyz 1 1
| 19> Ir   0.58286930  -0.72657895   0.46065738
| 20> C    0.02841128  -2.80674345   0.33381463
| 21> C    0.12083882  -2.36210837   1.70447320
| 22> C    2.19784239  -2.13995458   0.73962373
| 23> C    1.28839338  -2.64159747  -0.26641375
| 24> C    1.49136447  -2.00932992   1.94711788
| 25> N   -1.04175930   0.18062753  -0.51698529
| 26> C   -2.31127583   0.52360812   0.14238459
| 27> C   -3.13385386   1.55063743  -0.61807695
| 28> H   -3.96653393   1.86719793   0.00843261
| 29> H   -3.56963171   1.15108555  -1.53532179
| 30> H   -2.55537552   2.44259727  -0.86090870
| 31> C   -3.10767609  -0.74755038   0.40967766
| 32> H   -2.01598880   0.95686060   1.09956876
| 33> H   -4.01991768  -0.49900135   0.94980149
| 34> H   -3.39566498  -1.23829960  -0.52100927
| 35> H   -2.55454225  -1.45806132   1.02235525
| 36> C   -0.82765293   0.38508080  -1.75766835
| 37> C    0.52638677   0.14661080  -2.21721998
| 38> H   -1.59796235   0.75234544  -2.42983730
| 39> C    1.63755705   0.55085361  -1.48736198
| 40> C    2.83612940   0.11477289  -2.12261690
| 41> S    0.93882495  -0.69503617  -3.64674169
| 42> C    2.61190512  -0.55902086  -3.28139283
| 43> H    1.55209091   1.40880075  -0.70442886
| 44> H    3.82600153   0.34208524  -1.75450927
| 45> H    3.34234088  -0.96871167  -3.96258545
| 46> H   -0.86562253  -3.16506991  -0.15592178
| 47> H   -0.66288957  -2.39844277   2.44706116
| 48> H    1.88588388  -1.62315217   2.87598714
| 49> O    1.26963794   2.46631594   0.27892458
| 50> O    0.53987275   0.89075151   1.68083590
| 51> C    0.88707241   2.10327324   1.38531352
| 52> C    0.81807160   3.06247071   2.54130208
| 53> H    0.76117149   4.08743352   2.18503096
| 54> H    1.72600488   2.96658615   3.13992195
| 55> H   -0.02353188   2.84838047   3.19693040
| 56> H    3.24083357  -1.90562282   0.58583369
| 57> H    1.53974445  -2.85490369  -1.29530835
| 58> *
| 59>
| 60>                          ****END OF INPUT****
 Total Charge           Charge          ....    1
 Multiplicity           Mult            ....    1
 Number of Electrons    NEL             ....  164
Dispersion correction           -0.031040961
FINAL SINGLE POINT ENERGY     -1288.397716017398
Dispersion correction            ... done
Dispersion correction           -0.031022591
FINAL SINGLE POINT ENERGY     -1288.396740686196
Dispersion correction            ... done
Dispersion correction           -0.030972295
FINAL SINGLE POINT ENERGY     -1288.397807528537
Dispersion correction            ... done
FINAL SINGLE POINT ENERGY     -1288.396906918548
FINAL SINGLE POINT ENERGY     -1288.397857651282
FINAL SINGLE POINT ENERGY     -1288.397868239900
Dispersion correction            ... done
Dispersion correction           -0.030934116
FINAL SINGLE POINT ENERGY     -1288.397877465658
Dispersion correction            ... done
Dispersion correction           -0.030940003
FINAL SINGLE POINT ENERGY     -1288.397881782833
Dispersion correction            ... done
                    ***********************HURRAY********************

CARTESIAN COORDINATES (ANGSTROEM)
---------------------------------
  Ir     0.586382   -0.723904    0.454419
  C      0.029893   -2.804626    0.339534
  C      0.119405   -2.356504    1.708391
  C      2.199022   -2.137927    0.745875
  C      1.291527   -2.643520   -0.259702
  C      1.488647   -2.000952    1.950946
  N     -1.044317    0.176459   -0.520889
  C     -2.313750    0.513356    0.141706
  C     -3.135600    1.548720   -0.608440
  H     -3.967374    1.860541    0.021685
  H     -3.572847    1.158908   -1.529171
  H     -2.556015    2.442113   -0.843242
  C     -3.111551   -0.759575    0.396280
  H     -2.018363    0.937117    1.103052
  H     -4.023817   -0.515325    0.938341
  H     -3.399484   -1.240983   -0.539280
  H     -2.559301   -1.476533    1.002132
  C     -0.835308    0.383886   -1.762465
  C      0.517854    0.152409   -2.224580
  H     -1.609185    0.749265   -2.431463
  C      1.623236    0.522516   -1.467300
  C      2.825853    0.097472   -2.103043
  S      0.939622   -0.648025   -3.672814
  C      2.609688   -0.537265   -3.285178
  H      1.543653    1.392762   -0.684294
  H      3.813262    0.305610   -1.717329
  H      3.344261   -0.930031   -3.971868
  H     -0.863256   -3.164044   -0.151083
  H     -0.665680   -2.390034    2.449535
  H      1.881349   -1.610482    2.878796
  O      1.295467    2.463270    0.272619
  O      0.535522    0.899948    1.671356
  C      0.899052    2.106142    1.377657
  C      0.833031    3.070620    2.529117
  H      0.788184    4.094875    2.169185
  H      1.736629    2.967705    3.133141
  H     -0.014340    2.866708    3.180521
  H      3.243215   -1.907368    0.595091
  H      1.544802   -2.864113   -1.286497

 Multiplicity           Mult            ....    1
 Number of Electrons    NEL             ....  164
 Basis Dimension        Dim             ....  358

ORBITAL ENERGIES
----------------

  NO   OCC          E(Eh)            E(eV)
   0   2.0000     -89.762241     -2442.5547
   1   2.0000     -19.621387      -533.9251
   2   2.0000     -19.582867      -532.8769
   3   2.0000     -14.842278      -403.8789
   4   2.0000     -10.677467      -290.5486
   5   2.0000     -10.663246      -290.1617
   6   2.0000     -10.638769      -289.4956
   7   2.0000     -10.635654      -289.4109
   8   2.0000     -10.634750      -289.3863
   9   2.0000     -10.633725      -289.3584
  10   2.0000     -10.633247      -289.3454
  11   2.0000     -10.632056      -289.3130
  12   2.0000     -10.616851      -288.8992
  13   2.0000     -10.610334      -288.7219
  14   2.0000     -10.584163      -288.0097
  15   2.0000     -10.582719      -287.9704
  16   2.0000     -10.557669      -287.2888
  17   2.0000     -10.552617      -287.1513
  18   2.0000     -10.530785      -286.5572
  19   2.0000      -8.401533      -228.6173
  20   2.0000      -6.291633      -171.2040
  21   2.0000      -6.287979      -171.1046
  22   2.0000      -6.286230      -171.0570
  23   2.0000      -4.031330      -109.6981
  24   2.0000      -2.350585       -63.9627
  25   2.0000      -2.316282       -63.0292
  26   2.0000      -2.314852       -62.9903
  27   2.0000      -1.301311       -35.4105
  28   2.0000      -1.214753       -33.0551
  29   2.0000      -1.205070       -32.7916
  30   2.0000      -1.175014       -31.9738
  31   2.0000      -1.126908       -30.6647
  32   2.0000      -1.027920       -27.9711
  33   2.0000      -0.989862       -26.9355
  34   2.0000      -0.980056       -26.6687
  35   2.0000      -0.965931       -26.2843
  36   2.0000      -0.960321       -26.1317
  37   2.0000      -0.924274       -25.1508
  38   2.0000      -0.904228       -24.6053
  39   2.0000      -0.874469       -23.7955
  40   2.0000      -0.798197       -21.7200
  41   2.0000      -0.790932       -21.5223
  42   2.0000      -0.789184       -21.4748
  43   2.0000      -0.781600       -21.2684
  44   2.0000      -0.774197       -21.0670
  45   2.0000      -0.755147       -20.5486
  46   2.0000      -0.744450       -20.2575
  47   2.0000      -0.722900       -19.6711
  48   2.0000      -0.695227       -18.9181
  49   2.0000      -0.671973       -18.2853
  50   2.0000      -0.665606       -18.1121
  51   2.0000      -0.652170       -17.7464
  52   2.0000      -0.648269       -17.6403
  53   2.0000      -0.641175       -17.4473
  54   2.0000      -0.635970       -17.3056
  55   2.0000      -0.627735       -17.0815
  56   2.0000      -0.624081       -16.9821
  57   2.0000      -0.612482       -16.6665
  58   2.0000      -0.610366       -16.6089
  59   2.0000      -0.609192       -16.5769
  60   2.0000      -0.597604       -16.2616
  61   2.0000      -0.588683       -16.0189
  62   2.0000      -0.578062       -15.7299
  63   2.0000      -0.572133       -15.5685
  64   2.0000      -0.564197       -15.3526
  65   2.0000      -0.553979       -15.0745
  66   2.0000      -0.552569       -15.0362
  67   2.0000      -0.548622       -14.9288
  68   2.0000      -0.539083       -14.6692
  69   2.0000      -0.535287       -14.5659
  70   2.0000      -0.528320       -14.3763
  71   2.0000      -0.521942       -14.2028
  72   2.0000      -0.516337       -14.0502
  73   2.0000      -0.506813       -13.7911
  74   2.0000      -0.488212       -13.2849
  75   2.0000      -0.481464       -13.1013
  76   2.0000      -0.465467       -12.6660
  77   2.0000      -0.449802       -12.2397
  78   2.0000      -0.440337       -11.9822
  79   2.0000      -0.424344       -11.5470
  80   2.0000      -0.417130       -11.3507
  81   2.0000      -0.404718       -11.0129
  82   0.0000      -0.200918        -5.4673
  83   0.0000      -0.165659        -4.5078
  84   0.0000      -0.142321        -3.8728
  85   0.0000      -0.102805        -2.7975
  86   0.0000      -0.077337        -2.1044

MULLIKEN ATOMIC CHARGES
-----------------------
   0 Ir:    0.619494
   1 C :   -0.207946
   2 C :   -0.295120
   3 C :   -0.231787
   4 C :   -0.246246
   5 C :   -0.164533
   6 N :   -0.423550
   7 C :   -0.115970
   8 C :   -0.696303
   9 H :    0.273667
  10 H :    0.226131
  11 H :    0.261041
  12 C :   -0.640473
  13 H :    0.281890
  14 H :    0.265478
  15 H :    0.230867
  16 H :    0.233547
  17 C :    0.068022
  18 C :   -0.216819
  19 H :    0.293567
  20 C :   -0.411594
  21 C :   -0.137427
  22 S :    0.294310
  23 C :   -0.430096
  24 H :    0.495579
  25 H :    0.268137
  26 H :    0.297457
  27 H :    0.292714
  28 H :    0.294148
  29 H :    0.307705
  30 O :   -0.478585
  31 O :   -0.545767
  32 C :    0.610241
  33 C :   -0.745831
  34 H :    0.268256
  35 H :    0.264460
  36 H :    0.250648
  37 H :    0.295654
  38 H :    0.295034
Sum of atomic charges:    1.0000000

LOEWDIN ATOMIC CHARGES
----------------------
   0 Ir:   -0.213342
   1 C :   -0.038640
   2 C :   -0.056681
   3 C :   -0.047547
   4 C :   -0.056535
   5 C :   -0.025355
   6 N :   -0.004662
   7 C :   -0.068229
   8 C :   -0.365048
   9 H :    0.157941
  10 H :    0.134073
  11 H :    0.147096
  12 C :   -0.343370
  13 H :    0.157082
  14 H :    0.153435
  15 H :    0.137307
  16 H :    0.134697
  17 C :    0.036440
  18 C :   -0.185036
  19 H :    0.163671
  20 C :   -0.180790
  21 C :   -0.141507
  22 S :    0.460552
  23 C :   -0.262925
  24 H :    0.276164
  25 H :    0.162905
  26 H :    0.167890
  27 H :    0.186034
  28 H :    0.186636
  29 H :    0.194279
  30 O :   -0.277086
  31 O :   -0.212429
  32 C :    0.150330
  33 C :   -0.377484
  34 H :    0.158770
  35 H :    0.165821
  36 H :    0.151946
  37 H :    0.187940
  38 H :    0.185658

  Mayer bond orders larger than 0.100000
B(  0-Ir,  1-C ) :   0.4196 B(  0-Ir,  2-C ) :   0.5479 B(  0-Ir,  3-C ) :   0.4642
B(  0-Ir,  4-C ) :   0.4497 B(  0-Ir,  5-C ) :   0.4023 B(  0-Ir,  6-N ) :   0.4617
B(  0-Ir, 20-C ) :   0.2200 B(  0-Ir, 31-O ) :   0.5956 B(  1-C ,  2-C ) :   1.1138
B(  1-C ,  4-C ) :   1.2482 B(  1-C , 27-H ) :   0.9029 B(  2-C ,  5-C ) :   1.1312
B(  2-C , 28-H ) :   0.9065 B(  3-C ,  4-C ) :   1.1036 B(  3-C ,  5-C ) :   1.2347
B(  3-C , 37-H ) :   0.9028 B(  4-C , 38-H ) :   0.8976 B(  5-C , 29-H ) :   0.8974
B(  6-N ,  7-C ) :   0.8909 B(  6-N , 17-C ) :   1.7029 B(  7-C ,  8-C ) :   0.9927
B(  7-C , 12-C ) :   0.9696 B(  7-C , 13-H ) :   0.8704 B(  8-C ,  9-H ) :   0.9031
B(  8-C , 10-H ) :   0.9122 B(  8-C , 11-H ) :   0.9077 B( 12-C , 14-H ) :   0.9061
B( 12-C , 15-H ) :   0.9152 B( 12-C , 16-H ) :   0.9104 B( 17-C , 18-C ) :   1.0422
B( 17-C , 19-H ) :   0.8735 B( 18-C , 20-C ) :   1.3053 B( 18-C , 22-S ) :   1.2203
B( 20-C , 21-C ) :   1.2585 B( 20-C , 24-H ) :   0.5137 B( 21-C , 23-C ) :   1.5500
B( 21-C , 25-H ) :   0.9036 B( 22-S , 23-C ) :   1.1996 B( 23-C , 26-H ) :   0.8924
B( 24-H , 30-O ) :   0.2158 B( 30-O , 32-C ) :   1.7233 B( 31-O , 32-C ) :   1.2548
B( 32-C , 33-C ) :   0.9457 B( 33-C , 34-H ) :   0.9059 B( 33-C , 35-H ) :   0.8999
B( 33-C , 36-H ) :   0.9102

Dispersion correction           -0.030931907
FINAL SINGLE POINT ENERGY     -1288.397887779905

DIPOLE MOMENT
-------------
                                X             Y             Z
Electronic contribution:     34.84703     -67.43485      72.50145
Nuclear contribution   :    -35.48651      66.11784     -72.78395
                        -----------------------------------------
Total Dipole Moment    :     -0.63948      -1.31701      -0.28250
                        -----------------------------------------
Magnitude (a.u.)       :      1.49106
Magnitude (Debye)      :      3.78998

Rotational constants in cm-1:     0.010788     0.009106     0.008268
Rotational constants in MHz :   323.412541   272.998352   247.869207

                             ****ORCA TERMINATED NORMALLY****
TOTAL RUN TIME: 0 days 1 hours 13 minutes 39 seconds 784 msec
