                         Program Version 5.0.3 -  RELEASE  -
|  1> ! Opt PBEh-3c
|  2> %geom Constraints
|  3> { B 0 20 2.3857142857142857 C }
|  4> { B 24 30 1.3142857142857143 C }
|  5>     end
|  6> end
|  7> %output
|  8> xyzfile=True
|  9> end
| 10> %scf
| 11> maxiter 250
| 12> end
| 13> %output
| 14> Print[P_Hirshfeld] = 1
| 15> end
| 16> % maxcore
| 17> 4000
| 18> *xyz 1 1
| 19> Ir   0.59404863  -0.74032495   0.50499425
| 20> C    0.07815633  -2.83239922   0.37231413
| 21> C   -0.02168759  -2.37023316   1.73369292
| 22> C    2.17031559  -2.12497835   1.05124905
| 23> C    1.40962574  -2.66224826  -0.05238145
| 24> C    1.29168766  -1.97863808   2.14370458
| 25> N   -1.03739580   0.12056282  -0.49739189
| 26> C   -2.32031757   0.37989500   0.17911259
| 27> C   -3.09125655   1.55442202  -0.40577002
| 28> H   -3.92506106   1.79253511   0.25325444
| 29> H   -3.52188656   1.33525089  -1.38367395
| 30> H   -2.47303332   2.44869178  -0.48662825
| 31> C   -3.15914976  -0.89276068   0.18621567
| 32> H   -2.05202650   0.62822393   1.20696427
| 33> H   -4.07534014  -0.72899312   0.75194332
| 34> H   -3.44069102  -1.18478516  -0.82637629
| 35> H   -2.63413819  -1.72671168   0.64963513
| 36> C   -0.86812926   0.37573732  -1.74105615
| 37> C    0.45879091   0.21487725  -2.27153943
| 38> H   -1.68296934   0.73430985  -2.36373075
| 39> C    1.56988935   0.32509933  -1.44707264
| 40> C    2.75599023   0.01985086  -2.16944538
| 41> S    0.85636434  -0.19718584  -3.87888900
| 42> C    2.52046106  -0.26912671  -3.48054102
| 43> H    1.58680689   1.27054594  -0.58908407
| 44> H    3.75006841   0.06966700  -1.74949464
| 45> H    3.24405746  -0.50088341  -4.24743143
| 46> H   -0.73160572  -3.22081474  -0.22827634
| 47> H   -0.89682152  -2.40864105   2.36522730
| 48> H    1.54819734  -1.56292234   3.10789362
| 49> O    1.54574658   2.34437797   0.19213348
| 50> O    0.54720726   0.96884656   1.63294298
| 51> C    1.02984841   2.10349502   1.29468808
| 52> C    0.97989657   3.17668113   2.34178773
| 53> H    0.92001834   4.16066232   1.88400218
| 54> H    1.90178847   3.14169007   2.92556694
| 55> H    0.14915123   3.02975753   3.02743918
| 56> H    3.22615131  -1.90093553   1.04888168
| 57> H    1.79661178  -2.89340738  -1.03412072
| 58> *
| 59>
| 60>                          ****END OF INPUT****
 Total Charge           Charge          ....    1
 Multiplicity           Mult            ....    1
 Number of Electrons    NEL             ....  164
Dispersion correction           -0.030592041
FINAL SINGLE POINT ENERGY     -1288.398144515170
Dispersion correction            ... done
Dispersion correction           -0.030551157
FINAL SINGLE POINT ENERGY     -1288.398301840154
Dispersion correction            ... done
Dispersion correction           -0.030519221
FINAL SINGLE POINT ENERGY     -1288.398400032829
Dispersion correction            ... done
FINAL SINGLE POINT ENERGY     -1288.398441527175
FINAL SINGLE POINT ENERGY     -1288.398463517759
FINAL SINGLE POINT ENERGY     -1288.398475211010
FINAL SINGLE POINT ENERGY     -1288.398477972489
FINAL SINGLE POINT ENERGY     -1288.398482070868
FINAL SINGLE POINT ENERGY     -1288.398486734298
FINAL SINGLE POINT ENERGY     -1288.398491156698
FINAL SINGLE POINT ENERGY     -1288.398492606667
FINAL SINGLE POINT ENERGY     -1288.398491595985
FINAL SINGLE POINT ENERGY     -1288.398491490679
Dispersion correction            ... done
Dispersion correction           -0.030414050
FINAL SINGLE POINT ENERGY     -1288.398492278630
Dispersion correction            ... done
Dispersion correction           -0.030412595
FINAL SINGLE POINT ENERGY     -1288.398493361889
Dispersion correction            ... done
                    ***********************HURRAY********************

CARTESIAN COORDINATES (ANGSTROEM)
---------------------------------
  Ir     0.591257   -0.740220    0.501987
  C      0.085698   -2.836200    0.382245
  C     -0.057203   -2.365911    1.736678
  C      2.154407   -2.112505    1.116260
  C      1.430413   -2.666001   -0.002096
  C      1.238375   -1.959274    2.179300
  N     -1.045692    0.114026   -0.498289
  C     -2.332800    0.347077    0.179662
  C     -3.111507    1.530682   -0.376849
  H     -3.948837    1.744483    0.285899
  H     -3.537733    1.333975   -1.361451
  H     -2.500366    2.431732   -0.432413
  C     -3.163515   -0.930639    0.148640
  H     -2.071320    0.571322    1.214799
  H     -4.082807   -0.789508    0.715582
  H     -3.439594   -1.195485   -0.872891
  H     -2.634740   -1.774574    0.588891
  C     -0.877976    0.401688   -1.735792
  C      0.444323    0.252170   -2.274847
  H     -1.694865    0.775452   -2.346537
  C      1.551208    0.260948   -1.439092
  C      2.733573   -0.016542   -2.177877
  S      0.841294   -0.037834   -3.908406
  C      2.498755   -0.187567   -3.510541
  H      1.634752    1.222885   -0.559771
  H      3.725978   -0.030476   -1.751367
  H      3.221274   -0.374909   -4.290436
  H     -0.702206   -3.236437   -0.239175
  H     -0.950045   -2.403729    2.342701
  H      1.462798   -1.531175    3.146132
  O      1.677016    2.292209    0.203189
  O      0.537079    0.992598    1.606902
  C      1.088569    2.094756    1.281922
  C      1.036291    3.196542    2.297675
  H      0.953834    4.164678    1.809537
  H      1.969286    3.197874    2.864269
  H      0.217516    3.058412    2.998579
  H      3.209770   -1.888967    1.147029
  H      1.847109   -2.906367   -0.969308

 Multiplicity           Mult            ....    1
 Number of Electrons    NEL             ....  164
 Basis Dimension        Dim             ....  358

ORBITAL ENERGIES
----------------

  NO   OCC          E(Eh)            E(eV)
   0   2.0000     -89.756158     -2442.3892
   1   2.0000     -19.634860      -534.2917
   2   2.0000     -19.614652      -533.7418
   3   2.0000     -14.833175      -403.6312
   4   2.0000     -10.696240      -291.0595
   5   2.0000     -10.655124      -289.9407
   6   2.0000     -10.631991      -289.3112
   7   2.0000     -10.630145      -289.2609
   8   2.0000     -10.628831      -289.2252
   9   2.0000     -10.625729      -289.1408
  10   2.0000     -10.621794      -289.0337
  11   2.0000     -10.619874      -288.9815
  12   2.0000     -10.613168      -288.7990
  13   2.0000     -10.605397      -288.5875
  14   2.0000     -10.581975      -287.9502
  15   2.0000     -10.580669      -287.9147
  16   2.0000     -10.554403      -287.1999
  17   2.0000     -10.550280      -287.0877
  18   2.0000     -10.542858      -286.8858
  19   2.0000      -8.395649      -228.4572
  20   2.0000      -6.285590      -171.0396
  21   2.0000      -6.282038      -170.9429
  22   2.0000      -6.280521      -170.9017
  23   2.0000      -4.025718      -109.5454
  24   2.0000      -2.344179       -63.7884
  25   2.0000      -2.310854       -62.8815
  26   2.0000      -2.308392       -62.8145
  27   2.0000      -1.324223       -36.0339
  28   2.0000      -1.226333       -33.3702
  29   2.0000      -1.204904       -32.7871
  30   2.0000      -1.168212       -31.7887
  31   2.0000      -1.120815       -30.4989
  32   2.0000      -1.021903       -27.8074
  33   2.0000      -0.981925       -26.7195
  34   2.0000      -0.973562       -26.4920
  35   2.0000      -0.961185       -26.1552
  36   2.0000      -0.954591       -25.9757
  37   2.0000      -0.938517       -25.5383
  38   2.0000      -0.900272       -24.4976
  39   2.0000      -0.869122       -23.6500
  40   2.0000      -0.794971       -21.6322
  41   2.0000      -0.783889       -21.3307
  42   2.0000      -0.783010       -21.3068
  43   2.0000      -0.777093       -21.1458
  44   2.0000      -0.767971       -20.8975
  45   2.0000      -0.764480       -20.8026
  46   2.0000      -0.740599       -20.1527
  47   2.0000      -0.722318       -19.6553
  48   2.0000      -0.690839       -18.7987
  49   2.0000      -0.679878       -18.5004
  50   2.0000      -0.662012       -18.0143
  51   2.0000      -0.658200       -17.9105
  52   2.0000      -0.648102       -17.6358
  53   2.0000      -0.639823       -17.4105
  54   2.0000      -0.636371       -17.3165
  55   2.0000      -0.633394       -17.2355
  56   2.0000      -0.621685       -16.9169
  57   2.0000      -0.607452       -16.5296
  58   2.0000      -0.603824       -16.4309
  59   2.0000      -0.603014       -16.4088
  60   2.0000      -0.594859       -16.1869
  61   2.0000      -0.587840       -15.9960
  62   2.0000      -0.575294       -15.6546
  63   2.0000      -0.567294       -15.4369
  64   2.0000      -0.561635       -15.2829
  65   2.0000      -0.560599       -15.2547
  66   2.0000      -0.554509       -15.0890
  67   2.0000      -0.547174       -14.8894
  68   2.0000      -0.540669       -14.7124
  69   2.0000      -0.533595       -14.5198
  70   2.0000      -0.527918       -14.3654
  71   2.0000      -0.518361       -14.1053
  72   2.0000      -0.513833       -13.9821
  73   2.0000      -0.503814       -13.7095
  74   2.0000      -0.496654       -13.5146
  75   2.0000      -0.479847       -13.0573
  76   2.0000      -0.469430       -12.7738
  77   2.0000      -0.447287       -12.1713
  78   2.0000      -0.446535       -12.1508
  79   2.0000      -0.418704       -11.3935
  80   2.0000      -0.416263       -11.3271
  81   2.0000      -0.399031       -10.8582
  82   0.0000      -0.198315        -5.3964
  83   0.0000      -0.153178        -4.1682
  84   0.0000      -0.141399        -3.8477
  85   0.0000      -0.085868        -2.3366
  86   0.0000      -0.071796        -1.9537

MULLIKEN ATOMIC CHARGES
-----------------------
   0 Ir:    0.606688
   1 C :   -0.224865
   2 C :   -0.283811
   3 C :   -0.249868
   4 C :   -0.231731
   5 C :   -0.162949
   6 N :   -0.440306
   7 C :   -0.126189
   8 C :   -0.682694
   9 H :    0.268993
  10 H :    0.224943
  11 H :    0.255768
  12 C :   -0.634315
  13 H :    0.278828
  14 H :    0.260466
  15 H :    0.232016
  16 H :    0.230369
  17 C :    0.070347
  18 C :   -0.165423
  19 H :    0.284483
  20 C :   -0.459171
  21 C :   -0.139375
  22 S :    0.320827
  23 C :   -0.424717
  24 H :    0.487410
  25 H :    0.262455
  26 H :    0.295584
  27 H :    0.289265
  28 H :    0.287799
  29 H :    0.302779
  30 O :   -0.493478
  31 O :   -0.520014
  32 C :    0.632240
  33 C :   -0.745101
  34 H :    0.273073
  35 H :    0.273704
  36 H :    0.259749
  37 H :    0.289739
  38 H :    0.296485
Sum of atomic charges:    1.0000000

LOEWDIN ATOMIC CHARGES
----------------------
   0 Ir:   -0.235245
   1 C :   -0.050426
   2 C :   -0.078666
   3 C :   -0.075373
   4 C :   -0.041353
   5 C :   -0.016617
   6 N :   -0.014211
   7 C :   -0.068984
   8 C :   -0.362473
   9 H :    0.155962
  10 H :    0.132933
  11 H :    0.144383
  12 C :   -0.344052
  13 H :    0.154399
  14 H :    0.151328
  15 H :    0.137651
  16 H :    0.131963
  17 C :    0.033293
  18 C :   -0.199446
  19 H :    0.159374
  20 C :   -0.212901
  21 C :   -0.140178
  22 S :    0.475288
  23 C :   -0.259218
  24 H :    0.334097
  25 H :    0.159808
  26 H :    0.167539
  27 H :    0.184165
  28 H :    0.183090
  29 H :    0.191310
  30 O :   -0.268221
  31 O :   -0.188169
  32 C :    0.167985
  33 C :   -0.372386
  34 H :    0.164118
  35 H :    0.171493
  36 H :    0.155221
  37 H :    0.185315
  38 H :    0.187204

  Mayer bond orders larger than 0.100000
B(  0-Ir,  1-C ) :   0.4281 B(  0-Ir,  2-C ) :   0.4994 B(  0-Ir,  3-C ) :   0.4616
B(  0-Ir,  4-C ) :   0.4474 B(  0-Ir,  5-C ) :   0.4020 B(  0-Ir,  6-N ) :   0.4689
B(  0-Ir, 20-C ) :   0.3389 B(  0-Ir, 31-O ) :   0.5383 B(  1-C ,  2-C ) :   1.1211
B(  1-C ,  4-C ) :   1.2360 B(  1-C , 27-H ) :   0.9053 B(  2-C ,  5-C ) :   1.1546
B(  2-C , 28-H ) :   0.9090 B(  3-C ,  4-C ) :   1.1174 B(  3-C ,  5-C ) :   1.2130
B(  3-C , 37-H ) :   0.9082 B(  4-C , 38-H ) :   0.8999 B(  5-C , 29-H ) :   0.8989
B(  6-N ,  7-C ) :   0.8934 B(  6-N , 17-C ) :   1.6577 B(  7-C ,  8-C ) :   0.9910
B(  7-C , 12-C ) :   0.9677 B(  7-C , 13-H ) :   0.8775 B(  8-C ,  9-H ) :   0.9047
B(  8-C , 10-H ) :   0.9130 B(  8-C , 11-H ) :   0.9113 B( 12-C , 14-H ) :   0.9075
B( 12-C , 15-H ) :   0.9155 B( 12-C , 16-H ) :   0.9130 B( 17-C , 18-C ) :   1.0981
B( 17-C , 19-H ) :   0.8760 B( 18-C , 20-C ) :   1.2823 B( 18-C , 22-S ) :   1.2162
B( 20-C , 21-C ) :   1.2943 B( 20-C , 24-H ) :   0.3770 B( 21-C , 23-C ) :   1.5352
B( 21-C , 25-H ) :   0.9052 B( 22-S , 23-C ) :   1.2208 B( 23-C , 26-H ) :   0.8919
B( 24-H , 30-O ) :   0.3095 B( 30-O , 32-C ) :   1.5864 B( 31-O , 32-C ) :   1.3536
B( 32-C , 33-C ) :   0.9483 B( 33-C , 34-H ) :   0.9008 B( 33-C , 35-H ) :   0.8941
B( 33-C , 36-H ) :   0.9083

Dispersion correction           -0.030411443
FINAL SINGLE POINT ENERGY     -1288.398494494871

DIPOLE MOMENT
-------------
                                X             Y             Z
Electronic contribution:     35.54001     -72.43766      78.79902
Nuclear contribution   :    -36.15808      71.67398     -78.88326
                        -----------------------------------------
Total Dipole Moment    :     -0.61807      -0.76368      -0.08424
                        -----------------------------------------
Magnitude (a.u.)       :      0.98606
Magnitude (Debye)      :      2.50637

Rotational constants in cm-1:     0.010532     0.008692     0.008092
Rotational constants in MHz :   315.746061   260.573444   242.594356

                             ****ORCA TERMINATED NORMALLY****
TOTAL RUN TIME: 0 days 1 hours 53 minutes 3 seconds 585 msec
