                         Program Version 5.0.3 -  RELEASE  -
|  1> ! Opt PBEh-3c
|  2> %geom Constraints
|  3> { B 0 20 2.3 C }
|  4> { B 24 30 1.3 C }
|  5>     end
|  6> end
|  7> %output
|  8> xyzfile=True
|  9> end
| 10> %scf
| 11> maxiter 250
| 12> end
| 13> %output
| 14> Print[P_Hirshfeld] = 1
| 15> end
| 16> % maxcore
| 17> 4000
| 18> *xyz 1 1
| 19> Ir   0.59420216  -0.73939566   0.49385827
| 20> C    0.09581690  -2.83853162   0.38070035
| 21> C   -0.07557714  -2.36683561   1.73111237
| 22> C    2.14737198  -2.10385918   1.15227873
| 23> C    1.44877187  -2.66691472   0.02423938
| 24> C    1.20639747  -1.94982764   2.19580251
| 25> N   -1.05016807   0.11071287  -0.49848893
| 26> C   -2.33759423   0.32884366   0.18329039
| 27> C   -3.11746054   1.52287077  -0.34942985
| 28> H   -3.95557449   1.72184764   0.31681418
| 29> H   -3.54207613   1.34653930  -1.33857813
| 30> H   -2.50686416   2.42528672  -0.38554702
| 31> C   -3.16683675  -0.94883984   0.12510195
| 32> H   -2.07756096   0.53310392   1.22289700
| 33> H   -4.08637749  -0.82177702   0.69502543
| 34> H   -3.44251673  -1.19202866  -0.90191813
| 35> H   -2.63674518  -1.80173298   0.54614391
| 36> C   -0.88642248   0.41578069  -1.73281881
| 37> C    0.43339896   0.26894481  -2.27520158
| 38> H   -1.70452197   0.79904751  -2.33571436
| 39> C    1.53193103   0.21389661  -1.42990835
| 40> C    2.71652918  -0.04764401  -2.17111533
| 41> S    0.84078954   0.05237003  -3.91677492
| 42> C    2.49067341  -0.14679878  -3.51291487
| 43> H    1.64598565   1.19757292  -0.55773888
| 44> H    3.70469469  -0.10134786  -1.73801322
| 45> H    3.21695546  -0.30866619  -4.29501057
| 46> H   -0.67643573  -3.24679472  -0.25490519
| 47> H   -0.98018201  -2.40546248   2.31920161
| 48> H    1.40901839  -1.51567521   3.16477260
| 49> O    1.71763858   2.27642689   0.18944708
| 50> O    0.53993979   1.00585714   1.58741912
| 51> C    1.11228826   2.09545419   1.26391519
| 52> C    1.06643028   3.20886630   2.26663031
| 53> H    0.94943744   4.16796423   1.76713771
| 54> H    2.01621936   3.23964546   2.80343920
| 55> H    0.27048360   3.06434755   2.99165998
| 56> H    3.20191740  -1.88143411   1.20670815
| 57> H    1.88539278  -2.91262294  -0.93277718
| 58> *
| 59>
| 60>                          ****END OF INPUT****
 Total Charge           Charge          ....    1
 Multiplicity           Mult            ....    1
 Number of Electrons    NEL             ....  164
Dispersion correction           -0.030505723
FINAL SINGLE POINT ENERGY     -1288.401839019587
Dispersion correction            ... done
Dispersion correction           -0.030468071
FINAL SINGLE POINT ENERGY     -1288.402014265057
Dispersion correction            ... done
Dispersion correction           -0.030438828
FINAL SINGLE POINT ENERGY     -1288.402130024678
Dispersion correction            ... done
FINAL SINGLE POINT ENERGY     -1288.402173098269
Dispersion correction            ... done
Dispersion correction           -0.030391927
FINAL SINGLE POINT ENERGY     -1288.402188532324
Dispersion correction            ... done
Dispersion correction           -0.030392934
FINAL SINGLE POINT ENERGY     -1288.402189618746
Dispersion correction            ... done
                    ***********************HURRAY********************

CARTESIAN COORDINATES (ANGSTROEM)
---------------------------------
  Ir     0.593712   -0.743419    0.484531
  C      0.082269   -2.840708    0.403967
  C     -0.087415   -2.359716    1.750392
  C      2.137090   -2.108885    1.167017
  C      1.437578   -2.680752    0.045210
  C      1.193900   -1.939735    2.208234
  N     -1.054763    0.103739   -0.504855
  C     -2.343378    0.308441    0.178581
  C     -3.131603    1.501857   -0.343172
  H     -3.970393    1.688856    0.325588
  H     -3.555919    1.331077   -1.333439
  H     -2.527545    2.408971   -0.371743
  C     -3.166241   -0.972914    0.110434
  H     -2.084729    0.505633    1.220022
  H     -4.088219   -0.853369    0.678099
  H     -3.437294   -1.211291   -0.918917
  H     -2.633808   -1.825687    0.528380
  C     -0.889929    0.433278   -1.733186
  C      0.428326    0.291855   -2.275795
  H     -1.706909    0.830779   -2.328005
  C      1.512286    0.160359   -1.420570
  C      2.703785   -0.071195   -2.159902
  S      0.856783    0.179898   -3.921961
  C      2.496306   -0.074447   -3.508986
  H      1.657127    1.183572   -0.548910
  H      3.684311   -0.174085   -1.718451
  H      3.232209   -0.197005   -4.289229
  H     -0.690951   -3.252517   -0.228172
  H     -0.992055   -2.389472    2.338694
  H      1.398031   -1.495433    3.172299
  O      1.758190    2.258666    0.174940
  O      0.543700    1.017965    1.565992
  C      1.135093    2.093373    1.246251
  C      1.099952    3.218847    2.235010
  H      0.997471    4.173814    1.724520
  H      2.047541    3.243591    2.775989
  H      0.298505    3.091988    2.957154
  H      3.193079   -1.893945    1.222512
  H      1.873277   -2.942793   -0.907784

 Multiplicity           Mult            ....    1
 Number of Electrons    NEL             ....  164
 Basis Dimension        Dim             ....  358

ORBITAL ENERGIES
----------------

  NO   OCC          E(Eh)            E(eV)
   0   2.0000     -89.756345     -2442.3943
   1   2.0000     -19.638726      -534.3969
   2   2.0000     -19.625765      -534.0442
   3   2.0000     -14.831102      -403.5748
   4   2.0000     -10.701407      -291.2001
   5   2.0000     -10.653108      -289.8858
   6   2.0000     -10.629345      -289.2392
   7   2.0000     -10.627058      -289.1770
   8   2.0000     -10.626039      -289.1492
   9   2.0000     -10.620436      -288.9968
  10   2.0000     -10.617942      -288.9289
  11   2.0000     -10.617499      -288.9168
  12   2.0000     -10.612157      -288.7715
  13   2.0000     -10.605599      -288.5930
  14   2.0000     -10.584905      -288.0299
  15   2.0000     -10.581948      -287.9494
  16   2.0000     -10.553118      -287.1649
  17   2.0000     -10.549816      -287.0751
  18   2.0000     -10.546654      -286.9891
  19   2.0000      -8.395802      -228.4614
  20   2.0000      -6.285717      -171.0431
  21   2.0000      -6.282190      -170.9471
  22   2.0000      -6.280702      -170.9066
  23   2.0000      -4.023081      -109.4736
  24   2.0000      -2.340905       -63.6993
  25   2.0000      -2.308523       -62.8181
  26   2.0000      -2.305556       -62.7374
  27   2.0000      -1.330875       -36.2149
  28   2.0000      -1.232245       -33.5311
  29   2.0000      -1.203221       -32.7413
  30   2.0000      -1.164611       -31.6907
  31   2.0000      -1.121107       -30.5069
  32   2.0000      -1.021168       -27.7874
  33   2.0000      -0.977802       -26.6073
  34   2.0000      -0.970308       -26.4034
  35   2.0000      -0.961693       -26.1690
  36   2.0000      -0.954917       -25.9846
  37   2.0000      -0.942468       -25.6459
  38   2.0000      -0.899426       -24.4746
  39   2.0000      -0.868319       -23.6281
  40   2.0000      -0.794478       -21.6189
  41   2.0000      -0.780490       -21.2382
  42   2.0000      -0.780062       -21.2266
  43   2.0000      -0.777059       -21.1448
  44   2.0000      -0.767146       -20.8751
  45   2.0000      -0.764824       -20.8119
  46   2.0000      -0.740153       -20.1406
  47   2.0000      -0.721965       -19.6457
  48   2.0000      -0.691841       -18.8259
  49   2.0000      -0.681992       -18.5579
  50   2.0000      -0.663145       -18.0451
  51   2.0000      -0.661769       -18.0076
  52   2.0000      -0.649588       -17.6762
  53   2.0000      -0.639161       -17.3925
  54   2.0000      -0.633424       -17.2363
  55   2.0000      -0.631615       -17.1871
  56   2.0000      -0.620880       -16.8950
  57   2.0000      -0.606763       -16.5109
  58   2.0000      -0.600543       -16.3416
  59   2.0000      -0.599813       -16.3217
  60   2.0000      -0.594950       -16.1894
  61   2.0000      -0.588497       -16.0138
  62   2.0000      -0.575721       -15.6662
  63   2.0000      -0.569921       -15.5083
  64   2.0000      -0.561562       -15.2809
  65   2.0000      -0.560126       -15.2418
  66   2.0000      -0.556806       -15.1515
  67   2.0000      -0.546147       -14.8614
  68   2.0000      -0.541092       -14.7239
  69   2.0000      -0.534085       -14.5332
  70   2.0000      -0.527843       -14.3633
  71   2.0000      -0.517665       -14.0864
  72   2.0000      -0.512989       -13.9591
  73   2.0000      -0.503588       -13.7033
  74   2.0000      -0.498249       -13.5580
  75   2.0000      -0.479260       -13.0413
  76   2.0000      -0.475300       -12.9336
  77   2.0000      -0.448969       -12.2171
  78   2.0000      -0.445807       -12.1310
  79   2.0000      -0.418034       -11.3753
  80   2.0000      -0.414828       -11.2880
  81   2.0000      -0.396897       -10.8001
  82   0.0000      -0.196857        -5.3568
  83   0.0000      -0.144676        -3.9368
  84   0.0000      -0.141869        -3.8604
  85   0.0000      -0.083368        -2.2686
  86   0.0000      -0.072866        -1.9828

MULLIKEN ATOMIC CHARGES
-----------------------
   0 Ir:    0.601530
   1 C :   -0.231053
   2 C :   -0.276361
   3 C :   -0.256333
   4 C :   -0.230559
   5 C :   -0.160493
   6 N :   -0.442021
   7 C :   -0.124783
   8 C :   -0.682413
   9 H :    0.268696
  10 H :    0.225040
  11 H :    0.253816
  12 C :   -0.633995
  13 H :    0.277502
  14 H :    0.259095
  15 H :    0.232406
  16 H :    0.231066
  17 C :    0.069700
  18 C :   -0.147378
  19 H :    0.283420
  20 C :   -0.483215
  21 C :   -0.133167
  22 S :    0.328679
  23 C :   -0.424094
  24 H :    0.480831
  25 H :    0.262406
  26 H :    0.295753
  27 H :    0.287835
  28 H :    0.284960
  29 H :    0.299931
  30 O :   -0.493598
  31 O :   -0.508887
  32 C :    0.635339
  33 C :   -0.744728
  34 H :    0.274534
  35 H :    0.276152
  36 H :    0.262725
  37 H :    0.286436
  38 H :    0.295229
Sum of atomic charges:    1.0000000

LOEWDIN ATOMIC CHARGES
----------------------
   0 Ir:   -0.248751
   1 C :   -0.051839
   2 C :   -0.089052
   3 C :   -0.083808
   4 C :   -0.041323
   5 C :   -0.016228
   6 N :   -0.013847
   7 C :   -0.068710
   8 C :   -0.362409
   9 H :    0.155755
  10 H :    0.132892
  11 H :    0.143377
  12 C :   -0.344198
  13 H :    0.153704
  14 H :    0.150711
  15 H :    0.137875
  16 H :    0.132065
  17 C :    0.031869
  18 C :   -0.201843
  19 H :    0.158931
  20 C :   -0.215757
  21 C :   -0.138578
  22 S :    0.480766
  23 C :   -0.257760
  24 H :    0.351045
  25 H :    0.159788
  26 H :    0.167857
  27 H :    0.183316
  28 H :    0.181617
  29 H :    0.189633
  30 O :   -0.262187
  31 O :   -0.179379
  32 C :    0.170618
  33 C :   -0.371283
  34 H :    0.165722
  35 H :    0.172746
  36 H :    0.156473
  37 H :    0.183736
  38 H :    0.186455

  Mayer bond orders larger than 0.100000
B(  0-Ir,  1-C ) :   0.4337 B(  0-Ir,  2-C ) :   0.4648 B(  0-Ir,  3-C ) :   0.4614
B(  0-Ir,  4-C ) :   0.4432 B(  0-Ir,  5-C ) :   0.3961 B(  0-Ir,  6-N ) :   0.4690
B(  0-Ir, 20-C ) :   0.3993 B(  0-Ir, 31-O ) :   0.5199 B(  1-C ,  2-C ) :   1.1267
B(  1-C ,  4-C ) :   1.2286 B(  1-C , 27-H ) :   0.9061 B(  2-C ,  5-C ) :   1.1725
B(  2-C , 28-H ) :   0.9101 B(  3-C ,  4-C ) :   1.1259 B(  3-C ,  5-C ) :   1.2003
B(  3-C , 37-H ) :   0.9101 B(  4-C , 38-H ) :   0.9005 B(  5-C , 29-H ) :   0.9002
B(  6-N ,  7-C ) :   0.8950 B(  6-N , 17-C ) :   1.6480 B(  7-C ,  8-C ) :   0.9907
B(  7-C , 12-C ) :   0.9675 B(  7-C , 13-H ) :   0.8783 B(  8-C ,  9-H ) :   0.9049
B(  8-C , 10-H ) :   0.9130 B(  8-C , 11-H ) :   0.9121 B( 12-C , 14-H ) :   0.9078
B( 12-C , 15-H ) :   0.9155 B( 12-C , 16-H ) :   0.9128 B( 17-C , 18-C ) :   1.1104
B( 17-C , 19-H ) :   0.8764 B( 18-C , 20-C ) :   1.2677 B( 18-C , 22-S ) :   1.2159
B( 20-C , 21-C ) :   1.3001 B( 20-C , 24-H ) :   0.3358 B( 21-C , 23-C ) :   1.5316
B( 21-C , 25-H ) :   0.9049 B( 22-S , 23-C ) :   1.2264 B( 23-C , 26-H ) :   0.8917
B( 24-H , 30-O ) :   0.3454 B( 30-O , 32-C ) :   1.5467 B( 31-O , 32-C ) :   1.3870
B( 32-C , 33-C ) :   0.9478 B( 33-C , 34-H ) :   0.8992 B( 33-C , 35-H ) :   0.8926
B( 33-C , 36-H ) :   0.9077

Dispersion correction           -0.030394688
FINAL SINGLE POINT ENERGY     -1288.402192843727

DIPOLE MOMENT
-------------
                                X             Y             Z
Electronic contribution:     35.66686     -74.04501      77.26424
Nuclear contribution   :    -36.24988      73.50521     -77.33336
                        -----------------------------------------
Total Dipole Moment    :     -0.58302      -0.53980      -0.06912
                        -----------------------------------------
Magnitude (a.u.)       :      0.79754
Magnitude (Debye)      :      2.02719

Rotational constants in cm-1:     0.010555     0.008632     0.008098
Rotational constants in MHz :   316.441560   258.775536   242.768200

                             ****ORCA TERMINATED NORMALLY****
TOTAL RUN TIME: 0 days 0 hours 59 minutes 16 seconds 607 msec
