                         Program Version 5.0.3 -  RELEASE  -
|  1> ! Opt PBEh-3c
|  2> %geom Constraints
|  3> { B 0 20 2.6 C }
|  4> { B 24 30 1.4 C }
|  5>     end
|  6> end
|  7> %output
|  8> xyzfile=True
|  9> end
| 10> %scf
| 11> maxiter 250
| 12> end
| 13> %output
| 14> Print[P_Hirshfeld] = 1
| 15> end
| 16> % maxcore
| 17> 4000
| 18> *xyz 1 1
| 19> Ir   0.56979749  -0.73591669   0.48939552
| 20> C    0.01542048  -2.81315927   0.34937553
| 21> C    0.10302313  -2.37503891   1.72244892
| 22> C    2.18394877  -2.15021776   0.76742604
| 23> C    1.27754664  -2.64441433  -0.24527819
| 24> C    1.47355838  -2.02558974   1.97291603
| 25> N   -1.04081620   0.17034198  -0.50908657
| 26> C   -2.31669977   0.50905458   0.14156552
| 27> C   -3.13270136   1.54170987  -0.61879971
| 28> H   -3.96836977   1.85691396   0.00442321
| 29> H   -3.56404674   1.14815027  -1.54065297
| 30> H   -2.55075901   2.43341924  -0.85407252
| 31> C   -3.11654083  -0.76297863   0.39392858
| 32> H   -2.03043386   0.93675799   1.10405071
| 33> H   -4.03487422  -0.51700613   0.92486083
| 34> H   -3.39395932  -1.24921919  -0.54232688
| 35> H   -2.57080526  -1.47679756   1.00945638
| 36> C   -0.82377450   0.37278527  -1.75059281
| 37> C    0.52976116   0.15192179  -2.21621230
| 38> H   -1.59924441   0.72982484  -2.42260334
| 39> C    1.64104648   0.56322338  -1.49168011
| 40> C    2.83805664   0.14767952  -2.14177928
| 41> S    0.93968636  -0.66277101  -3.66437548
| 42> C    2.61264319  -0.51279196  -3.30895399
| 43> H    1.54790890   1.42029591  -0.67778502
| 44> H    3.82892652   0.37937708  -1.77894129
| 45> H    3.34290575  -0.90475823  -4.00075785
| 46> H   -0.87703692  -3.16780479  -0.14588969
| 47> H   -0.68398320  -2.41452205   2.46145828
| 48> H    1.86531119  -1.64617841   2.90571565
| 49> O    1.30022127   2.43897058   0.27150780
| 50> O    0.53970130   0.89556973   1.69271499
| 51> C    0.90679006   2.09618948   1.38330294
| 52> C    0.85180040   3.07534735   2.52196719
| 53> H    0.80429530   4.09483837   2.14907178
| 54> H    1.76122418   2.97987557   3.11848070
| 55> H    0.01055102   2.88008963   3.18374631
| 56> H    3.22723117  -1.91418057   0.61781589
| 57> H    1.53205961  -2.84980114  -1.27510066
| 58> *
| 59>
| 60>                          ****END OF INPUT****
 Total Charge           Charge          ....    1
 Multiplicity           Mult            ....    1
 Number of Electrons    NEL             ....  164
Dispersion correction           -0.030882078
FINAL SINGLE POINT ENERGY     -1288.394021245432
Dispersion correction            ... done
Dispersion correction           -0.030847162
FINAL SINGLE POINT ENERGY     -1288.394016050077
Dispersion correction            ... done
Dispersion correction           -0.030818049
FINAL SINGLE POINT ENERGY     -1288.393885871374
Dispersion correction            ... done
FINAL SINGLE POINT ENERGY     -1288.393868147442
FINAL SINGLE POINT ENERGY     -1288.393950969933
FINAL SINGLE POINT ENERGY     -1288.394038469980
Dispersion correction            ... done
Dispersion correction           -0.030856482
FINAL SINGLE POINT ENERGY     -1288.394041621081
Dispersion correction            ... done
Dispersion correction           -0.030857244
FINAL SINGLE POINT ENERGY     -1288.394046799481
Dispersion correction            ... done
                    ***********************HURRAY********************

CARTESIAN COORDINATES (ANGSTROEM)
---------------------------------
  Ir     0.567916   -0.737381    0.493984
  C      0.012694   -2.814027    0.354049
  C      0.098368   -2.376172    1.727167
  C      2.181020   -2.152301    0.775294
  C      1.275841   -2.645794   -0.238842
  C      1.468647   -2.027148    1.979605
  N     -1.040896    0.167201   -0.508193
  C     -2.318163    0.503546    0.141294
  C     -3.132597    1.539458   -0.616489
  H     -3.968681    1.853238    0.006911
  H     -3.563355    1.149558   -1.540156
  H     -2.549629    2.431430   -0.848181
  C     -3.118994   -0.769112    0.387306
  H     -2.033922    0.927680    1.105964
  H     -4.038606   -0.524810    0.916810
  H     -3.394150   -1.252046   -0.551323
  H     -2.574948   -1.485227    1.001662
  C     -0.824303    0.369908   -1.750058
  C      0.528828    0.154189   -2.217623
  H     -1.601601    0.724439   -2.421312
  C      1.639388    0.559277   -1.488597
  C      2.836569    0.150477   -2.142407
  S      0.939415   -0.645392   -3.674180
  C      2.611935   -0.498054   -3.316626
  H      1.546019    1.419365   -0.667424
  H      3.827408    0.378621   -1.777176
  H      3.342725   -0.882370   -4.012175
  H     -0.879152   -3.168140   -0.142705
  H     -0.689814   -2.415429    2.464917
  H      1.859203   -1.648108    2.913055
  O      1.312530    2.433591    0.268967
  O      0.539493    0.898930    1.692866
  C      0.913683    2.095791    1.381356
  C      0.861719    3.079975    2.515477
  H      0.816484    4.098027    2.138398
  H      1.771463    2.984827    3.111581
  H      0.020476    2.889261    3.178525
  H      3.224684   -1.916908    0.627359
  H      1.531674   -2.851178   -1.268338

 Multiplicity           Mult            ....    1
 Number of Electrons    NEL             ....  164
 Basis Dimension        Dim             ....  358

ORBITAL ENERGIES
----------------

  NO   OCC          E(Eh)            E(eV)
   0   2.0000     -89.757552     -2442.4272
   1   2.0000     -19.624622      -534.0131
   2   2.0000     -19.586703      -532.9813
   3   2.0000     -14.840820      -403.8392
   4   2.0000     -10.681493      -290.6582
   5   2.0000     -10.661835      -290.1233
   6   2.0000     -10.639624      -289.5189
   7   2.0000     -10.638072      -289.4767
   8   2.0000     -10.635837      -289.4158
   9   2.0000     -10.634987      -289.3927
  10   2.0000     -10.633614      -289.3553
  11   2.0000     -10.628226      -289.2087
  12   2.0000     -10.616833      -288.8987
  13   2.0000     -10.607225      -288.6373
  14   2.0000     -10.579612      -287.8859
  15   2.0000     -10.577710      -287.8341
  16   2.0000     -10.557689      -287.2893
  17   2.0000     -10.552428      -287.1462
  18   2.0000     -10.532756      -286.6109
  19   2.0000      -8.396855      -228.4900
  20   2.0000      -6.286972      -171.0772
  21   2.0000      -6.283342      -170.9784
  22   2.0000      -6.281515      -170.9287
  23   2.0000      -4.032561      -109.7316
  24   2.0000      -2.352177       -64.0060
  25   2.0000      -2.317526       -63.0631
  26   2.0000      -2.315843       -63.0173
  27   2.0000      -1.305578       -35.5266
  28   2.0000      -1.213099       -33.0101
  29   2.0000      -1.209211       -32.9043
  30   2.0000      -1.176571       -32.0161
  31   2.0000      -1.122327       -30.5401
  32   2.0000      -1.026377       -27.9291
  33   2.0000      -0.991539       -26.9811
  34   2.0000      -0.981482       -26.7075
  35   2.0000      -0.962364       -26.1873
  36   2.0000      -0.956260       -26.0212
  37   2.0000      -0.927031       -25.2258
  38   2.0000      -0.904002       -24.5991
  39   2.0000      -0.872340       -23.7376
  40   2.0000      -0.796542       -21.6750
  41   2.0000      -0.792255       -21.5584
  42   2.0000      -0.790397       -21.5078
  43   2.0000      -0.779834       -21.2204
  44   2.0000      -0.774140       -21.0654
  45   2.0000      -0.756985       -20.5986
  46   2.0000      -0.744278       -20.2528
  47   2.0000      -0.722121       -19.6499
  48   2.0000      -0.695069       -18.9138
  49   2.0000      -0.672928       -18.3113
  50   2.0000      -0.665100       -18.0983
  51   2.0000      -0.652453       -17.7542
  52   2.0000      -0.649840       -17.6830
  53   2.0000      -0.641664       -17.4606
  54   2.0000      -0.638185       -17.3659
  55   2.0000      -0.630372       -17.1533
  56   2.0000      -0.624369       -16.9899
  57   2.0000      -0.612631       -16.6705
  58   2.0000      -0.611626       -16.6432
  59   2.0000      -0.608577       -16.5602
  60   2.0000      -0.595733       -16.2107
  61   2.0000      -0.586656       -15.9637
  62   2.0000      -0.574949       -15.6452
  63   2.0000      -0.569009       -15.4835
  64   2.0000      -0.562857       -15.3161
  65   2.0000      -0.554551       -15.0901
  66   2.0000      -0.552665       -15.0388
  67   2.0000      -0.548486       -14.9251
  68   2.0000      -0.539514       -14.6809
  69   2.0000      -0.534064       -14.5326
  70   2.0000      -0.527778       -14.3616
  71   2.0000      -0.522218       -14.2103
  72   2.0000      -0.516475       -14.0540
  73   2.0000      -0.508834       -13.8461
  74   2.0000      -0.490306       -13.3419
  75   2.0000      -0.480846       -13.0845
  76   2.0000      -0.462468       -12.5844
  77   2.0000      -0.452422       -12.3110
  78   2.0000      -0.440765       -11.9938
  79   2.0000      -0.422192       -11.4884
  80   2.0000      -0.417153       -11.3513
  81   2.0000      -0.404000       -10.9934
  82   0.0000      -0.201095        -5.4721
  83   0.0000      -0.167057        -4.5458
  84   0.0000      -0.142011        -3.8643
  85   0.0000      -0.100565        -2.7365
  86   0.0000      -0.076827        -2.0906

MULLIKEN ATOMIC CHARGES
-----------------------
   0 Ir:    0.625072
   1 C :   -0.207439
   2 C :   -0.298006
   3 C :   -0.229259
   4 C :   -0.244161
   5 C :   -0.166351
   6 N :   -0.428361
   7 C :   -0.115611
   8 C :   -0.696064
   9 H :    0.273257
  10 H :    0.226625
  11 H :    0.260765
  12 C :   -0.640296
  13 H :    0.280343
  14 H :    0.265505
  15 H :    0.231030
  16 H :    0.232741
  17 C :    0.066239
  18 C :   -0.231236
  19 H :    0.292167
  20 C :   -0.381322
  21 C :   -0.150923
  22 S :    0.287400
  23 C :   -0.426604
  24 H :    0.496237
  25 H :    0.265556
  26 H :    0.295662
  27 H :    0.293693
  28 H :    0.295356
  29 H :    0.307923
  30 O :   -0.485805
  31 O :   -0.544613
  32 C :    0.614372
  33 C :   -0.746434
  34 H :    0.269223
  35 H :    0.265796
  36 H :    0.252246
  37 H :    0.298012
  38 H :    0.297266
Sum of atomic charges:    1.0000000

LOEWDIN ATOMIC CHARGES
----------------------
   0 Ir:   -0.202819
   1 C :   -0.039312
   2 C :   -0.051831
   3 C :   -0.043725
   4 C :   -0.053228
   5 C :   -0.027542
   6 N :   -0.010376
   7 C :   -0.067987
   8 C :   -0.365013
   9 H :    0.157691
  10 H :    0.134234
  11 H :    0.146976
  12 C :   -0.343530
  13 H :    0.156161
  14 H :    0.153355
  15 H :    0.137385
  16 H :    0.134375
  17 C :    0.037722
  18 C :   -0.195689
  19 H :    0.162884
  20 C :   -0.182220
  21 C :   -0.149045
  22 S :    0.450871
  23 C :   -0.262033
  24 H :    0.280308
  25 H :    0.161309
  26 H :    0.166976
  27 H :    0.186605
  28 H :    0.187160
  29 H :    0.194428
  30 O :   -0.277957
  31 O :   -0.209742
  32 C :    0.155454
  33 C :   -0.376782
  34 H :    0.159452
  35 H :    0.166759
  36 H :    0.152778
  37 H :    0.189053
  38 H :    0.186893

  Mayer bond orders larger than 0.100000
B(  0-Ir,  1-C ) :   0.4224 B(  0-Ir,  2-C ) :   0.5645 B(  0-Ir,  3-C ) :   0.4646
B(  0-Ir,  4-C ) :   0.4543 B(  0-Ir,  5-C ) :   0.4040 B(  0-Ir,  6-N ) :   0.4664
B(  0-Ir, 20-C ) :   0.1972 B(  0-Ir, 31-O ) :   0.5928 B(  1-C ,  2-C ) :   1.1099
B(  1-C ,  4-C ) :   1.2468 B(  1-C , 27-H ) :   0.9025 B(  2-C ,  5-C ) :   1.1263
B(  2-C , 28-H ) :   0.9056 B(  3-C ,  4-C ) :   1.1027 B(  3-C ,  5-C ) :   1.2368
B(  3-C , 37-H ) :   0.9016 B(  4-C , 38-H ) :   0.8966 B(  5-C , 29-H ) :   0.8973
B(  6-N ,  7-C ) :   0.8905 B(  6-N , 17-C ) :   1.6992 B(  7-C ,  8-C ) :   0.9930
B(  7-C , 12-C ) :   0.9697 B(  7-C , 13-H ) :   0.8719 B(  8-C ,  9-H ) :   0.9031
B(  8-C , 10-H ) :   0.9121 B(  8-C , 11-H ) :   0.9078 B( 12-C , 14-H ) :   0.9061
B( 12-C , 15-H ) :   0.9152 B( 12-C , 16-H ) :   0.9106 B( 17-C , 18-C ) :   1.0477
B( 17-C , 19-H ) :   0.8735 B( 18-C , 20-C ) :   1.3157 B( 18-C , 22-S ) :   1.2050
B( 20-C , 21-C ) :   1.2686 B( 20-C , 24-H ) :   0.5070 B( 21-C , 23-C ) :   1.5449
B( 21-C , 25-H ) :   0.9044 B( 22-S , 23-C ) :   1.2026 B( 23-C , 26-H ) :   0.8931
B( 24-H , 30-O ) :   0.2139 B( 30-O , 32-C ) :   1.7054 B( 31-O , 32-C ) :   1.2639
B( 32-C , 33-C ) :   0.9472 B( 33-C , 34-H ) :   0.9054 B( 33-C , 35-H ) :   0.8990
B( 33-C , 36-H ) :   0.9096

Dispersion correction           -0.030851708
FINAL SINGLE POINT ENERGY     -1288.394047687904

DIPOLE MOMENT
-------------
                                X             Y             Z
Electronic contribution:     32.99589     -68.63282      76.35504
Nuclear contribution   :    -33.63752      67.34892     -76.50266
                        -----------------------------------------
Total Dipole Moment    :     -0.64163      -1.28390      -0.14762
                        -----------------------------------------
Magnitude (a.u.)       :      1.44287
Magnitude (Debye)      :      3.66749

Rotational constants in cm-1:     0.010703     0.009023     0.008224
Rotational constants in MHz :   320.874479   270.508910   246.542951

                             ****ORCA TERMINATED NORMALLY****
TOTAL RUN TIME: 0 days 1 hours 12 minutes 26 seconds 633 msec
