                         Program Version 5.0.3 -  RELEASE  -
|  1> ! Opt PBEh-3c
|  2> %geom Constraints
|  3> { B 0 20 2.0428571428571427 C }
|  4> { B 24 30 1.4285714285714286 C }
|  5>     end
|  6> end
|  7> %output
|  8> xyzfile=True
|  9> end
| 10> %scf
| 11> maxiter 250
| 12> end
| 13> %output
| 14> Print[P_Hirshfeld] = 1
| 15> end
| 16> % maxcore
| 17> 4000
| 18> *xyz 1 1
| 19> Ir   0.62213631  -0.72191161   0.40412117
| 20> C    0.15306638  -2.84296993   0.32449868
| 21> C   -0.05107118  -2.39268000   1.67683846
| 22> C    2.17202546  -2.06021931   1.13043917
| 23> C    1.51357041  -2.65313914  -0.00160369
| 24> C    1.19791031  -1.93299434   2.15810681
| 25> N   -1.06858316   0.12758982  -0.51492283
| 26> C   -2.33438912   0.33714678   0.20275899
| 27> C   -3.13311606   1.53209878  -0.29765439
| 28> H   -3.95897823   1.71492343   0.38800619
| 29> H   -3.57607474   1.36434924  -1.28033733
| 30> H   -2.53045233   2.43990663  -0.33340025
| 31> C   -3.15869432  -0.94491462   0.15240836
| 32> H   -2.04430324   0.52919318   1.23679426
| 33> H   -4.05900813  -0.83035778   0.75465882
| 34> H   -3.46700095  -1.17394497  -0.86847738
| 35> H   -2.60970184  -1.80043705   0.54224922
| 36> C   -0.92068841   0.47234945  -1.74098353
| 37> C    0.39765487   0.28474849  -2.26772931
| 38> H   -1.72709385   0.90457140  -2.32430062
| 39> C    1.43100825   0.06799330  -1.34858545
| 40> C    2.64806708  -0.19474506  -2.05832384
| 41> S    0.88979259   0.18865949  -3.88437740
| 42> C    2.50120829  -0.15718217  -3.40978468
| 43> H    1.61010842   1.11966087  -0.66258478
| 44> H    3.60447760  -0.34190657  -1.57760202
| 45> H    3.26300764  -0.29130450  -4.16263735
| 46> H   -0.59443740  -3.27841232  -0.32244641
| 47> H   -0.96807319  -2.44508140   2.24353190
| 48> H    1.36888447  -1.48783019   3.12812897
| 49> O    1.70589007   2.33135510   0.11488529
| 50> O    0.56830886   1.02100101   1.50930764
| 51> C    1.11731061   2.12706313   1.18862557
| 52> C    1.05382379   3.22534425   2.21096763
| 53> H    0.96944644   4.19499097   1.72614968
| 54> H    1.98337038   3.22843405   2.78282233
| 55> H    0.23119692   3.08103878   2.90605733
| 56> H    3.22326550  -1.83383038   1.21905812
| 57> H    1.97550554  -2.90936690  -0.94392333
| 58> *
| 59>
| 60>                          ****END OF INPUT****
 Total Charge           Charge          ....    1
 Multiplicity           Mult            ....    1
 Number of Electrons    NEL             ....  164
Dispersion correction           -0.030915265
FINAL SINGLE POINT ENERGY     -1288.397217353905
Dispersion correction            ... done
Dispersion correction           -0.030869308
FINAL SINGLE POINT ENERGY     -1288.397261729469
Dispersion correction            ... done
Dispersion correction           -0.030877357
FINAL SINGLE POINT ENERGY     -1288.396386899081
Dispersion correction            ... done
FINAL SINGLE POINT ENERGY     -1288.397546261309
FINAL SINGLE POINT ENERGY     -1288.397576277863
FINAL SINGLE POINT ENERGY     -1288.397609837306
FINAL SINGLE POINT ENERGY     -1288.397647836599
FINAL SINGLE POINT ENERGY     -1288.397657270561
FINAL SINGLE POINT ENERGY     -1288.397660997568
FINAL SINGLE POINT ENERGY     -1288.397662891209
FINAL SINGLE POINT ENERGY     -1288.397663243939
FINAL SINGLE POINT ENERGY     -1288.397663425462
FINAL SINGLE POINT ENERGY     -1288.397664400348
FINAL SINGLE POINT ENERGY     -1288.397667004874
Dispersion correction            ... done
Dispersion correction           -0.030816816
FINAL SINGLE POINT ENERGY     -1288.397670448539
Dispersion correction            ... done
Dispersion correction           -0.030818000
FINAL SINGLE POINT ENERGY     -1288.397672641380
Dispersion correction            ... done
                    ***********************HURRAY********************

CARTESIAN COORDINATES (ANGSTROEM)
---------------------------------
  Ir     0.623279   -0.729276    0.393510
  C      0.167586   -2.851863    0.316833
  C     -0.070776   -2.414148    1.668591
  C      2.159828   -2.054950    1.172915
  C      1.537077   -2.655451    0.027673
  C      1.156597   -1.942631    2.179333
  N     -1.073738    0.120201   -0.512525
  C     -2.337385    0.318821    0.211347
  C     -3.131785    1.528075   -0.260728
  H     -3.957483    1.697235    0.428579
  H     -3.574226    1.386286   -1.247707
  H     -2.525539    2.434133   -0.274012
  C     -3.166144   -0.959002    0.133737
  H     -2.045417    0.487158    1.249048
  H     -4.063472   -0.856840    0.742670
  H     -3.479407   -1.162192   -0.891093
  H     -2.617480   -1.825440    0.499238
  C     -0.929552    0.481916   -1.734712
  C      0.386977    0.294914   -2.263291
  H     -1.735850    0.925570   -2.309200
  C      1.404129    0.024392   -1.337247
  C      2.629094   -0.216916   -2.045135
  S      0.901796    0.277453   -3.875025
  C      2.502045   -0.108992   -3.394709
  H      1.606615    1.129423   -0.698116
  H      3.577301   -0.399829   -1.560256
  H      3.273890   -0.213507   -4.142036
  H     -0.558157   -3.297747   -0.347449
  H     -1.002088   -2.472732    2.210653
  H      1.299110   -1.498041    3.154149
  O      1.705446    2.334589    0.062558
  O      0.592349    1.029715    1.482325
  C      1.132453    2.132400    1.148753
  C      1.086190    3.239384    2.162085
  H      0.984220    4.204549    1.671687
  H      2.028854    3.253227    2.711919
  H      0.280566    3.095013    2.876615
  H      3.207480   -1.825936    1.291823
  H      2.024987   -2.909769   -0.902060

 Multiplicity           Mult            ....    1
 Number of Electrons    NEL             ....  164
 Basis Dimension        Dim             ....  358

ORBITAL ENERGIES
----------------

  NO   OCC          E(Eh)            E(eV)
   0   2.0000     -89.768218     -2442.7174
   1   2.0000     -19.632487      -534.2271
   2   2.0000     -19.618329      -533.8419
   3   2.0000     -14.835922      -403.7060
   4   2.0000     -10.693742      -290.9915
   5   2.0000     -10.655643      -289.9548
   6   2.0000     -10.629925      -289.2550
   7   2.0000     -10.623342      -289.0758
   8   2.0000     -10.622159      -289.0436
   9   2.0000     -10.620822      -289.0073
  10   2.0000     -10.613268      -288.8017
  11   2.0000     -10.613021      -288.7950
  12   2.0000     -10.612648      -288.7848
  13   2.0000     -10.610200      -288.7182
  14   2.0000     -10.592742      -288.2432
  15   2.0000     -10.591271      -288.2031
  16   2.0000     -10.553571      -287.1773
  17   2.0000     -10.550943      -287.1058
  18   2.0000     -10.542760      -286.8831
  19   2.0000      -8.407552      -228.7811
  20   2.0000      -6.297404      -171.3611
  21   2.0000      -6.293844      -171.2642
  22   2.0000      -6.292578      -171.2298
  23   2.0000      -4.019251      -109.3694
  24   2.0000      -2.336091       -63.5683
  25   2.0000      -2.306234       -62.7558
  26   2.0000      -2.302554       -62.6557
  27   2.0000      -1.320990       -35.9460
  28   2.0000      -1.222757       -33.2729
  29   2.0000      -1.208953       -32.8973
  30   2.0000      -1.158199       -31.5162
  31   2.0000      -1.130939       -30.7744
  32   2.0000      -1.026131       -27.9224
  33   2.0000      -0.973641       -26.4941
  34   2.0000      -0.971011       -26.4226
  35   2.0000      -0.965030       -26.2598
  36   2.0000      -0.960084       -26.1252
  37   2.0000      -0.937001       -25.4971
  38   2.0000      -0.900649       -24.5079
  39   2.0000      -0.874130       -23.7863
  40   2.0000      -0.800281       -21.7768
  41   2.0000      -0.784325       -21.3426
  42   2.0000      -0.775042       -21.0900
  43   2.0000      -0.774173       -21.0663
  44   2.0000      -0.759898       -20.6779
  45   2.0000      -0.757324       -20.6078
  46   2.0000      -0.744017       -20.2457
  47   2.0000      -0.722073       -19.6486
  48   2.0000      -0.693565       -18.8729
  49   2.0000      -0.685194       -18.6451
  50   2.0000      -0.664408       -18.0795
  51   2.0000      -0.657395       -17.8886
  52   2.0000      -0.647386       -17.6163
  53   2.0000      -0.637112       -17.3367
  54   2.0000      -0.630255       -17.1501
  55   2.0000      -0.625310       -17.0155
  56   2.0000      -0.621875       -16.9221
  57   2.0000      -0.612981       -16.6801
  58   2.0000      -0.602433       -16.3930
  59   2.0000      -0.596026       -16.2187
  60   2.0000      -0.594483       -16.1767
  61   2.0000      -0.591868       -16.1055
  62   2.0000      -0.580732       -15.8025
  63   2.0000      -0.569295       -15.4913
  64   2.0000      -0.566004       -15.4017
  65   2.0000      -0.563078       -15.3221
  66   2.0000      -0.553679       -15.0664
  67   2.0000      -0.546854       -14.8806
  68   2.0000      -0.542254       -14.7555
  69   2.0000      -0.535835       -14.5808
  70   2.0000      -0.530963       -14.4482
  71   2.0000      -0.518588       -14.1115
  72   2.0000      -0.513170       -13.9641
  73   2.0000      -0.499251       -13.5853
  74   2.0000      -0.493438       -13.4271
  75   2.0000      -0.490363       -13.3434
  76   2.0000      -0.476203       -12.9582
  77   2.0000      -0.450830       -12.2677
  78   2.0000      -0.442515       -12.0415
  79   2.0000      -0.420738       -11.4489
  80   2.0000      -0.413581       -11.2541
  81   2.0000      -0.392637       -10.6842
  82   0.0000      -0.208754        -5.6805
  83   0.0000      -0.143690        -3.9100
  84   0.0000      -0.126194        -3.4339
  85   0.0000      -0.088636        -2.4119
  86   0.0000      -0.076504        -2.0818

MULLIKEN ATOMIC CHARGES
-----------------------
   0 Ir:    0.613778
   1 C :   -0.250406
   2 C :   -0.252435
   3 C :   -0.277592
   4 C :   -0.221223
   5 C :   -0.150091
   6 N :   -0.429680
   7 C :   -0.127420
   8 C :   -0.681388
   9 H :    0.269656
  10 H :    0.224109
  11 H :    0.254266
  12 C :   -0.633406
  13 H :    0.280441
  14 H :    0.258958
  15 H :    0.232622
  16 H :    0.234688
  17 C :    0.069815
  18 C :   -0.115264
  19 H :    0.286351
  20 C :   -0.597191
  21 C :   -0.085773
  22 S :    0.348760
  23 C :   -0.427751
  24 H :    0.469801
  25 H :    0.269895
  26 H :    0.299240
  27 H :    0.283706
  28 H :    0.280293
  29 H :    0.296645
  30 O :   -0.472540
  31 O :   -0.511814
  32 C :    0.627563
  33 C :   -0.743474
  34 H :    0.271648
  35 H :    0.274137
  36 H :    0.259602
  37 H :    0.280090
  38 H :    0.291382
Sum of atomic charges:    1.0000000

LOEWDIN ATOMIC CHARGES
----------------------
   0 Ir:   -0.260162
   1 C :   -0.062085
   2 C :   -0.098850
   3 C :   -0.100334
   4 C :   -0.042201
   5 C :   -0.018435
   6 N :    0.001898
   7 C :   -0.069728
   8 C :   -0.362125
   9 H :    0.156421
  10 H :    0.132758
  11 H :    0.143623
  12 C :   -0.343555
  13 H :    0.155335
  14 H :    0.150861
  15 H :    0.137988
  16 H :    0.133808
  17 C :    0.026732
  18 C :   -0.181887
  19 H :    0.161108
  20 C :   -0.220739
  21 C :   -0.121037
  22 S :    0.505514
  23 C :   -0.257874
  24 H :    0.357035
  25 H :    0.163771
  26 H :    0.170133
  27 H :    0.181245
  28 H :    0.178355
  29 H :    0.187233
  30 O :   -0.261094
  31 O :   -0.185177
  32 C :    0.160025
  33 C :   -0.372363
  34 H :    0.163275
  35 H :    0.171383
  36 H :    0.155098
  37 H :    0.180777
  38 H :    0.183270

  Mayer bond orders larger than 0.100000
B(  0-Ir,  1-C ) :   0.4495 B(  0-Ir,  2-C ) :   0.3807 B(  0-Ir,  3-C ) :   0.4711
B(  0-Ir,  4-C ) :   0.4178 B(  0-Ir,  5-C ) :   0.3545 B(  0-Ir,  6-N ) :   0.4631
B(  0-Ir, 20-C ) :   0.5326 B(  0-Ir, 31-O ) :   0.5253 B(  1-C ,  2-C ) :   1.1255
B(  1-C ,  4-C ) :   1.2233 B(  1-C , 27-H ) :   0.9094 B(  2-C ,  5-C ) :   1.2351
B(  2-C , 28-H ) :   0.9102 B(  3-C ,  4-C ) :   1.1433 B(  3-C ,  5-C ) :   1.1650
B(  3-C , 37-H ) :   0.9144 B(  4-C , 38-H ) :   0.8993 B(  5-C , 29-H ) :   0.9018
B(  6-N ,  7-C ) :   0.8960 B(  6-N , 17-C ) :   1.6472 B(  7-C ,  8-C ) :   0.9902
B(  7-C , 12-C ) :   0.9661 B(  7-C , 13-H ) :   0.8758 B(  8-C ,  9-H ) :   0.9046
B(  8-C , 10-H ) :   0.9131 B(  8-C , 11-H ) :   0.9119 B( 12-C , 14-H ) :   0.9077
B( 12-C , 15-H ) :   0.9152 B( 12-C , 16-H ) :   0.9114 B( 17-C , 18-C ) :   1.1131
B( 17-C , 19-H ) :   0.8764 B( 18-C , 20-C ) :   1.2036 B( 18-C , 22-S ) :   1.2558
B( 20-C , 21-C ) :   1.2441 B( 20-C , 24-H ) :   0.3632 B( 21-C , 23-C ) :   1.5512
B( 21-C , 25-H ) :   0.9008 B( 22-S , 23-C ) :   1.2101 B( 23-C , 26-H ) :   0.8912
B( 24-H , 30-O ) :   0.3309 B( 30-O , 32-C ) :   1.5916 B( 31-O , 32-C ) :   1.3639
B( 32-C , 33-C ) :   0.9429 B( 33-C , 34-H ) :   0.9013 B( 33-C , 35-H ) :   0.8943
B( 33-C , 36-H ) :   0.9083

Dispersion correction           -0.030819542
FINAL SINGLE POINT ENERGY     -1288.397673000676

DIPOLE MOMENT
-------------
                                X             Y             Z
Electronic contribution:     38.37408     -73.41433      68.27461
Nuclear contribution   :    -39.00167      72.91487     -68.65379
                        -----------------------------------------
Total Dipole Moment    :     -0.62759      -0.49946      -0.37918
                        -----------------------------------------
Magnitude (a.u.)       :      0.88719
Magnitude (Debye)      :      2.25506

Rotational constants in cm-1:     0.010530     0.009003     0.008263
Rotational constants in MHz :   315.696351   269.896808   247.711872

                             ****ORCA TERMINATED NORMALLY****
TOTAL RUN TIME: 0 days 2 hours 6 minutes 16 seconds 847 msec
