                         Program Version 5.0.3 -  RELEASE  -
|  1> ! Opt PBEh-3c
|  2> %geom Constraints
|  3> { B 0 20 2.5571428571428574 C }
|  4> { B 24 30 1.3285714285714287 C }
|  5>     end
|  6> end
|  7> %output
|  8> xyzfile=True
|  9> end
| 10> %scf
| 11> maxiter 250
| 12> end
| 13> %output
| 14> Print[P_Hirshfeld] = 1
| 15> end
| 16> % maxcore
| 17> 4000
| 18> *xyz 1 1
| 19> Ir   0.56173292  -0.74392142   0.51744615
| 20> C    0.00428842  -2.81804945   0.37663673
| 21> C    0.07421963  -2.38097908   1.75004331
| 22> C    2.16936956  -2.16076896   0.82266209
| 23> C    1.27488529  -2.65173001  -0.20206466
| 24> C    1.44173835  -2.03291023   2.01781358
| 25> N   -1.03873070   0.15129793  -0.50270817
| 26> C   -2.32236467   0.47565480   0.14205160
| 27> C   -3.12537192   1.53440458  -0.59700164
| 28> H   -3.96241416   1.84077822   0.02887691
| 29> H   -3.55459428   1.16930177  -1.53138154
| 30> H   -2.53397429   2.42634454  -0.80612604
| 31> C   -3.13169516  -0.79880389   0.34824067
| 32> H   -2.04802250   0.87533085   1.11998089
| 33> H   -4.05734078  -0.56330230   0.87127570
| 34> H   -3.39607264  -1.25880961  -0.60487880
| 35> H   -2.59836382  -1.53134788   0.95248106
| 36> C   -0.82637910   0.35542834  -1.74659950
| 37> C    0.52307413   0.16393991  -2.22633982
| 38> H   -1.61376537   0.69758142  -2.41268183
| 39> C    1.63309688   0.53286139  -1.47805000
| 40> C    2.82881798   0.15692817  -2.15220190
| 41> S    0.93218418  -0.55834605  -3.72392763
| 42> C    2.60357434  -0.42828192  -3.36033647
| 43> H    1.54409393   1.41562996  -0.62890146
| 44> H    3.82083620   0.36418421  -1.77763979
| 45> H    3.33448874  -0.77446243  -4.07558681
| 46> H   -0.88183620  -3.17079404  -0.13122638
| 47> H   -0.72289334  -2.41920811   2.47809066
| 48> H    1.82191910  -1.65471874   2.95587550
| 49> O    1.35818696   2.40960789   0.25467750
| 50> O    0.53936077   0.91338792   1.69392386
| 51> C    0.94010331   2.09329180   1.37132462
| 52> C    0.90322553   3.10142325   2.48334275
| 53> H    0.85327155   4.11154152   2.08601933
| 54> H    1.82216883   3.01881468   3.06721902
| 55> H    0.07140027   2.92368204   3.16134619
| 56> H    3.21548659  -1.92861635   0.68779586
| 57> H    1.54166550  -2.85717473  -1.22873142
| 58> *
| 59>
| 60>                          ****END OF INPUT****
 Total Charge           Charge          ....    1
 Multiplicity           Mult            ....    1
 Number of Electrons    NEL             ....  164
Dispersion correction           -0.030806330
FINAL SINGLE POINT ENERGY     -1288.392096131248
Dispersion correction            ... done
Dispersion correction           -0.030759499
FINAL SINGLE POINT ENERGY     -1288.392256487134
Dispersion correction            ... done
Dispersion correction           -0.030732109
FINAL SINGLE POINT ENERGY     -1288.392314887436
Dispersion correction            ... done
FINAL SINGLE POINT ENERGY     -1288.392337147334
FINAL SINGLE POINT ENERGY     -1288.392357123507
FINAL SINGLE POINT ENERGY     -1288.392367988567
FINAL SINGLE POINT ENERGY     -1288.392378365895
FINAL SINGLE POINT ENERGY     -1288.392388955666
FINAL SINGLE POINT ENERGY     -1288.392399247035
FINAL SINGLE POINT ENERGY     -1288.392408568109
Dispersion correction            ... done
Dispersion correction           -0.030608384
FINAL SINGLE POINT ENERGY     -1288.392414396827
Dispersion correction            ... done
Dispersion correction           -0.030601195
FINAL SINGLE POINT ENERGY     -1288.392416612881
Dispersion correction            ... done
                    ***********************HURRAY********************

CARTESIAN COORDINATES (ANGSTROEM)
---------------------------------
  Ir     0.570001   -0.743633    0.524530
  C      0.016312   -2.821287    0.395027
  C      0.044869   -2.370276    1.764536
  C      2.168152   -2.157435    0.896551
  C      1.303948   -2.661048   -0.147541
  C      1.402564   -2.015962    2.067182
  N     -1.035144    0.135976   -0.500230
  C     -2.321874    0.438353    0.150763
  C     -3.107433    1.543853   -0.537698
  H     -3.943146    1.831200    0.098960
  H     -3.537531    1.231230   -1.490367
  H     -2.501403    2.435397   -0.700810
  C     -3.145174   -0.837533    0.280765
  H     -2.054123    0.782341    1.151243
  H     -4.071753   -0.623660    0.811548
  H     -3.407877   -1.240746   -0.698178
  H     -2.620760   -1.608211    0.843821
  C     -0.837444    0.351012   -1.746058
  C      0.503975    0.178411   -2.246199
  H     -1.637742    0.689569   -2.398445
  C      1.616944    0.468183   -1.469057
  C      2.808833    0.124325   -2.164344
  S      0.907103   -0.432304   -3.792627
  C      2.577655   -0.360636   -3.416079
  H      1.555327    1.365619   -0.602890
  H      3.802946    0.284718   -1.772843
  H      3.305519   -0.662222   -4.154233
  H     -0.852945   -3.182453   -0.135501
  H     -0.773310   -2.402045    2.469005
  H      1.753602   -1.625672    3.011703
  O      1.419792    2.386370    0.236634
  O      0.538877    0.932865    1.681653
  C      0.969154    2.096718    1.350869
  C      0.930809    3.127927    2.440581
  H      0.873635    4.129442    2.022675
  H      1.854159    3.063657    3.019799
  H      0.103270    2.958956    3.125607
  H      3.219097   -1.931723    0.793408
  H      1.600490   -2.880087   -1.163019

 Multiplicity           Mult            ....    1
 Number of Electrons    NEL             ....  164
 Basis Dimension        Dim             ....  358

ORBITAL ENERGIES
----------------

  NO   OCC          E(Eh)            E(eV)
   0   2.0000     -89.754480     -2442.3436
   1   2.0000     -19.630119      -534.1627
   2   2.0000     -19.599002      -533.3160
   3   2.0000     -14.836877      -403.7320
   4   2.0000     -10.689358      -290.8722
   5   2.0000     -10.658417      -290.0303
   6   2.0000     -10.637304      -289.4557
   7   2.0000     -10.635011      -289.3933
   8   2.0000     -10.634525      -289.3801
   9   2.0000     -10.632342      -289.3207
  10   2.0000     -10.631812      -289.3063
  11   2.0000     -10.622130      -289.0429
  12   2.0000     -10.615260      -288.8559
  13   2.0000     -10.604620      -288.5664
  14   2.0000     -10.577303      -287.8230
  15   2.0000     -10.575495      -287.7739
  16   2.0000     -10.556516      -287.2574
  17   2.0000     -10.551266      -287.1146
  18   2.0000     -10.537445      -286.7385
  19   2.0000      -8.393896      -228.4095
  20   2.0000      -6.283938      -170.9946
  21   2.0000      -6.280350      -170.8970
  22   2.0000      -6.278642      -170.8505
  23   2.0000      -4.030564      -109.6772
  24   2.0000      -2.349999       -63.9467
  25   2.0000      -2.315599       -63.0107
  26   2.0000      -2.313501       -62.9536
  27   2.0000      -1.315073       -35.7850
  28   2.0000      -1.218788       -33.1649
  29   2.0000      -1.208119       -32.8746
  30   2.0000      -1.174475       -31.9591
  31   2.0000      -1.119043       -30.4507
  32   2.0000      -1.023568       -27.8527
  33   2.0000      -0.989188       -26.9172
  34   2.0000      -0.979353       -26.6495
  35   2.0000      -0.959814       -26.1179
  36   2.0000      -0.953065       -25.9342
  37   2.0000      -0.932787       -25.3824
  38   2.0000      -0.902283       -24.5524
  39   2.0000      -0.869847       -23.6697
  40   2.0000      -0.795117       -21.6362
  41   2.0000      -0.790033       -21.4979
  42   2.0000      -0.788509       -21.4564
  43   2.0000      -0.777657       -21.1611
  44   2.0000      -0.772144       -21.0111
  45   2.0000      -0.761691       -20.7267
  46   2.0000      -0.741935       -20.1891
  47   2.0000      -0.722465       -19.6593
  48   2.0000      -0.692614       -18.8470
  49   2.0000      -0.675348       -18.3772
  50   2.0000      -0.663211       -18.0469
  51   2.0000      -0.653550       -17.7840
  52   2.0000      -0.649390       -17.6708
  53   2.0000      -0.641115       -17.4456
  54   2.0000      -0.639908       -17.4128
  55   2.0000      -0.634216       -17.2579
  56   2.0000      -0.623260       -16.9598
  57   2.0000      -0.610305       -16.6072
  58   2.0000      -0.609716       -16.5912
  59   2.0000      -0.606931       -16.5154
  60   2.0000      -0.594566       -16.1790
  61   2.0000      -0.585713       -15.9381
  62   2.0000      -0.573424       -15.6037
  63   2.0000      -0.566682       -15.4202
  64   2.0000      -0.561130       -15.2691
  65   2.0000      -0.557045       -15.1580
  66   2.0000      -0.552745       -15.0410
  67   2.0000      -0.548405       -14.9229
  68   2.0000      -0.539867       -14.6905
  69   2.0000      -0.533440       -14.5157
  70   2.0000      -0.527236       -14.3468
  71   2.0000      -0.520402       -14.1609
  72   2.0000      -0.515896       -14.0382
  73   2.0000      -0.508113       -13.8265
  74   2.0000      -0.493633       -13.4324
  75   2.0000      -0.480220       -13.0674
  76   2.0000      -0.462244       -12.5783
  77   2.0000      -0.451672       -12.2906
  78   2.0000      -0.443263       -12.0618
  79   2.0000      -0.419221       -11.4076
  80   2.0000      -0.416644       -11.3375
  81   2.0000      -0.401378       -10.9220
  82   0.0000      -0.199986        -5.4419
  83   0.0000      -0.164679        -4.4811
  84   0.0000      -0.141238        -3.8433
  85   0.0000      -0.092463        -2.5160
  86   0.0000      -0.074791        -2.0352

MULLIKEN ATOMIC CHARGES
-----------------------
   0 Ir:    0.620214
   1 C :   -0.210374
   2 C :   -0.295391
   3 C :   -0.232495
   4 C :   -0.241990
   5 C :   -0.168067
   6 N :   -0.437660
   7 C :   -0.121152
   8 C :   -0.690441
   9 H :    0.271041
  10 H :    0.226111
  11 H :    0.259565
  12 C :   -0.637038
  13 H :    0.279088
  14 H :    0.263716
  15 H :    0.231293
  16 H :    0.230291
  17 C :    0.068729
  18 C :   -0.206275
  19 H :    0.288102
  20 C :   -0.405311
  21 C :   -0.153467
  22 S :    0.297780
  23 C :   -0.424666
  24 H :    0.500887
  25 H :    0.261849
  26 H :    0.294612
  27 H :    0.292809
  28 H :    0.293590
  29 H :    0.306148
  30 O :   -0.494273
  31 O :   -0.535286
  32 C :    0.624056
  33 C :   -0.746107
  34 H :    0.271290
  35 H :    0.269087
  36 H :    0.255879
  37 H :    0.296142
  38 H :    0.297716
Sum of atomic charges:    1.0000000

LOEWDIN ATOMIC CHARGES
----------------------
   0 Ir:   -0.210132
   1 C :   -0.041205
   2 C :   -0.059410
   3 C :   -0.050114
   4 C :   -0.050288
   5 C :   -0.025750
   6 N :   -0.015895
   7 C :   -0.068575
   8 C :   -0.364043
   9 H :    0.156713
  10 H :    0.133682
  11 H :    0.146335
  12 C :   -0.343874
  13 H :    0.154967
  14 H :    0.152647
  15 H :    0.137405
  16 H :    0.132804
  17 C :    0.036718
  18 C :   -0.201206
  19 H :    0.160961
  20 C :   -0.199467
  21 C :   -0.148838
  22 S :    0.456749
  23 C :   -0.260731
  24 H :    0.304564
  25 H :    0.159505
  26 H :    0.166629
  27 H :    0.185928
  28 H :    0.186211
  29 H :    0.193379
  30 O :   -0.275737
  31 O :   -0.199979
  32 C :    0.163705
  33 C :   -0.374549
  34 H :    0.161324
  35 H :    0.169010
  36 H :    0.154307
  37 H :    0.188250
  38 H :    0.188003

  Mayer bond orders larger than 0.100000
B(  0-Ir,  1-C ) :   0.4241 B(  0-Ir,  2-C ) :   0.5520 B(  0-Ir,  3-C ) :   0.4600
B(  0-Ir,  4-C ) :   0.4579 B(  0-Ir,  5-C ) :   0.4046 B(  0-Ir,  6-N ) :   0.4718
B(  0-Ir, 20-C ) :   0.2384 B(  0-Ir, 31-O ) :   0.5687 B(  1-C ,  2-C ) :   1.1132
B(  1-C ,  4-C ) :   1.2416 B(  1-C , 27-H ) :   0.9027 B(  2-C ,  5-C ) :   1.1290
B(  2-C , 28-H ) :   0.9066 B(  3-C ,  4-C ) :   1.1056 B(  3-C ,  5-C ) :   1.2357
B(  3-C , 37-H ) :   0.9034 B(  4-C , 38-H ) :   0.8993 B(  5-C , 29-H ) :   0.8979
B(  6-N ,  7-C ) :   0.8913 B(  6-N , 17-C ) :   1.6770 B(  7-C ,  8-C ) :   0.9922
B(  7-C , 12-C ) :   0.9690 B(  7-C , 13-H ) :   0.8750 B(  8-C ,  9-H ) :   0.9039
B(  8-C , 10-H ) :   0.9126 B(  8-C , 11-H ) :   0.9090 B( 12-C , 14-H ) :   0.9066
B( 12-C , 15-H ) :   0.9155 B( 12-C , 16-H ) :   0.9123 B( 17-C , 18-C ) :   1.0730
B( 17-C , 19-H ) :   0.8746 B( 18-C , 20-C ) :   1.3071 B( 18-C , 22-S ) :   1.2043
B( 20-C , 21-C ) :   1.2847 B( 20-C , 24-H ) :   0.4432 B( 21-C , 23-C ) :   1.5385
B( 21-C , 25-H ) :   0.9058 B( 22-S , 23-C ) :   1.2111 B( 23-C , 26-H ) :   0.8929
B( 24-H , 30-O ) :   0.2525 B( 30-O , 32-C ) :   1.6483 B( 31-O , 32-C ) :   1.3036
B( 32-C , 33-C ) :   0.9489 B( 33-C , 34-H ) :   0.9035 B( 33-C , 35-H ) :   0.8966
B( 33-C , 36-H ) :   0.9087

Dispersion correction           -0.030598183
FINAL SINGLE POINT ENERGY     -1288.392417183437

DIPOLE MOMENT
-------------
                                X             Y             Z
Electronic contribution:     33.32191     -70.43716      80.16942
Nuclear contribution   :    -33.94553      69.33217     -80.21848
                        -----------------------------------------
Total Dipole Moment    :     -0.62362      -1.10500      -0.04906
                        -----------------------------------------
Magnitude (a.u.)       :      1.26978
Magnitude (Debye)      :      3.22752

Rotational constants in cm-1:     0.010568     0.008853     0.008120
Rotational constants in MHz :   316.824567   265.415706   243.444548

                             ****ORCA TERMINATED NORMALLY****
TOTAL RUN TIME: 0 days 1 hours 34 minutes 0 seconds 382 msec
