                         Program Version 5.0.3 -  RELEASE  -
|  1> ! Opt PBEh-3c
|  2> %geom Constraints
|  3> { B 0 20 2.5571428571428574 C }
|  4> { B 24 30 1.4 C }
|  5>     end
|  6> end
|  7> %output
|  8> xyzfile=True
|  9> end
| 10> %scf
| 11> maxiter 250
| 12> end
| 13> %output
| 14> Print[P_Hirshfeld] = 1
| 15> end
| 16> % maxcore
| 17> 4000
| 18> *xyz 1 1
| 19> Ir   0.56979749  -0.73591669   0.48939552
| 20> C    0.01542048  -2.81315927   0.34937553
| 21> C    0.10302313  -2.37503891   1.72244892
| 22> C    2.18394877  -2.15021776   0.76742604
| 23> C    1.27754664  -2.64441433  -0.24527819
| 24> C    1.47355838  -2.02558974   1.97291603
| 25> N   -1.04081620   0.17034198  -0.50908657
| 26> C   -2.31669977   0.50905458   0.14156552
| 27> C   -3.13270136   1.54170987  -0.61879971
| 28> H   -3.96836977   1.85691396   0.00442321
| 29> H   -3.56404674   1.14815027  -1.54065297
| 30> H   -2.55075901   2.43341924  -0.85407252
| 31> C   -3.11654083  -0.76297863   0.39392858
| 32> H   -2.03043386   0.93675799   1.10405071
| 33> H   -4.03487422  -0.51700613   0.92486083
| 34> H   -3.39395932  -1.24921919  -0.54232688
| 35> H   -2.57080526  -1.47679756   1.00945638
| 36> C   -0.82377450   0.37278527  -1.75059281
| 37> C    0.52976116   0.15192179  -2.21621230
| 38> H   -1.59924441   0.72982484  -2.42260334
| 39> C    1.64104648   0.56322338  -1.49168011
| 40> C    2.83805664   0.14767952  -2.14177928
| 41> S    0.93968636  -0.66277101  -3.66437548
| 42> C    2.61264319  -0.51279196  -3.30895399
| 43> H    1.54790890   1.42029591  -0.67778502
| 44> H    3.82892652   0.37937708  -1.77894129
| 45> H    3.34290575  -0.90475823  -4.00075785
| 46> H   -0.87703692  -3.16780479  -0.14588969
| 47> H   -0.68398320  -2.41452205   2.46145828
| 48> H    1.86531119  -1.64617841   2.90571565
| 49> O    1.30022127   2.43897058   0.27150780
| 50> O    0.53970130   0.89556973   1.69271499
| 51> C    0.90679006   2.09618948   1.38330294
| 52> C    0.85180040   3.07534735   2.52196719
| 53> H    0.80429530   4.09483837   2.14907178
| 54> H    1.76122418   2.97987557   3.11848070
| 55> H    0.01055102   2.88008963   3.18374631
| 56> H    3.22723117  -1.91418057   0.61781589
| 57> H    1.53205961  -2.84980114  -1.27510066
| 58> *
| 59>
| 60>                          ****END OF INPUT****
 Total Charge           Charge          ....    1
 Multiplicity           Mult            ....    1
 Number of Electrons    NEL             ....  164
Dispersion correction           -0.030954525
FINAL SINGLE POINT ENERGY     -1288.394858998089
Dispersion correction            ... done
Dispersion correction           -0.030976198
FINAL SINGLE POINT ENERGY     -1288.393243397898
Dispersion correction            ... done
Dispersion correction           -0.030923397
FINAL SINGLE POINT ENERGY     -1288.394929850424
Dispersion correction            ... done
FINAL SINGLE POINT ENERGY     -1288.393179246864
FINAL SINGLE POINT ENERGY     -1288.394992368901
FINAL SINGLE POINT ENERGY     -1288.395015346634
Dispersion correction            ... done
Dispersion correction           -0.030857118
FINAL SINGLE POINT ENERGY     -1288.395026851545
Dispersion correction            ... done
Dispersion correction           -0.030854439
FINAL SINGLE POINT ENERGY     -1288.395034529403
Dispersion correction            ... done
                    ***********************HURRAY********************

CARTESIAN COORDINATES (ANGSTROEM)
---------------------------------
  Ir     0.573327   -0.733471    0.482055
  C      0.015617   -2.810937    0.354796
  C      0.101003   -2.368736    1.725893
  C      2.184379   -2.149231    0.772460
  C      1.279313   -2.647144   -0.239293
  C      1.470615   -2.017391    1.975740
  N     -1.043299    0.166754   -0.513481
  C     -2.318941    0.500023    0.140337
  C     -3.136105    1.537826   -0.611960
  H     -3.971240    1.848487    0.014290
  H     -3.568413    1.150843   -1.536147
  H     -2.554736    2.431393   -0.841583
  C     -3.118812   -0.773625    0.384499
  H     -2.032242    0.921245    1.105518
  H     -4.036833   -0.531074    0.917565
  H     -3.396765   -1.253443   -0.554898
  H     -2.572740   -1.491599    0.994766
  C     -0.830318    0.373424   -1.755479
  C      0.522511    0.158566   -2.223029
  H     -1.608358    0.730359   -2.424440
  C      1.628949    0.534358   -1.471723
  C      2.829531    0.129122   -2.122397
  S      0.940506   -0.614123   -3.690069
  C      2.611033   -0.490275   -3.313191
  H      1.542767    1.405351   -0.656149
  H      3.818497    0.340329   -1.742197
  H      3.345067   -0.864966   -4.010555
  H     -0.876354   -3.166422   -0.140798
  H     -0.686947   -2.405194    2.463906
  H      1.861028   -1.633662    2.907340
  O      1.326272    2.435819    0.266491
  O      0.535208    0.904196    1.682737
  C      0.917993    2.098451    1.376406
  C      0.865348    3.082378    2.510692
  H      0.827346    4.100988    2.134343
  H      1.771457    2.981894    3.111447
  H      0.019633    2.895392    3.169095
  H      3.228755   -1.917074    0.624963
  H      1.535316   -2.859641   -1.267211

 Multiplicity           Mult            ....    1
 Number of Electrons    NEL             ....  164
 Basis Dimension        Dim             ....  358

ORBITAL ENERGIES
----------------

  NO   OCC          E(Eh)            E(eV)
   0   2.0000     -89.758696     -2442.4583
   1   2.0000     -19.624508      -534.0100
   2   2.0000     -19.587627      -533.0064
   3   2.0000     -14.840759      -403.8376
   4   2.0000     -10.681655      -290.6626
   5   2.0000     -10.661792      -290.1221
   6   2.0000     -10.639006      -289.5021
   7   2.0000     -10.636510      -289.4342
   8   2.0000     -10.635127      -289.3965
   9   2.0000     -10.633949      -289.3645
  10   2.0000     -10.632646      -289.3290
  11   2.0000     -10.629240      -289.2363
  12   2.0000     -10.616602      -288.8924
  13   2.0000     -10.607824      -288.6536
  14   2.0000     -10.580768      -287.9173
  15   2.0000     -10.578752      -287.8625
  16   2.0000     -10.557451      -287.2828
  17   2.0000     -10.552384      -287.1450
  18   2.0000     -10.532993      -286.6173
  19   2.0000      -8.398011      -228.5215
  20   2.0000      -6.288108      -171.1081
  21   2.0000      -6.284475      -171.0093
  22   2.0000      -6.282702      -170.9610
  23   2.0000      -4.031734      -109.7091
  24   2.0000      -2.351185       -63.9790
  25   2.0000      -2.316704       -63.0407
  26   2.0000      -2.315038       -62.9954
  27   2.0000      -1.306006       -35.5382
  28   2.0000      -1.213146       -33.0114
  29   2.0000      -1.209366       -32.9085
  30   2.0000      -1.175623       -31.9903
  31   2.0000      -1.123302       -30.5666
  32   2.0000      -1.026510       -27.9328
  33   2.0000      -0.990484       -26.9524
  34   2.0000      -0.980567       -26.6826
  35   2.0000      -0.963095       -26.2072
  36   2.0000      -0.957082       -26.0435
  37   2.0000      -0.927254       -25.2319
  38   2.0000      -0.903865       -24.5954
  39   2.0000      -0.872636       -23.7456
  40   2.0000      -0.796844       -21.6832
  41   2.0000      -0.791368       -21.5342
  42   2.0000      -0.789591       -21.4859
  43   2.0000      -0.779879       -21.2216
  44   2.0000      -0.773888       -21.0586
  45   2.0000      -0.756921       -20.5969
  46   2.0000      -0.744251       -20.2521
  47   2.0000      -0.722369       -19.6567
  48   2.0000      -0.694857       -18.9080
  49   2.0000      -0.673406       -18.3243
  50   2.0000      -0.665233       -18.1019
  51   2.0000      -0.652074       -17.7438
  52   2.0000      -0.649395       -17.6709
  53   2.0000      -0.641359       -17.4523
  54   2.0000      -0.637958       -17.3597
  55   2.0000      -0.630404       -17.1542
  56   2.0000      -0.624129       -16.9834
  57   2.0000      -0.611962       -16.6523
  58   2.0000      -0.610798       -16.6207
  59   2.0000      -0.608621       -16.5614
  60   2.0000      -0.596111       -16.2210
  61   2.0000      -0.587034       -15.9740
  62   2.0000      -0.575688       -15.6653
  63   2.0000      -0.569395       -15.4940
  64   2.0000      -0.563002       -15.3201
  65   2.0000      -0.554802       -15.0969
  66   2.0000      -0.552778       -15.0419
  67   2.0000      -0.548561       -14.9271
  68   2.0000      -0.539441       -14.6789
  69   2.0000      -0.534455       -14.5432
  70   2.0000      -0.528014       -14.3680
  71   2.0000      -0.521776       -14.1983
  72   2.0000      -0.516285       -14.0488
  73   2.0000      -0.507981       -13.8229
  74   2.0000      -0.490237       -13.3400
  75   2.0000      -0.481026       -13.0894
  76   2.0000      -0.463392       -12.6095
  77   2.0000      -0.451494       -12.2858
  78   2.0000      -0.441083       -12.0025
  79   2.0000      -0.422452       -11.4955
  80   2.0000      -0.417133       -11.3508
  81   2.0000      -0.403932       -10.9915
  82   0.0000      -0.200616        -5.4590
  83   0.0000      -0.166051        -4.5185
  84   0.0000      -0.142014        -3.8644
  85   0.0000      -0.100016        -2.7216
  86   0.0000      -0.076545        -2.0829

MULLIKEN ATOMIC CHARGES
-----------------------
   0 Ir:    0.621966
   1 C :   -0.207601
   2 C :   -0.296567
   3 C :   -0.230251
   4 C :   -0.245076
   5 C :   -0.166329
   6 N :   -0.428035
   7 C :   -0.115640
   8 C :   -0.696017
   9 H :    0.273248
  10 H :    0.226514
  11 H :    0.260458
  12 C :   -0.640256
  13 H :    0.280637
  14 H :    0.265247
  15 H :    0.230972
  16 H :    0.232942
  17 C :    0.067081
  18 C :   -0.221080
  19 H :    0.292222
  20 C :   -0.399014
  21 C :   -0.146168
  22 S :    0.291034
  23 C :   -0.427672
  24 H :    0.499358
  25 H :    0.265696
  26 H :    0.296034
  27 H :    0.293255
  28 H :    0.294565
  29 H :    0.307352
  30 O :   -0.485504
  31 O :   -0.543144
  32 C :    0.614917
  33 C :   -0.746148
  34 H :    0.269351
  35 H :    0.265857
  36 H :    0.252441
  37 H :    0.296871
  38 H :    0.296485
Sum of atomic charges:    1.0000000

LOEWDIN ATOMIC CHARGES
----------------------
   0 Ir:   -0.208225
   1 C :   -0.038769
   2 C :   -0.055185
   3 C :   -0.045526
   4 C :   -0.054530
   5 C :   -0.026880
   6 N :   -0.009125
   7 C :   -0.068110
   8 C :   -0.365024
   9 H :    0.157683
  10 H :    0.134171
  11 H :    0.146799
  12 C :   -0.343547
  13 H :    0.156317
  14 H :    0.153276
  15 H :    0.137355
  16 H :    0.134406
  17 C :    0.036977
  18 C :   -0.192439
  19 H :    0.162919
  20 C :   -0.185674
  21 C :   -0.146270
  22 S :    0.454957
  23 C :   -0.262265
  24 H :    0.284152
  25 H :    0.161500
  26 H :    0.167203
  27 H :    0.186323
  28 H :    0.186789
  29 H :    0.194117
  30 O :   -0.277821
  31 O :   -0.208808
  32 C :    0.155424
  33 C :   -0.376556
  34 H :    0.159530
  35 H :    0.166809
  36 H :    0.152899
  37 H :    0.188522
  38 H :    0.186625

  Mayer bond orders larger than 0.100000
B(  0-Ir,  1-C ) :   0.4220 B(  0-Ir,  2-C ) :   0.5554 B(  0-Ir,  3-C ) :   0.4635
B(  0-Ir,  4-C ) :   0.4536 B(  0-Ir,  5-C ) :   0.4036 B(  0-Ir,  6-N ) :   0.4654
B(  0-Ir, 20-C ) :   0.2131 B(  0-Ir, 31-O ) :   0.5887 B(  1-C ,  2-C ) :   1.1122
B(  1-C ,  4-C ) :   1.2459 B(  1-C , 27-H ) :   0.9026 B(  2-C ,  5-C ) :   1.1286
B(  2-C , 28-H ) :   0.9062 B(  3-C ,  4-C ) :   1.1037 B(  3-C ,  5-C ) :   1.2358
B(  3-C , 37-H ) :   0.9022 B(  4-C , 38-H ) :   0.8974 B(  5-C , 29-H ) :   0.8976
B(  6-N ,  7-C ) :   0.8910 B(  6-N , 17-C ) :   1.6975 B(  7-C ,  8-C ) :   0.9928
B(  7-C , 12-C ) :   0.9697 B(  7-C , 13-H ) :   0.8716 B(  8-C ,  9-H ) :   0.9032
B(  8-C , 10-H ) :   0.9121 B(  8-C , 11-H ) :   0.9080 B( 12-C , 14-H ) :   0.9062
B( 12-C , 15-H ) :   0.9152 B( 12-C , 16-H ) :   0.9106 B( 17-C , 18-C ) :   1.0489
B( 17-C , 19-H ) :   0.8736 B( 18-C , 20-C ) :   1.3095 B( 18-C , 22-S ) :   1.2109
B( 20-C , 21-C ) :   1.2668 B( 20-C , 24-H ) :   0.4939 B( 21-C , 23-C ) :   1.5464
B( 21-C , 25-H ) :   0.9044 B( 22-S , 23-C ) :   1.2023 B( 23-C , 26-H ) :   0.8929
B( 24-H , 30-O ) :   0.2224 B( 30-O , 32-C ) :   1.6994 B( 31-O , 32-C ) :   1.2688
B( 32-C , 33-C ) :   0.9470 B( 33-C , 34-H ) :   0.9053 B( 33-C , 35-H ) :   0.8989
B( 33-C , 36-H ) :   0.9096

Dispersion correction           -0.030846878
FINAL SINGLE POINT ENERGY     -1288.395041416174

DIPOLE MOMENT
-------------
                                X             Y             Z
Electronic contribution:     33.51453     -68.46652      75.32254
Nuclear contribution   :    -34.15480      67.20741     -75.49971
                        -----------------------------------------
Total Dipole Moment    :     -0.64027      -1.25911      -0.17717
                        -----------------------------------------
Magnitude (a.u.)       :      1.42362
Magnitude (Debye)      :      3.61855

Rotational constants in cm-1:     0.010704     0.009039     0.008236
Rotational constants in MHz :   320.892758   270.991860   246.907256

                             ****ORCA TERMINATED NORMALLY****
TOTAL RUN TIME: 0 days 1 hours 20 minutes 50 seconds 896 msec
