                         Program Version 5.0.3 -  RELEASE  -
|  1> ! Opt PBEh-3c
|  2> %geom Constraints
|  3> { B 0 20 2.428571428571429 C }
|  4> { B 24 30 1.3142857142857143 C }
|  5>     end
|  6> end
|  7> %output
|  8> xyzfile=True
|  9> end
| 10> %scf
| 11> maxiter 250
| 12> end
| 13> %output
| 14> Print[P_Hirshfeld] = 1
| 15> end
| 16> % maxcore
| 17> 4000
| 18> *xyz 1 1
| 19> Ir   0.58850515  -0.74181199   0.51174780
| 20> C    0.06129352  -2.82940816   0.37737247
| 21> C   -0.00127761  -2.37039719   1.74231211
| 22> C    2.17274825  -2.13586586   1.00598647
| 23> C    1.38100197  -2.66225414  -0.08203895
| 24> C    1.32659417  -1.99103666   2.12220380
| 25> N   -1.03454180   0.12530481  -0.49752557
| 26> C   -2.31802538   0.39831683   0.17273847
| 27> C   -3.09021470   1.55741427  -0.43980271
| 28> H   -3.92414156   1.81045285   0.21353290
| 29> H   -3.52111081   1.31423459  -1.41193322
| 30> H   -2.47308378   2.45024925  -0.54211398
| 31> C   -3.15497930  -0.87493919   0.21155404
| 32> H   -2.04926174   0.67074696   1.19442333
| 33> H   -4.07283639  -0.69649881   0.77002341
| 34> H   -3.43346815  -1.19492433  -0.79340467
| 35> H   -2.63061713  -1.69481515   0.70015343
| 36> C   -0.85843249   0.36613706  -1.74267523
| 37> C    0.47241066   0.20145793  -2.26574033
| 38> H   -1.66995550   0.71721764  -2.37403628
| 39> C    1.58630554   0.37287643  -1.45543882
| 40> C    2.77316066   0.05183561  -2.16965004
| 41> S    0.86894866  -0.28005253  -3.85528092
| 42> C    2.53640461  -0.30542454  -3.46322840
| 43> H    1.57418945   1.30411291  -0.59712867
| 44> H    3.76831345   0.13865117  -1.75827219
| 45> H    3.25988754  -0.56279337  -4.22205767
| 46> H   -0.76662431  -3.20927478  -0.20369345
| 47> H   -0.86066358  -2.40671914   2.39538343
| 48> H    1.61083992  -1.58297230   3.08179992
| 49> O    1.49302937   2.36268365   0.20158471
| 50> O    0.54692625   0.95621928   1.64932908
| 51> C    1.00491915   2.10301250   1.31067810
| 52> C    0.95750880   3.16207375   2.37251871
| 53> H    0.89479836   4.15202750   1.92842148
| 54> H    1.88095846   3.11963717   2.95343768
| 55> H    0.12956591   3.00509653   3.05956718
| 56> H    3.22829776  -1.91199557   0.97457475
| 57> H    1.74199662  -2.88938499  -1.07458205
| 58> *
| 59>
| 60>                          ****END OF INPUT****
 Total Charge           Charge          ....    1
 Multiplicity           Mult            ....    1
 Number of Electrons    NEL             ....  164
Dispersion correction           -0.030613215
FINAL SINGLE POINT ENERGY     -1288.396496303474
Dispersion correction            ... done
Dispersion correction           -0.030572113
FINAL SINGLE POINT ENERGY     -1288.396644365738
Dispersion correction            ... done
Dispersion correction           -0.030539953
FINAL SINGLE POINT ENERGY     -1288.396726833891
Dispersion correction            ... done
FINAL SINGLE POINT ENERGY     -1288.396759365970
FINAL SINGLE POINT ENERGY     -1288.396775988955
FINAL SINGLE POINT ENERGY     -1288.396787252082
FINAL SINGLE POINT ENERGY     -1288.396790561277
FINAL SINGLE POINT ENERGY     -1288.396794211688
FINAL SINGLE POINT ENERGY     -1288.396798984102
FINAL SINGLE POINT ENERGY     -1288.396804294891
FINAL SINGLE POINT ENERGY     -1288.396809682634
FINAL SINGLE POINT ENERGY     -1288.396814072100
FINAL SINGLE POINT ENERGY     -1288.396816956552
Dispersion correction            ... done
Dispersion correction           -0.030426976
FINAL SINGLE POINT ENERGY     -1288.396818782049
Dispersion correction            ... done
Dispersion correction           -0.030423302
FINAL SINGLE POINT ENERGY     -1288.396820431275
Dispersion correction            ... done
                    ***********************HURRAY********************

CARTESIAN COORDINATES (ANGSTROEM)
---------------------------------
  Ir     0.590850   -0.742376    0.511350
  C      0.083308   -2.835935    0.377307
  C     -0.044846   -2.370649    1.735364
  C      2.160266   -2.120058    1.095549
  C      1.423224   -2.663783   -0.020115
  C      1.257982   -1.972336    2.169263
  N     -1.039708    0.115357   -0.494647
  C     -2.326048    0.361855    0.180591
  C     -3.097333    1.544116   -0.388628
  H     -3.933783    1.770235    0.271222
  H     -3.524189    1.339763   -1.371376
  H     -2.480535    2.440668   -0.453435
  C     -3.162989   -0.911957    0.163089
  H     -2.063422    0.595137    1.213418
  H     -4.081432   -0.760123    0.728576
  H     -3.440615   -1.186557   -0.855450
  H     -2.638114   -1.753496    0.612713
  C     -0.871151    0.383449   -1.736111
  C      0.452576    0.230875   -2.273912
  H     -1.688599    0.745663   -2.353307
  C      1.567074    0.303107   -1.451279
  C      2.747616    0.012461   -2.187493
  S      0.841011   -0.127837   -3.897007
  C      2.504836   -0.227362   -3.507811
  H      1.613754    1.251854   -0.572240
  H      3.743681    0.037968   -1.770103
  H      3.224083   -0.438152   -4.284771
  H     -0.712421   -3.229829   -0.238199
  H     -0.931787   -2.410210    2.350080
  H      1.493493   -1.551977    3.136828
  O      1.614048    2.315745    0.199436
  O      0.543199    0.979713    1.624830
  C      1.060737    2.097805    1.290769
  C      1.009329    3.187090    2.320377
  H      0.936357    4.162409    1.845721
  H      1.937760    3.172693    2.894450
  H      0.185721    3.044532    3.015074
  H      3.215598   -1.894707    1.114267
  H      1.829841   -2.895961   -0.993650

 Multiplicity           Mult            ....    1
 Number of Electrons    NEL             ....  164
 Basis Dimension        Dim             ....  358

ORBITAL ENERGIES
----------------

  NO   OCC          E(Eh)            E(eV)
   0   2.0000     -89.755568     -2442.3732
   1   2.0000     -19.633878      -534.2650
   2   2.0000     -19.611365      -533.6524
   3   2.0000     -14.833769      -403.6474
   4   2.0000     -10.694903      -291.0231
   5   2.0000     -10.655770      -289.9583
   6   2.0000     -10.632983      -289.3382
   7   2.0000     -10.631404      -289.2952
   8   2.0000     -10.629956      -289.2558
   9   2.0000     -10.627954      -289.2013
  10   2.0000     -10.623597      -289.0828
  11   2.0000     -10.620064      -288.9866
  12   2.0000     -10.613568      -288.8099
  13   2.0000     -10.605043      -288.5779
  14   2.0000     -10.580404      -287.9074
  15   2.0000     -10.579629      -287.8863
  16   2.0000     -10.554882      -287.2129
  17   2.0000     -10.550394      -287.0908
  18   2.0000     -10.541748      -286.8555
  19   2.0000      -8.395054      -228.4410
  20   2.0000      -6.285014      -171.0239
  21   2.0000      -6.281456      -170.9271
  22   2.0000      -6.279900      -170.8848
  23   2.0000      -4.026791      -109.5746
  24   2.0000      -2.345504       -63.8244
  25   2.0000      -2.311868       -62.9091
  26   2.0000      -2.309507       -62.8449
  27   2.0000      -1.322403       -35.9844
  28   2.0000      -1.224885       -33.3308
  29   2.0000      -1.205386       -32.8002
  30   2.0000      -1.169678       -31.8286
  31   2.0000      -1.120189       -30.4819
  32   2.0000      -1.022057       -27.8116
  33   2.0000      -0.983601       -26.7651
  34   2.0000      -0.974895       -26.5282
  35   2.0000      -0.960596       -26.1391
  36   2.0000      -0.954073       -25.9616
  37   2.0000      -0.937354       -25.5067
  38   2.0000      -0.900549       -24.5052
  39   2.0000      -0.869195       -23.6520
  40   2.0000      -0.794948       -21.6316
  41   2.0000      -0.785286       -21.3687
  42   2.0000      -0.784253       -21.3406
  43   2.0000      -0.776907       -21.1407
  44   2.0000      -0.769143       -20.9295
  45   2.0000      -0.764035       -20.7904
  46   2.0000      -0.740739       -20.1565
  47   2.0000      -0.722391       -19.6573
  48   2.0000      -0.690828       -18.7984
  49   2.0000      -0.678766       -18.4702
  50   2.0000      -0.661982       -18.0134
  51   2.0000      -0.657047       -17.8792
  52   2.0000      -0.648100       -17.6357
  53   2.0000      -0.640026       -17.4160
  54   2.0000      -0.637537       -17.3483
  55   2.0000      -0.633840       -17.2477
  56   2.0000      -0.622041       -16.9266
  57   2.0000      -0.607690       -16.5361
  58   2.0000      -0.605158       -16.4672
  59   2.0000      -0.604257       -16.4427
  60   2.0000      -0.594656       -16.1814
  61   2.0000      -0.587384       -15.9835
  62   2.0000      -0.574697       -15.6383
  63   2.0000      -0.566873       -15.4254
  64   2.0000      -0.561281       -15.2732
  65   2.0000      -0.560246       -15.2451
  66   2.0000      -0.553975       -15.0744
  67   2.0000      -0.547440       -14.8966
  68   2.0000      -0.540417       -14.7055
  69   2.0000      -0.533467       -14.5164
  70   2.0000      -0.527849       -14.3635
  71   2.0000      -0.518700       -14.1146
  72   2.0000      -0.514277       -13.9942
  73   2.0000      -0.504778       -13.7357
  74   2.0000      -0.495921       -13.4947
  75   2.0000      -0.479988       -13.0611
  76   2.0000      -0.467112       -12.7108
  77   2.0000      -0.447810       -12.1855
  78   2.0000      -0.446036       -12.1373
  79   2.0000      -0.418815       -11.3965
  80   2.0000      -0.416458       -11.3324
  81   2.0000      -0.399551       -10.8723
  82   0.0000      -0.198556        -5.4030
  83   0.0000      -0.156536        -4.2596
  84   0.0000      -0.141236        -3.8432
  85   0.0000      -0.086815        -2.3624
  86   0.0000      -0.072323        -1.9680

MULLIKEN ATOMIC CHARGES
-----------------------
   0 Ir:    0.610062
   1 C :   -0.222675
   2 C :   -0.286780
   3 C :   -0.247181
   4 C :   -0.232466
   5 C :   -0.163930
   6 N :   -0.440090
   7 C :   -0.126992
   8 C :   -0.682410
   9 H :    0.268926
  10 H :    0.224945
  11 H :    0.256653
  12 C :   -0.634286
  13 H :    0.278783
  14 H :    0.260981
  15 H :    0.231861
  16 H :    0.230002
  17 C :    0.070328
  18 C :   -0.173270
  19 H :    0.284746
  20 C :   -0.446383
  21 C :   -0.144035
  22 S :    0.316461
  23 C :   -0.424601
  24 H :    0.490674
  25 H :    0.262128
  26 H :    0.295314
  27 H :    0.289879
  28 H :    0.288990
  29 H :    0.303847
  30 O :   -0.494074
  31 O :   -0.523557
  32 C :    0.630931
  33 C :   -0.745291
  34 H :    0.272699
  35 H :    0.272766
  36 H :    0.258853
  37 H :    0.291116
  38 H :    0.297077
Sum of atomic charges:    1.0000000

LOEWDIN ATOMIC CHARGES
----------------------
   0 Ir:   -0.229161
   1 C :   -0.049880
   2 C :   -0.074039
   3 C :   -0.071669
   4 C :   -0.041394
   5 C :   -0.017214
   6 N :   -0.015078
   7 C :   -0.069100
   8 C :   -0.362438
   9 H :    0.155957
  10 H :    0.132961
  11 H :    0.144843
  12 C :   -0.344032
  13 H :    0.154376
  14 H :    0.151559
  15 H :    0.137572
  16 H :    0.131908
  17 C :    0.034293
  18 C :   -0.199932
  19 H :    0.159480
  20 C :   -0.210905
  21 C :   -0.142139
  22 S :    0.471560
  23 C :   -0.259508
  24 H :    0.327802
  25 H :    0.159671
  26 H :    0.167293
  27 H :    0.184517
  28 H :    0.183716
  29 H :    0.191923
  30 O :   -0.269876
  31 O :   -0.190751
  32 C :    0.167373
  33 C :   -0.372775
  34 H :    0.163376
  35 H :    0.171056
  36 H :    0.155098
  37 H :    0.185974
  38 H :    0.187581

  Mayer bond orders larger than 0.100000
B(  0-Ir,  1-C ) :   0.4270 B(  0-Ir,  2-C ) :   0.5132 B(  0-Ir,  3-C ) :   0.4613
B(  0-Ir,  4-C ) :   0.4497 B(  0-Ir,  5-C ) :   0.4034 B(  0-Ir,  6-N ) :   0.4696
B(  0-Ir, 20-C ) :   0.3151 B(  0-Ir, 31-O ) :   0.5446 B(  1-C ,  2-C ) :   1.1187
B(  1-C ,  4-C ) :   1.2379 B(  1-C , 27-H ) :   0.9049 B(  2-C ,  5-C ) :   1.1481
B(  2-C , 28-H ) :   0.9085 B(  3-C ,  4-C ) :   1.1145 B(  3-C ,  5-C ) :   1.2182
B(  3-C , 37-H ) :   0.9074 B(  4-C , 38-H ) :   0.8997 B(  5-C , 29-H ) :   0.8985
B(  6-N ,  7-C ) :   0.8926 B(  6-N , 17-C ) :   1.6610 B(  7-C ,  8-C ) :   0.9911
B(  7-C , 12-C ) :   0.9679 B(  7-C , 13-H ) :   0.8775 B(  8-C ,  9-H ) :   0.9047
B(  8-C , 10-H ) :   0.9131 B(  8-C , 11-H ) :   0.9109 B( 12-C , 14-H ) :   0.9074
B( 12-C , 15-H ) :   0.9156 B( 12-C , 16-H ) :   0.9131 B( 17-C , 18-C ) :   1.0941
B( 17-C , 19-H ) :   0.8759 B( 18-C , 20-C ) :   1.2882 B( 18-C , 22-S ) :   1.2135
B( 20-C , 21-C ) :   1.2943 B( 20-C , 24-H ) :   0.3900 B( 21-C , 23-C ) :   1.5354
B( 21-C , 25-H ) :   0.9055 B( 22-S , 23-C ) :   1.2192 B( 23-C , 26-H ) :   0.8921
B( 24-H , 30-O ) :   0.2977 B( 30-O , 32-C ) :   1.5993 B( 31-O , 32-C ) :   1.3426
B( 32-C , 33-C ) :   0.9487 B( 33-C , 34-H ) :   0.9015 B( 33-C , 35-H ) :   0.8946
B( 33-C , 36-H ) :   0.9083

Dispersion correction           -0.030422220
FINAL SINGLE POINT ENERGY     -1288.396822002671

DIPOLE MOMENT
-------------
                                X             Y             Z
Electronic contribution:     35.57106     -72.08955      79.65982
Nuclear contribution   :    -36.19231      71.24570     -79.72660
                        -----------------------------------------
Total Dipole Moment    :     -0.62125      -0.84385      -0.06678
                        -----------------------------------------
Magnitude (a.u.)       :      1.05000
Magnitude (Debye)      :      2.66888

Rotational constants in cm-1:     0.010533     0.008716     0.008078
Rotational constants in MHz :   315.769991   261.294534   242.162248

                             ****ORCA TERMINATED NORMALLY****
TOTAL RUN TIME: 0 days 1 hours 52 minutes 39 seconds 243 msec
