                         Program Version 5.0.3 -  RELEASE  -
|  1> ! Opt PBEh-3c
|  2> %geom Constraints
|  3> { B 0 20 2.1714285714285713 C }
|  4> { B 24 30 1.4 C }
|  5>     end
|  6> end
|  7> %output
|  8> xyzfile=True
|  9> end
| 10> %scf
| 11> maxiter 250
| 12> end
| 13> %output
| 14> Print[P_Hirshfeld] = 1
| 15> end
| 16> % maxcore
| 17> 4000
| 18> *xyz 1 1
| 19> Ir   0.61552068  -0.71918143   0.43878495
| 20> C    0.12253703  -2.82971465   0.33986878
| 21> C   -0.01977056  -2.36775175   1.69591253
| 22> C    2.18518279  -2.08027292   1.06257975
| 23> C    1.46550407  -2.65013623  -0.04878268
| 24> C    1.26616881  -1.93755376   2.12921938
| 25> N   -1.05681207   0.12959819  -0.51298850
| 26> C   -2.32797558   0.36673519   0.18915823
| 27> C   -3.11871931   1.54633303  -0.35811713
| 28> H   -3.94600793   1.75921530   0.31733926
| 29> H   -3.55986746   1.34449236  -1.33514738
| 30> H   -2.51147107   2.44921090  -0.42569676
| 31> C   -3.15668586  -0.91309605   0.18047492
| 32> H   -2.04332745   0.59401399   1.21741053
| 33> H   -4.06188501  -0.77149443   0.76943630
| 34> H   -3.45711819  -1.18070586  -0.83338316
| 35> H   -2.61508572  -1.75441144   0.60986913
| 36> C   -0.90171956   0.42476517  -1.74983355
| 37> C    0.42244860   0.24385896  -2.27372062
| 38> H   -1.71135684   0.82055145  -2.35520840
| 39> C    1.49312917   0.18205705  -1.38347569
| 40> C    2.69834930  -0.10894451  -2.09076562
| 41> S    0.87169242  -0.02749753  -3.88771574
| 42> C    2.51055684  -0.24173423  -3.43227168
| 43> H    1.59030931   1.16836667  -0.61676923
| 44> H    3.67286102  -0.15798569  -1.62713182
| 45> H    3.25512595  -0.43218105  -4.19021951
| 46> H   -0.66243632  -3.24176089  -0.27756881
| 47> H   -0.91094835  -2.41227046   2.30349258
| 48> H    1.48788902  -1.50238882   3.09350537
| 49> O    1.63411209   2.34282549   0.16995300
| 50> O    0.54517913   0.99719231   1.56923751
| 51> C    1.06966704   2.11916545   1.25026371
| 52> C    1.00365789   3.19733919   2.29301506
| 53> H    0.97628775   4.18021631   1.82958390
| 54> H    1.90479281   3.14866934   2.90703044
| 55> H    0.14752280   3.06832875   2.95036344
| 56> H    3.24014831  -1.85594765   1.09704524
| 57> H    1.88191442  -2.89871584  -1.01400766
| 58> *
| 59>
| 60>                          ****END OF INPUT****
 Total Charge           Charge          ....    1
 Multiplicity           Mult            ....    1
 Number of Electrons    NEL             ....  164
Dispersion correction           -0.030844382
FINAL SINGLE POINT ENERGY     -1288.401067885454
Dispersion correction            ... done
Dispersion correction           -0.030792334
FINAL SINGLE POINT ENERGY     -1288.401057654370
Dispersion correction            ... done
Dispersion correction           -0.030797737
FINAL SINGLE POINT ENERGY     -1288.400272862286
Dispersion correction            ... done
FINAL SINGLE POINT ENERGY     -1288.401381270784
FINAL SINGLE POINT ENERGY     -1288.401423455164
FINAL SINGLE POINT ENERGY     -1288.401454211024
FINAL SINGLE POINT ENERGY     -1288.401492066303
FINAL SINGLE POINT ENERGY     -1288.401495882371
FINAL SINGLE POINT ENERGY     -1288.401495971831
FINAL SINGLE POINT ENERGY     -1288.401491915038
FINAL SINGLE POINT ENERGY     -1288.401491101098
FINAL SINGLE POINT ENERGY     -1288.401491904951
FINAL SINGLE POINT ENERGY     -1288.401493604024
FINAL SINGLE POINT ENERGY     -1288.401496188779
FINAL SINGLE POINT ENERGY     -1288.401498713223
FINAL SINGLE POINT ENERGY     -1288.401500798021
Dispersion correction            ... done
Dispersion correction           -0.030694326
FINAL SINGLE POINT ENERGY     -1288.401501692607
Dispersion correction            ... done
Dispersion correction           -0.030696643
FINAL SINGLE POINT ENERGY     -1288.401502240625
Dispersion correction            ... done
                    ***********************HURRAY********************

CARTESIAN COORDINATES (ANGSTROEM)
---------------------------------
  Ir     0.614402   -0.725344    0.433582
  C      0.128928   -2.837633    0.343233
  C     -0.055292   -2.375979    1.694580
  C      2.166524   -2.077258    1.124503
  C      1.484946   -2.658016   -0.002452
  C      1.210641   -1.934719    2.162384
  N     -1.062009    0.124449   -0.510194
  C     -2.335547    0.337234    0.194840
  C     -3.130304    1.528552   -0.320840
  H     -3.960700    1.717608    0.357697
  H     -3.566836    1.353382   -1.305075
  H     -2.526969    2.435757   -0.359963
  C     -3.159599   -0.944755    0.146270
  H     -2.055755    0.537473    1.230098
  H     -4.067268   -0.824613    0.736310
  H     -3.455661   -1.183301   -0.876084
  H     -2.616298   -1.797000    0.551095
  C     -0.907691    0.455536   -1.738849
  C      0.412369    0.280655   -2.268965
  H     -1.717153    0.871538   -2.330339
  C      1.469497    0.121411   -1.373880
  C      2.674996   -0.146079   -2.091307
  S      0.874325    0.131494   -3.894808
  C      2.500026   -0.163620   -3.441522
  H      1.624410    1.137581   -0.612360
  H      3.642770   -0.259449   -1.624671
  H      3.249074   -0.313297   -4.204190
  H     -0.632892   -3.260360   -0.295475
  H     -0.964552   -2.420531    2.274532
  H      1.400072   -1.493010    3.130592
  O      1.718897    2.305566    0.153724
  O      0.551771    1.014578    1.540281
  C      1.114827    2.113717    1.222574
  C      1.050318    3.219133    2.235630
  H      0.940080    4.182216    1.742486
  H      1.990699    3.246071    2.788767
  H      0.242822    3.067864    2.946539
  H      3.220078   -1.855026    1.194557
  H      1.931425   -2.912635   -0.952560

 Multiplicity           Mult            ....    1
 Number of Electrons    NEL             ....  164
 Basis Dimension        Dim             ....  358

ORBITAL ENERGIES
----------------

  NO   OCC          E(Eh)            E(eV)
   0   2.0000     -89.764463     -2442.6152
   1   2.0000     -19.631773      -534.2077
   2   2.0000     -19.613472      -533.7097
   3   2.0000     -14.835382      -403.6913
   4   2.0000     -10.692356      -290.9538
   5   2.0000     -10.656015      -289.9649
   6   2.0000     -10.627798      -289.1971
   7   2.0000     -10.627011      -289.1757
   8   2.0000     -10.625639      -289.1383
   9   2.0000     -10.624906      -289.1184
  10   2.0000     -10.618342      -288.9398
  11   2.0000     -10.615493      -288.8623
  12   2.0000     -10.613236      -288.8008
  13   2.0000     -10.610351      -288.7223
  14   2.0000     -10.588993      -288.1412
  15   2.0000     -10.588489      -288.1274
  16   2.0000     -10.554062      -287.1906
  17   2.0000     -10.550767      -287.1010
  18   2.0000     -10.541612      -286.8519
  19   2.0000      -8.403875      -228.6811
  20   2.0000      -6.293752      -171.2617
  21   2.0000      -6.290182      -171.1646
  22   2.0000      -6.288864      -171.1287
  23   2.0000      -4.022400      -109.4551
  24   2.0000      -2.339897       -63.6718
  25   2.0000      -2.308080       -62.8061
  26   2.0000      -2.305522       -62.7364
  27   2.0000      -1.319945       -35.9175
  28   2.0000      -1.221427       -33.2367
  29   2.0000      -1.207825       -32.8666
  30   2.0000      -1.162924       -31.6448
  31   2.0000      -1.127977       -30.6938
  32   2.0000      -1.024740       -27.8846
  33   2.0000      -0.975798       -26.5528
  34   2.0000      -0.969848       -26.3909
  35   2.0000      -0.968168       -26.3452
  36   2.0000      -0.959522       -26.1099
  37   2.0000      -0.936265       -25.4771
  38   2.0000      -0.900629       -24.5074
  39   2.0000      -0.872666       -23.7465
  40   2.0000      -0.798506       -21.7285
  41   2.0000      -0.782264       -21.2865
  42   2.0000      -0.778829       -21.1930
  43   2.0000      -0.778386       -21.1810
  44   2.0000      -0.763665       -20.7804
  45   2.0000      -0.758620       -20.6431
  46   2.0000      -0.742746       -20.2111
  47   2.0000      -0.722387       -19.6571
  48   2.0000      -0.691370       -18.8131
  49   2.0000      -0.682890       -18.5824
  50   2.0000      -0.663428       -18.0528
  51   2.0000      -0.656152       -17.8548
  52   2.0000      -0.647210       -17.6115
  53   2.0000      -0.637159       -17.3380
  54   2.0000      -0.632664       -17.2157
  55   2.0000      -0.629618       -17.1328
  56   2.0000      -0.621955       -16.9242
  57   2.0000      -0.610864       -16.6224
  58   2.0000      -0.599796       -16.3213
  59   2.0000      -0.599198       -16.3050
  60   2.0000      -0.598429       -16.2841
  61   2.0000      -0.591405       -16.0929
  62   2.0000      -0.579564       -15.7707
  63   2.0000      -0.568394       -15.4668
  64   2.0000      -0.564304       -15.3555
  65   2.0000      -0.562498       -15.3063
  66   2.0000      -0.553308       -15.0563
  67   2.0000      -0.547173       -14.8893
  68   2.0000      -0.541907       -14.7460
  69   2.0000      -0.535402       -14.5690
  70   2.0000      -0.528811       -14.3897
  71   2.0000      -0.518290       -14.1034
  72   2.0000      -0.513455       -13.9718
  73   2.0000      -0.499524       -13.5927
  74   2.0000      -0.493624       -13.4322
  75   2.0000      -0.482948       -13.1417
  76   2.0000      -0.478501       -13.0207
  77   2.0000      -0.448304       -12.1990
  78   2.0000      -0.444404       -12.0928
  79   2.0000      -0.419306       -11.4099
  80   2.0000      -0.416608       -11.3365
  81   2.0000      -0.396351       -10.7853
  82   0.0000      -0.204964        -5.5774
  83   0.0000      -0.142864        -3.8875
  84   0.0000      -0.137645        -3.7455
  85   0.0000      -0.087876        -2.3912
  86   0.0000      -0.074090        -2.0161

MULLIKEN ATOMIC CHARGES
-----------------------
   0 Ir:    0.604399
   1 C :   -0.234733
   2 C :   -0.266515
   3 C :   -0.264043
   4 C :   -0.228127
   5 C :   -0.155497
   6 N :   -0.432614
   7 C :   -0.126310
   8 C :   -0.683010
   9 H :    0.269762
  10 H :    0.224293
  11 H :    0.255105
  12 C :   -0.634265
  13 H :    0.281076
  14 H :    0.259859
  15 H :    0.232224
  16 H :    0.232830
  17 C :    0.069848
  18 C :   -0.131368
  19 H :    0.286158
  20 C :   -0.544659
  21 C :   -0.104448
  22 S :    0.339029
  23 C :   -0.428633
  24 H :    0.474353
  25 H :    0.267090
  26 H :    0.298233
  27 H :    0.286211
  28 H :    0.283684
  29 H :    0.299999
  30 O :   -0.477699
  31 O :   -0.517691
  32 C :    0.628184
  33 C :   -0.744213
  34 H :    0.271635
  35 H :    0.273571
  36 H :    0.258894
  37 H :    0.284152
  38 H :    0.293235
Sum of atomic charges:    1.0000000

LOEWDIN ATOMIC CHARGES
----------------------
   0 Ir:   -0.253889
   1 C :   -0.054805
   2 C :   -0.092191
   3 C :   -0.089399
   4 C :   -0.043111
   5 C :   -0.015442
   6 N :   -0.003277
   7 C :   -0.069456
   8 C :   -0.362445
   9 H :    0.156400
  10 H :    0.132772
  11 H :    0.144013
  12 C :   -0.343741
  13 H :    0.155610
  14 H :    0.151173
  15 H :    0.137759
  16 H :    0.132967
  17 C :    0.029270
  18 C :   -0.185189
  19 H :    0.160682
  20 C :   -0.217697
  21 C :   -0.125473
  22 S :    0.495896
  23 C :   -0.259282
  24 H :    0.343696
  25 H :    0.162493
  26 H :    0.169260
  27 H :    0.182524
  28 H :    0.180638
  29 H :    0.189522
  30 O :   -0.264801
  31 O :   -0.189396
  32 C :    0.161019
  33 C :   -0.372687
  34 H :    0.163693
  35 H :    0.171047
  36 H :    0.154393
  37 H :    0.182701
  38 H :    0.184754

  Mayer bond orders larger than 0.100000
B(  0-Ir,  1-C ) :   0.4328 B(  0-Ir,  2-C ) :   0.4360 B(  0-Ir,  3-C ) :   0.4655
B(  0-Ir,  4-C ) :   0.4313 B(  0-Ir,  5-C ) :   0.3836 B(  0-Ir,  6-N ) :   0.4640
B(  0-Ir, 20-C ) :   0.4357 B(  0-Ir, 31-O ) :   0.5361 B(  1-C ,  2-C ) :   1.1267
B(  1-C ,  4-C ) :   1.2323 B(  1-C , 27-H ) :   0.9073 B(  2-C ,  5-C ) :   1.1901
B(  2-C , 28-H ) :   0.9101 B(  3-C ,  4-C ) :   1.1290 B(  3-C ,  5-C ) :   1.1895
B(  3-C , 37-H ) :   0.9118 B(  4-C , 38-H ) :   0.8997 B(  5-C , 29-H ) :   0.9003
B(  6-N ,  7-C ) :   0.8950 B(  6-N , 17-C ) :   1.6537 B(  7-C ,  8-C ) :   0.9905
B(  7-C , 12-C ) :   0.9665 B(  7-C , 13-H ) :   0.8756 B(  8-C ,  9-H ) :   0.9046
B(  8-C , 10-H ) :   0.9130 B(  8-C , 11-H ) :   0.9115 B( 12-C , 14-H ) :   0.9076
B( 12-C , 15-H ) :   0.9153 B( 12-C , 16-H ) :   0.9121 B( 17-C , 18-C ) :   1.1045
B( 17-C , 19-H ) :   0.8761 B( 18-C , 20-C ) :   1.2370 B( 18-C , 22-S ) :   1.2451
B( 20-C , 21-C ) :   1.2674 B( 20-C , 24-H ) :   0.3800 B( 21-C , 23-C ) :   1.5468
B( 21-C , 25-H ) :   0.9026 B( 22-S , 23-C ) :   1.2139 B( 23-C , 26-H ) :   0.8912
B( 24-H , 30-O ) :   0.3152 B( 30-O , 32-C ) :   1.6018 B( 31-O , 32-C ) :   1.3506
B( 32-C , 33-C ) :   0.9446 B( 33-C , 34-H ) :   0.9012 B( 33-C , 35-H ) :   0.8947
B( 33-C , 36-H ) :   0.9087

Dispersion correction           -0.030697858
FINAL SINGLE POINT ENERGY     -1288.401502606926

DIPOLE MOMENT
-------------
                                X             Y             Z
Electronic contribution:     37.56292     -72.14945      72.08935
Nuclear contribution   :    -38.20174      71.49255     -72.40066
                        -----------------------------------------
Total Dipole Moment    :     -0.63882      -0.65690      -0.31131
                        -----------------------------------------
Magnitude (a.u.)       :      0.96774
Magnitude (Debye)      :      2.45980

Rotational constants in cm-1:     0.010524     0.008901     0.008213
Rotational constants in MHz :   315.511570   266.859665   246.228943

                             ****ORCA TERMINATED NORMALLY****
TOTAL RUN TIME: 0 days 2 hours 20 minutes 11 seconds 95 msec
