                         Program Version 5.0.3 -  RELEASE  -
|  1> ! Opt PBEh-3c
|  2> %geom Constraints
|  3> { B 0 20 2.428571428571429 C }
|  4> { B 24 30 1.3857142857142857 C }
|  5>     end
|  6> end
|  7> %output
|  8> xyzfile=True
|  9> end
| 10> %scf
| 11> maxiter 250
| 12> end
| 13> %output
| 14> Print[P_Hirshfeld] = 1
| 15> end
| 16> % maxcore
| 17> 4000
| 18> *xyz 1 1
| 19> Ir   0.58613867  -0.72596337   0.47482985
| 20> C    0.03197684  -2.80765983   0.36308165
| 21> C    0.09220296  -2.35799115   1.73157469
| 22> C    2.19258998  -2.13790399   0.81055964
| 23> C    1.30592443  -2.64703064  -0.21152616
| 24> C    1.45448335  -1.99656444   1.99938774
| 25> N   -1.04355544   0.15627735  -0.51585837
| 26> C   -2.31914136   0.47101373   0.14767909
| 27> C   -3.12233922   1.55151069  -0.55890158
| 28> H   -3.95311642   1.84696381   0.08047561
| 29> H   -3.56060117   1.21154613  -1.49856888
| 30> H   -2.52721073   2.44489245  -0.75038084
| 31> C   -3.13141774  -0.80566365   0.32806667
| 32> H   -2.03399984   0.84400871   1.13278176
| 33> H   -4.04920228  -0.58121677   0.86951075
| 34> H   -3.40964710  -1.23763095  -0.63413913
| 35> H   -2.59241791  -1.55676926   0.90366055
| 36> C   -0.84737564   0.37000663  -1.76043838
| 37> C    0.49952521   0.16792314  -2.24100191
| 38> H   -1.63663806   0.72317264  -2.41794995
| 39> C    1.59918237   0.45989911  -1.44231172
| 40> C    2.80368360   0.07624139  -2.09794629
| 41> S    0.92887306  -0.51023597  -3.74654162
| 42> C    2.59389869  -0.45190475  -3.33398745
| 43> H    1.53336006   1.35753334  -0.63739190
| 44> H    3.78968225   0.23865406  -1.68736413
| 45> H    3.33201666  -0.79135180  -4.04494331
| 46> H   -0.84960786  -3.16988227  -0.14606550
| 47> H   -0.70831865  -2.39077277   2.45584425
| 48> H    1.82730832  -1.60260446   2.93396242
| 49> O    1.35817026   2.43066501   0.24447938
| 50> O    0.53444998   0.92403026   1.66731455
| 51> C    0.93418954   2.10819248   1.35533992
| 52> C    0.88496286   3.10741427   2.47587089
| 53> H    0.84755654   4.12122549   2.08673367
| 54> H    1.79291222   3.01352576   3.07494331
| 55> H    0.04064991   2.92925941   3.13830585
| 56> H    3.24079003  -1.91163164   0.68373144
| 57> H    1.57943161  -2.87198811  -1.23207644
| 58> *
| 59>
| 60>                          ****END OF INPUT****
 Total Charge           Charge          ....    1
 Multiplicity           Mult            ....    1
 Number of Electrons    NEL             ....  164
Dispersion correction           -0.030912450
FINAL SINGLE POINT ENERGY     -1288.397394678381
Dispersion correction            ... done
Dispersion correction           -0.030986713
FINAL SINGLE POINT ENERGY     -1288.394767927431
Dispersion correction            ... done
Dispersion correction           -0.030896198
FINAL SINGLE POINT ENERGY     -1288.397494627106
Dispersion correction            ... done
FINAL SINGLE POINT ENERGY     -1288.395507899274
FINAL SINGLE POINT ENERGY     -1288.397577520691
FINAL SINGLE POINT ENERGY     -1288.397606222737
FINAL SINGLE POINT ENERGY     -1288.397635132123
FINAL SINGLE POINT ENERGY     -1288.397653552051
FINAL SINGLE POINT ENERGY     -1288.397666583077
Dispersion correction            ... done
Dispersion correction           -0.030751233
FINAL SINGLE POINT ENERGY     -1288.397674049251
Dispersion correction            ... done
Dispersion correction           -0.030746819
FINAL SINGLE POINT ENERGY     -1288.397673169665
Dispersion correction            ... done
                    ***********************HURRAY********************

CARTESIAN COORDINATES (ANGSTROEM)
---------------------------------
  Ir     0.590310   -0.726320    0.477024
  C      0.036263   -2.810596    0.377832
  C      0.071224   -2.352524    1.743363
  C      2.189044   -2.136854    0.857870
  C      1.320947   -2.654867   -0.175185
  C      1.426834   -1.985414    2.031185
  N     -1.042333    0.147110   -0.516657
  C     -2.319869    0.444980    0.151732
  C     -3.117943    1.549144   -0.523976
  H     -3.948591    1.829220    0.122454
  H     -3.556084    1.238135   -1.473572
  H     -2.518532    2.444869   -0.688886
  C     -3.136843   -0.834293    0.289339
  H     -2.038359    0.786647    1.149097
  H     -4.056133   -0.624569    0.834237
  H     -3.412459   -1.235286   -0.686909
  H     -2.601565   -1.604671    0.842266
  C     -0.854555    0.375264   -1.761083
  C      0.487216    0.186949   -2.253854
  H     -1.651226    0.730882   -2.408105
  C      1.583851    0.405809   -1.428001
  C      2.787800    0.046704   -2.097441
  S      0.918732   -0.395346   -3.796745
  C      2.579814   -0.393089   -3.368629
  H      1.540002    1.322294   -0.617416
  H      3.773020    0.164691   -1.670202
  H      3.318672   -0.695846   -4.095201
  H     -0.834933   -3.178414   -0.144960
  H     -0.742245   -2.380422    2.453106
  H      1.781938   -1.582826    2.969033
  O      1.407197    2.412166    0.228010
  O      0.533829    0.939244    1.655402
  C      0.958082    2.110152    1.337516
  C      0.911248    3.127355    2.441124
  H      0.885960    4.135516    2.036622
  H      1.814877    3.034014    3.046765
  H      0.061083    2.966375    3.100264
  H      3.240564   -1.916088    0.751408
  H      1.612532   -2.890904   -1.188088

 Multiplicity           Mult            ....    1
 Number of Electrons    NEL             ....  164
 Basis Dimension        Dim             ....  358

ORBITAL ENERGIES
----------------

  NO   OCC          E(Eh)            E(eV)
   0   2.0000     -89.760777     -2442.5149
   1   2.0000     -19.626396      -534.0614
   2   2.0000     -19.595646      -533.2246
   3   2.0000     -14.838638      -403.7799
   4   2.0000     -10.685040      -290.7547
   5   2.0000     -10.659815      -290.0683
   6   2.0000     -10.635585      -289.4090
   7   2.0000     -10.632873      -289.3352
   8   2.0000     -10.630467      -289.2697
   9   2.0000     -10.629584      -289.2457
  10   2.0000     -10.628931      -289.2279
  11   2.0000     -10.628360      -289.2124
  12   2.0000     -10.615181      -288.8538
  13   2.0000     -10.608552      -288.6734
  14   2.0000     -10.583300      -287.9862
  15   2.0000     -10.581327      -287.9325
  16   2.0000     -10.556355      -287.2530
  17   2.0000     -10.551513      -287.1213
  18   2.0000     -10.535503      -286.6856
  19   2.0000      -8.400178      -228.5805
  20   2.0000      -6.290176      -171.1644
  21   2.0000      -6.286566      -171.0661
  22   2.0000      -6.285004      -171.0237
  23   2.0000      -4.028358      -109.6172
  24   2.0000      -2.347295       -63.8731
  25   2.0000      -2.313333       -62.9490
  26   2.0000      -2.311580       -62.9013
  27   2.0000      -1.310629       -35.6640
  28   2.0000      -1.214030       -33.0354
  29   2.0000      -1.210082       -32.9280
  30   2.0000      -1.171765       -31.8854
  31   2.0000      -1.124879       -30.6095
  32   2.0000      -1.025485       -27.9049
  33   2.0000      -0.986214       -26.8362
  34   2.0000      -0.976803       -26.5802
  35   2.0000      -0.964483       -26.2449
  36   2.0000      -0.958034       -26.0694
  37   2.0000      -0.930115       -25.3097
  38   2.0000      -0.902522       -24.5589
  39   2.0000      -0.872490       -23.7417
  40   2.0000      -0.797319       -21.6961
  41   2.0000      -0.787603       -21.4318
  42   2.0000      -0.786299       -21.3963
  43   2.0000      -0.779991       -21.2246
  44   2.0000      -0.771317       -20.9886
  45   2.0000      -0.757558       -20.6142
  46   2.0000      -0.743032       -20.2189
  47   2.0000      -0.722586       -19.6626
  48   2.0000      -0.692765       -18.8511
  49   2.0000      -0.676134       -18.3985
  50   2.0000      -0.664345       -18.0777
  51   2.0000      -0.651176       -17.7194
  52   2.0000      -0.648550       -17.6479
  53   2.0000      -0.639273       -17.3955
  54   2.0000      -0.637593       -17.3498
  55   2.0000      -0.631851       -17.1936
  56   2.0000      -0.623057       -16.9542
  57   2.0000      -0.610575       -16.6146
  58   2.0000      -0.607388       -16.5279
  59   2.0000      -0.606463       -16.5027
  60   2.0000      -0.597027       -16.2459
  61   2.0000      -0.588530       -16.0147
  62   2.0000      -0.577032       -15.7018
  63   2.0000      -0.569000       -15.4833
  64   2.0000      -0.562830       -15.3154
  65   2.0000      -0.557401       -15.1676
  66   2.0000      -0.552203       -15.0262
  67   2.0000      -0.548498       -14.9254
  68   2.0000      -0.539637       -14.6843
  69   2.0000      -0.535181       -14.5630
  70   2.0000      -0.527989       -14.3673
  71   2.0000      -0.519902       -14.1472
  72   2.0000      -0.515353       -14.0235
  73   2.0000      -0.505261       -13.7489
  74   2.0000      -0.490801       -13.3554
  75   2.0000      -0.480732       -13.0814
  76   2.0000      -0.466950       -12.7064
  77   2.0000      -0.448813       -12.2128
  78   2.0000      -0.443004       -12.0548
  79   2.0000      -0.421598       -11.4723
  80   2.0000      -0.417436       -11.3590
  81   2.0000      -0.402027       -10.9397
  82   0.0000      -0.201254        -5.4764
  83   0.0000      -0.160176        -4.3586
  84   0.0000      -0.141257        -3.8438
  85   0.0000      -0.094567        -2.5733
  86   0.0000      -0.075031        -2.0417

MULLIKEN ATOMIC CHARGES
-----------------------
   0 Ir:    0.613717
   1 C :   -0.211163
   2 C :   -0.288963
   3 C :   -0.236703
   4 C :   -0.244828
   5 C :   -0.166142
   6 N :   -0.431655
   7 C :   -0.121236
   8 C :   -0.691141
   9 H :    0.271577
  10 H :    0.225570
  11 H :    0.259650
  12 C :   -0.637329
  13 H :    0.281226
  14 H :    0.263586
  15 H :    0.231046
  16 H :    0.231696
  17 C :    0.070042
  18 C :   -0.182345
  19 H :    0.289690
  20 C :   -0.454595
  21 C :   -0.134473
  22 S :    0.309284
  23 C :   -0.429417
  24 H :    0.498980
  25 H :    0.264630
  26 H :    0.296789
  27 H :    0.291181
  28 H :    0.291562
  29 H :    0.305205
  30 O :   -0.485277
  31 O :   -0.535353
  32 C :    0.620651
  33 C :   -0.745240
  34 H :    0.270318
  35 H :    0.267518
  36 H :    0.254597
  37 H :    0.292519
  38 H :    0.294824
Sum of atomic charges:    1.0000000

LOEWDIN ATOMIC CHARGES
----------------------
   0 Ir:   -0.225166
   1 C :   -0.040330
   2 C :   -0.067698
   3 C :   -0.055426
   4 C :   -0.054932
   5 C :   -0.023584
   6 N :   -0.008279
   7 C :   -0.068976
   8 C :   -0.364195
   9 H :    0.157031
  10 H :    0.133508
  11 H :    0.146330
  12 C :   -0.343665
  13 H :    0.156146
  14 H :    0.152677
  15 H :    0.137290
  16 H :    0.133423
  17 C :    0.034549
  18 C :   -0.188091
  19 H :    0.161907
  20 C :   -0.200725
  21 C :   -0.138034
  22 S :    0.471427
  23 C :   -0.262060
  24 H :    0.304145
  25 H :    0.161399
  26 H :    0.167781
  27 H :    0.184972
  28 H :    0.185262
  29 H :    0.192854
  30 O :   -0.275093
  31 O :   -0.202727
  32 C :    0.158078
  33 C :   -0.375017
  34 H :    0.160387
  35 H :    0.167950
  36 H :    0.153979
  37 H :    0.186558
  38 H :    0.186344

  Mayer bond orders larger than 0.100000
B(  0-Ir,  1-C ) :   0.4206 B(  0-Ir,  2-C ) :   0.5247 B(  0-Ir,  3-C ) :   0.4596
B(  0-Ir,  4-C ) :   0.4524 B(  0-Ir,  5-C ) :   0.4026 B(  0-Ir,  6-N ) :   0.4662
B(  0-Ir, 20-C ) :   0.2765 B(  0-Ir, 31-O ) :   0.5699 B(  1-C ,  2-C ) :   1.1199
B(  1-C ,  4-C ) :   1.2421 B(  1-C , 27-H ) :   0.9033 B(  2-C ,  5-C ) :   1.1373
B(  2-C , 28-H ) :   0.9078 B(  3-C ,  4-C ) :   1.1079 B(  3-C ,  5-C ) :   1.2309
B(  3-C , 37-H ) :   0.9053 B(  4-C , 38-H ) :   0.9003 B(  5-C , 29-H ) :   0.8983
B(  6-N ,  7-C ) :   0.8921 B(  6-N , 17-C ) :   1.6799 B(  7-C ,  8-C ) :   0.9918
B(  7-C , 12-C ) :   0.9686 B(  7-C , 13-H ) :   0.8731 B(  8-C ,  9-H ) :   0.9038
B(  8-C , 10-H ) :   0.9127 B(  8-C , 11-H ) :   0.9088 B( 12-C , 14-H ) :   0.9066
B( 12-C , 15-H ) :   0.9155 B( 12-C , 16-H ) :   0.9119 B( 17-C , 18-C ) :   1.0695
B( 17-C , 19-H ) :   0.8745 B( 18-C , 20-C ) :   1.2882 B( 18-C , 22-S ) :   1.2262
B( 20-C , 21-C ) :   1.2730 B( 20-C , 24-H ) :   0.4432 B( 21-C , 23-C ) :   1.5449
B( 21-C , 25-H ) :   0.9049 B( 22-S , 23-C ) :   1.2076 B( 23-C , 26-H ) :   0.8921
B( 24-H , 30-O ) :   0.2592 B( 30-O , 32-C ) :   1.6629 B( 31-O , 32-C ) :   1.2962
B( 32-C , 33-C ) :   0.9472 B( 33-C , 34-H ) :   0.9043 B( 33-C , 35-H ) :   0.8978
B( 33-C , 36-H ) :   0.9090

Dispersion correction           -0.030744075
FINAL SINGLE POINT ENERGY     -1288.397674814078

DIPOLE MOMENT
-------------
                                X             Y             Z
Electronic contribution:     35.29372     -69.12984      75.57724
Nuclear contribution   :    -35.91484      68.02318     -75.80861
                        -----------------------------------------
Total Dipole Moment    :     -0.62112      -1.10665      -0.23137
                        -----------------------------------------
Magnitude (a.u.)       :      1.28996
Magnitude (Debye)      :      3.27881

Rotational constants in cm-1:     0.010610     0.008997     0.008192
Rotational constants in MHz :   318.075423   269.737632   245.598832

                             ****ORCA TERMINATED NORMALLY****
TOTAL RUN TIME: 0 days 1 hours 33 minutes 58 seconds 457 msec
