                         Program Version 5.0.3 -  RELEASE  -
|  1> ! Opt PBEh-3c
|  2> %geom Constraints
|  3> { B 0 20 2.257142857142857 C }
|  4> { B 24 30 1.342857142857143 C }
|  5>     end
|  6> end
|  7> %output
|  8> xyzfile=True
|  9> end
| 10> %scf
| 11> maxiter 250
| 12> end
| 13> %output
| 14> Print[P_Hirshfeld] = 1
| 15> end
| 16> % maxcore
| 17> 4000
| 18> *xyz 1 1
| 19> Ir   0.60556875  -0.73087778   0.47057690
| 20> C    0.10805328  -2.83360674   0.35618251
| 21> C   -0.04182502  -2.36881982   1.71125274
| 22> C    2.16978002  -2.09662498   1.09612458
| 23> C    1.45405304  -2.65793521  -0.02272235
| 24> C    1.24626849  -1.94996614   2.15622524
| 25> N   -1.05018551   0.12150158  -0.50396734
| 26> C   -2.32890653   0.35598149   0.18722591
| 27> C   -3.11146662   1.54139903  -0.35971421
| 28> H   -3.94364771   1.75317792   0.31009481
| 29> H   -3.54511011   1.34747450  -1.34164508
| 30> H   -2.50057331   2.44251862  -0.41705278
| 31> C   -3.16086090  -0.92124810   0.16204003
| 32> H   -2.05550590   0.57721631   1.21986713
| 33> H   -4.07247640  -0.78123805   0.74147086
| 34> H   -3.45038201  -1.18217074  -0.85674777
| 35> H   -2.62663327  -1.76692818   0.59222569
| 36> C   -0.89010733   0.41300060  -1.74124198
| 37> C    0.43294009   0.24772698  -2.27383650
| 38> H   -1.70393029   0.79790901  -2.34861516
| 39> C    1.52269233   0.22100827  -1.41165509
| 40> C    2.71600947  -0.06490165  -2.13422551
| 41> S    0.85522227  -0.03430298  -3.89797883
| 42> C    2.50376551  -0.21733144  -3.47165407
| 43> H    1.61011773   1.20022430  -0.58991467
| 44> H    3.69982284  -0.09751762  -1.68922147
| 45> H    3.23680341  -0.40744319  -4.24091979
| 46> H   -0.67479203  -3.24012448  -0.26756334
| 47> H   -0.93700230  -2.41050049   2.31334691
| 48> H    1.46385622  -1.51882980   3.12327558
| 49> O    1.64357829   2.31883404   0.17782838
| 50> O    0.54519890   0.99347935   1.58929531
| 51> C    1.07552536   2.10729392   1.26218595
| 52> C    1.01908739   3.19890947   2.28988981
| 53> H    0.96305535   4.17413110   1.81272958
| 54> H    1.93799244   3.17574595   2.87861853
| 55> H    0.18305711   3.06560885   2.97145358
| 56> H    3.22472812  -1.87274235   1.13468777
| 57> H    1.87559874  -2.90084147  -0.98718181
| 58> *
| 59>
| 60>                          ****END OF INPUT****
 Total Charge           Charge          ....    1
 Multiplicity           Mult            ....    1
 Number of Electrons    NEL             ....  164
Dispersion correction           -0.030690741
FINAL SINGLE POINT ENERGY     -1288.401694524523
Dispersion correction            ... done
Dispersion correction           -0.030646631
FINAL SINGLE POINT ENERGY     -1288.401942200869
Dispersion correction            ... done
Dispersion correction           -0.030625700
FINAL SINGLE POINT ENERGY     -1288.402024397712
Dispersion correction            ... done
FINAL SINGLE POINT ENERGY     -1288.402080873281
FINAL SINGLE POINT ENERGY     -1288.402124978214
FINAL SINGLE POINT ENERGY     -1288.402145128185
FINAL SINGLE POINT ENERGY     -1288.402152739909
FINAL SINGLE POINT ENERGY     -1288.402154306380
FINAL SINGLE POINT ENERGY     -1288.402153940722
FINAL SINGLE POINT ENERGY     -1288.402152118488
Dispersion correction            ... done
Dispersion correction           -0.030537501
FINAL SINGLE POINT ENERGY     -1288.402151318782
Dispersion correction            ... done
Dispersion correction           -0.030534905
FINAL SINGLE POINT ENERGY     -1288.402151334858
Dispersion correction            ... done
                    ***********************HURRAY********************

CARTESIAN COORDINATES (ANGSTROEM)
---------------------------------
  Ir     0.602475   -0.733635    0.464440
  C      0.098003   -2.837189    0.379327
  C     -0.065025   -2.362643    1.728732
  C      2.153734   -2.097488    1.131685
  C      1.449854   -2.670270    0.012920
  C      1.216164   -1.937744    2.179944
  N     -1.056254    0.116627   -0.506929
  C     -2.338694    0.328421    0.184103
  C     -3.132107    1.514907   -0.345021
  H     -3.967393    1.707165    0.326604
  H     -3.561872    1.332397   -1.330871
  H     -2.530195    2.422954   -0.386488
  C     -3.160028   -0.955063    0.135404
  H     -2.070811    0.535692    1.221221
  H     -4.076996   -0.831081    0.710109
  H     -3.439979   -1.203509   -0.889164
  H     -2.622308   -1.802709    0.556925
  C     -0.894232    0.442419   -1.736139
  C      0.425707    0.286204   -2.272669
  H     -1.707493    0.845795   -2.331805
  C      1.501670    0.161232   -1.402471
  C      2.697236   -0.096152   -2.131845
  S      0.863174    0.129841   -3.909452
  C      2.499135   -0.130916   -3.480372
  H      1.645104    1.165752   -0.569864
  H      3.674231   -0.192203   -1.680999
  H      3.238510   -0.277375   -4.253106
  H     -0.677535   -3.250922   -0.248719
  H     -0.965825   -2.398445    2.322502
  H      1.424019   -1.495778    3.144278
  O      1.733907    2.279045    0.175762
  O      0.542660    1.011952    1.563815
  C      1.118789    2.100379    1.244783
  C      1.065395    3.214908    2.246639
  H      0.997021    4.177845    1.746047
  H      1.992055    3.215152    2.823348
  H      0.237008    3.092025    2.938829
  H      3.209268   -1.879149    1.182240
  H      1.880999   -2.929253   -0.943002

 Multiplicity           Mult            ....    1
 Number of Electrons    NEL             ....  164
 Basis Dimension        Dim             ....  358

ORBITAL ENERGIES
----------------

  NO   OCC          E(Eh)            E(eV)
   0   2.0000     -89.759737     -2442.4866
   1   2.0000     -19.635208      -534.3012
   2   2.0000     -19.618925      -533.8581
   3   2.0000     -14.833214      -403.6323
   4   2.0000     -10.696782      -291.0742
   5   2.0000     -10.654609      -289.9266
   6   2.0000     -10.629134      -289.2334
   7   2.0000     -10.627090      -289.1778
   8   2.0000     -10.625835      -289.1437
   9   2.0000     -10.621976      -289.0387
  10   2.0000     -10.620214      -288.9907
  11   2.0000     -10.617419      -288.9146
  12   2.0000     -10.612740      -288.7873
  13   2.0000     -10.607554      -288.6462
  14   2.0000     -10.586297      -288.0678
  15   2.0000     -10.584640      -288.0227
  16   2.0000     -10.553684      -287.1803
  17   2.0000     -10.550318      -287.0888
  18   2.0000     -10.543982      -286.9163
  19   2.0000      -8.399186      -228.5535
  20   2.0000      -6.289090      -171.1348
  21   2.0000      -6.285540      -171.0382
  22   2.0000      -6.284119      -170.9996
  23   2.0000      -4.023193      -109.4766
  24   2.0000      -2.340955       -63.7006
  25   2.0000      -2.308593       -62.8200
  26   2.0000      -2.305978       -62.7489
  27   2.0000      -1.325255       -36.0620
  28   2.0000      -1.226701       -33.3802
  29   2.0000      -1.205422       -32.8012
  30   2.0000      -1.164492       -31.6874
  31   2.0000      -1.124044       -30.5868
  32   2.0000      -1.022762       -27.8308
  33   2.0000      -0.977589       -26.6015
  34   2.0000      -0.970228       -26.4013
  35   2.0000      -0.964520       -26.2459
  36   2.0000      -0.956902       -26.0386
  37   2.0000      -0.939435       -25.5633
  38   2.0000      -0.900087       -24.4926
  39   2.0000      -0.870242       -23.6805
  40   2.0000      -0.796169       -21.6649
  41   2.0000      -0.780545       -21.2397
  42   2.0000      -0.779934       -21.2231
  43   2.0000      -0.778861       -21.1939
  44   2.0000      -0.764932       -20.8148
  45   2.0000      -0.762797       -20.7568
  46   2.0000      -0.741059       -20.1652
  47   2.0000      -0.721995       -19.6465
  48   2.0000      -0.691663       -18.8211
  49   2.0000      -0.682455       -18.5706
  50   2.0000      -0.662550       -18.0289
  51   2.0000      -0.659358       -17.9420
  52   2.0000      -0.648095       -17.6356
  53   2.0000      -0.638700       -17.3799
  54   2.0000      -0.633442       -17.2368
  55   2.0000      -0.631304       -17.1787
  56   2.0000      -0.621408       -16.9094
  57   2.0000      -0.608415       -16.5558
  58   2.0000      -0.600459       -16.3393
  59   2.0000      -0.599769       -16.3205
  60   2.0000      -0.596829       -16.2406
  61   2.0000      -0.589670       -16.0457
  62   2.0000      -0.577219       -15.7069
  63   2.0000      -0.567869       -15.4525
  64   2.0000      -0.563667       -15.3381
  65   2.0000      -0.561228       -15.2718
  66   2.0000      -0.554862       -15.0986
  67   2.0000      -0.546827       -14.8799
  68   2.0000      -0.541484       -14.7345
  69   2.0000      -0.534498       -14.5444
  70   2.0000      -0.528287       -14.3754
  71   2.0000      -0.517959       -14.0944
  72   2.0000      -0.513134       -13.9631
  73   2.0000      -0.501777       -13.6541
  74   2.0000      -0.496183       -13.5018
  75   2.0000      -0.479407       -13.0453
  76   2.0000      -0.477353       -12.9894
  77   2.0000      -0.448428       -12.2023
  78   2.0000      -0.445653       -12.1268
  79   2.0000      -0.417815       -11.3693
  80   2.0000      -0.416787       -11.3414
  81   2.0000      -0.397379       -10.8132
  82   0.0000      -0.200205        -5.4478
  83   0.0000      -0.143387        -3.9018
  84   0.0000      -0.141897        -3.8612
  85   0.0000      -0.085618        -2.3298
  86   0.0000      -0.071865        -1.9556

MULLIKEN ATOMIC CHARGES
-----------------------
   0 Ir:    0.603046
   1 C :   -0.230232
   2 C :   -0.273949
   3 C :   -0.257700
   4 C :   -0.231070
   5 C :   -0.158916
   6 N :   -0.437800
   7 C :   -0.125111
   8 C :   -0.683412
   9 H :    0.269361
  10 H :    0.224803
  11 H :    0.254608
  12 C :   -0.634337
  13 H :    0.279279
  14 H :    0.259669
  15 H :    0.232248
  16 H :    0.231739
  17 C :    0.069727
  18 C :   -0.143174
  19 H :    0.284821
  20 C :   -0.505340
  21 C :   -0.121555
  22 S :    0.332038
  23 C :   -0.426351
  24 H :    0.478400
  25 H :    0.264157
  26 H :    0.296780
  27 H :    0.287434
  28 H :    0.284849
  29 H :    0.300415
  30 O :   -0.486745
  31 O :   -0.514169
  32 C :    0.632248
  33 C :   -0.744490
  34 H :    0.273275
  35 H :    0.274455
  36 H :    0.260608
  37 H :    0.285979
  38 H :    0.294413
Sum of atomic charges:    1.0000000

LOEWDIN ATOMIC CHARGES
----------------------
   0 Ir:   -0.249371
   1 C :   -0.051952
   2 C :   -0.089398
   3 C :   -0.084364
   4 C :   -0.043005
   5 C :   -0.015789
   6 N :   -0.009378
   7 C :   -0.069038
   8 C :   -0.362564
   9 H :    0.156109
  10 H :    0.132900
  11 H :    0.143763
  12 C :   -0.343955
  13 H :    0.154667
  14 H :    0.150998
  15 H :    0.137789
  16 H :    0.132447
  17 C :    0.030996
  18 C :   -0.194368
  19 H :    0.159733
  20 C :   -0.216045
  21 C :   -0.133148
  22 S :    0.486543
  23 C :   -0.258755
  24 H :    0.345605
  25 H :    0.160853
  26 H :    0.168403
  27 H :    0.183113
  28 H :    0.181473
  29 H :    0.189867
  30 O :   -0.264489
  31 O :   -0.185077
  32 C :    0.166191
  33 C :   -0.371942
  34 H :    0.164381
  35 H :    0.171820
  36 H :    0.155654
  37 H :    0.183527
  38 H :    0.185807

  Mayer bond orders larger than 0.100000
B(  0-Ir,  1-C ) :   0.4306 B(  0-Ir,  2-C ) :   0.4590 B(  0-Ir,  3-C ) :   0.4625
B(  0-Ir,  4-C ) :   0.4392 B(  0-Ir,  5-C ) :   0.3930 B(  0-Ir,  6-N ) :   0.4669
B(  0-Ir, 20-C ) :   0.4019 B(  0-Ir, 31-O ) :   0.5300 B(  1-C ,  2-C ) :   1.1266
B(  1-C ,  4-C ) :   1.2321 B(  1-C , 27-H ) :   0.9064 B(  2-C ,  5-C ) :   1.1752
B(  2-C , 28-H ) :   0.9101 B(  3-C ,  4-C ) :   1.1252 B(  3-C ,  5-C ) :   1.1992
B(  3-C , 37-H ) :   0.9104 B(  4-C , 38-H ) :   0.9003 B(  5-C , 29-H ) :   0.9000
B(  6-N ,  7-C ) :   0.8950 B(  6-N , 17-C ) :   1.6522 B(  7-C ,  8-C ) :   0.9907
B(  7-C , 12-C ) :   0.9671 B(  7-C , 13-H ) :   0.8768 B(  8-C ,  9-H ) :   0.9047
B(  8-C , 10-H ) :   0.9129 B(  8-C , 11-H ) :   0.9117 B( 12-C , 14-H ) :   0.9077
B( 12-C , 15-H ) :   0.9154 B( 12-C , 16-H ) :   0.9125 B( 17-C , 18-C ) :   1.1055
B( 17-C , 19-H ) :   0.8761 B( 18-C , 20-C ) :   1.2587 B( 18-C , 22-S ) :   1.2284
B( 20-C , 21-C ) :   1.2860 B( 20-C , 24-H ) :   0.3603 B( 21-C , 23-C ) :   1.5384
B( 21-C , 25-H ) :   0.9041 B( 22-S , 23-C ) :   1.2207 B( 23-C , 26-H ) :   0.8915
B( 24-H , 30-O ) :   0.3272 B( 30-O , 32-C ) :   1.5759 B( 31-O , 32-C ) :   1.3656
B( 32-C , 33-C ) :   0.9467 B( 33-C , 34-H ) :   0.9005 B( 33-C , 35-H ) :   0.8938
B( 33-C , 36-H ) :   0.9081

Dispersion correction           -0.030533743
FINAL SINGLE POINT ENERGY     -1288.402152267992

DIPOLE MOMENT
-------------
                                X             Y             Z
Electronic contribution:     36.46372     -72.88196      75.18965
Nuclear contribution   :    -37.07593      72.25686     -75.36442
                        -----------------------------------------
Total Dipole Moment    :     -0.61220      -0.62511      -0.17477
                        -----------------------------------------
Magnitude (a.u.)       :      0.89224
Magnitude (Debye)      :      2.26789

Rotational constants in cm-1:     0.010541     0.008760     0.008148
Rotational constants in MHz :   316.000055   262.604093   244.274747

                             ****ORCA TERMINATED NORMALLY****
TOTAL RUN TIME: 0 days 1 hours 37 minutes 3 seconds 946 msec
