                         Program Version 5.0.3 -  RELEASE  -
|  1> ! Opt PBEh-3c
|  2> %geom Constraints
|  3> { B 0 20 2.1714285714285713 C }
|  4> { B 24 30 1.3142857142857143 C }
|  5>     end
|  6> end
|  7> %output
|  8> xyzfile=True
|  9> end
| 10> %scf
| 11> maxiter 250
| 12> end
| 13> %output
| 14> Print[P_Hirshfeld] = 1
| 15> end
| 16> % maxcore
| 17> 4000
| 18> *xyz 1 1
| 19> Ir   0.60309583  -0.73674553   0.45522770
| 20> C    0.12126156  -2.84377002   0.36765327
| 21> C   -0.09746464  -2.37662413   1.71229176
| 22> C    2.13886035  -2.08001063   1.19760447
| 23> C    1.48736460  -2.66632851   0.05747059
| 24> C    1.15485909  -1.93213013   2.20961074
| 25> N   -1.06451892   0.10761826  -0.50582448
| 26> C   -2.34652506   0.30187381   0.19069679
| 27> C   -3.13649545   1.50605230  -0.30255409
| 28> H   -3.97281879   1.67874653   0.37300296
| 29> H   -3.56395846   1.35660077  -1.29492623
| 30> H   -2.53188728   2.41317924  -0.31371986
| 31> C   -3.17008773  -0.97803258   0.10258870
| 32> H   -2.07962398   0.47820207   1.23377992
| 33> H   -4.08449230  -0.87312519   0.68518586
| 34> H   -3.45432085  -1.19180453  -0.92858803
| 35> H   -2.63094904  -1.84028526   0.49166098
| 36> C   -0.90833284   0.45289008  -1.73103962
| 37> C    0.40833828   0.29998411  -2.27275039
| 38> H   -1.72372531   0.86672394  -2.31624645
| 39> C    1.47165370   0.10699911  -1.39862328
| 40> C    2.67157069  -0.12630126  -2.12951386
| 41> S    0.86213118   0.23429263  -3.91089920
| 42> C    2.48799658  -0.07775745  -3.48004089
| 43> H    1.65134145   1.15867797  -0.58225139
| 44> H    3.64195589  -0.26634773  -1.67578723
| 45> H    3.23412251  -0.19138378  -4.25182253
| 46> H   -0.62239462  -3.27216436  -0.28837886
| 47> H   -1.02094595  -2.41970757   2.26940686
| 48> H    1.31818086  -1.48493016   3.18008169
| 49> O    1.77216612   2.26652260   0.14106296
| 50> O    0.55772047   1.02933288   1.53490628
| 51> C    1.15119248   2.10308958   1.21366480
| 52> C    1.11990641   3.23009569   2.20143877
| 53> H    0.99947163   4.18280093   1.69041584
| 54> H    2.07578171   3.26647154   2.72677037
| 55> H    0.33078558   3.09692005   2.93578640
| 56> H    3.19017482  -1.85702993   1.29363719
| 57> H    1.95797933  -2.92340533  -0.88023846
| 58> *
| 59>
| 60>                          ****END OF INPUT****
 Total Charge           Charge          ....    1
 Multiplicity           Mult            ....    1
 Number of Electrons    NEL             ....  164
Dispersion correction           -0.030623722
FINAL SINGLE POINT ENERGY     -1288.404909771711
Dispersion correction            ... done
Dispersion correction           -0.030583689
FINAL SINGLE POINT ENERGY     -1288.405158670610
Dispersion correction            ... done
Dispersion correction           -0.030567153
FINAL SINGLE POINT ENERGY     -1288.405241920575
Dispersion correction            ... done
FINAL SINGLE POINT ENERGY     -1288.405290086306
FINAL SINGLE POINT ENERGY     -1288.405324847235
FINAL SINGLE POINT ENERGY     -1288.405339824798
FINAL SINGLE POINT ENERGY     -1288.405345785700
FINAL SINGLE POINT ENERGY     -1288.405349031798
FINAL SINGLE POINT ENERGY     -1288.405353311399
FINAL SINGLE POINT ENERGY     -1288.405358334074
FINAL SINGLE POINT ENERGY     -1288.405399657166
FINAL SINGLE POINT ENERGY     -1288.405404451639
FINAL SINGLE POINT ENERGY     -1288.405409801983
FINAL SINGLE POINT ENERGY     -1288.405414707180
FINAL SINGLE POINT ENERGY     -1288.405417936311
FINAL SINGLE POINT ENERGY     -1288.405419298484
FINAL SINGLE POINT ENERGY     -1288.405419643771
Dispersion correction            ... done
Dispersion correction           -0.030529426
FINAL SINGLE POINT ENERGY     -1288.405419813522
Dispersion correction            ... done
Dispersion correction           -0.030528879
FINAL SINGLE POINT ENERGY     -1288.405420002658
Dispersion correction            ... done
                    ***********************HURRAY********************

CARTESIAN COORDINATES (ANGSTROEM)
---------------------------------
  Ir     0.605884   -0.743887    0.443398
  C      0.131664   -2.851340    0.364235
  C     -0.113839   -2.391279    1.707047
  C      2.128954   -2.076041    1.231327
  C      1.505258   -2.670985    0.082755
  C      1.121194   -1.935348    2.225563
  N     -1.068511    0.102109   -0.505334
  C     -2.348631    0.285726    0.196691
  C     -3.138065    1.499671   -0.272921
  H     -3.973958    1.659796    0.406209
  H     -3.565690    1.370142   -1.268011
  H     -2.532676    2.406363   -0.266601
  C     -3.173632   -0.991546    0.087078
  H     -2.079867    0.443294    1.242356
  H     -4.085743   -0.897791    0.675185
  H     -3.461723   -1.185010   -0.947016
  H     -2.633133   -1.861612    0.456384
  C     -0.915192    0.466146   -1.726041
  C      0.399595    0.311846   -2.269519
  H     -1.729581    0.894120   -2.302052
  C      1.447340    0.058296   -1.390603
  C      2.653576   -0.155809   -2.118791
  S      0.873888    0.323686   -3.902802
  C      2.488409   -0.034382   -3.467343
  H      1.660321    1.173951   -0.609456
  H      3.615919   -0.336353   -1.662085
  H      3.243245   -0.120783   -4.234199
  H     -0.595062   -3.288806   -0.304595
  H     -1.048766   -2.436241    2.244360
  H      1.262305   -1.485366    3.198194
  O      1.777456    2.274281    0.099699
  O      0.577744    1.038230    1.508499
  C      1.164367    2.109451    1.181042
  C      1.144657    3.242228    2.161698
  H      1.019699    4.192535    1.647306
  H      2.105755    3.280076    2.677388
  H      0.362741    3.112751    2.904247
  H      3.177678   -1.852811    1.351599
  H      1.995792   -2.930119   -0.844152

 Multiplicity           Mult            ....    1
 Number of Electrons    NEL             ....  164
 Basis Dimension        Dim             ....  358

ORBITAL ENERGIES
----------------

  NO   OCC          E(Eh)            E(eV)
   0   2.0000     -89.759373     -2442.4767
   1   2.0000     -19.640415      -534.4429
   2   2.0000     -19.633334      -534.2502
   3   2.0000     -14.830686      -403.5635
   4   2.0000     -10.704048      -291.2720
   5   2.0000     -10.652410      -289.8668
   6   2.0000     -10.625480      -289.1340
   7   2.0000     -10.623576      -289.0822
   8   2.0000     -10.622020      -289.0399
   9   2.0000     -10.619684      -288.9763
  10   2.0000     -10.615294      -288.8568
  11   2.0000     -10.611751      -288.7604
  12   2.0000     -10.611685      -288.7586
  13   2.0000     -10.607470      -288.6439
  14   2.0000     -10.588040      -288.1152
  15   2.0000     -10.585321      -288.0412
  16   2.0000     -10.552254      -287.1414
  17   2.0000     -10.549724      -287.0726
  18   2.0000     -10.548756      -287.0462
  19   2.0000      -8.398764      -228.5420
  20   2.0000      -6.288658      -171.1231
  21   2.0000      -6.285138      -171.0273
  22   2.0000      -6.283699      -170.9881
  23   2.0000      -4.019790      -109.3840
  24   2.0000      -2.336842       -63.5887
  25   2.0000      -2.305825       -62.7447
  26   2.0000      -2.302420       -62.6520
  27   2.0000      -1.333574       -36.2884
  28   2.0000      -1.234946       -33.6046
  29   2.0000      -1.203539       -32.7500
  30   2.0000      -1.160061       -31.5669
  31   2.0000      -1.123689       -30.5771
  32   2.0000      -1.021887       -27.8070
  33   2.0000      -0.972854       -26.4727
  34   2.0000      -0.966373       -26.2963
  35   2.0000      -0.964464       -26.2444
  36   2.0000      -0.956231       -26.0204
  37   2.0000      -0.944595       -25.7037
  38   2.0000      -0.899066       -24.4648
  39   2.0000      -0.869116       -23.6499
  40   2.0000      -0.795263       -21.6402
  41   2.0000      -0.779179       -21.2025
  42   2.0000      -0.776568       -21.1315
  43   2.0000      -0.775820       -21.1111
  44   2.0000      -0.767113       -20.8742
  45   2.0000      -0.760882       -20.7046
  46   2.0000      -0.740515       -20.1504
  47   2.0000      -0.721553       -19.6345
  48   2.0000      -0.695457       -18.9244
  49   2.0000      -0.683393       -18.5961
  50   2.0000      -0.665285       -18.1033
  51   2.0000      -0.662846       -18.0370
  52   2.0000      -0.650775       -17.7085
  53   2.0000      -0.637996       -17.3608
  54   2.0000      -0.630438       -17.1551
  55   2.0000      -0.627661       -17.0795
  56   2.0000      -0.620526       -16.8854
  57   2.0000      -0.607851       -16.5405
  58   2.0000      -0.597042       -16.2463
  59   2.0000      -0.596648       -16.2356
  60   2.0000      -0.595856       -16.2141
  61   2.0000      -0.589641       -16.0450
  62   2.0000      -0.576773       -15.6948
  63   2.0000      -0.572178       -15.5698
  64   2.0000      -0.561908       -15.2903
  65   2.0000      -0.560320       -15.2471
  66   2.0000      -0.558015       -15.1844
  67   2.0000      -0.545129       -14.8337
  68   2.0000      -0.541959       -14.7475
  69   2.0000      -0.535049       -14.5594
  70   2.0000      -0.528409       -14.3787
  71   2.0000      -0.517492       -14.0817
  72   2.0000      -0.512448       -13.9444
  73   2.0000      -0.504092       -13.7170
  74   2.0000      -0.498196       -13.5566
  75   2.0000      -0.483892       -13.1674
  76   2.0000      -0.477467       -12.9925
  77   2.0000      -0.451179       -12.2772
  78   2.0000      -0.444390       -12.0925
  79   2.0000      -0.416003       -11.3200
  80   2.0000      -0.415165       -11.2972
  81   2.0000      -0.394324       -10.7301
  82   0.0000      -0.198553        -5.4029
  83   0.0000      -0.142468        -3.8768
  84   0.0000      -0.132607        -3.6084
  85   0.0000      -0.083883        -2.2826
  86   0.0000      -0.075057        -2.0424

MULLIKEN ATOMIC CHARGES
-----------------------
   0 Ir:    0.603714
   1 C :   -0.247027
   2 C :   -0.261798
   3 C :   -0.270627
   4 C :   -0.221627
   5 C :   -0.154907
   6 N :   -0.438875
   7 C :   -0.125489
   8 C :   -0.680178
   9 H :    0.268369
  10 H :    0.224628
  11 H :    0.252497
  12 C :   -0.633123
  13 H :    0.276395
  14 H :    0.257811
  15 H :    0.232733
  16 H :    0.232798
  17 C :    0.068750
  18 C :   -0.129058
  19 H :    0.283218
  20 C :   -0.531670
  21 C :   -0.115862
  22 S :    0.337148
  23 C :   -0.424486
  24 H :    0.477796
  25 H :    0.264548
  26 H :    0.296643
  27 H :    0.285428
  28 H :    0.281645
  29 H :    0.296839
  30 O :   -0.489800
  31 O :   -0.500626
  32 C :    0.636258
  33 C :   -0.744186
  34 H :    0.274911
  35 H :    0.277558
  36 H :    0.264286
  37 H :    0.282092
  38 H :    0.293275
Sum of atomic charges:    1.0000000

LOEWDIN ATOMIC CHARGES
----------------------
   0 Ir:   -0.260234
   1 C :   -0.059448
   2 C :   -0.095697
   3 C :   -0.096663
   4 C :   -0.037968
   5 C :   -0.017269
   6 N :   -0.009476
   7 C :   -0.069033
   8 C :   -0.361981
   9 H :    0.155676
  10 H :    0.132744
  11 H :    0.142752
  12 C :   -0.344127
  13 H :    0.153126
  14 H :    0.150208
  15 H :    0.138034
  16 H :    0.132762
  17 C :    0.030192
  18 C :   -0.199290
  19 H :    0.159086
  20 C :   -0.217977
  21 C :   -0.135013
  22 S :    0.489495
  23 C :   -0.257025
  24 H :    0.365665
  25 H :    0.160718
  26 H :    0.168558
  27 H :    0.182238
  28 H :    0.179439
  29 H :    0.187621
  30 O :   -0.257265
  31 O :   -0.173447
  32 C :    0.170787
  33 C :   -0.370780
  34 H :    0.166137
  35 H :    0.173432
  36 H :    0.157270
  37 H :    0.181750
  38 H :    0.185002

  Mayer bond orders larger than 0.100000
B(  0-Ir,  1-C ) :   0.4495 B(  0-Ir,  2-C ) :   0.4139 B(  0-Ir,  3-C ) :   0.4688
B(  0-Ir,  4-C ) :   0.4300 B(  0-Ir,  5-C ) :   0.3759 B(  0-Ir,  6-N ) :   0.4663
B(  0-Ir, 20-C ) :   0.4787 B(  0-Ir, 31-O ) :   0.5068 B(  1-C ,  2-C ) :   1.1268
B(  1-C ,  4-C ) :   1.2200 B(  1-C , 27-H ) :   0.9083 B(  2-C ,  5-C ) :   1.2121
B(  2-C , 28-H ) :   0.9103 B(  3-C ,  4-C ) :   1.1407 B(  3-C ,  5-C ) :   1.1739
B(  3-C , 37-H ) :   0.9130 B(  4-C , 38-H ) :   0.9000 B(  5-C , 29-H ) :   0.9015
B(  6-N ,  7-C ) :   0.8964 B(  6-N , 17-C ) :   1.6443 B(  7-C ,  8-C ) :   0.9903
B(  7-C , 12-C ) :   0.9674 B(  7-C , 13-H ) :   0.8788 B(  8-C ,  9-H ) :   0.9051
B(  8-C , 10-H ) :   0.9131 B(  8-C , 11-H ) :   0.9128 B( 12-C , 14-H ) :   0.9081
B( 12-C , 15-H ) :   0.9153 B( 12-C , 16-H ) :   0.9124 B( 17-C , 18-C ) :   1.1177
B( 17-C , 19-H ) :   0.8767 B( 18-C , 20-C ) :   1.2434 B( 18-C , 22-S ) :   1.2246
B( 20-C , 21-C ) :   1.2857 B( 20-C , 24-H ) :   0.3054 B( 21-C , 23-C ) :   1.5327
B( 21-C , 25-H ) :   0.9034 B( 22-S , 23-C ) :   1.2264 B( 23-C , 26-H ) :   0.8917
B( 24-H , 30-O ) :   0.3735 B( 30-O , 32-C ) :   1.5238 B( 31-O , 32-C ) :   1.4086
B( 32-C , 33-C ) :   0.9465 B( 33-C , 34-H ) :   0.8985 B( 33-C , 35-H ) :   0.8918
B( 33-C , 36-H ) :   0.9074

Dispersion correction           -0.030527958
FINAL SINGLE POINT ENERGY     -1288.405420122332

DIPOLE MOMENT
-------------
                                X             Y             Z
Electronic contribution:     36.83530     -74.92906      73.33384
Nuclear contribution   :    -37.39842      74.57540     -73.45247
                        -----------------------------------------
Total Dipole Moment    :     -0.56312      -0.35365      -0.11864
                        -----------------------------------------
Magnitude (a.u.)       :      0.67547
Magnitude (Debye)      :      1.71690

Rotational constants in cm-1:     0.010565     0.008722     0.008161
Rotational constants in MHz :   316.726291   261.476543   244.648429

                             ****ORCA TERMINATED NORMALLY****
TOTAL RUN TIME: 0 days 3 hours 18 minutes 2 seconds 841 msec
