                         Program Version 5.0.3 -  RELEASE  -
|  1> ! Opt PBEh-3c
|  2> %geom Constraints
|  3> { B 0 20 2.3 C }
|  4> { B 24 30 1.4428571428571428 C }
|  5>     end
|  6> end
|  7> %output
|  8> xyzfile=True
|  9> end
| 10> %scf
| 11> maxiter 250
| 12> end
| 13> %output
| 14> Print[P_Hirshfeld] = 1
| 15> end
| 16> % maxcore
| 17> 4000
| 18> *xyz 1 1
| 19> Ir   0.60881681  -0.71190767   0.43766382
| 20> C    0.06196589  -2.80392604   0.35270479
| 21> C    0.10031656  -2.34466114   1.71684443
| 22> C    2.21272441  -2.11583267   0.81986280
| 23> C    1.34386655  -2.64494197  -0.20656482
| 24> C    1.45246079  -1.96433475   1.99577630
| 25> N   -1.04650076   0.15807261  -0.52553474
| 26> C   -2.31444341   0.46040686   0.15654898
| 27> C   -3.11368747   1.56920215  -0.50961327
| 28> H   -3.93906616   1.84966593   0.14334474
| 29> H   -3.55901382   1.26240673  -1.45726627
| 30> H   -2.51227025   2.46347829  -0.67513400
| 31> C   -3.13300193  -0.81745181   0.29862268
| 32> H   -2.01992756   0.79724509   1.15160258
| 33> H   -4.04288565  -0.60836380   0.85922428
| 34> H   -3.42480743  -1.21153482  -0.67569998
| 35> H   -2.59036353  -1.59240862   0.83792674
| 36> C   -0.86705074   0.38362342  -1.77063451
| 37> C    0.47590153   0.17274235  -2.25430830
| 38> H   -1.65895033   0.74920977  -2.41753304
| 39> C    1.56200458   0.37546278  -1.40571301
| 40> C    2.77355940  -0.00342207  -2.05578491
| 41> S    0.92265207  -0.43936942  -3.77597463
| 42> C    2.57942929  -0.45560559  -3.32306628
| 43> H    1.52551505   1.29962238  -0.65085403
| 44> H    3.75290817   0.10905266  -1.61386282
| 45> H    3.32395051  -0.77666404  -4.03578172
| 46> H   -0.80930512  -3.17861985  -0.16509647
| 47> H   -0.71014290  -2.37349660   2.42981149
| 48> H    1.80845582  -1.55430258   2.93006545
| 49> O    1.36239767   2.45286976   0.22474776
| 50> O    0.53436559   0.93880926   1.63548660
| 51> C    0.93275619   2.12541932   1.33090942
| 52> C    0.87330350   3.11919915   2.45676155
| 53> H    0.84797980   4.13548944   2.07326233
| 54> H    1.77094297   3.01538487   3.06946206
| 55> H    0.01765044   2.94273155   3.10507594
| 56> H    3.26399636  -1.89516470   0.71172062
| 57> H    1.63286712  -2.88889630  -1.21826253
| 58> *
| 59>
| 60>                          ****END OF INPUT****
 Total Charge           Charge          ....    1
 Multiplicity           Mult            ....    1
 Number of Electrons    NEL             ....  164
Dispersion correction           -0.031032688
FINAL SINGLE POINT ENERGY     -1288.400112754768
Dispersion correction            ... done
Dispersion correction           -0.031089768
FINAL SINGLE POINT ENERGY     -1288.398014340537
Dispersion correction            ... done
Dispersion correction           -0.031004179
FINAL SINGLE POINT ENERGY     -1288.400258649522
Dispersion correction            ... done
FINAL SINGLE POINT ENERGY     -1288.398930658641
FINAL SINGLE POINT ENERGY     -1288.400324744866
FINAL SINGLE POINT ENERGY     -1288.400352812838
FINAL SINGLE POINT ENERGY     -1288.400382793205
FINAL SINGLE POINT ENERGY     -1288.400403063606
FINAL SINGLE POINT ENERGY     -1288.400410844266
FINAL SINGLE POINT ENERGY     -1288.400415666489
FINAL SINGLE POINT ENERGY     -1288.400417376734
FINAL SINGLE POINT ENERGY     -1288.400419769692
FINAL SINGLE POINT ENERGY     -1288.400422885838
FINAL SINGLE POINT ENERGY     -1288.400423449429
Dispersion correction            ... done
Dispersion correction           -0.030864195
FINAL SINGLE POINT ENERGY     -1288.400423098574
Dispersion correction            ... done
Dispersion correction           -0.030861026
FINAL SINGLE POINT ENERGY     -1288.400423081668
Dispersion correction            ... done
                    ***********************HURRAY********************

CARTESIAN COORDINATES (ANGSTROEM)
---------------------------------
  Ir     0.616825   -0.715638    0.441141
  C      0.092414   -2.816017    0.341795
  C      0.055249   -2.355493    1.705251
  C      2.210744   -2.103079    0.918245
  C      1.401759   -2.647075   -0.147502
  C      1.383418   -1.956578    2.051267
  N     -1.044452    0.145191   -0.518385
  C     -2.311419    0.426495    0.175146
  C     -3.095547    1.578724   -0.434070
  H     -3.919139    1.835544    0.230725
  H     -3.541584    1.325873   -1.396955
  H     -2.481774    2.471859   -0.553051
  C     -3.144773   -0.848094    0.244715
  H     -2.018282    0.706966    1.187735
  H     -4.049076   -0.664826    0.823216
  H     -3.446434   -1.178193   -0.750165
  H     -2.606666   -1.661464    0.729242
  C     -0.879853    0.387421   -1.763602
  C      0.454985    0.187801   -2.267132
  H     -1.682043    0.758787   -2.394246
  C      1.539557    0.307816   -1.400355
  C      2.747631   -0.041875   -2.073478
  S      0.897217   -0.316684   -3.827466
  C      2.550886   -0.394053   -3.372302
  H      1.532505    1.253400   -0.644463
  H      3.727433    0.020572   -1.622814
  H      3.293366   -0.673232   -4.104460
  H     -0.744962   -3.205332   -0.219236
  H     -0.790775   -2.391360    2.375180
  H      1.683898   -1.537469    3.001080
  O      1.417265    2.425918    0.188458
  O      0.544768    0.956033    1.617152
  C      0.964208    2.127799    1.296345
  C      0.903357    3.150475    2.395262
  H      0.867662    4.156307    1.985693
  H      1.806944    3.070422    3.002707
  H      0.053537    2.983476    3.053304
  H      3.265878   -1.880815    0.869210
  H      1.744642   -2.890411   -1.142447

 Multiplicity           Mult            ....    1
 Number of Electrons    NEL             ....  164
 Basis Dimension        Dim             ....  358

ORBITAL ENERGIES
----------------

  NO   OCC          E(Eh)            E(eV)
   0   2.0000     -89.766214     -2442.6629
   1   2.0000     -19.624140      -534.0000
   2   2.0000     -19.594765      -533.2007
   3   2.0000     -14.839562      -403.8050
   4   2.0000     -10.682351      -290.6816
   5   2.0000     -10.660475      -290.0863
   6   2.0000     -10.633083      -289.3409
   7   2.0000     -10.632241      -289.3180
   8   2.0000     -10.631364      -289.2941
   9   2.0000     -10.627711      -289.1947
  10   2.0000     -10.626067      -289.1500
  11   2.0000     -10.623941      -289.0921
  12   2.0000     -10.614845      -288.8446
  13   2.0000     -10.611663      -288.7580
  14   2.0000     -10.588486      -288.1273
  15   2.0000     -10.586220      -288.0657
  16   2.0000     -10.556107      -287.2463
  17   2.0000     -10.551375      -287.1175
  18   2.0000     -10.534620      -286.6616
  19   2.0000      -8.405609      -228.7282
  20   2.0000      -6.295549      -171.3106
  21   2.0000      -6.291928      -171.2121
  22   2.0000      -6.290529      -171.1740
  23   2.0000      -4.026005      -109.5532
  24   2.0000      -2.344429       -63.7952
  25   2.0000      -2.311013       -62.8859
  26   2.0000      -2.309523       -62.8453
  27   2.0000      -1.308027       -35.5932
  28   2.0000      -1.212686       -32.9989
  29   2.0000      -1.209753       -32.9190
  30   2.0000      -1.168615       -31.7996
  31   2.0000      -1.129491       -30.7350
  32   2.0000      -1.026809       -27.9409
  33   2.0000      -0.982479       -26.7346
  34   2.0000      -0.974090       -26.5063
  35   2.0000      -0.969105       -26.3707
  36   2.0000      -0.961393       -26.1608
  37   2.0000      -0.928469       -25.2649
  38   2.0000      -0.902191       -24.5499
  39   2.0000      -0.874731       -23.8026
  40   2.0000      -0.799586       -21.7579
  41   2.0000      -0.784531       -21.3482
  42   2.0000      -0.784249       -21.3405
  43   2.0000      -0.782376       -21.2895
  44   2.0000      -0.768866       -20.9219
  45   2.0000      -0.755404       -20.5556
  46   2.0000      -0.743531       -20.2325
  47   2.0000      -0.723471       -19.6866
  48   2.0000      -0.691934       -18.8285
  49   2.0000      -0.676164       -18.3994
  50   2.0000      -0.664854       -18.0916
  51   2.0000      -0.649883       -17.6842
  52   2.0000      -0.647276       -17.6133
  53   2.0000      -0.637284       -17.3414
  54   2.0000      -0.635289       -17.2871
  55   2.0000      -0.629824       -17.1384
  56   2.0000      -0.622819       -16.9478
  57   2.0000      -0.612673       -16.6717
  58   2.0000      -0.604425       -16.4472
  59   2.0000      -0.603859       -16.4318
  60   2.0000      -0.599716       -16.3191
  61   2.0000      -0.591308       -16.0903
  62   2.0000      -0.580267       -15.7899
  63   2.0000      -0.572035       -15.5659
  64   2.0000      -0.564103       -15.3500
  65   2.0000      -0.557343       -15.1661
  66   2.0000      -0.551641       -15.0109
  67   2.0000      -0.548294       -14.9198
  68   2.0000      -0.540146       -14.6981
  69   2.0000      -0.536490       -14.5986
  70   2.0000      -0.528056       -14.3691
  71   2.0000      -0.519334       -14.1318
  72   2.0000      -0.515122       -14.0172
  73   2.0000      -0.501829       -13.6555
  74   2.0000      -0.488507       -13.2930
  75   2.0000      -0.481046       -13.0899
  76   2.0000      -0.473073       -12.8730
  77   2.0000      -0.445835       -12.1318
  78   2.0000      -0.443413       -12.0659
  79   2.0000      -0.423187       -11.5155
  80   2.0000      -0.417121       -11.3504
  81   2.0000      -0.400571       -10.9001
  82   0.0000      -0.205170        -5.5830
  83   0.0000      -0.152779        -4.1573
  84   0.0000      -0.141598        -3.8531
  85   0.0000      -0.094794        -2.5795
  86   0.0000      -0.076183        -2.0730

MULLIKEN ATOMIC CHARGES
-----------------------
   0 Ir:    0.608073
   1 C :   -0.217597
   2 C :   -0.279101
   3 C :   -0.247911
   4 C :   -0.240578
   5 C :   -0.161677
   6 N :   -0.426671
   7 C :   -0.126633
   8 C :   -0.686229
   9 H :    0.270709
  10 H :    0.224200
  11 H :    0.259929
  12 C :   -0.635411
  13 H :    0.282943
  14 H :    0.262724
  15 H :    0.231103
  16 H :    0.232085
  17 C :    0.071708
  18 C :   -0.156678
  19 H :    0.289586
  20 C :   -0.504410
  21 C :   -0.114990
  22 S :    0.323011
  23 C :   -0.432647
  24 H :    0.491023
  25 H :    0.267253
  26 H :    0.298620
  27 H :    0.288766
  28 H :    0.288829
  29 H :    0.304542
  30 O :   -0.476461
  31 O :   -0.533954
  32 C :    0.617930
  33 C :   -0.744467
  34 H :    0.269518
  35 H :    0.267300
  36 H :    0.253719
  37 H :    0.288691
  38 H :    0.293151
Sum of atomic charges:    1.0000000

LOEWDIN ATOMIC CHARGES
----------------------
   0 Ir:   -0.239887
   1 C :   -0.045158
   2 C :   -0.076526
   3 C :   -0.068869
   4 C :   -0.052664
   5 C :   -0.018087
   6 N :   -0.001686
   7 C :   -0.069928
   8 C :   -0.363166
   9 H :    0.156896
  10 H :    0.132927
  11 H :    0.146456
  12 C :   -0.343448
  13 H :    0.156753
  14 H :    0.152458
  15 H :    0.137225
  16 H :    0.133360
  17 C :    0.032726
  18 C :   -0.176802
  19 H :    0.162223
  20 C :   -0.205525
  21 C :   -0.126994
  22 S :    0.486646
  23 C :   -0.262657
  24 H :    0.308248
  25 H :    0.163157
  26 H :    0.168891
  27 H :    0.183727
  28 H :    0.183716
  29 H :    0.192318
  30 O :   -0.272372
  31 O :   -0.203406
  32 C :    0.153558
  33 C :   -0.375192
  34 H :    0.159975
  35 H :    0.167684
  36 H :    0.153456
  37 H :    0.184799
  38 H :    0.185165

  Mayer bond orders larger than 0.100000
B(  0-Ir,  1-C ) :   0.4183 B(  0-Ir,  2-C ) :   0.4912 B(  0-Ir,  3-C ) :   0.4625
B(  0-Ir,  4-C ) :   0.4437 B(  0-Ir,  5-C ) :   0.3977 B(  0-Ir,  6-N ) :   0.4622
B(  0-Ir, 20-C ) :   0.3296 B(  0-Ir, 31-O ) :   0.5676 B(  1-C ,  2-C ) :   1.1244
B(  1-C ,  4-C ) :   1.2437 B(  1-C , 27-H ) :   0.9049 B(  2-C ,  5-C ) :   1.1525
B(  2-C , 28-H ) :   0.9089 B(  3-C ,  4-C ) :   1.1114 B(  3-C ,  5-C ) :   1.2197
B(  3-C , 37-H ) :   0.9082 B(  4-C , 38-H ) :   0.9004 B(  5-C , 29-H ) :   0.8984
B(  6-N ,  7-C ) :   0.8922 B(  6-N , 17-C ) :   1.6764 B(  7-C ,  8-C ) :   0.9910
B(  7-C , 12-C ) :   0.9676 B(  7-C , 13-H ) :   0.8731 B(  8-C ,  9-H ) :   0.9041
B(  8-C , 10-H ) :   0.9131 B(  8-C , 11-H ) :   0.9091 B( 12-C , 14-H ) :   0.9069
B( 12-C , 15-H ) :   0.9156 B( 12-C , 16-H ) :   0.9122 B( 17-C , 18-C ) :   1.0752
B( 17-C , 19-H ) :   0.8753 B( 18-C , 20-C ) :   1.2626 B( 18-C , 22-S ) :   1.2477
B( 20-C , 21-C ) :   1.2612 B( 20-C , 24-H ) :   0.4457 B( 21-C , 23-C ) :   1.5520
B( 21-C , 25-H ) :   0.9037 B( 22-S , 23-C ) :   1.2038 B( 23-C , 26-H ) :   0.8914
B( 24-H , 30-O ) :   0.2646 B( 30-O , 32-C ) :   1.6723 B( 31-O , 32-C ) :   1.2946
B( 32-C , 33-C ) :   0.9454 B( 33-C , 34-H ) :   0.9046 B( 33-C , 35-H ) :   0.8981
B( 33-C , 36-H ) :   0.9094

Dispersion correction           -0.030859236
FINAL SINGLE POINT ENERGY     -1288.400423253232

DIPOLE MOMENT
-------------
                                X             Y             Z
Electronic contribution:     38.06154     -68.60222      72.35992
Nuclear contribution   :    -38.69085      67.53317     -72.73231
                        -----------------------------------------
Total Dipole Moment    :     -0.62931      -1.06905      -0.37239
                        -----------------------------------------
Magnitude (a.u.)       :      1.29521
Magnitude (Debye)      :      3.29216

Rotational constants in cm-1:     0.010615     0.009096     0.008215
Rotational constants in MHz :   318.231936   272.703392   246.287284

                             ****ORCA TERMINATED NORMALLY****
TOTAL RUN TIME: 0 days 2 hours 9 minutes 39 seconds 217 msec
