                         Program Version 5.0.3 -  RELEASE  -
|  1> ! Opt PBEh-3c
|  2> %geom Constraints
|  3> { B 0 20 2.428571428571429 C }
|  4> { B 24 30 1.4714285714285715 C }
|  5>     end
|  6> end
|  7> %output
|  8> xyzfile=True
|  9> end
| 10> %scf
| 11> maxiter 250
| 12> end
| 13> %output
| 14> Print[P_Hirshfeld] = 1
| 15> end
| 16> % maxcore
| 17> 4000
| 18> *xyz 1 1
| 19> Ir   0.59570016  -0.71735453   0.43742758
| 20> C    0.03972328  -2.80051806   0.33443095
| 21> C    0.12860412  -2.34771125   1.70130156
| 22> C    2.20822073  -2.13011521   0.73707218
| 23> C    1.30152079  -2.64205853  -0.26580691
| 24> C    1.49651996  -1.98785049   1.94125992
| 25> N   -1.04521001   0.17945696  -0.52596678
| 26> C   -2.31131344   0.51504618   0.14290684
| 27> C   -3.13347221   1.55626072  -0.59870898
| 28> H   -3.96261393   1.86627108   0.03578294
| 29> H   -3.57456941   1.17270274  -1.52025797
| 30> H   -2.55260723   2.44971460  -0.83009208
| 31> C   -3.11005714  -0.75830876   0.39261267
| 32> H   -2.01156734   0.93241014   1.10562080
| 33> H   -4.01931834  -0.51611777   0.94060695
| 34> H   -3.40309125  -1.23299473  -0.54477799
| 35> H   -2.55579895  -1.48008452   0.99083137
| 36> C   -0.84139493   0.38815695  -1.76791693
| 37> C    0.51100592   0.15062590  -2.22901458
| 38> H   -1.61501009   0.75707327  -2.43510059
| 39> C    1.61354094   0.50088759  -1.45673331
| 40> C    2.81829917   0.07056128  -2.08618432
| 41> S    0.93750700  -0.64496903  -3.67608383
| 42> C    2.60601595  -0.55341252  -3.27421123
| 43> H    1.54166005   1.37823811  -0.69252690
| 44> H    3.80401487   0.26770627  -1.69053215
| 45> H    3.34207057  -0.94789043  -3.95828686
| 46> H   -0.85292337  -3.16310172  -0.15478222
| 47> H   -0.65641370  -2.37845542   2.44254374
| 48> H    1.88843605  -1.59162258   2.86701012
| 49> O    1.28654656   2.47882917   0.27233754
| 50> O    0.53505878   0.90236359   1.66085198
| 51> C    0.89247594   2.11272513   1.37440316
| 52> C    0.82069291   3.06850869   2.53331837
| 53> H    0.77296345   4.09525186   2.18091667
| 54> H    1.72323627   2.96424709   3.13865459
| 55> H   -0.02739803   2.85704018   3.18142347
| 56> H    3.25299912  -1.90200055   0.58711273
| 57> H    1.55531676  -2.87032141  -1.29070248
| 58> *
| 59>
| 60>                          ****END OF INPUT****
 Total Charge           Charge          ....    1
 Multiplicity           Mult            ....    1
 Number of Electrons    NEL             ....  164
Dispersion correction           -0.031075667
FINAL SINGLE POINT ENERGY     -1288.399330152751
Dispersion correction            ... done
Dispersion correction           -0.031073994
FINAL SINGLE POINT ENERGY     -1288.398335928437
Dispersion correction            ... done
Dispersion correction           -0.031019159
FINAL SINGLE POINT ENERGY     -1288.399425837622
Dispersion correction            ... done
FINAL SINGLE POINT ENERGY     -1288.398225185190
FINAL SINGLE POINT ENERGY     -1288.399493431233
FINAL SINGLE POINT ENERGY     -1288.399497980286
FINAL SINGLE POINT ENERGY     -1288.399526730245
FINAL SINGLE POINT ENERGY     -1288.399535065273
FINAL SINGLE POINT ENERGY     -1288.399544312703
Dispersion correction            ... done
Dispersion correction           -0.030952782
FINAL SINGLE POINT ENERGY     -1288.399557826378
Dispersion correction            ... done
Dispersion correction           -0.030952482
FINAL SINGLE POINT ENERGY     -1288.399558210043
Dispersion correction            ... done
                    ***********************HURRAY********************

CARTESIAN COORDINATES (ANGSTROEM)
---------------------------------
  Ir     0.599937   -0.714486    0.440612
  C      0.048497   -2.800532    0.342168
  C      0.121271   -2.346199    1.708553
  C      2.211287   -2.123407    0.765298
  C      1.316422   -2.640509   -0.245476
  C      1.484391   -1.979236    1.960953
  N     -1.046350    0.169695   -0.524821
  C     -2.313848    0.493220    0.147870
  C     -3.123046    1.565242   -0.564075
  H     -3.949864    1.866163    0.077855
  H     -3.567038    1.214886   -1.497301
  H     -2.530431    2.457552   -0.768157
  C     -3.122964   -0.782030    0.350940
  H     -2.017227    0.876682    1.125414
  H     -4.033301   -0.552382    0.902591
  H     -3.414051   -1.223123   -0.603274
  H     -2.575641   -1.527285    0.926362
  C     -0.852647    0.379692   -1.769026
  C      0.496593    0.153884   -2.238545
  H     -1.634698    0.742286   -2.429768
  C      1.593437    0.460066   -1.438575
  C      2.801348    0.048385   -2.074138
  S      0.931518   -0.584609   -3.710915
  C      2.596181   -0.523028   -3.289983
  H      1.530202    1.353073   -0.675994
  H      3.784825    0.221613   -1.662035
  H      3.335780   -0.892891   -3.983931
  H     -0.837367   -3.166930   -0.156458
  H     -0.671892   -2.377103    2.440930
  H      1.865083   -1.579231    2.889771
  O      1.310900    2.470935    0.255346
  O      0.534047    0.916975    1.654096
  C      0.906170    2.118833    1.359972
  C      0.842335    3.088253    2.507420
  H      0.802438    4.111485    2.144079
  H      1.744632    2.983389    3.113070
  H     -0.006942    2.889824    3.157979
  H      3.258163   -1.897006    0.628510
  H      1.581219   -2.872953   -1.266577

 Multiplicity           Mult            ....    1
 Number of Electrons    NEL             ....  164
 Basis Dimension        Dim             ....  358

ORBITAL ENERGIES
----------------

  NO   OCC          E(Eh)            E(eV)
   0   2.0000     -89.765149     -2442.6339
   1   2.0000     -19.620654      -533.9051
   2   2.0000     -19.583957      -532.9066
   3   2.0000     -14.842121      -403.8746
   4   2.0000     -10.677037      -290.5369
   5   2.0000     -10.663124      -290.1584
   6   2.0000     -10.637212      -289.4532
   7   2.0000     -10.635763      -289.4138
   8   2.0000     -10.633646      -289.3562
   9   2.0000     -10.632497      -289.3250
  10   2.0000     -10.630919      -289.2820
  11   2.0000     -10.630332      -289.2660
  12   2.0000     -10.616298      -288.8842
  13   2.0000     -10.611819      -288.7623
  14   2.0000     -10.586902      -288.0843
  15   2.0000     -10.584965      -288.0315
  16   2.0000     -10.557345      -287.2800
  17   2.0000     -10.552269      -287.1418
  18   2.0000     -10.530763      -286.5566
  19   2.0000      -8.404474      -228.6974
  20   2.0000      -6.294519      -171.2826
  21   2.0000      -6.290862      -171.1831
  22   2.0000      -6.289253      -171.1393
  23   2.0000      -4.029604      -109.6511
  24   2.0000      -2.348550       -63.9073
  25   2.0000      -2.314541       -62.9819
  26   2.0000      -2.313235       -62.9463
  27   2.0000      -1.301178       -35.4068
  28   2.0000      -1.214870       -33.0583
  29   2.0000      -1.204569       -32.7780
  30   2.0000      -1.173058       -31.9205
  31   2.0000      -1.129305       -30.7300
  32   2.0000      -1.028203       -27.9788
  33   2.0000      -0.987702       -26.8767
  34   2.0000      -0.978193       -26.6180
  35   2.0000      -0.968165       -26.3451
  36   2.0000      -0.961958       -26.1762
  37   2.0000      -0.924092       -25.1458
  38   2.0000      -0.903752       -24.5923
  39   2.0000      -0.875357       -23.8197
  40   2.0000      -0.799241       -21.7485
  41   2.0000      -0.789080       -21.4720
  42   2.0000      -0.787652       -21.4331
  43   2.0000      -0.782815       -21.3015
  44   2.0000      -0.772859       -21.0306
  45   2.0000      -0.754940       -20.5430
  46   2.0000      -0.743940       -20.2436
  47   2.0000      -0.723593       -19.6900
  48   2.0000      -0.694265       -18.8919
  49   2.0000      -0.672129       -18.2896
  50   2.0000      -0.665672       -18.1138
  51   2.0000      -0.651499       -17.7282
  52   2.0000      -0.646994       -17.6056
  53   2.0000      -0.640270       -17.4226
  54   2.0000      -0.635317       -17.2879
  55   2.0000      -0.627264       -17.0687
  56   2.0000      -0.623571       -16.9682
  57   2.0000      -0.613047       -16.6818
  58   2.0000      -0.608691       -16.5633
  59   2.0000      -0.607910       -16.5421
  60   2.0000      -0.598959       -16.2985
  61   2.0000      -0.590071       -16.0567
  62   2.0000      -0.579944       -15.7811
  63   2.0000      -0.573393       -15.6028
  64   2.0000      -0.564598       -15.3635
  65   2.0000      -0.553722       -15.0675
  66   2.0000      -0.552619       -15.0375
  67   2.0000      -0.548537       -14.9265
  68   2.0000      -0.539295       -14.6750
  69   2.0000      -0.535969       -14.5845
  70   2.0000      -0.528095       -14.3702
  71   2.0000      -0.521059       -14.1787
  72   2.0000      -0.516211       -14.0468
  73   2.0000      -0.504941       -13.7401
  74   2.0000      -0.487402       -13.2629
  75   2.0000      -0.481558       -13.1039
  76   2.0000      -0.468152       -12.7391
  77   2.0000      -0.447982       -12.1902
  78   2.0000      -0.440762       -11.9938
  79   2.0000      -0.424929       -11.5629
  80   2.0000      -0.416933       -11.3453
  81   2.0000      -0.403819       -10.9885
  82   0.0000      -0.202344        -5.5061
  83   0.0000      -0.162460        -4.4208
  84   0.0000      -0.142086        -3.8664
  85   0.0000      -0.101507        -2.7621
  86   0.0000      -0.077519        -2.1094

MULLIKEN ATOMIC CHARGES
-----------------------
   0 Ir:    0.613837
   1 C :   -0.209225
   2 C :   -0.289899
   3 C :   -0.235200
   4 C :   -0.247150
   5 C :   -0.164300
   6 N :   -0.422965
   7 C :   -0.119563
   8 C :   -0.693661
   9 H :    0.272930
  10 H :    0.225324
  11 H :    0.261370
  12 C :   -0.638763
  13 H :    0.282777
  14 H :    0.264882
  15 H :    0.230726
  16 H :    0.233076
  17 C :    0.070214
  18 C :   -0.194099
  19 H :    0.293043
  20 C :   -0.449763
  21 C :   -0.126248
  22 S :    0.303790
  23 C :   -0.432471
  24 H :    0.497396
  25 H :    0.268744
  26 H :    0.298428
  27 H :    0.291539
  28 H :    0.292704
  29 H :    0.306794
  30 O :   -0.476292
  31 O :   -0.543565
  32 C :    0.610583
  33 C :   -0.745202
  34 H :    0.268173
  35 H :    0.264400
  36 H :    0.250818
  37 H :    0.293109
  38 H :    0.293708
Sum of atomic charges:    1.0000000

LOEWDIN ATOMIC CHARGES
----------------------
   0 Ir:   -0.223959
   1 C :   -0.039178
   2 C :   -0.062762
   3 C :   -0.052545
   4 C :   -0.057788
   5 C :   -0.023591
   6 N :   -0.001996
   7 C :   -0.068920
   8 C :   -0.364602
   9 H :    0.157713
  10 H :    0.133605
  11 H :    0.147239
  12 C :   -0.343354
  13 H :    0.157320
  14 H :    0.153283
  15 H :    0.137183
  16 H :    0.134335
  17 C :    0.035064
  18 C :   -0.178377
  19 H :    0.163616
  20 C :   -0.187791
  21 C :   -0.134675
  22 S :    0.470967
  23 C :   -0.263632
  24 H :    0.282810
  25 H :    0.163505
  26 H :    0.168448
  27 H :    0.185259
  28 H :    0.185939
  29 H :    0.193749
  30 O :   -0.276242
  31 O :   -0.211483
  32 C :    0.149472
  33 C :   -0.377174
  34 H :    0.158748
  35 H :    0.165809
  36 H :    0.152053
  37 H :    0.186771
  38 H :    0.185177

  Mayer bond orders larger than 0.100000
B(  0-Ir,  1-C ) :   0.4179 B(  0-Ir,  2-C ) :   0.5287 B(  0-Ir,  3-C ) :   0.4629
B(  0-Ir,  4-C ) :   0.4483 B(  0-Ir,  5-C ) :   0.4011 B(  0-Ir,  6-N ) :   0.4606
B(  0-Ir, 20-C ) :   0.2542 B(  0-Ir, 31-O ) :   0.5895 B(  1-C ,  2-C ) :   1.1184
B(  1-C ,  4-C ) :   1.2469 B(  1-C , 27-H ) :   0.9033 B(  2-C ,  5-C ) :   1.1367
B(  2-C , 28-H ) :   0.9074 B(  3-C ,  4-C ) :   1.1052 B(  3-C ,  5-C ) :   1.2320
B(  3-C , 37-H ) :   0.9044 B(  4-C , 38-H ) :   0.8991 B(  5-C , 29-H ) :   0.8977
B(  6-N ,  7-C ) :   0.8913 B(  6-N , 17-C ) :   1.6968 B(  7-C ,  8-C ) :   0.9920
B(  7-C , 12-C ) :   0.9689 B(  7-C , 13-H ) :   0.8708 B(  8-C ,  9-H ) :   0.9034
B(  8-C , 10-H ) :   0.9125 B(  8-C , 11-H ) :   0.9078 B( 12-C , 14-H ) :   0.9063
B( 12-C , 15-H ) :   0.9154 B( 12-C , 16-H ) :   0.9111 B( 17-C , 18-C ) :   1.0489
B( 17-C , 19-H ) :   0.8739 B( 18-C , 20-C ) :   1.2899 B( 18-C , 22-S ) :   1.2340
B( 20-C , 21-C ) :   1.2551 B( 20-C , 24-H ) :   0.4969 B( 21-C , 23-C ) :   1.5521
B( 21-C , 25-H ) :   0.9034 B( 22-S , 23-C ) :   1.1992 B( 23-C , 26-H ) :   0.8919
B( 24-H , 30-O ) :   0.2285 B( 30-O , 32-C ) :   1.7170 B( 31-O , 32-C ) :   1.2613
B( 32-C , 33-C ) :   0.9453 B( 33-C , 34-H ) :   0.9059 B( 33-C , 35-H ) :   0.9000
B( 33-C , 36-H ) :   0.9102

Dispersion correction           -0.030950673
FINAL SINGLE POINT ENERGY     -1288.399558726768

DIPOLE MOMENT
-------------
                                X             Y             Z
Electronic contribution:     36.26398     -66.95607      71.41316
Nuclear contribution   :    -36.89628      65.66922     -71.77123
                        -----------------------------------------
Total Dipole Moment    :     -0.63230      -1.28685      -0.35807
                        -----------------------------------------
Magnitude (a.u.)       :      1.47784
Magnitude (Debye)      :      3.75636

Rotational constants in cm-1:     0.010769     0.009134     0.008273
Rotational constants in MHz :   322.849777   273.844558   248.030925

                             ****ORCA TERMINATED NORMALLY****
TOTAL RUN TIME: 0 days 1 hours 33 minutes 51 seconds 666 msec
