                         Program Version 5.0.3 -  RELEASE  -
|  1> ! Opt PBEh-3c
|  2> %geom Constraints
|  3> { B 0 20 2.0428571428571427 C }
|  4> { B 24 30 1.4714285714285715 C }
|  5>     end
|  6> end
|  7> %output
|  8> xyzfile=True
|  9> end
| 10> %scf
| 11> maxiter 250
| 12> end
| 13> %output
| 14> Print[P_Hirshfeld] = 1
| 15> end
| 16> % maxcore
| 17> 4000
| 18> *xyz 1 1
| 19> Ir   0.62668355  -0.71274740   0.39756323
| 20> C    0.14685154  -2.83524502   0.32598474
| 21> C   -0.01773058  -2.37908992   1.68092457
| 22> C    2.19089691  -2.06010133   1.07258024
| 23> C    1.49633514  -2.64953445  -0.04168217
| 24> C    1.24943419  -1.92535621   2.12643281
| 25> N   -1.06551287   0.13632829  -0.52105725
| 26> C   -2.32813065   0.36141309   0.19728925
| 27> C   -3.13169850   1.54157624  -0.32941532
| 28> H   -3.95444550   1.74029187   0.35565996
| 29> H   -3.57979602   1.34702980  -1.30483194
| 30> H   -2.53164409   2.44965586  -0.39174155
| 31> C   -3.15008226  -0.92318524   0.18321182
| 32> H   -2.03222106   0.57856497   1.22462362
| 33> H   -4.04871964  -0.79323807   0.78477295
| 34> H   -3.46125935  -1.18004481  -0.83014157
| 35> H   -2.59872135  -1.76660098   0.59537002
| 36> C   -0.91771701   0.46199940  -1.75188883
| 37> C    0.40289461   0.26461012  -2.27220066
| 38> H   -1.72218521   0.88668607  -2.34335223
| 39> C    1.44054965   0.09150758  -1.34628309
| 40> C    2.65880118  -0.18937442  -2.04916067
| 41> S    0.89082855   0.09852019  -3.88283150
| 42> C    2.50816942  -0.21285682  -3.39955809
| 43> H    1.59287574   1.11734234  -0.67055760
| 44> H    3.61763504  -0.30470657  -1.56470216
| 45> H    3.26824601  -0.37225749  -4.14917717
| 46> H   -0.62254452  -3.26413392  -0.29941379
| 47> H   -0.91838485  -2.42661892   2.27374800
| 48> H    1.45108032  -1.48005417   3.09048003
| 49> O    1.66123734   2.36319492   0.13599367
| 50> O    0.55939828   1.01185172   1.52129629
| 51> C    1.08849972   2.13486966   1.20849218
| 52> C    1.01191660   3.20861531   2.25697717
| 53> H    1.01268902   4.19444125   1.79920732
| 54> H    1.89433978   3.14061883   2.89563117
| 55> H    0.13597657   3.08995190   2.88989204
| 56> H    3.24476945  -1.83538997   1.12890313
| 57> H    1.93005490  -2.90934371  -0.99629849
| 58> *
| 59>
| 60>                          ****END OF INPUT****
 Total Charge           Charge          ....    1
 Multiplicity           Mult            ....    1
 Number of Electrons    NEL             ....  164
Dispersion correction           -0.030969592
FINAL SINGLE POINT ENERGY     -1288.395329377309
Dispersion correction            ... done
Dispersion correction           -0.030920491
FINAL SINGLE POINT ENERGY     -1288.395413556439
Dispersion correction            ... done
Dispersion correction           -0.030922577
FINAL SINGLE POINT ENERGY     -1288.394764677134
Dispersion correction            ... done
FINAL SINGLE POINT ENERGY     -1288.395658212760
FINAL SINGLE POINT ENERGY     -1288.395683329725
FINAL SINGLE POINT ENERGY     -1288.395711263913
FINAL SINGLE POINT ENERGY     -1288.395731631089
FINAL SINGLE POINT ENERGY     -1288.395739537335
FINAL SINGLE POINT ENERGY     -1288.395740802947
FINAL SINGLE POINT ENERGY     -1288.395740101130
FINAL SINGLE POINT ENERGY     -1288.395736481596
FINAL SINGLE POINT ENERGY     -1288.395735402726
FINAL SINGLE POINT ENERGY     -1288.395736640345
FINAL SINGLE POINT ENERGY     -1288.395740968765
Dispersion correction            ... done
Dispersion correction           -0.030856171
FINAL SINGLE POINT ENERGY     -1288.395746736878
Dispersion correction            ... done
Dispersion correction           -0.030858139
FINAL SINGLE POINT ENERGY     -1288.395750534454
Dispersion correction            ... done
                    ***********************HURRAY********************

CARTESIAN COORDINATES (ANGSTROEM)
---------------------------------
  Ir     0.627627   -0.721600    0.388703
  C      0.165572   -2.846749    0.313309
  C     -0.046274   -2.404305    1.667272
  C      2.176177   -2.054742    1.130077
  C      1.527886   -2.652183   -0.004332
  C      1.194746   -1.937046    2.154474
  N     -1.069947    0.129191   -0.516803
  C     -2.330612    0.340680    0.208281
  C     -3.129046    1.538642   -0.285094
  H     -3.951683    1.720886    0.404573
  H     -3.576356    1.374668   -1.266448
  H     -2.524776    2.445411   -0.320505
  C     -3.157781   -0.939764    0.159502
  H     -2.033666    0.529201    1.241031
  H     -4.053268   -0.825326    0.768899
  H     -3.474129   -1.164576   -0.859844
  H     -2.607269   -1.797541    0.542126
  C     -0.926006    0.477345   -1.742556
  C      0.391490    0.281201   -2.267250
  H     -1.730541    0.916957   -2.322568
  C      1.413385    0.043490   -1.334807
  C      2.637145   -0.217097   -2.040644
  S      0.899082    0.205329   -3.877683
  C      2.504345   -0.159166   -3.391697
  H      1.597375    1.114345   -0.698897
  H      3.588152   -0.375898   -1.552806
  H      3.272724   -0.286751   -4.138973
  H     -0.575667   -3.287700   -0.337060
  H     -0.966585   -2.460588    2.228104
  H      1.358112   -1.492192    3.125912
  O      1.680287    2.354540    0.088595
  O      0.581533    1.021208    1.493852
  C      1.110832    2.136556    1.168501
  C      1.045808    3.227215    2.199898
  H      0.976364    4.202090    1.723645
  H      1.967628    3.214589    2.784058
  H      0.213806    3.084186    2.884268
  H      3.226369   -1.826920    1.227013
  H      1.996533   -2.908398   -0.943385

 Multiplicity           Mult            ....    1
 Number of Electrons    NEL             ....  164
 Basis Dimension        Dim             ....  358

ORBITAL ENERGIES
----------------

  NO   OCC          E(Eh)            E(eV)
   0   2.0000     -89.770483     -2442.7790
   1   2.0000     -19.628909      -534.1298
   2   2.0000     -19.610617      -533.6320
   3   2.0000     -14.837764      -403.7561
   4   2.0000     -10.688962      -290.8614
   5   2.0000     -10.657003      -289.9918
   6   2.0000     -10.632970      -289.3378
   7   2.0000     -10.624404      -289.1047
   8   2.0000     -10.622853      -289.0625
   9   2.0000     -10.622139      -289.0431
  10   2.0000     -10.614130      -288.8252
  11   2.0000     -10.613868      -288.8180
  12   2.0000     -10.613803      -288.8163
  13   2.0000     -10.611627      -288.7570
  14   2.0000     -10.594237      -288.2838
  15   2.0000     -10.591752      -288.2162
  16   2.0000     -10.554222      -287.1950
  17   2.0000     -10.551310      -287.1158
  18   2.0000     -10.539862      -286.8042
  19   2.0000      -8.409821      -228.8429
  20   2.0000      -6.299659      -171.4224
  21   2.0000      -6.296081      -171.3251
  22   2.0000      -6.294879      -171.2924
  23   2.0000      -4.020224      -109.3959
  24   2.0000      -2.337222       -63.5991
  25   2.0000      -2.307157       -62.7809
  26   2.0000      -2.303611       -62.6844
  27   2.0000      -1.315436       -35.7948
  28   2.0000      -1.217548       -33.1312
  29   2.0000      -1.210450       -32.9380
  30   2.0000      -1.159358       -31.5477
  31   2.0000      -1.132678       -30.8217
  32   2.0000      -1.027237       -27.9525
  33   2.0000      -0.975582       -26.5469
  34   2.0000      -0.972063       -26.4512
  35   2.0000      -0.966434       -26.2980
  36   2.0000      -0.961362       -26.1600
  37   2.0000      -0.933396       -25.3990
  38   2.0000      -0.901240       -24.5240
  39   2.0000      -0.875519       -23.8241
  40   2.0000      -0.801640       -21.8137
  41   2.0000      -0.785562       -21.3762
  42   2.0000      -0.776049       -21.1174
  43   2.0000      -0.775163       -21.0933
  44   2.0000      -0.760705       -20.6998
  45   2.0000      -0.755319       -20.5533
  46   2.0000      -0.744605       -20.2617
  47   2.0000      -0.723150       -19.6779
  48   2.0000      -0.691509       -18.8169
  49   2.0000      -0.683826       -18.6078
  50   2.0000      -0.664958       -18.0944
  51   2.0000      -0.653795       -17.7907
  52   2.0000      -0.646650       -17.5962
  53   2.0000      -0.635284       -17.2870
  54   2.0000      -0.631151       -17.1745
  55   2.0000      -0.626023       -17.0349
  56   2.0000      -0.622502       -16.9392
  57   2.0000      -0.614234       -16.7141
  58   2.0000      -0.603568       -16.4239
  59   2.0000      -0.596934       -16.2434
  60   2.0000      -0.595523       -16.2050
  61   2.0000      -0.592633       -16.1264
  62   2.0000      -0.581992       -15.8368
  63   2.0000      -0.571775       -15.5588
  64   2.0000      -0.563732       -15.3399
  65   2.0000      -0.563085       -15.3223
  66   2.0000      -0.552377       -15.0309
  67   2.0000      -0.547559       -14.8998
  68   2.0000      -0.542215       -14.7544
  69   2.0000      -0.536628       -14.6024
  70   2.0000      -0.530523       -14.4363
  71   2.0000      -0.518987       -14.1223
  72   2.0000      -0.513700       -13.9785
  73   2.0000      -0.498011       -13.5516
  74   2.0000      -0.491334       -13.3699
  75   2.0000      -0.489518       -13.3205
  76   2.0000      -0.476633       -12.9698
  77   2.0000      -0.448868       -12.2143
  78   2.0000      -0.442150       -12.0315
  79   2.0000      -0.422412       -11.4944
  80   2.0000      -0.413683       -11.2569
  81   2.0000      -0.393053       -10.6955
  82   0.0000      -0.211623        -5.7586
  83   0.0000      -0.143934        -3.9166
  84   0.0000      -0.128420        -3.4945
  85   0.0000      -0.090102        -2.4518
  86   0.0000      -0.077794        -2.1169

MULLIKEN ATOMIC CHARGES
-----------------------
   0 Ir:    0.612416
   1 C :   -0.245019
   2 C :   -0.254222
   3 C :   -0.274835
   4 C :   -0.224335
   5 C :   -0.150427
   6 N :   -0.427227
   7 C :   -0.127596
   8 C :   -0.682913
   9 H :    0.270257
  10 H :    0.224017
  11 H :    0.255378
  12 C :   -0.633870
  13 H :    0.282347
  14 H :    0.259731
  15 H :    0.232424
  16 H :    0.234707
  17 C :    0.070321
  18 C :   -0.115369
  19 H :    0.287541
  20 C :   -0.600905
  21 C :   -0.081927
  22 S :    0.350258
  23 C :   -0.429560
  24 H :    0.468908
  25 H :    0.271071
  26 H :    0.299925
  27 H :    0.284040
  28 H :    0.281105
  29 H :    0.297990
  30 O :   -0.467637
  31 O :   -0.518502
  32 C :    0.622975
  33 C :   -0.743229
  34 H :    0.270556
  35 H :    0.272156
  36 H :    0.257236
  37 H :    0.280835
  38 H :    0.291379
Sum of atomic charges:    1.0000000

LOEWDIN ATOMIC CHARGES
----------------------
   0 Ir:   -0.258728
   1 C :   -0.059937
   2 C :   -0.098035
   3 C :   -0.097802
   4 C :   -0.044342
   5 C :   -0.017178
   6 N :    0.004512
   7 C :   -0.069929
   8 C :   -0.362408
   9 H :    0.156720
  10 H :    0.132789
  11 H :    0.144152
  12 C :   -0.343381
  13 H :    0.156377
  14 H :    0.151226
  15 H :    0.137881
  16 H :    0.133892
  17 C :    0.026171
  18 C :   -0.175730
  19 H :    0.161755
  20 C :   -0.220984
  21 C :   -0.117015
  22 S :    0.508752
  23 C :   -0.258873
  24 H :    0.347658
  25 H :    0.164493
  26 H :    0.170435
  27 H :    0.181357
  28 H :    0.178855
  29 H :    0.188052
  30 O :   -0.262435
  31 O :   -0.191685
  32 C :    0.155837
  33 C :   -0.373184
  34 H :    0.162103
  35 H :    0.170245
  36 H :    0.154105
  37 H :    0.181103
  38 H :    0.183176

  Mayer bond orders larger than 0.100000
B(  0-Ir,  1-C ) :   0.4419 B(  0-Ir,  2-C ) :   0.3883 B(  0-Ir,  3-C ) :   0.4694
B(  0-Ir,  4-C ) :   0.4187 B(  0-Ir,  5-C ) :   0.3593 B(  0-Ir,  6-N ) :   0.4621
B(  0-Ir, 20-C ) :   0.5191 B(  0-Ir, 31-O ) :   0.5365 B(  1-C ,  2-C ) :   1.1266
B(  1-C ,  4-C ) :   1.2283 B(  1-C , 27-H ) :   0.9089 B(  2-C ,  5-C ) :   1.2248
B(  2-C , 28-H ) :   0.9101 B(  3-C ,  4-C ) :   1.1381 B(  3-C ,  5-C ) :   1.1714
B(  3-C , 37-H ) :   0.9139 B(  4-C , 38-H ) :   0.8991 B(  5-C , 29-H ) :   0.9012
B(  6-N ,  7-C ) :   0.8957 B(  6-N , 17-C ) :   1.6501 B(  7-C ,  8-C ) :   0.9903
B(  7-C , 12-C ) :   0.9657 B(  7-C , 13-H ) :   0.8743 B(  8-C ,  9-H ) :   0.9044
B(  8-C , 10-H ) :   0.9131 B(  8-C , 11-H ) :   0.9113 B( 12-C , 14-H ) :   0.9075
B( 12-C , 15-H ) :   0.9152 B( 12-C , 16-H ) :   0.9113 B( 17-C , 18-C ) :   1.1084
B( 17-C , 19-H ) :   0.8762 B( 18-C , 20-C ) :   1.1995 B( 18-C , 22-S ) :   1.2655
B( 20-C , 21-C ) :   1.2369 B( 20-C , 24-H ) :   0.3938 B( 21-C , 23-C ) :   1.5579
B( 21-C , 25-H ) :   0.9003 B( 22-S , 23-C ) :   1.2045 B( 23-C , 26-H ) :   0.8909
B( 24-H , 30-O ) :   0.3076 B( 30-O , 32-C ) :   1.6254 B( 31-O , 32-C ) :   1.3404
B( 32-C , 33-C ) :   0.9420 B( 33-C , 34-H ) :   0.9025 B( 33-C , 35-H ) :   0.8955
B( 33-C , 36-H ) :   0.9088

Dispersion correction           -0.030860769
FINAL SINGLE POINT ENERGY     -1288.395751545592

DIPOLE MOMENT
-------------
                                X             Y             Z
Electronic contribution:     38.78659     -72.34131      67.74775
Nuclear contribution   :    -39.44071      71.71566     -68.20614
                        -----------------------------------------
Total Dipole Moment    :     -0.65412      -0.62565      -0.45839
                        -----------------------------------------
Magnitude (a.u.)       :      1.01461
Magnitude (Debye)      :      2.57893

Rotational constants in cm-1:     0.010514     0.009063     0.008270
Rotational constants in MHz :   315.206285   271.713673   247.932164

                             ****ORCA TERMINATED NORMALLY****
TOTAL RUN TIME: 0 days 2 hours 4 minutes 53 seconds 963 msec
