                         Program Version 5.0.3 -  RELEASE  -
|  1> ! Opt PBEh-3c
|  2> %geom Constraints
|  3> { B 0 20 2.342857142857143 C }
|  4> { B 24 30 1.342857142857143 C }
|  5>     end
|  6> end
|  7> %output
|  8> xyzfile=True
|  9> end
| 10> %scf
| 11> maxiter 250
| 12> end
| 13> %output
| 14> Print[P_Hirshfeld] = 1
| 15> end
| 16> % maxcore
| 17> 4000
| 18> *xyz 1 1
| 19> Ir   0.60248352  -0.73385681   0.48558352
| 20> C    0.08846240  -2.82906190   0.35650755
| 21> C   -0.00468825  -2.36953061   1.71892480
| 22> C    2.18250504  -2.11674009   1.02336101
| 23> C    1.41726958  -2.65664401  -0.07574217
| 24> C    1.30891711  -1.97341278   2.12102813
| 25> N   -1.03939017   0.12693742  -0.50213876
| 26> C   -2.31679361   0.39123597   0.18164328
| 27> C   -3.08972550   1.56408702  -0.40353350
| 28> H   -3.92007421   1.80510947   0.25878517
| 29> H   -3.52528149   1.34146169  -1.37848206
| 30> H   -2.47123326   2.45760932  -0.49045885
| 31> C   -3.15637202  -0.88088892   0.20008719
| 32> H   -2.04036474   0.64295264   1.20645872
| 33> H   -4.06749958  -0.71402657   0.77298143
| 34> H   -3.44664761  -1.17646143  -0.80897906
| 35> H   -2.62781242  -1.71324221   0.66237543
| 36> C   -0.87359919   0.37958051  -1.74631298
| 37> C    0.45510478   0.20738992  -2.27060340
| 38> H   -1.68565247   0.74280750  -2.36965274
| 39> C    1.55792120   0.31523588  -1.43227360
| 40> C    2.75079210  -0.00282236  -2.14033979
| 41> S    0.86675155  -0.22654358  -3.86595273
| 42> C    2.52745882  -0.30463554  -3.44980494
| 43> H    1.56757799   1.26502512  -0.60776999
| 44> H    3.74044559   0.04704314  -1.71008755
| 45> H    3.25696307  -0.54858010  -4.20722474
| 46> H   -0.72389926  -3.21920108  -0.23948062
| 47> H   -0.87644518  -2.40956551   2.35492795
| 48> H    1.56966963  -1.55695759   3.08375716
| 49> O    1.50493278   2.36690938   0.18201694
| 50> O    0.55002050   0.96556312   1.62684058
| 51> C    1.01121890   2.11106876   1.28923390
| 52> C    0.95981167   3.17274970   2.34876141
| 53> H    0.90047283   4.16186646   1.90232895
| 54> H    1.88021454   3.13030466   2.93440150
| 55> H    0.12808204   3.01819944   3.03176323
| 56> H    3.23830494  -1.89271034   1.01685141
| 57> H    1.79946836  -2.88906563  -1.05904164
| 58> *
| 59>
| 60>                          ****END OF INPUT****
 Total Charge           Charge          ....    1
 Multiplicity           Mult            ....    1
 Number of Electrons    NEL             ....  164
Dispersion correction           -0.030715212
FINAL SINGLE POINT ENERGY     -1288.399381188241
Dispersion correction            ... done
Dispersion correction           -0.030670818
FINAL SINGLE POINT ENERGY     -1288.399535555006
Dispersion correction            ... done
Dispersion correction           -0.030634042
FINAL SINGLE POINT ENERGY     -1288.399633943893
Dispersion correction            ... done
FINAL SINGLE POINT ENERGY     -1288.399672319463
FINAL SINGLE POINT ENERGY     -1288.399692556621
Dispersion correction            ... done
Dispersion correction           -0.030579073
FINAL SINGLE POINT ENERGY     -1288.399701505067
Dispersion correction            ... done
Dispersion correction           -0.030580970
FINAL SINGLE POINT ENERGY     -1288.399703720688
Dispersion correction            ... done
                    ***********************HURRAY********************

CARTESIAN COORDINATES (ANGSTROEM)
---------------------------------
  Ir     0.604951   -0.736492    0.482542
  C      0.080749   -2.830982    0.374374
  C     -0.015852   -2.365938    1.733709
  C      2.175344   -2.123012    1.042548
  C      1.412720   -2.667784   -0.054989
  C      1.295890   -1.968227    2.135427
  N     -1.040265    0.121133   -0.504056
  C     -2.319258    0.373182    0.181298
  C     -3.095760    1.551153   -0.389423
  H     -3.926756    1.781231    0.275913
  H     -3.530675    1.339452   -1.367087
  H     -2.480147    2.447688   -0.465346
  C     -3.156340   -0.900778    0.182406
  H     -2.045473    0.613027    1.209695
  H     -4.070305   -0.742353    0.753262
  H     -3.441794   -1.185494   -0.831156
  H     -2.628100   -1.737244    0.637315
  C     -0.875885    0.391774   -1.745488
  C      0.450461    0.226715   -2.272821
  H     -1.689068    0.764249   -2.361594
  C      1.544129    0.263146   -1.416839
  C      2.740335   -0.028374   -2.130597
  S      0.873378   -0.113009   -3.887136
  C      2.526977   -0.243177   -3.459344
  H      1.577683    1.242906   -0.592343
  H      3.726082   -0.022487   -1.688725
  H      3.261625   -0.450711   -4.222602
  H     -0.730165   -3.222267   -0.222835
  H     -0.889823   -2.399475    2.366809
  H      1.554681   -1.545376    3.095905
  O      1.542750    2.348955    0.168381
  O      0.551396    0.975899    1.614349
  C      1.029891    2.109635    1.274156
  C      0.981377    3.187004    2.317001
  H      0.934142    4.170322    1.856495
  H      1.897376    3.144228    2.909409
  H      0.143243    3.048860    2.995491
  H      3.232567   -1.906070    1.041003
  H      1.797289   -2.912115   -1.034364

 Multiplicity           Mult            ....    1
 Number of Electrons    NEL             ....  164
 Basis Dimension        Dim             ....  358

ORBITAL ENERGIES
----------------

  NO   OCC          E(Eh)            E(eV)
   0   2.0000     -89.759301     -2442.4747
   1   2.0000     -19.632177      -534.2187
   2   2.0000     -19.610699      -533.6343
   3   2.0000     -14.834988      -403.6805
   4   2.0000     -10.693103      -290.9741
   5   2.0000     -10.656557      -289.9797
   6   2.0000     -10.631038      -289.2853
   7   2.0000     -10.630375      -289.2672
   8   2.0000     -10.627555      -289.1905
   9   2.0000     -10.624624      -289.1107
  10   2.0000     -10.623612      -289.0832
  11   2.0000     -10.621868      -289.0357
  12   2.0000     -10.613630      -288.8116
  13   2.0000     -10.607252      -288.6380
  14   2.0000     -10.583332      -287.9871
  15   2.0000     -10.582810      -287.9729
  16   2.0000     -10.554803      -287.2108
  17   2.0000     -10.550597      -287.0964
  18   2.0000     -10.541091      -286.8377
  19   2.0000      -8.398757      -228.5418
  20   2.0000      -6.288690      -171.1240
  21   2.0000      -6.285123      -171.0269
  22   2.0000      -6.283653      -170.9869
  23   2.0000      -4.025177      -109.5306
  24   2.0000      -2.343543       -63.7711
  25   2.0000      -2.310319       -62.8670
  26   2.0000      -2.308045       -62.8051
  27   2.0000      -1.320568       -35.9345
  28   2.0000      -1.222697       -33.2713
  29   2.0000      -1.206802       -32.8388
  30   2.0000      -1.167585       -31.7716
  31   2.0000      -1.123391       -30.5690
  32   2.0000      -1.023345       -27.8466
  33   2.0000      -0.981298       -26.7025
  34   2.0000      -0.972928       -26.4747
  35   2.0000      -0.963415       -26.2159
  36   2.0000      -0.956622       -26.0310
  37   2.0000      -0.936421       -25.4813
  38   2.0000      -0.900757       -24.5108
  39   2.0000      -0.870752       -23.6944
  40   2.0000      -0.796329       -21.6692
  41   2.0000      -0.783366       -21.3165
  42   2.0000      -0.782550       -21.2943
  43   2.0000      -0.778811       -21.1925
  44   2.0000      -0.767619       -20.8880
  45   2.0000      -0.761691       -20.7267
  46   2.0000      -0.741432       -20.1754
  47   2.0000      -0.722284       -19.6543
  48   2.0000      -0.691266       -18.8103
  49   2.0000      -0.680256       -18.5107
  50   2.0000      -0.662734       -18.0339
  51   2.0000      -0.656005       -17.8508
  52   2.0000      -0.647704       -17.6249
  53   2.0000      -0.638741       -17.3810
  54   2.0000      -0.635925       -17.3044
  55   2.0000      -0.632731       -17.2175
  56   2.0000      -0.622002       -16.9255
  57   2.0000      -0.608868       -16.5681
  58   2.0000      -0.603332       -16.4175
  59   2.0000      -0.602608       -16.3978
  60   2.0000      -0.596305       -16.2263
  61   2.0000      -0.589052       -16.0289
  62   2.0000      -0.576414       -15.6850
  63   2.0000      -0.567039       -15.4299
  64   2.0000      -0.562456       -15.3052
  65   2.0000      -0.561354       -15.2752
  66   2.0000      -0.553333       -15.0570
  67   2.0000      -0.547605       -14.9011
  68   2.0000      -0.540572       -14.7097
  69   2.0000      -0.534735       -14.5509
  70   2.0000      -0.527971       -14.3668
  71   2.0000      -0.518498       -14.1090
  72   2.0000      -0.514050       -13.9880
  73   2.0000      -0.503452       -13.6996
  74   2.0000      -0.494003       -13.4425
  75   2.0000      -0.479934       -13.0597
  76   2.0000      -0.471351       -12.8261
  77   2.0000      -0.447053       -12.1649
  78   2.0000      -0.446302       -12.1445
  79   2.0000      -0.419109       -11.4045
  80   2.0000      -0.417118       -11.3503
  81   2.0000      -0.399192       -10.8626
  82   0.0000      -0.200305        -5.4506
  83   0.0000      -0.151654        -4.1267
  84   0.0000      -0.141197        -3.8422
  85   0.0000      -0.088009        -2.3948
  86   0.0000      -0.072742        -1.9794

MULLIKEN ATOMIC CHARGES
-----------------------
   0 Ir:    0.609639
   1 C :   -0.222410
   2 C :   -0.281042
   3 C :   -0.249619
   4 C :   -0.235851
   5 C :   -0.162943
   6 N :   -0.436036
   7 C :   -0.126698
   8 C :   -0.683493
   9 H :    0.269321
  10 H :    0.224812
  11 H :    0.256929
  12 C :   -0.634537
  13 H :    0.279727
  14 H :    0.261068
  15 H :    0.231616
  16 H :    0.231076
  17 C :    0.070643
  18 C :   -0.157175
  19 H :    0.285829
  20 C :   -0.481696
  21 C :   -0.131287
  22 S :    0.322876
  23 C :   -0.427460
  24 H :    0.488311
  25 H :    0.263369
  26 H :    0.296424
  27 H :    0.288722
  28 H :    0.287595
  29 H :    0.302861
  30 O :   -0.488747
  31 O :   -0.522477
  32 C :    0.628983
  33 C :   -0.744709
  34 H :    0.272271
  35 H :    0.271889
  36 H :    0.258473
  37 H :    0.288716
  38 H :    0.295027
Sum of atomic charges:    1.0000000

LOEWDIN ATOMIC CHARGES
----------------------
   0 Ir:   -0.238532
   1 C :   -0.047872
   2 C :   -0.080286
   3 C :   -0.073352
   4 C :   -0.046438
   5 C :   -0.017560
   6 N :   -0.010254
   7 C :   -0.069440
   8 C :   -0.362699
   9 H :    0.156151
  10 H :    0.132964
  11 H :    0.144940
  12 C :   -0.343889
  13 H :    0.154872
  14 H :    0.151641
  15 H :    0.137471
  16 H :    0.132497
  17 C :    0.033233
  18 C :   -0.192284
  19 H :    0.160179
  20 C :   -0.213256
  21 C :   -0.135637
  22 S :    0.479726
  23 C :   -0.260209
  24 H :    0.330079
  25 H :    0.160661
  26 H :    0.167915
  27 H :    0.183774
  28 H :    0.183059
  29 H :    0.191345
  30 O :   -0.268920
  31 O :   -0.191254
  32 C :    0.164383
  33 C :   -0.372851
  34 H :    0.162413
  35 H :    0.170592
  36 H :    0.155553
  37 H :    0.184880
  38 H :    0.186405

  Mayer bond orders larger than 0.100000
B(  0-Ir,  1-C ) :   0.4256 B(  0-Ir,  2-C ) :   0.4924 B(  0-Ir,  3-C ) :   0.4604
B(  0-Ir,  4-C ) :   0.4467 B(  0-Ir,  5-C ) :   0.3994 B(  0-Ir,  6-N ) :   0.4672
B(  0-Ir, 20-C ) :   0.3442 B(  0-Ir, 31-O ) :   0.5441 B(  1-C ,  2-C ) :   1.1235
B(  1-C ,  4-C ) :   1.2370 B(  1-C , 27-H ) :   0.9052 B(  2-C ,  5-C ) :   1.1550
B(  2-C , 28-H ) :   0.9093 B(  3-C ,  4-C ) :   1.1164 B(  3-C ,  5-C ) :   1.2155
B(  3-C , 37-H ) :   0.9086 B(  4-C , 38-H ) :   0.9004 B(  5-C , 29-H ) :   0.8990
B(  6-N ,  7-C ) :   0.8932 B(  6-N , 17-C ) :   1.6620 B(  7-C ,  8-C ) :   0.9908
B(  7-C , 12-C ) :   0.9678 B(  7-C , 13-H ) :   0.8764 B(  8-C ,  9-H ) :   0.9046
B(  8-C , 10-H ) :   0.9131 B(  8-C , 11-H ) :   0.9107 B( 12-C , 14-H ) :   0.9073
B( 12-C , 15-H ) :   0.9156 B( 12-C , 16-H ) :   0.9128 B( 17-C , 18-C ) :   1.0935
B( 17-C , 19-H ) :   0.8760 B( 18-C , 20-C ) :   1.2713 B( 18-C , 22-S ) :   1.2265
B( 20-C , 21-C ) :   1.2860 B( 20-C , 24-H ) :   0.3899 B( 21-C , 23-C ) :   1.5409
B( 21-C , 25-H ) :   0.9050 B( 22-S , 23-C ) :   1.2155 B( 23-C , 26-H ) :   0.8918
B( 24-H , 30-O ) :   0.3009 B( 30-O , 32-C ) :   1.6047 B( 31-O , 32-C ) :   1.3402
B( 32-C , 33-C ) :   0.9477 B( 33-C , 34-H ) :   0.9023 B( 33-C , 35-H ) :   0.8951
B( 33-C , 36-H ) :   0.9081

Dispersion correction           -0.030581636
FINAL SINGLE POINT ENERGY     -1288.399706171449

DIPOLE MOMENT
-------------
                                X             Y             Z
Electronic contribution:     36.88361     -71.62981      76.84613
Nuclear contribution   :    -37.49238      70.80808     -77.01585
                        -----------------------------------------
Total Dipole Moment    :     -0.60877      -0.82173      -0.16973
                        -----------------------------------------
Magnitude (a.u.)       :      1.03665
Magnitude (Debye)      :      2.63496

Rotational constants in cm-1:     0.010543     0.008863     0.008120
Rotational constants in MHz :   316.084546   265.691379   243.433672

                             ****ORCA TERMINATED NORMALLY****
TOTAL RUN TIME: 0 days 1 hours 2 minutes 37 seconds 346 msec
