                         Program Version 5.0.3 -  RELEASE  -
|  1> ! Opt PBEh-3c
|  2> %geom Constraints
|  3> { B 0 20 2.5142857142857142 C }
|  4> { B 24 30 1.3285714285714287 C }
|  5>     end
|  6> end
|  7> %output
|  8> xyzfile=True
|  9> end
| 10> %scf
| 11> maxiter 250
| 12> end
| 13> %output
| 14> Print[P_Hirshfeld] = 1
| 15> end
| 16> % maxcore
| 17> 4000
| 18> *xyz 1 1
| 19> Ir   0.57058364  -0.74012506   0.51563391
| 20> C    0.01788178  -2.81793259   0.38330686
| 21> C    0.06101000  -2.37144002   1.75418583
| 22> C    2.17388476  -2.15321666   0.86380253
| 23> C    1.29912642  -2.65432439  -0.17277912
| 24> C    1.42177021  -2.01708951   2.04359818
| 25> N   -1.03804330   0.14274244  -0.50198929
| 26> C   -2.32245045   0.45243018   0.14920792
| 27> C   -3.11222944   1.54637515  -0.55236081
| 28> H   -3.94736030   1.83990011   0.08222702
| 29> H   -3.54343450   1.22005874  -1.49998192
| 30> H   -2.50913701   2.43751911  -0.72830927
| 31> C   -3.14238441  -0.82316634   0.30070760
| 32> H   -2.05087375   0.81097074   1.14354679
| 33> H   -4.06719671  -0.60325271   0.83203061
| 34> H   -3.40818079  -1.24092990  -0.67126537
| 35> H   -2.61428535  -1.58441354   0.87316641
| 36> C   -0.83728026   0.35262240  -1.74749326
| 37> C    0.50742239   0.17004757  -2.23904670
| 38> H   -1.63280542   0.69302882  -2.40469752
| 39> C    1.61781753   0.48725618  -1.46825522
| 40> C    2.81271635   0.12635123  -2.15095040
| 41> S    0.91588314  -0.48904476  -3.76374780
| 42> C    2.58625655  -0.39939612  -3.38634541
| 43> H    1.54718404   1.37919331  -0.61596585
| 44> H    3.80514004   0.30322124  -1.76224506
| 45> H    3.31647091  -0.72182877  -4.11327750
| 46> H   -0.85719059  -3.17745050  -0.13874689
| 47> H   -0.74941574  -2.40634337   2.46743935
| 48> H    1.78297485  -1.63013176   2.98562596
| 49> O    1.39208370   2.40044965   0.24208117
| 50> O    0.53811713   0.92701276   1.68320743
| 51> C    0.95527555   2.09866791   1.35684918
| 52> C    0.91610830   3.11869823   2.45753191
| 53> H    0.85726238   4.12419393   2.04959638
| 54> H    1.83947483   3.04973506   3.03618160
| 55> H    0.08915197   2.94216939   3.14149412
| 56> H    3.22305429  -1.92461539   0.74912264
| 57> H    1.58498726  -2.86875277  -1.19234589
| 58> *
| 59>
| 60>                          ****END OF INPUT****
 Total Charge           Charge          ....    1
 Multiplicity           Mult            ....    1
 Number of Electrons    NEL             ....  164
Dispersion correction           -0.030751436
FINAL SINGLE POINT ENERGY     -1288.393563689729
Dispersion correction            ... done
Dispersion correction           -0.030705808
FINAL SINGLE POINT ENERGY     -1288.393722154432
Dispersion correction            ... done
Dispersion correction           -0.030676615
FINAL SINGLE POINT ENERGY     -1288.393791981848
Dispersion correction            ... done
FINAL SINGLE POINT ENERGY     -1288.393819591074
FINAL SINGLE POINT ENERGY     -1288.393831612419
FINAL SINGLE POINT ENERGY     -1288.393836801673
FINAL SINGLE POINT ENERGY     -1288.393842951825
FINAL SINGLE POINT ENERGY     -1288.393851497970
FINAL SINGLE POINT ENERGY     -1288.393856877733
FINAL SINGLE POINT ENERGY     -1288.393862991904
Dispersion correction            ... done
Dispersion correction           -0.030563004
FINAL SINGLE POINT ENERGY     -1288.393865795392
Dispersion correction            ... done
Dispersion correction           -0.030555194
FINAL SINGLE POINT ENERGY     -1288.393866322512
Dispersion correction            ... done
                    ***********************HURRAY********************

CARTESIAN COORDINATES (ANGSTROEM)
---------------------------------
  Ir     0.578108   -0.742058    0.518420
  C      0.030230   -2.823280    0.395226
  C      0.026886   -2.365008    1.762005
  C      2.169761   -2.150629    0.939422
  C      1.330091   -2.664523   -0.119107
  C      1.375054   -2.002427    2.090711
  N     -1.034616    0.130599   -0.501157
  C     -2.320522    0.419323    0.157850
  C     -3.101564    1.547243   -0.499147
  H     -3.936286    1.820236    0.145079
  H     -3.532558    1.262706   -1.460080
  H     -2.491385    2.440061   -0.637572
  C     -3.148633   -0.856923    0.249715
  H     -2.052697    0.733302    1.168002
  H     -4.072749   -0.657406    0.790370
  H     -3.415898   -1.227322   -0.740886
  H     -2.624499   -1.647604    0.784450
  C     -0.846372    0.357790   -1.746805
  C      0.490344    0.191119   -2.257310
  H     -1.652253    0.701056   -2.389661
  C      1.603006    0.422170   -1.460416
  C      2.793685    0.091737   -2.163688
  S      0.892733   -0.352113   -3.827140
  C      2.561425   -0.328179   -3.438871
  H      1.562978    1.333983   -0.595354
  H      3.787949    0.215883   -1.759717
  H      3.288516   -0.606128   -4.186959
  H     -0.825142   -3.191791   -0.152504
  H     -0.806291   -2.395054    2.448617
  H      1.702982   -1.602734    3.039690
  O      1.456630    2.375106    0.223092
  O      0.540484    0.944045    1.667363
  C      0.986317    2.099355    1.334367
  C      0.943900    3.142559    2.412195
  H      0.895075    4.139949    1.983486
  H      1.862157    3.079953    2.999577
  H      0.109700    2.984292    3.091590
  H      3.223423   -1.928170    0.861619
  H      1.649401   -2.891928   -1.125733

 Multiplicity           Mult            ....    1
 Number of Electrons    NEL             ....  164
 Basis Dimension        Dim             ....  358

ORBITAL ENERGIES
----------------

  NO   OCC          E(Eh)            E(eV)
   0   2.0000     -89.755261     -2442.3648
   1   2.0000     -19.630670      -534.1777
   2   2.0000     -19.601732      -533.3903
   3   2.0000     -14.836193      -403.7133
   4   2.0000     -10.690351      -290.8992
   5   2.0000     -10.657844      -290.0147
   6   2.0000     -10.635835      -289.4158
   7   2.0000     -10.634212      -289.3716
   8   2.0000     -10.632595      -289.3276
   9   2.0000     -10.631301      -289.2924
  10   2.0000     -10.629724      -289.2495
  11   2.0000     -10.622046      -289.0406
  12   2.0000     -10.614800      -288.8434
  13   2.0000     -10.604991      -288.5765
  14   2.0000     -10.578362      -287.8519
  15   2.0000     -10.577025      -287.8155
  16   2.0000     -10.556117      -287.2465
  17   2.0000     -10.551024      -287.1080
  18   2.0000     -10.538319      -286.7623
  19   2.0000      -8.394697      -228.4313
  20   2.0000      -6.284713      -171.0157
  21   2.0000      -6.281132      -170.9183
  22   2.0000      -6.279476      -170.8732
  23   2.0000      -4.029386      -109.6452
  24   2.0000      -2.348611       -63.9089
  25   2.0000      -2.314419       -62.9786
  26   2.0000      -2.312285       -62.9205
  27   2.0000      -1.316507       -35.8240
  28   2.0000      -1.219860       -33.1941
  29   2.0000      -1.207506       -32.8579
  30   2.0000      -1.173060       -31.9206
  31   2.0000      -1.119778       -30.4707
  32   2.0000      -1.023280       -27.8449
  33   2.0000      -0.987597       -26.8739
  34   2.0000      -0.977986       -26.6124
  35   2.0000      -0.960301       -26.1311
  36   2.0000      -0.953692       -25.9513
  37   2.0000      -0.933695       -25.4071
  38   2.0000      -0.901847       -24.5405
  39   2.0000      -0.869883       -23.6707
  40   2.0000      -0.795234       -21.6394
  41   2.0000      -0.788656       -21.4604
  42   2.0000      -0.787274       -21.4228
  43   2.0000      -0.777415       -21.1545
  44   2.0000      -0.771567       -20.9954
  45   2.0000      -0.761831       -20.7305
  46   2.0000      -0.741598       -20.1799
  47   2.0000      -0.722414       -19.6579
  48   2.0000      -0.692023       -18.8309
  49   2.0000      -0.676277       -18.4024
  50   2.0000      -0.662914       -18.0388
  51   2.0000      -0.653956       -17.7950
  52   2.0000      -0.648823       -17.6554
  53   2.0000      -0.640200       -17.4207
  54   2.0000      -0.639718       -17.4076
  55   2.0000      -0.634218       -17.2580
  56   2.0000      -0.622904       -16.9501
  57   2.0000      -0.609264       -16.5789
  58   2.0000      -0.608443       -16.5566
  59   2.0000      -0.606611       -16.5067
  60   2.0000      -0.594792       -16.1851
  61   2.0000      -0.586363       -15.9558
  62   2.0000      -0.573968       -15.6185
  63   2.0000      -0.566631       -15.4188
  64   2.0000      -0.561251       -15.2724
  65   2.0000      -0.558087       -15.1863
  66   2.0000      -0.552791       -15.0422
  67   2.0000      -0.548307       -14.9202
  68   2.0000      -0.539939       -14.6925
  69   2.0000      -0.533558       -14.5188
  70   2.0000      -0.527492       -14.3538
  71   2.0000      -0.519859       -14.1461
  72   2.0000      -0.515380       -14.0242
  73   2.0000      -0.507083       -13.7984
  74   2.0000      -0.493870       -13.4389
  75   2.0000      -0.480200       -13.0669
  76   2.0000      -0.463465       -12.6115
  77   2.0000      -0.450376       -12.2554
  78   2.0000      -0.443939       -12.0802
  79   2.0000      -0.419170       -11.4062
  80   2.0000      -0.416885       -11.3440
  81   2.0000      -0.401016       -10.9122
  82   0.0000      -0.199596        -5.4313
  83   0.0000      -0.162760        -4.4289
  84   0.0000      -0.141156        -3.8411
  85   0.0000      -0.090955        -2.4750
  86   0.0000      -0.074062        -2.0153

MULLIKEN ATOMIC CHARGES
-----------------------
   0 Ir:    0.617410
   1 C :   -0.212721
   2 C :   -0.293258
   3 C :   -0.235886
   4 C :   -0.240868
   5 C :   -0.167032
   6 N :   -0.438154
   7 C :   -0.123087
   8 C :   -0.688372
   9 H :    0.270474
  10 H :    0.225745
  11 H :    0.259028
  12 C :   -0.636178
  13 H :    0.279267
  14 H :    0.263034
  15 H :    0.231432
  16 H :    0.230051
  17 C :    0.069468
  18 C :   -0.194676
  19 H :    0.287268
  20 C :   -0.420817
  21 C :   -0.149749
  22 S :    0.304052
  23 C :   -0.425193
  24 H :    0.498750
  25 H :    0.261838
  26 H :    0.294961
  27 H :    0.291945
  28 H :    0.292349
  29 H :    0.305586
  30 O :   -0.493483
  31 O :   -0.532551
  32 C :    0.625683
  33 C :   -0.745798
  34 H :    0.271603
  35 H :    0.269696
  36 H :    0.256482
  37 H :    0.294536
  38 H :    0.297166
Sum of atomic charges:    1.0000000

LOEWDIN ATOMIC CHARGES
----------------------
   0 Ir:   -0.216107
   1 C :   -0.042686
   2 C :   -0.063985
   3 C :   -0.055293
   4 C :   -0.049310
   5 C :   -0.023422
   6 N :   -0.015265
   7 C :   -0.068816
   8 C :   -0.363637
   9 H :    0.156511
  10 H :    0.133470
  11 H :    0.146050
  12 C :   -0.343881
  13 H :    0.154919
  14 H :    0.152392
  15 H :    0.137436
  16 H :    0.132502
  17 C :    0.035989
  18 C :   -0.199670
  19 H :    0.160612
  20 C :   -0.203025
  21 C :   -0.146070
  22 S :    0.462235
  23 C :   -0.260549
  24 H :    0.310406
  25 H :    0.159629
  26 H :    0.166877
  27 H :    0.185448
  28 H :    0.185560
  29 H :    0.193007
  30 O :   -0.274350
  31 O :   -0.197993
  32 C :    0.164200
  33 C :   -0.374102
  34 H :    0.161597
  35 H :    0.169367
  36 H :    0.154629
  37 H :    0.187533
  38 H :    0.187794

  Mayer bond orders larger than 0.100000
B(  0-Ir,  1-C ) :   0.4237 B(  0-Ir,  2-C ) :   0.5414 B(  0-Ir,  3-C ) :   0.4592
B(  0-Ir,  4-C ) :   0.4563 B(  0-Ir,  5-C ) :   0.4041 B(  0-Ir,  6-N ) :   0.4712
B(  0-Ir, 20-C ) :   0.2599 B(  0-Ir, 31-O ) :   0.5627 B(  1-C ,  2-C ) :   1.1154
B(  1-C ,  4-C ) :   1.2410 B(  1-C , 27-H ) :   0.9032 B(  2-C ,  5-C ) :   1.1329
B(  2-C , 28-H ) :   0.9072 B(  3-C ,  4-C ) :   1.1072 B(  3-C ,  5-C ) :   1.2330
B(  3-C , 37-H ) :   0.9046 B(  4-C , 38-H ) :   0.9000 B(  5-C , 29-H ) :   0.8980
B(  6-N ,  7-C ) :   0.8917 B(  6-N , 17-C ) :   1.6724 B(  7-C ,  8-C ) :   0.9918
B(  7-C , 12-C ) :   0.9687 B(  7-C , 13-H ) :   0.8755 B(  8-C ,  9-H ) :   0.9041
B(  8-C , 10-H ) :   0.9128 B(  8-C , 11-H ) :   0.9094 B( 12-C , 14-H ) :   0.9068
B( 12-C , 15-H ) :   0.9155 B( 12-C , 16-H ) :   0.9125 B( 17-C , 18-C ) :   1.0788
B( 17-C , 19-H ) :   0.8750 B( 18-C , 20-C ) :   1.3011 B( 18-C , 22-S ) :   1.2089
B( 20-C , 21-C ) :   1.2871 B( 20-C , 24-H ) :   0.4284 B( 21-C , 23-C ) :   1.5380
B( 21-C , 25-H ) :   0.9059 B( 22-S , 23-C ) :   1.2132 B( 23-C , 26-H ) :   0.8926
B( 24-H , 30-O ) :   0.2651 B( 30-O , 32-C ) :   1.6374 B( 31-O , 32-C ) :   1.3122
B( 32-C , 33-C ) :   0.9488 B( 33-C , 34-H ) :   0.9032 B( 33-C , 35-H ) :   0.8963
B( 33-C , 36-H ) :   0.9086

Dispersion correction           -0.030552457
FINAL SINGLE POINT ENERGY     -1288.393866076101

DIPOLE MOMENT
-------------
                                X             Y             Z
Electronic contribution:     34.17346     -70.77929      79.84103
Nuclear contribution   :    -34.79417      69.73267     -79.90888
                        -----------------------------------------
Total Dipole Moment    :     -0.62071      -1.04663      -0.06785
                        -----------------------------------------
Magnitude (a.u.)       :      1.21873
Magnitude (Debye)      :      3.09777

Rotational constants in cm-1:     0.010558     0.008831     0.008105
Rotational constants in MHz :   316.511427   264.755541   242.994018

                             ****ORCA TERMINATED NORMALLY****
TOTAL RUN TIME: 0 days 1 hours 35 minutes 16 seconds 583 msec
