                         Program Version 5.0.3 -  RELEASE  -
|  1> ! Opt PBEh-3c
|  2> %geom Constraints
|  3> { B 0 20 2.5571428571428574 C }
|  4> { B 24 30 1.4428571428571428 C }
|  5>     end
|  6> end
|  7> %output
|  8> xyzfile=True
|  9> end
| 10> %scf
| 11> maxiter 250
| 12> end
| 13> %output
| 14> Print[P_Hirshfeld] = 1
| 15> end
| 16> % maxcore
| 17> 4000
| 18> *xyz 1 1
| 19> Ir   0.57530666  -0.73192943   0.47883455
| 20> C    0.02300566  -2.81078215   0.33862541
| 21> C    0.11371492  -2.37146268   1.71152940
| 22> C    2.19161594  -2.14480293   0.75126572
| 23> C    1.28336715  -2.64112790  -0.25878395
| 24> C    1.48457513  -2.02098237   1.95871732
| 25> N   -1.03974228   0.17769608  -0.51106408
| 26> C   -2.31240153   0.52154453   0.14253790
| 27> C   -3.13099919   1.54889770  -0.62185346
| 28> H   -3.96538204   1.86710248   0.00153817
| 29> H   -3.56417442   1.14914497  -1.54021444
| 30> H   -2.55040258   2.43973773  -0.86368282
| 31> C   -3.11068135  -0.74909019   0.40657363
| 32> H   -2.02161106   0.95522020   1.10093324
| 33> H   -4.02593902  -0.49995565   0.94129598
| 34> H   -3.39349052  -1.24064688  -0.52528538
| 35> H   -2.56139487  -1.45934421   1.02309974
| 36> C   -0.82250767   0.37906045  -1.75196920
| 37> C    0.53133048   0.14544896  -2.21422041
| 38> H   -1.59417292   0.74168140  -2.42528888
| 39> C    1.64544370   0.56949599  -1.50134186
| 40> C    2.84128210   0.13814953  -2.14356795
| 41> S    0.93803859  -0.70358298  -3.64293941
| 42> C    2.61241737  -0.54891633  -3.29412452
| 43> H    1.55404210   1.41900845  -0.70562403
| 44> H    3.83267348   0.37712515  -1.78713063
| 45> H    3.34052305  -0.95866373  -3.97779968
| 46> H   -0.87030419  -3.16700387  -0.15394565
| 47> H   -0.67133419  -2.41108332   2.45265619
| 48> H    1.87809251  -1.64025371   2.89024790
| 49> O    1.26928917   2.45442781   0.27930632
| 50> O    0.54171708   0.88856692   1.69342057
| 51> C    0.88951940   2.09889020   1.38926569
| 52> C    0.82600363   3.06537799   2.53915877
| 53> H    0.76876754   4.08808633   2.17654973
| 54> H    1.73626693   2.97235992   3.13471078
| 55> H   -0.01314283   2.85623829   3.19949103
| 56> H    3.23421012  -1.90751123   0.59882912
| 57> H    1.53584794  -2.84693150  -1.28901073
| 58> *
| 59>
| 60>                          ****END OF INPUT****
 Total Charge           Charge          ....    1
 Multiplicity           Mult            ....    1
 Number of Electrons    NEL             ....  164
Dispersion correction           -0.031008906
FINAL SINGLE POINT ENERGY     -1288.396492960392
Dispersion correction            ... done
Dispersion correction           -0.031000840
FINAL SINGLE POINT ENERGY     -1288.395482865756
Dispersion correction            ... done
Dispersion correction           -0.030959171
FINAL SINGLE POINT ENERGY     -1288.396564731814
Dispersion correction            ... done
FINAL SINGLE POINT ENERGY     -1288.395521685538
FINAL SINGLE POINT ENERGY     -1288.396612129961
Dispersion correction            ... done
Dispersion correction           -0.030910956
FINAL SINGLE POINT ENERGY     -1288.396621624107
Dispersion correction            ... done
Dispersion correction           -0.030915259
FINAL SINGLE POINT ENERGY     -1288.396628578350
Dispersion correction            ... done
                    ***********************HURRAY********************

CARTESIAN COORDINATES (ANGSTROEM)
---------------------------------
  Ir     0.578492   -0.728931    0.467668
  C      0.022965   -2.808159    0.341093
  C      0.114099   -2.364453    1.711851
  C      2.192418   -2.143000    0.749170
  C      1.283683   -2.643306   -0.258126
  C      1.484502   -2.012075    1.955842
  N     -1.043116    0.175926   -0.516132
  C     -2.314827    0.515635    0.141090
  C     -3.136753    1.544142   -0.618269
  H     -3.970649    1.858709    0.007637
  H     -3.570805    1.146764   -1.537253
  H     -2.558437    2.437025   -0.858082
  C     -3.111309   -0.756574    0.403123
  H     -2.022463    0.946820    1.100134
  H     -4.025652   -0.509791    0.940516
  H     -3.395658   -1.245659   -0.529559
  H     -2.559928   -1.467954    1.016346
  C     -0.828687    0.381509   -1.757075
  C      0.525410    0.151578   -2.218553
  H     -1.601237    0.745544   -2.428478
  C      1.634399    0.546876   -1.480756
  C      2.834046    0.121200   -2.120851
  S      0.940597   -0.666382   -3.661273
  C      2.612593   -0.534562   -3.290767
  H      1.548446    1.408639   -0.685499
  H      3.823387    0.343317   -1.748055
  H      3.344736   -0.932427   -3.977148
  H     -0.870802   -3.165447   -0.149906
  H     -0.670413   -2.401083    2.453567
  H      1.878428   -1.626924    2.885379
  O      1.294131    2.454782    0.275097
  O      0.536514    0.895790    1.680435
  C      0.899829    2.101205    1.382058
  C      0.836578    3.068917    2.530676
  H      0.791287    4.092080    2.167681
  H      1.741494    2.967633    3.133009
  H     -0.009420    2.867182    3.184509
  H      3.235693   -1.909159    0.596569
  H      1.535801   -2.856195   -1.286925

 Multiplicity           Mult            ....    1
 Number of Electrons    NEL             ....  164
 Basis Dimension        Dim             ....  358

ORBITAL ENERGIES
----------------

  NO   OCC          E(Eh)            E(eV)
   0   2.0000     -89.760504     -2442.5075
   1   2.0000     -19.622221      -533.9478
   2   2.0000     -19.583310      -532.8890
   3   2.0000     -14.842053      -403.8728
   4   2.0000     -10.678361      -290.5730
   5   2.0000     -10.663004      -290.1551
   6   2.0000     -10.639318      -289.5106
   7   2.0000     -10.636994      -289.4473
   8   2.0000     -10.635346      -289.4025
   9   2.0000     -10.634209      -289.3715
  10   2.0000     -10.632853      -289.3346
  11   2.0000     -10.632012      -289.3117
  12   2.0000     -10.617007      -288.9034
  13   2.0000     -10.609311      -288.6940
  14   2.0000     -10.582492      -287.9643
  15   2.0000     -10.581109      -287.9266
  16   2.0000     -10.557785      -287.2919
  17   2.0000     -10.552662      -287.1525
  18   2.0000     -10.531170      -286.5677
  19   2.0000      -8.399786      -228.5698
  20   2.0000      -6.289904      -171.1570
  21   2.0000      -6.286257      -171.0577
  22   2.0000      -6.284453      -171.0087
  23   2.0000      -4.032055      -109.7178
  24   2.0000      -2.351483       -63.9871
  25   2.0000      -2.317015       -63.0492
  26   2.0000      -2.315504       -63.0081
  27   2.0000      -1.302157       -35.4335
  28   2.0000      -1.214399       -33.0455
  29   2.0000      -1.206039       -32.8180
  30   2.0000      -1.175869       -31.9970
  31   2.0000      -1.125323       -30.6216
  32   2.0000      -1.027544       -27.9609
  33   2.0000      -0.990806       -26.9612
  34   2.0000      -0.980849       -26.6903
  35   2.0000      -0.964626       -26.2488
  36   2.0000      -0.959034       -26.0966
  37   2.0000      -0.924862       -25.1668
  38   2.0000      -0.904314       -24.6076
  39   2.0000      -0.873825       -23.7780
  40   2.0000      -0.797599       -21.7038
  41   2.0000      -0.791709       -21.5435
  42   2.0000      -0.789865       -21.4933
  43   2.0000      -0.780918       -21.2499
  44   2.0000      -0.774539       -21.0763
  45   2.0000      -0.755477       -20.5576
  46   2.0000      -0.744675       -20.2636
  47   2.0000      -0.722533       -19.6611
  48   2.0000      -0.695433       -18.9237
  49   2.0000      -0.672133       -18.2897
  50   2.0000      -0.665520       -18.1097
  51   2.0000      -0.652405       -17.7528
  52   2.0000      -0.648962       -17.6592
  53   2.0000      -0.641453       -17.4548
  54   2.0000      -0.636608       -17.3230
  55   2.0000      -0.628383       -17.0992
  56   2.0000      -0.624294       -16.9879
  57   2.0000      -0.612541       -16.6681
  58   2.0000      -0.611070       -16.6281
  59   2.0000      -0.609295       -16.5798
  60   2.0000      -0.596885       -16.2421
  61   2.0000      -0.587967       -15.9994
  62   2.0000      -0.576903       -15.6983
  63   2.0000      -0.571141       -15.5415
  64   2.0000      -0.563872       -15.3437
  65   2.0000      -0.554168       -15.0797
  66   2.0000      -0.552558       -15.0359
  67   2.0000      -0.548611       -14.9285
  68   2.0000      -0.539183       -14.6719
  69   2.0000      -0.534776       -14.5520
  70   2.0000      -0.528276       -14.3751
  71   2.0000      -0.522270       -14.2117
  72   2.0000      -0.516401       -14.0520
  73   2.0000      -0.507787       -13.8176
  74   2.0000      -0.488818       -13.3014
  75   2.0000      -0.481276       -13.0962
  76   2.0000      -0.464202       -12.6316
  77   2.0000      -0.450891       -12.2694
  78   2.0000      -0.440215       -11.9788
  79   2.0000      -0.423763       -11.5312
  80   2.0000      -0.417244       -11.3538
  81   2.0000      -0.404774       -11.0145
  82   0.0000      -0.200776        -5.4634
  83   0.0000      -0.166674        -4.5354
  84   0.0000      -0.142233        -3.8703
  85   0.0000      -0.102798        -2.7973
  86   0.0000      -0.077228        -2.1015

MULLIKEN ATOMIC CHARGES
-----------------------
   0 Ir:    0.622551
   1 C :   -0.207483
   2 C :   -0.297122
   3 C :   -0.230471
   4 C :   -0.245384
   5 C :   -0.164880
   6 N :   -0.424564
   7 C :   -0.115282
   8 C :   -0.696686
   9 H :    0.273728
  10 H :    0.226404
  11 H :    0.260956
  12 C :   -0.640753
  13 H :    0.281386
  14 H :    0.265653
  15 H :    0.230944
  16 H :    0.233461
  17 C :    0.067018
  18 C :   -0.226861
  19 H :    0.293379
  20 C :   -0.393794
  21 C :   -0.143391
  22 S :    0.290294
  23 C :   -0.428634
  24 H :    0.494247
  25 H :    0.267506
  26 H :    0.296834
  27 H :    0.293188
  28 H :    0.294797
  29 H :    0.307993
  30 O :   -0.480425
  31 O :   -0.546317
  32 C :    0.610950
  33 C :   -0.746144
  34 H :    0.268444
  35 H :    0.264730
  36 H :    0.250928
  37 H :    0.296856
  38 H :    0.295944
Sum of atomic charges:    1.0000000

LOEWDIN ATOMIC CHARGES
----------------------
   0 Ir:   -0.208134
   1 C :   -0.038842
   2 C :   -0.053902
   3 C :   -0.045551
   4 C :   -0.055312
   5 C :   -0.026270
   6 N :   -0.006471
   7 C :   -0.068034
   8 C :   -0.365101
   9 H :    0.157941
  10 H :    0.134215
  11 H :    0.147071
  12 C :   -0.343392
  13 H :    0.156832
  14 H :    0.153461
  15 H :    0.137353
  16 H :    0.134716
  17 C :    0.037121
  18 C :   -0.189203
  19 H :    0.163526
  20 C :   -0.178817
  21 C :   -0.144989
  22 S :    0.455688
  23 C :   -0.262562
  24 H :    0.274886
  25 H :    0.162429
  26 H :    0.167560
  27 H :    0.186344
  28 H :    0.186926
  29 H :    0.194457
  30 O :   -0.277354
  31 O :   -0.212232
  32 C :    0.151557
  33 C :   -0.377436
  34 H :    0.158888
  35 H :    0.166004
  36 H :    0.152100
  37 H :    0.188493
  38 H :    0.186031

  Mayer bond orders larger than 0.100000
B(  0-Ir,  1-C ) :   0.4203 B(  0-Ir,  2-C ) :   0.5568 B(  0-Ir,  3-C ) :   0.4649
B(  0-Ir,  4-C ) :   0.4511 B(  0-Ir,  5-C ) :   0.4029 B(  0-Ir,  6-N ) :   0.4631
B(  0-Ir, 20-C ) :   0.2055 B(  0-Ir, 31-O ) :   0.5972 B(  1-C ,  2-C ) :   1.1116
B(  1-C ,  4-C ) :   1.2485 B(  1-C , 27-H ) :   0.9027 B(  2-C ,  5-C ) :   1.1288
B(  2-C , 28-H ) :   0.9060 B(  3-C ,  4-C ) :   1.1028 B(  3-C ,  5-C ) :   1.2358
B(  3-C , 37-H ) :   0.9021 B(  4-C , 38-H ) :   0.8969 B(  5-C , 29-H ) :   0.8973
B(  6-N ,  7-C ) :   0.8905 B(  6-N , 17-C ) :   1.7038 B(  7-C ,  8-C ) :   0.9929
B(  7-C , 12-C ) :   0.9698 B(  7-C , 13-H ) :   0.8707 B(  8-C ,  9-H ) :   0.9030
B(  8-C , 10-H ) :   0.9121 B(  8-C , 11-H ) :   0.9076 B( 12-C , 14-H ) :   0.9061
B( 12-C , 15-H ) :   0.9151 B( 12-C , 16-H ) :   0.9103 B( 17-C , 18-C ) :   1.0418
B( 17-C , 19-H ) :   0.8734 B( 18-C , 20-C ) :   1.3118 B( 18-C , 22-S ) :   1.2132
B( 20-C , 21-C ) :   1.2615 B( 20-C , 24-H ) :   0.5187 B( 21-C , 23-C ) :   1.5483
B( 21-C , 25-H ) :   0.9038 B( 22-S , 23-C ) :   1.2003 B( 23-C , 26-H ) :   0.8927
B( 24-H , 30-O ) :   0.2111 B( 30-O , 32-C ) :   1.7222 B( 31-O , 32-C ) :   1.2541
B( 32-C , 33-C ) :   0.9461 B( 33-C , 34-H ) :   0.9059 B( 33-C , 35-H ) :   0.8997
B( 33-C , 36-H ) :   0.9101

Dispersion correction           -0.030917740
FINAL SINGLE POINT ENERGY     -1288.396631533053

DIPOLE MOMENT
-------------
                                X             Y             Z
Electronic contribution:     34.05496     -67.76863      73.70890
Nuclear contribution   :    -34.69666      66.44979     -73.94339
                        -----------------------------------------
Total Dipole Moment    :     -0.64170      -1.31884      -0.23449
                        -----------------------------------------
Magnitude (a.u.)       :      1.48529
Magnitude (Debye)      :      3.77532

Rotational constants in cm-1:     0.010774     0.009083     0.008258
Rotational constants in MHz :   323.004573   272.292526   247.570904

                             ****ORCA TERMINATED NORMALLY****
TOTAL RUN TIME: 0 days 1 hours 6 minutes 37 seconds 603 msec
