                         Program Version 5.0.3 -  RELEASE  -
|  1> ! Opt PBEh-3c
|  2> %geom Constraints
|  3> { B 0 20 2.5571428571428574 C }
|  4> { B 24 30 1.4142857142857144 C }
|  5>     end
|  6> end
|  7> %output
|  8> xyzfile=True
|  9> end
| 10> %scf
| 11> maxiter 250
| 12> end
| 13> %output
| 14> Print[P_Hirshfeld] = 1
| 15> end
| 16> % maxcore
| 17> 4000
| 18> *xyz 1 1
| 19> Ir   0.57145766  -0.73453405   0.48576950
| 20> C    0.01767074  -2.81229211   0.34574374
| 21> C    0.10664837  -2.37380601   1.71875777
| 22> C    2.18634058  -2.14843337   0.76151204
| 23> C    1.27907061  -2.64327736  -0.25011714
| 24> C    1.47736663  -2.02407898   1.96783151
| 25> N   -1.04062157   0.17287489  -0.50983257
| 26> C   -2.31547311   0.51323831   0.14175562
| 27> C   -3.13259508   1.54372158  -0.62023006
| 28> H   -3.96790900   1.85988544   0.00297127
| 29> H   -3.56445062   1.14772796  -1.54081406
| 30> H   -2.55133634   2.43523481  -0.85793747
| 31> C   -3.11452388  -0.75842573   0.39842245
| 32> H   -2.02772167   0.94327613   1.10273695
| 33> H   -4.03187828  -0.51142418   0.93055645
| 34> H   -3.39366073  -1.24679145  -0.53621641
| 35> H   -2.56745613  -1.47075141   1.01451250
| 36> C   -0.82341538   0.37493715  -1.75112148
| 37> C    0.53031017   0.14982312  -2.21544231
| 38> H   -1.59757454   0.73374047  -2.42367379
| 39> C    1.64241176   0.56571266  -1.49473948
| 40> C    2.83916985   0.14483754  -2.14198436
| 41> S    0.93944335  -0.67682789  -3.65686017
| 42> C    2.61282884  -0.52492261  -3.30350511
| 43> H    1.54968356   1.41977343  -0.68696431
| 44> H    3.83013643   0.37921187  -1.78120305
| 45> H    3.34250124  -0.92294190  -3.99245270
| 46> H   -0.87521226  -3.16739099  -0.14842423
| 47> H   -0.67953154  -2.41334128   2.45866014
| 48> H    1.86995713  -1.64431681   2.90013925
| 49> O    1.29098027   2.44434958   0.27435387
| 50> O    0.54026713   0.89350596   1.69280387
| 51> C    0.90155354   2.09732448   1.38533606
| 52> C    0.84365106   3.07211982   2.52790588
| 53> H    0.79381056   4.09279873   2.15857958
| 54> H    1.75290244   2.97673512   3.12467295
| 55> H    0.00254232   2.87268697   3.18866795
| 56> H    3.22936230  -1.91198835   0.61071077
| 57> H    1.53266360  -2.84878153  -1.28014130
| 58> *
| 59>
| 60>                          ****END OF INPUT****
 Total Charge           Charge          ....    1
 Multiplicity           Mult            ....    1
 Number of Electrons    NEL             ....  164
Dispersion correction           -0.030973132
FINAL SINGLE POINT ENERGY     -1288.395415733263
Dispersion correction            ... done
Dispersion correction           -0.030989294
FINAL SINGLE POINT ENERGY     -1288.394040491715
Dispersion correction            ... done
Dispersion correction           -0.030941405
FINAL SINGLE POINT ENERGY     -1288.395477410485
Dispersion correction            ... done
FINAL SINGLE POINT ENERGY     -1288.393843338893
FINAL SINGLE POINT ENERGY     -1288.395541119854
FINAL SINGLE POINT ENERGY     -1288.395560385706
Dispersion correction            ... done
Dispersion correction           -0.030879094
FINAL SINGLE POINT ENERGY     -1288.395570288651
Dispersion correction            ... done
Dispersion correction           -0.030877292
FINAL SINGLE POINT ENERGY     -1288.395576462877
Dispersion correction            ... done
                    ***********************HURRAY********************

CARTESIAN COORDINATES (ANGSTROEM)
---------------------------------
  Ir     0.575083   -0.731990    0.477179
  C      0.018063   -2.810059    0.350198
  C      0.105656   -2.367361    1.721181
  C      2.187156   -2.147255    0.764247
  C      1.280647   -2.645953   -0.245851
  C      1.475606   -2.015715    1.968808
  N     -1.043440    0.169882   -0.514475
  C     -2.317778    0.505301    0.140463
  C     -3.136516    1.539934   -0.614317
  H     -3.971261    1.851933    0.011772
  H     -3.569371    1.149405   -1.536770
  H     -2.556168    2.433276   -0.847390
  C     -3.116481   -0.767903    0.390650
  H     -2.029190    0.929932    1.103574
  H     -4.033296   -0.523937    0.925129
  H     -3.396541   -1.250887   -0.546498
  H     -2.568638   -1.483630    1.001976
  C     -0.829980    0.376088   -1.756144
  C      0.523358    0.156218   -2.221505
  H     -1.606202    0.735222   -2.426014
  C      1.630450    0.539125   -1.474602
  C      2.830915    0.126983   -2.121433
  S      0.940808   -0.632642   -3.679914
  C      2.611754   -0.505428   -3.305003
  H      1.544012    1.406668   -0.666181
  H      3.819889    0.342390   -1.743669
  H      3.345332   -0.888084   -3.998493
  H     -0.874627   -3.166098   -0.143691
  H     -0.681000   -2.403862    2.460592
  H      1.867409   -1.631559    2.899649
  O      1.315353    2.442398    0.269332
  O      0.535695    0.901467    1.682036
  C      0.911964    2.099554    1.378309
  C      0.856166    3.077911    2.517604
  H      0.815933    4.098137    2.145887
  H      1.761925    2.976830    3.118759
  H      0.010391    2.886103    3.174602
  H      3.231147   -1.914567    0.614849
  H      1.535148   -2.858637   -1.274106

 Multiplicity           Mult            ....    1
 Number of Electrons    NEL             ....  164
 Basis Dimension        Dim             ....  358

ORBITAL ENERGIES
----------------

  NO   OCC          E(Eh)            E(eV)
   0   2.0000     -89.759330     -2442.4755
   1   2.0000     -19.623682      -533.9875
   2   2.0000     -19.586065      -532.9639
   3   2.0000     -14.841210      -403.8499
   4   2.0000     -10.680480      -290.6306
   5   2.0000     -10.662217      -290.1337
   6   2.0000     -10.639133      -289.5055
   7   2.0000     -10.636697      -289.4393
   8   2.0000     -10.635217      -289.3990
   9   2.0000     -10.634064      -289.3676
  10   2.0000     -10.632737      -289.3315
  11   2.0000     -10.630202      -289.2625
  12   2.0000     -10.616740      -288.8962
  13   2.0000     -10.608334      -288.6674
  14   2.0000     -10.581354      -287.9333
  15   2.0000     -10.579521      -287.8834
  16   2.0000     -10.557570      -287.2861
  17   2.0000     -10.552479      -287.1475
  18   2.0000     -10.532335      -286.5994
  19   2.0000      -8.398634      -228.5384
  20   2.0000      -6.288738      -171.1253
  21   2.0000      -6.285100      -171.0263
  22   2.0000      -6.283317      -170.9777
  23   2.0000      -4.031854      -109.7123
  24   2.0000      -2.351296       -63.9820
  25   2.0000      -2.316814       -63.0437
  26   2.0000      -2.315208       -63.0000
  27   2.0000      -1.304623       -35.5006
  28   2.0000      -1.213504       -33.0211
  29   2.0000      -1.208225       -32.8775
  30   2.0000      -1.175722       -31.9930
  31   2.0000      -1.123999       -30.5856
  32   2.0000      -1.026866       -27.9424
  33   2.0000      -0.990610       -26.9559
  34   2.0000      -0.980675       -26.6855
  35   2.0000      -0.963620       -26.2214
  36   2.0000      -0.957751       -26.0617
  37   2.0000      -0.926397       -25.2085
  38   2.0000      -0.904020       -24.5996
  39   2.0000      -0.873047       -23.7568
  40   2.0000      -0.797102       -21.6902
  41   2.0000      -0.791500       -21.5378
  42   2.0000      -0.789697       -21.4887
  43   2.0000      -0.780229       -21.2311
  44   2.0000      -0.774129       -21.0651
  45   2.0000      -0.756304       -20.5801
  46   2.0000      -0.744439       -20.2572
  47   2.0000      -0.722382       -19.6570
  48   2.0000      -0.695043       -18.9131
  49   2.0000      -0.672951       -18.3119
  50   2.0000      -0.665367       -18.1056
  51   2.0000      -0.652154       -17.7460
  52   2.0000      -0.649228       -17.6664
  53   2.0000      -0.641374       -17.4527
  54   2.0000      -0.637512       -17.3476
  55   2.0000      -0.629681       -17.1345
  56   2.0000      -0.624205       -16.9855
  57   2.0000      -0.612165       -16.6579
  58   2.0000      -0.610907       -16.6236
  59   2.0000      -0.608868       -16.5681
  60   2.0000      -0.596375       -16.2282
  61   2.0000      -0.587349       -15.9826
  62   2.0000      -0.576095       -15.6763
  63   2.0000      -0.569956       -15.5093
  64   2.0000      -0.563306       -15.3283
  65   2.0000      -0.554487       -15.0884
  66   2.0000      -0.552754       -15.0412
  67   2.0000      -0.548559       -14.9271
  68   2.0000      -0.539332       -14.6760
  69   2.0000      -0.534559       -14.5461
  70   2.0000      -0.528109       -14.3706
  71   2.0000      -0.521947       -14.2029
  72   2.0000      -0.516321       -14.0498
  73   2.0000      -0.507905       -13.8208
  74   2.0000      -0.489709       -13.3256
  75   2.0000      -0.481114       -13.0918
  76   2.0000      -0.463651       -12.6166
  77   2.0000      -0.451292       -12.2803
  78   2.0000      -0.440775       -11.9941
  79   2.0000      -0.422914       -11.5081
  80   2.0000      -0.417187       -11.3522
  81   2.0000      -0.404243       -11.0000
  82   0.0000      -0.200707        -5.4615
  83   0.0000      -0.166276        -4.5246
  84   0.0000      -0.142129        -3.8675
  85   0.0000      -0.100975        -2.7477
  86   0.0000      -0.076784        -2.0894

MULLIKEN ATOMIC CHARGES
-----------------------
   0 Ir:    0.622174
   1 C :   -0.207553
   2 C :   -0.296725
   3 C :   -0.230326
   4 C :   -0.245190
   5 C :   -0.165847
   6 N :   -0.426793
   7 C :   -0.115525
   8 C :   -0.696248
   9 H :    0.273413
  10 H :    0.226468
  11 H :    0.260640
  12 C :   -0.640425
  13 H :    0.280909
  14 H :    0.265390
  15 H :    0.230957
  16 H :    0.233114
  17 C :    0.067008
  18 C :   -0.222948
  19 H :    0.292627
  20 C :   -0.397481
  21 C :   -0.145166
  22 S :    0.290771
  23 C :   -0.428032
  24 H :    0.497740
  25 H :    0.266318
  26 H :    0.296307
  27 H :    0.293241
  28 H :    0.294659
  29 H :    0.307580
  30 O :   -0.483755
  31 O :   -0.544268
  32 C :    0.613546
  33 C :   -0.746141
  34 H :    0.269026
  35 H :    0.265448
  36 H :    0.251912
  37 H :    0.296879
  38 H :    0.296296
Sum of atomic charges:    1.0000000

LOEWDIN ATOMIC CHARGES
----------------------
   0 Ir:   -0.208066
   1 C :   -0.038780
   2 C :   -0.054706
   3 C :   -0.045495
   4 C :   -0.054798
   5 C :   -0.026679
   6 N :   -0.008223
   7 C :   -0.068093
   8 C :   -0.365050
   9 H :    0.157771
  10 H :    0.134181
  11 H :    0.146898
  12 C :   -0.343497
  13 H :    0.156498
  14 H :    0.153341
  15 H :    0.137351
  16 H :    0.134510
  17 C :    0.037027
  18 C :   -0.191293
  19 H :    0.163131
  20 C :   -0.183353
  21 C :   -0.145796
  22 S :    0.455214
  23 C :   -0.262387
  24 H :    0.280942
  25 H :    0.161825
  26 H :    0.167323
  27 H :    0.186334
  28 H :    0.186845
  29 H :    0.194239
  30 O :   -0.277745
  31 O :   -0.210074
  32 C :    0.154081
  33 C :   -0.376863
  34 H :    0.159300
  35 H :    0.166521
  36 H :    0.152619
  37 H :    0.188519
  38 H :    0.186426

  Mayer bond orders larger than 0.100000
B(  0-Ir,  1-C ) :   0.4215 B(  0-Ir,  2-C ) :   0.5559 B(  0-Ir,  3-C ) :   0.4640
B(  0-Ir,  4-C ) :   0.4527 B(  0-Ir,  5-C ) :   0.4034 B(  0-Ir,  6-N ) :   0.4646
B(  0-Ir, 20-C ) :   0.2103 B(  0-Ir, 31-O ) :   0.5917 B(  1-C ,  2-C ) :   1.1120
B(  1-C ,  4-C ) :   1.2468 B(  1-C , 27-H ) :   0.9026 B(  2-C ,  5-C ) :   1.1287
B(  2-C , 28-H ) :   0.9061 B(  3-C ,  4-C ) :   1.1034 B(  3-C ,  5-C ) :   1.2358
B(  3-C , 37-H ) :   0.9022 B(  4-C , 38-H ) :   0.8972 B(  5-C , 29-H ) :   0.8975
B(  6-N ,  7-C ) :   0.8908 B(  6-N , 17-C ) :   1.6997 B(  7-C ,  8-C ) :   0.9928
B(  7-C , 12-C ) :   0.9697 B(  7-C , 13-H ) :   0.8713 B(  8-C ,  9-H ) :   0.9031
B(  8-C , 10-H ) :   0.9121 B(  8-C , 11-H ) :   0.9079 B( 12-C , 14-H ) :   0.9061
B( 12-C , 15-H ) :   0.9152 B( 12-C , 16-H ) :   0.9105 B( 17-C , 18-C ) :   1.0464
B( 17-C , 19-H ) :   0.8735 B( 18-C , 20-C ) :   1.3102 B( 18-C , 22-S ) :   1.2117
B( 20-C , 21-C ) :   1.2650 B( 20-C , 24-H ) :   0.5023 B( 21-C , 23-C ) :   1.5471
B( 21-C , 25-H ) :   0.9042 B( 22-S , 23-C ) :   1.2016 B( 23-C , 26-H ) :   0.8928
B( 24-H , 30-O ) :   0.2185 B( 30-O , 32-C ) :   1.7073 B( 31-O , 32-C ) :   1.2637
B( 32-C , 33-C ) :   0.9467 B( 33-C , 34-H ) :   0.9055 B( 33-C , 35-H ) :   0.8992
B( 33-C , 36-H ) :   0.9098

Dispersion correction           -0.030870659
FINAL SINGLE POINT ENERGY     -1288.395581935290

DIPOLE MOMENT
-------------
                                X             Y             Z
Electronic contribution:     33.69688     -68.23294      74.77181
Nuclear contribution   :    -34.33788      66.95197     -74.96911
                        -----------------------------------------
Total Dipole Moment    :     -0.64100      -1.28097      -0.19731
                        -----------------------------------------
Magnitude (a.u.)       :      1.44593
Magnitude (Debye)      :      3.67525

Rotational constants in cm-1:     0.010725     0.009055     0.008244
Rotational constants in MHz :   321.540541   271.460307   247.154393

                             ****ORCA TERMINATED NORMALLY****
TOTAL RUN TIME: 0 days 1 hours 16 minutes 47 seconds 589 msec
