                         Program Version 5.0.3 -  RELEASE  -
|  1> ! Opt PBEh-3c
|  2> %geom Constraints
|  3> { B 0 20 2.2142857142857144 C }
|  4> { B 24 30 1.5 C }
|  5>     end
|  6> end
|  7> %output
|  8> xyzfile=True
|  9> end
| 10> %scf
| 11> maxiter 250
| 12> end
| 13> %output
| 14> Print[P_Hirshfeld] = 1
| 15> end
| 16> % maxcore
| 17> 4000
| 18> *xyz 1 1
| 19> Ir   0.62418710  -0.70552926   0.41760779
| 20> C    0.08958354  -2.80776876   0.34124600
| 21> C    0.09383133  -2.34521581   1.70359091
| 22> C    2.22476831  -2.09972442   0.85175799
| 23> C    1.38375427  -2.64424584  -0.18889469
| 24> C    1.43249194  -1.94736801   2.00856751
| 25> N   -1.04567069   0.15610805  -0.52877619
| 26> C   -2.30739515   0.44969127   0.16768554
| 27> C   -3.09946760   1.58503072  -0.46179679
| 28> H   -3.91998440   1.85316496   0.20232233
| 29> H   -3.55049840   1.30955896  -1.41622914
| 30> H   -2.49008592   2.47796055  -0.60331000
| 31> C   -3.13549789  -0.82577887   0.27386208
| 32> H   -2.00567742   0.75321737   1.17106670
| 33> H   -4.03790075  -0.62955851   0.85099272
| 34> H   -3.44017739  -1.18333153  -0.71053656
| 35> H   -2.59276030  -1.62347511   0.77884773
| 36> C   -0.87978415   0.39132624  -1.77453261
| 37> C    0.45802031   0.17536408  -2.26540655
| 38> H   -1.67545611   0.76697545  -2.41053391
| 39> C    1.53382883   0.30360249  -1.38486246
| 40> C    2.74920828  -0.06152685  -2.04055893
| 41> S    0.91443035  -0.36908055  -3.80533418
| 42> C    2.56470260  -0.44267769  -3.33170480
| 43> H    1.52206504   1.24841204  -0.66554716
| 44> H    3.72431496   0.01044175  -1.58121337
| 45> H    3.31288875  -0.74055848  -4.05055509
| 46> H   -0.76574286  -3.19446145  -0.19399009
| 47> H   -0.73266567  -2.37549066   2.39763664
| 48> H    1.76259817  -1.52703720   2.94784911
| 49> O    1.36624758   2.46192576   0.20226929
| 50> O    0.53926000   0.94903243   1.61407944
| 51> C    0.93418642   2.13622570   1.30728328
| 52> C    0.86545005   3.13315314   2.43052400
| 53> H    0.83538507   4.14828537   2.04426794
| 54> H    1.76198677   3.03617675   3.04585945
| 55> H    0.00887273   2.95349516   3.07670616
| 56> H    3.27865782  -1.88042553   0.77156770
| 57> H    1.69741451  -2.89670378  -1.19106769
| 58> *
| 59>
| 60>                          ****END OF INPUT****
 Total Charge           Charge          ....    1
 Multiplicity           Mult            ....    1
 Number of Electrons    NEL             ....  164
Dispersion correction           -0.031086503
FINAL SINGLE POINT ENERGY     -1288.399886408077
Dispersion correction            ... done
Dispersion correction           -0.031036851
FINAL SINGLE POINT ENERGY     -1288.399994564895
Dispersion correction            ... done
Dispersion correction           -0.031085115
FINAL SINGLE POINT ENERGY     -1288.399320137225
Dispersion correction            ... done
FINAL SINGLE POINT ENERGY     -1288.400120648474
FINAL SINGLE POINT ENERGY     -1288.400135546298
FINAL SINGLE POINT ENERGY     -1288.400158155691
FINAL SINGLE POINT ENERGY     -1288.400162463897
FINAL SINGLE POINT ENERGY     -1288.400165135740
FINAL SINGLE POINT ENERGY     -1288.400172122746
FINAL SINGLE POINT ENERGY     -1288.400178330613
Dispersion correction            ... done
Dispersion correction           -0.030972854
FINAL SINGLE POINT ENERGY     -1288.400184262824
Dispersion correction            ... done
Dispersion correction           -0.030970008
FINAL SINGLE POINT ENERGY     -1288.400187278317
Dispersion correction            ... done
                    ***********************HURRAY********************

CARTESIAN COORDINATES (ANGSTROEM)
---------------------------------
  Ir     0.629101   -0.707188    0.414843
  C      0.103077   -2.814777    0.338661
  C      0.074491   -2.352723    1.700249
  C      2.223559   -2.094961    0.895246
  C      1.409266   -2.647673   -0.161282
  C      1.401125   -1.944106    2.032869
  N     -1.045309    0.149302   -0.527530
  C     -2.305379    0.433308    0.175888
  C     -3.092588    1.586909   -0.426601
  H     -3.911329    1.843449    0.244227
  H     -3.545393    1.335355   -1.386682
  H     -2.478859    2.479725   -0.548389
  C     -3.139916   -0.840277    0.252396
  H     -2.002443    0.712357    1.185930
  H     -4.039040   -0.655088    0.838281
  H     -3.450274   -1.170197   -0.739846
  H     -2.598788   -1.653959    0.732976
  C     -0.886802    0.395998   -1.772869
  C      0.446585    0.184627   -2.272048
  H     -1.686726    0.777864   -2.399572
  C      1.514856    0.252001   -1.373579
  C      2.732577   -0.090403   -2.039375
  S      0.910252   -0.281500   -3.833603
  C      2.555222   -0.398700   -3.350887
  H      1.522460    1.215597   -0.664979
  H      3.704780   -0.053930   -1.569797
  H      3.306674   -0.665541   -4.078429
  H     -0.737115   -3.208513   -0.215055
  H     -0.767347   -2.385844    2.375338
  H      1.706908   -1.518859    2.978225
  O      1.394342    2.448649    0.179514
  O      0.544762    0.958497    1.601114
  C      0.950331    2.137910    1.285504
  C      0.880352    3.150293    2.394641
  H      0.851357    4.160265    1.994991
  H      1.776322    3.061123    3.011932
  H      0.022790    2.979167    3.041701
  H      3.279210   -1.876520    0.842005
  H      1.746283   -2.902449   -1.155266

 Multiplicity           Mult            ....    1
 Number of Electrons    NEL             ....  164
 Basis Dimension        Dim             ....  358

ORBITAL ENERGIES
----------------

  NO   OCC          E(Eh)            E(eV)
   0   2.0000     -89.770426     -2442.7775
   1   2.0000     -19.621804      -533.9364
   2   2.0000     -19.592291      -533.1333
   3   2.0000     -14.840861      -403.8404
   4   2.0000     -10.679323      -290.5992
   5   2.0000     -10.661145      -290.1045
   6   2.0000     -10.637017      -289.4479
   7   2.0000     -10.631217      -289.2901
   8   2.0000     -10.629940      -289.2554
   9   2.0000     -10.626015      -289.1486
  10   2.0000     -10.623350      -289.0760
  11   2.0000     -10.622229      -289.0455
  12   2.0000     -10.614853      -288.8448
  13   2.0000     -10.614154      -288.8258
  14   2.0000     -10.592324      -288.2318
  15   2.0000     -10.589449      -288.1536
  16   2.0000     -10.556032      -287.2442
  17   2.0000     -10.551500      -287.1209
  18   2.0000     -10.533175      -286.6223
  19   2.0000      -8.409800      -228.8423
  20   2.0000      -6.299701      -171.4236
  21   2.0000      -6.296074      -171.3249
  22   2.0000      -6.294786      -171.2898
  23   2.0000      -4.024795      -109.5202
  24   2.0000      -2.342894       -63.7534
  25   2.0000      -2.310066       -62.8601
  26   2.0000      -2.308540       -62.8186
  27   2.0000      -1.304714       -35.5031
  28   2.0000      -1.213747       -33.0277
  29   2.0000      -1.206898       -32.8414
  30   2.0000      -1.166896       -31.7529
  31   2.0000      -1.132918       -30.8283
  32   2.0000      -1.028210       -27.9790
  33   2.0000      -0.980413       -26.6784
  34   2.0000      -0.973977       -26.5033
  35   2.0000      -0.971915       -26.4472
  36   2.0000      -0.963680       -26.2231
  37   2.0000      -0.926261       -25.2049
  38   2.0000      -0.902345       -24.5541
  39   2.0000      -0.876512       -23.8511
  40   2.0000      -0.801617       -21.8131
  41   2.0000      -0.785897       -21.3853
  42   2.0000      -0.782990       -21.3063
  43   2.0000      -0.781642       -21.2696
  44   2.0000      -0.767427       -20.8828
  45   2.0000      -0.754787       -20.5388
  46   2.0000      -0.743099       -20.2207
  47   2.0000      -0.724642       -19.7185
  48   2.0000      -0.691964       -18.8293
  49   2.0000      -0.674987       -18.3673
  50   2.0000      -0.665657       -18.1135
  51   2.0000      -0.649501       -17.6738
  52   2.0000      -0.645602       -17.5677
  53   2.0000      -0.636327       -17.3153
  54   2.0000      -0.633488       -17.2381
  55   2.0000      -0.627960       -17.0877
  56   2.0000      -0.622786       -16.9469
  57   2.0000      -0.614667       -16.7260
  58   2.0000      -0.603156       -16.4127
  59   2.0000      -0.602713       -16.4006
  60   2.0000      -0.601616       -16.3708
  61   2.0000      -0.592752       -16.1296
  62   2.0000      -0.582659       -15.8550
  63   2.0000      -0.574970       -15.6457
  64   2.0000      -0.564802       -15.3690
  65   2.0000      -0.556259       -15.1366
  66   2.0000      -0.551632       -15.0107
  67   2.0000      -0.548378       -14.9221
  68   2.0000      -0.541112       -14.7244
  69   2.0000      -0.536578       -14.6010
  70   2.0000      -0.528124       -14.3710
  71   2.0000      -0.519285       -14.1305
  72   2.0000      -0.515262       -14.0210
  73   2.0000      -0.499985       -13.6053
  74   2.0000      -0.486774       -13.2458
  75   2.0000      -0.482229       -13.1221
  76   2.0000      -0.476720       -12.9722
  77   2.0000      -0.444287       -12.0897
  78   2.0000      -0.442728       -12.0472
  79   2.0000      -0.424839       -11.5605
  80   2.0000      -0.416089       -11.3224
  81   2.0000      -0.398799       -10.8519
  82   0.0000      -0.209186        -5.6922
  83   0.0000      -0.148048        -4.0286
  84   0.0000      -0.141903        -3.8614
  85   0.0000      -0.095485        -2.5983
  86   0.0000      -0.077979        -2.1219

MULLIKEN ATOMIC CHARGES
-----------------------
   0 Ir:    0.604909
   1 C :   -0.217783
   2 C :   -0.272346
   3 C :   -0.251260
   4 C :   -0.242332
   5 C :   -0.160335
   6 N :   -0.423862
   7 C :   -0.127168
   8 C :   -0.686569
   9 H :    0.270975
  10 H :    0.223858
  11 H :    0.260338
  12 C :   -0.635276
  13 H :    0.284388
  14 H :    0.262684
  15 H :    0.230928
  16 H :    0.232922
  17 C :    0.073016
  18 C :   -0.142212
  19 H :    0.290437
  20 C :   -0.537018
  21 C :   -0.100435
  22 S :    0.331291
  23 C :   -0.434734
  24 H :    0.485005
  25 H :    0.269455
  26 H :    0.299946
  27 H :    0.287743
  28 H :    0.287671
  29 H :    0.303817
  30 O :   -0.469501
  31 O :   -0.534517
  32 C :    0.613910
  33 C :   -0.743796
  34 H :    0.268694
  35 H :    0.266300
  36 H :    0.252558
  37 H :    0.286586
  38 H :    0.291714
Sum of atomic charges:    1.0000000

LOEWDIN ATOMIC CHARGES
----------------------
   0 Ir:   -0.248379
   1 C :   -0.044695
   2 C :   -0.081782
   3 C :   -0.072355
   4 C :   -0.056004
   5 C :   -0.017813
   6 N :    0.003103
   7 C :   -0.070265
   8 C :   -0.363221
   9 H :    0.157083
  10 H :    0.132818
  11 H :    0.146632
  12 C :   -0.343313
  13 H :    0.157545
  14 H :    0.152502
  15 H :    0.137137
  16 H :    0.133799
  17 C :    0.030896
  18 C :   -0.168721
  19 H :    0.162886
  20 C :   -0.207429
  21 C :   -0.119648
  22 S :    0.496442
  23 C :   -0.262938
  24 H :    0.308588
  25 H :    0.164436
  26 H :    0.169694
  27 H :    0.183081
  28 H :    0.183086
  29 H :    0.191859
  30 O :   -0.270239
  31 O :   -0.205369
  32 C :    0.149187
  33 C :   -0.375637
  34 H :    0.159272
  35 H :    0.166957
  36 H :    0.152990
  37 H :    0.183680
  38 H :    0.184133

  Mayer bond orders larger than 0.100000
B(  0-Ir,  1-C ) :   0.4155 B(  0-Ir,  2-C ) :   0.4665 B(  0-Ir,  3-C ) :   0.4618
B(  0-Ir,  4-C ) :   0.4389 B(  0-Ir,  5-C ) :   0.3937 B(  0-Ir,  6-N ) :   0.4609
B(  0-Ir, 20-C ) :   0.3685 B(  0-Ir, 31-O ) :   0.5692 B(  1-C ,  2-C ) :   1.1295
B(  1-C ,  4-C ) :   1.2438 B(  1-C , 27-H ) :   0.9053 B(  2-C ,  5-C ) :   1.1606
B(  2-C , 28-H ) :   0.9094 B(  3-C ,  4-C ) :   1.1132 B(  3-C ,  5-C ) :   1.2154
B(  3-C , 37-H ) :   0.9093 B(  4-C , 38-H ) :   0.9007 B(  5-C , 29-H ) :   0.8988
B(  6-N ,  7-C ) :   0.8926 B(  6-N , 17-C ) :   1.6732 B(  7-C ,  8-C ) :   0.9908
B(  7-C , 12-C ) :   0.9671 B(  7-C , 13-H ) :   0.8717 B(  8-C ,  9-H ) :   0.9041
B(  8-C , 10-H ) :   0.9132 B(  8-C , 11-H ) :   0.9089 B( 12-C , 14-H ) :   0.9068
B( 12-C , 15-H ) :   0.9156 B( 12-C , 16-H ) :   0.9120 B( 17-C , 18-C ) :   1.0779
B( 17-C , 19-H ) :   0.8754 B( 18-C , 20-C ) :   1.2419 B( 18-C , 22-S ) :   1.2630
B( 20-C , 21-C ) :   1.2479 B( 20-C , 24-H ) :   0.4597 B( 21-C , 23-C ) :   1.5588
B( 21-C , 25-H ) :   0.9026 B( 22-S , 23-C ) :   1.1991 B( 23-C , 26-H ) :   0.8910
B( 24-H , 30-O ) :   0.2583 B( 30-O , 32-C ) :   1.6895 B( 31-O , 32-C ) :   1.2870
B( 32-C , 33-C ) :   0.9437 B( 33-C , 34-H ) :   0.9052 B( 33-C , 35-H ) :   0.8989
B( 33-C , 36-H ) :   0.9096

Dispersion correction           -0.030967389
FINAL SINGLE POINT ENERGY     -1288.400190702528

DIPOLE MOMENT
-------------
                                X             Y             Z
Electronic contribution:     39.24055     -68.05972      69.83027
Nuclear contribution   :    -39.86755      66.98099     -70.32288
                        -----------------------------------------
Total Dipole Moment    :     -0.62700      -1.07873      -0.49261
                        -----------------------------------------
Magnitude (a.u.)       :      1.34143
Magnitude (Debye)      :      3.40965

Rotational constants in cm-1:     0.010641     0.009180     0.008232
Rotational constants in MHz :   318.994501   275.211441   246.785721

                             ****ORCA TERMINATED NORMALLY****
TOTAL RUN TIME: 0 days 1 hours 40 minutes 8 seconds 866 msec
