                         Program Version 5.0.3 -  RELEASE  -
|  1> ! Opt PBEh-3c
|  2> %geom Constraints
|  3> { B 0 20 2.428571428571429 C }
|  4> { B 24 30 1.4857142857142858 C }
|  5>     end
|  6> end
|  7> %output
|  8> xyzfile=True
|  9> end
| 10> %scf
| 11> maxiter 250
| 12> end
| 13> %output
| 14> Print[P_Hirshfeld] = 1
| 15> end
| 16> % maxcore
| 17> 4000
| 18> *xyz 1 1
| 19> Ir   0.59747421  -0.71605688   0.43184329
| 20> C    0.04092737  -2.79954174   0.33019404
| 21> C    0.13325026  -2.34590961   1.69676186
| 22> C    2.21039830  -2.12926561   0.72760119
| 23> C    1.30129262  -2.64159105  -0.27286473
| 24> C    1.50188481  -1.98659045   1.93352759
| 25> N   -1.04520585   0.18293562  -0.52713628
| 26> C   -2.30991768   0.52123954   0.14259761
| 27> C   -3.13458103   1.55723434  -0.60334460
| 28> H   -3.96351819   1.86915722   0.03045469
| 29> H   -3.57594182   1.16792229  -1.52237026
| 30> H   -2.55553894   2.45051319  -0.83995346
| 31> C   -3.10662799  -0.75158066   0.40127918
| 32> H   -2.00822317   0.94411129   1.10230157
| 33> H   -4.01466273  -0.50731565   0.95037831
| 34> H   -3.40174569  -1.23162799  -0.53272642
| 35> H   -2.55001668  -1.46944205   1.00200413
| 36> C   -0.84013819   0.39155253  -1.76858060
| 37> C    0.51294158   0.14843749  -2.22676725
| 38> H   -1.61121508   0.76353549  -2.43696719
| 39> C    1.61663548   0.50578089  -1.45928917
| 40> C    2.82069323   0.06822353  -2.08569305
| 41> S    0.93763887  -0.66332638  -3.66555857
| 42> C    2.60685443  -0.56826984  -3.26648097
| 43> H    1.54556400   1.38146198  -0.70120861
| 44> H    3.80682006   0.26950931  -1.69317492
| 45> H    3.34206239  -0.97062374  -3.94685744
| 46> H   -0.85300110  -3.16233014  -0.15649398
| 47> H   -0.64986160  -2.37640850   2.44004778
| 48> H    1.89604277  -1.59017308   2.85823874
| 49> O    1.27620482   2.48671610   0.27647179
| 50> O    0.53566337   0.89961637   1.65907932
| 51> C    0.88630894   2.11388382   1.37688076
| 52> C    0.81002835   3.06293542   2.54133750
| 53> H    0.75704791   4.09126431   2.19427748
| 54> H    1.71319657   2.96015755   3.14596357
| 55> H   -0.03684943   2.84403546   3.18857301
| 56> H    3.25470771  -1.90095685   0.57468989
| 57> H    1.55277713  -2.87002356  -1.29829575
| 58> *
| 59>
| 60>                          ****END OF INPUT****
 Total Charge           Charge          ....    1
 Multiplicity           Mult            ....    1
 Number of Electrons    NEL             ....  164
Dispersion correction           -0.031096574
FINAL SINGLE POINT ENERGY     -1288.399641985048
Dispersion correction            ... done
Dispersion correction           -0.031082186
FINAL SINGLE POINT ENERGY     -1288.398778896502
Dispersion correction            ... done
Dispersion correction           -0.031026771
FINAL SINGLE POINT ENERGY     -1288.399749095960
Dispersion correction            ... done
FINAL SINGLE POINT ENERGY     -1288.398820928952
FINAL SINGLE POINT ENERGY     -1288.399809007741
FINAL SINGLE POINT ENERGY     -1288.399813045584
FINAL SINGLE POINT ENERGY     -1288.399839588467
FINAL SINGLE POINT ENERGY     -1288.399846782168
FINAL SINGLE POINT ENERGY     -1288.399856925706
Dispersion correction            ... done
Dispersion correction           -0.030972074
FINAL SINGLE POINT ENERGY     -1288.399868411473
Dispersion correction            ... done
Dispersion correction           -0.030970107
FINAL SINGLE POINT ENERGY     -1288.399869086451
Dispersion correction            ... done
                    ***********************HURRAY********************

CARTESIAN COORDINATES (ANGSTROEM)
---------------------------------
  Ir     0.601816   -0.713105    0.435964
  C      0.050673   -2.799618    0.338877
  C      0.126044   -2.344257    1.704948
  C      2.214055   -2.121742    0.757632
  C      1.317411   -2.639799   -0.251110
  C      1.489653   -1.977210    1.954681
  N     -1.046284    0.172294   -0.525897
  C     -2.312570    0.498016    0.147745
  C     -3.122650    1.567779   -0.566459
  H     -3.948853    1.870421    0.075446
  H     -3.567515    1.214578   -1.498214
  H     -2.530392    2.459614   -0.773660
  C     -3.121102   -0.776770    0.355904
  H     -2.014257    0.884344    1.123626
  H     -4.030370   -0.545638    0.908685
  H     -3.414023   -1.220573   -0.596490
  H     -2.572568   -1.520330    0.932391
  C     -0.852343    0.381176   -1.769973
  C      0.497300    0.150792   -2.237601
  H     -1.632931    0.745161   -2.431668
  C      1.595057    0.464428   -1.441494
  C      2.802632    0.046733   -2.074167
  S      0.931105   -0.603372   -3.702240
  C      2.596392   -0.537359   -3.283540
  H      1.531667    1.355015   -0.685010
  H      3.786327    0.224731   -1.664652
  H      3.335284   -0.914454   -3.974327
  H     -0.836107   -3.166534   -0.157727
  H     -0.665725   -2.374599    2.438875
  H      1.872027   -1.576469    2.882489
  O      1.300337    2.478763    0.258929
  O      0.534756    0.914746    1.653062
  C      0.900268    2.120408    1.362316
  C      0.833173    3.083639    2.515124
  H      0.789964    4.108545    2.156895
  H      1.735615    2.978693    3.120525
  H     -0.015565    2.879419    3.164638
  H      3.260605   -1.895150    0.618676
  H      1.580459   -2.873127   -1.272459

 Multiplicity           Mult            ....    1
 Number of Electrons    NEL             ....  164
 Basis Dimension        Dim             ....  358

ORBITAL ENERGIES
----------------

  NO   OCC          E(Eh)            E(eV)
   0   2.0000     -89.765707     -2442.6491
   1   2.0000     -19.619906      -533.8848
   2   2.0000     -19.582560      -532.8685
   3   2.0000     -14.842514      -403.8853
   4   2.0000     -10.675995      -290.5086
   5   2.0000     -10.663510      -290.1689
   6   2.0000     -10.637366      -289.4574
   7   2.0000     -10.636687      -289.4390
   8   2.0000     -10.633751      -289.3591
   9   2.0000     -10.632698      -289.3304
  10   2.0000     -10.631054      -289.2857
  11   2.0000     -10.630452      -289.2693
  12   2.0000     -10.616415      -288.8874
  13   2.0000     -10.612254      -288.7741
  14   2.0000     -10.587411      -288.0981
  15   2.0000     -10.585635      -288.0498
  16   2.0000     -10.557458      -287.2830
  17   2.0000     -10.552343      -287.1438
  18   2.0000     -10.530165      -286.5404
  19   2.0000      -8.405024      -228.7123
  20   2.0000      -6.295076      -171.2977
  21   2.0000      -6.291414      -171.1981
  22   2.0000      -6.289796      -171.1540
  23   2.0000      -4.029734      -109.6546
  24   2.0000      -2.348669       -63.9105
  25   2.0000      -2.314670       -62.9854
  26   2.0000      -2.313407       -62.9510
  27   2.0000      -1.299934       -35.3730
  28   2.0000      -1.215321       -33.0706
  29   2.0000      -1.203450       -32.7475
  30   2.0000      -1.173174       -31.9237
  31   2.0000      -1.129907       -30.7463
  32   2.0000      -1.028521       -27.9875
  33   2.0000      -0.987849       -26.8807
  34   2.0000      -0.978323       -26.6215
  35   2.0000      -0.968677       -26.3590
  36   2.0000      -0.962484       -26.1905
  37   2.0000      -0.923304       -25.1244
  38   2.0000      -0.903882       -24.5959
  39   2.0000      -0.875717       -23.8295
  40   2.0000      -0.799482       -21.7550
  41   2.0000      -0.789230       -21.4760
  42   2.0000      -0.787792       -21.4369
  43   2.0000      -0.783185       -21.3115
  44   2.0000      -0.773020       -21.0349
  45   2.0000      -0.754909       -20.5421
  46   2.0000      -0.743751       -20.2385
  47   2.0000      -0.723770       -19.6948
  48   2.0000      -0.694433       -18.8965
  49   2.0000      -0.671612       -18.2755
  50   2.0000      -0.665611       -18.1122
  51   2.0000      -0.651671       -17.7329
  52   2.0000      -0.646799       -17.6003
  53   2.0000      -0.640373       -17.4254
  54   2.0000      -0.634888       -17.2762
  55   2.0000      -0.626613       -17.0510
  56   2.0000      -0.623551       -16.9677
  57   2.0000      -0.613331       -16.6896
  58   2.0000      -0.608822       -16.5669
  59   2.0000      -0.608056       -16.5460
  60   2.0000      -0.599220       -16.3056
  61   2.0000      -0.590325       -16.0636
  62   2.0000      -0.580383       -15.7930
  63   2.0000      -0.574019       -15.6199
  64   2.0000      -0.564816       -15.3694
  65   2.0000      -0.553448       -15.0601
  66   2.0000      -0.552515       -15.0347
  67   2.0000      -0.548562       -14.9271
  68   2.0000      -0.539362       -14.6768
  69   2.0000      -0.535939       -14.5837
  70   2.0000      -0.528055       -14.3691
  71   2.0000      -0.521202       -14.1826
  72   2.0000      -0.516292       -14.0490
  73   2.0000      -0.504858       -13.7379
  74   2.0000      -0.487047       -13.2532
  75   2.0000      -0.481605       -13.1051
  76   2.0000      -0.468356       -12.7446
  77   2.0000      -0.447797       -12.1852
  78   2.0000      -0.440497       -11.9865
  79   2.0000      -0.425298       -11.5729
  80   2.0000      -0.416828       -11.3425
  81   2.0000      -0.404003       -10.9935
  82   0.0000      -0.202470        -5.5095
  83   0.0000      -0.162711        -4.4276
  84   0.0000      -0.142242        -3.8706
  85   0.0000      -0.102339        -2.7848
  86   0.0000      -0.077828        -2.1178

MULLIKEN ATOMIC CHARGES
-----------------------
   0 Ir:    0.613770
   1 C :   -0.209146
   2 C :   -0.290039
   3 C :   -0.235207
   4 C :   -0.247343
   5 C :   -0.163884
   6 N :   -0.421913
   7 C :   -0.119492
   8 C :   -0.693859
   9 H :    0.273065
  10 H :    0.225271
  11 H :    0.261583
  12 C :   -0.638882
  13 H :    0.282987
  14 H :    0.265013
  15 H :    0.230711
  16 H :    0.233183
  17 C :    0.070304
  18 C :   -0.195494
  19 H :    0.293416
  20 C :   -0.448549
  21 C :   -0.125203
  22 S :    0.303448
  23 C :   -0.432779
  24 H :    0.496258
  25 H :    0.269320
  26 H :    0.298669
  27 H :    0.291554
  28 H :    0.292820
  29 H :    0.307020
  30 O :   -0.474878
  31 O :   -0.544595
  32 C :    0.609143
  33 C :   -0.745167
  34 H :    0.267884
  35 H :    0.264033
  36 H :    0.250312
  37 H :    0.293135
  38 H :    0.293530
Sum of atomic charges:    1.0000000

LOEWDIN ATOMIC CHARGES
----------------------
   0 Ir:   -0.223918
   1 C :   -0.039156
   2 C :   -0.062270
   3 C :   -0.052473
   4 C :   -0.058045
   5 C :   -0.023413
   6 N :   -0.001225
   7 C :   -0.068913
   8 C :   -0.364626
   9 H :    0.157786
  10 H :    0.133604
  11 H :    0.147353
  12 C :   -0.343314
  13 H :    0.157467
  14 H :    0.153346
  15 H :    0.137177
  16 H :    0.134405
  17 C :    0.035105
  18 C :   -0.177184
  19 H :    0.163811
  20 C :   -0.185955
  21 C :   -0.134216
  22 S :    0.471134
  23 C :   -0.263761
  24 H :    0.279984
  25 H :    0.163791
  26 H :    0.168551
  27 H :    0.185278
  28 H :    0.186008
  29 H :    0.193866
  30 O :   -0.276048
  31 O :   -0.212618
  32 C :    0.148272
  33 C :   -0.377464
  34 H :    0.158546
  35 H :    0.165547
  36 H :    0.151776
  37 H :    0.186778
  38 H :    0.185012

  Mayer bond orders larger than 0.100000
B(  0-Ir,  1-C ) :   0.4175 B(  0-Ir,  2-C ) :   0.5291 B(  0-Ir,  3-C ) :   0.4633
B(  0-Ir,  4-C ) :   0.4476 B(  0-Ir,  5-C ) :   0.4008 B(  0-Ir,  6-N ) :   0.4599
B(  0-Ir, 20-C ) :   0.2521 B(  0-Ir, 31-O ) :   0.5920 B(  1-C ,  2-C ) :   1.1182
B(  1-C ,  4-C ) :   1.2477 B(  1-C , 27-H ) :   0.9033 B(  2-C ,  5-C ) :   1.1367
B(  2-C , 28-H ) :   0.9073 B(  3-C ,  4-C ) :   1.1049 B(  3-C ,  5-C ) :   1.2320
B(  3-C , 37-H ) :   0.9044 B(  4-C , 38-H ) :   0.8990 B(  5-C , 29-H ) :   0.8976
B(  6-N ,  7-C ) :   0.8912 B(  6-N , 17-C ) :   1.6987 B(  7-C ,  8-C ) :   0.9921
B(  7-C , 12-C ) :   0.9689 B(  7-C , 13-H ) :   0.8706 B(  8-C ,  9-H ) :   0.9033
B(  8-C , 10-H ) :   0.9125 B(  8-C , 11-H ) :   0.9077 B( 12-C , 14-H ) :   0.9062
B( 12-C , 15-H ) :   0.9153 B( 12-C , 16-H ) :   0.9111 B( 17-C , 18-C ) :   1.0466
B( 17-C , 19-H ) :   0.8738 B( 18-C , 20-C ) :   1.2903 B( 18-C , 22-S ) :   1.2349
B( 20-C , 21-C ) :   1.2530 B( 20-C , 24-H ) :   0.5048 B( 21-C , 23-C ) :   1.5529
B( 21-C , 25-H ) :   0.9032 B( 22-S , 23-C ) :   1.1985 B( 23-C , 26-H ) :   0.8918
B( 24-H , 30-O ) :   0.2243 B( 30-O , 32-C ) :   1.7244 B( 31-O , 32-C ) :   1.2569
B( 32-C , 33-C ) :   0.9450 B( 33-C , 34-H ) :   0.9061 B( 33-C , 35-H ) :   0.9002
B( 33-C , 36-H ) :   0.9104

Dispersion correction           -0.030968307
FINAL SINGLE POINT ENERGY     -1288.399870052194

DIPOLE MOMENT
-------------
                                X             Y             Z
Electronic contribution:     36.46193     -66.73282      70.89655
Nuclear contribution   :    -37.09495      65.42371     -71.27162
                        -----------------------------------------
Total Dipole Moment    :     -0.63302      -1.30912      -0.37507
                        -----------------------------------------
Magnitude (a.u.)       :      1.50173
Magnitude (Debye)      :      3.81708

Rotational constants in cm-1:     0.010792     0.009145     0.008278
Rotational constants in MHz :   323.541759   274.147243   248.180158

                             ****ORCA TERMINATED NORMALLY****
TOTAL RUN TIME: 0 days 1 hours 32 minutes 45 seconds 266 msec
