                         Program Version 5.0.3 -  RELEASE  -
|  1> ! Opt PBEh-3c
|  2> %geom Constraints
|  3> { B 0 20 2.4714285714285715 C }
|  4> { B 24 30 1.3571428571428572 C }
|  5>     end
|  6> end
|  7> %output
|  8> xyzfile=True
|  9> end
| 10> %scf
| 11> maxiter 250
| 12> end
| 13> %output
| 14> Print[P_Hirshfeld] = 1
| 15> end
| 16> % maxcore
| 17> 4000
| 18> *xyz 1 1
| 19> Ir   0.57712257  -0.73326712   0.49355335
| 20> C    0.01956469  -2.81148951   0.37327881
| 21> C    0.08138607  -2.36498678   1.74310211
| 22> C    2.18191405  -2.14861363   0.82297290
| 23> C    1.29350815  -2.65111207  -0.20104558
| 24> C    1.44560526  -2.00963050   2.01262610
| 25> N   -1.04093794   0.15196745  -0.51109662
| 26> C   -2.32042018   0.46773392   0.14539544
| 27> C   -3.12309119   1.54296360  -0.56995426
| 28> H   -3.95617474   1.84078042   0.06531206
| 29> H   -3.55811641   1.19705829  -1.50894596
| 30> H   -2.52895928   2.43624182  -0.76501130
| 31> C   -3.13213499  -0.80863687   0.32999161
| 32> H   -2.04053183   0.84725264   1.12961173
| 33> H   -4.05387112  -0.58146411   0.86355608
| 34> H   -3.40347354  -1.24813664  -0.63078795
| 35> H   -2.59654821  -1.55482516   0.91509062
| 36> C   -0.83999209   0.36426774  -1.75562360
| 37> C    0.50673199   0.17066228  -2.23901475
| 38> H   -1.63054430   0.71236797  -2.41447981
| 39> C    1.61043718   0.47722789  -1.45287810
| 40> C    2.81163302   0.10294088  -2.11832886
| 41> S    0.92902361  -0.50160439  -3.75163353
| 42> C    2.59603768  -0.42722093  -3.35313502
| 43> H    1.53857574   1.37090926  -0.62516137
| 44> H    3.80007528   0.27335667  -1.71689268
| 45> H    3.33159477  -0.76018978  -4.06983107
| 46> H   -0.86319898  -3.16967681  -0.13666604
| 47> H   -0.71911719  -2.39821730   2.46745846
| 48> H    1.82008070  -1.62084745   2.94868838
| 49> O    1.36954665   2.41598570   0.24665326
| 50> O    0.53567287   0.92235695   1.67785915
| 51> C    0.94156697   2.10165351   1.35972738
| 52> C    0.89740108   3.10939034   2.47215442
| 53> H    0.85747190   4.12014601   2.07534852
| 54> H    1.80885400   3.02089000   3.06675129
| 55> H    0.05674952   2.93555877   3.14024458
| 56> H    3.22992564  -1.92185978   0.69493240
| 57> H    1.56600263  -2.87074322  -1.22308206
| 58> *
| 59>
| 60>                          ****END OF INPUT****
 Total Charge           Charge          ....    1
 Multiplicity           Mult            ....    1
 Number of Electrons    NEL             ....  164
Dispersion correction           -0.030849376
FINAL SINGLE POINT ENERGY     -1288.395627232946
Dispersion correction            ... done
Dispersion correction           -0.030797130
FINAL SINGLE POINT ENERGY     -1288.395785779484
Dispersion correction            ... done
Dispersion correction           -0.030765795
FINAL SINGLE POINT ENERGY     -1288.395850696627
Dispersion correction            ... done
FINAL SINGLE POINT ENERGY     -1288.395877000841
FINAL SINGLE POINT ENERGY     -1288.395885856998
FINAL SINGLE POINT ENERGY     -1288.395897339506
FINAL SINGLE POINT ENERGY     -1288.395904040293
FINAL SINGLE POINT ENERGY     -1288.395911934323
FINAL SINGLE POINT ENERGY     -1288.395918262937
FINAL SINGLE POINT ENERGY     -1288.395923819947
Dispersion correction            ... done
Dispersion correction           -0.030658264
FINAL SINGLE POINT ENERGY     -1288.395926161273
Dispersion correction            ... done
Dispersion correction           -0.030653405
FINAL SINGLE POINT ENERGY     -1288.395926602763
Dispersion correction            ... done
                    ***********************HURRAY********************

CARTESIAN COORDINATES (ANGSTROEM)
---------------------------------
  Ir     0.586197   -0.733514    0.496838
  C      0.041142   -2.817829    0.379139
  C      0.046292   -2.360693    1.746030
  C      2.182440   -2.139116    0.907230
  C      1.336970   -2.656695   -0.144749
  C      1.394950   -1.992848    2.064289
  N     -1.038987    0.138299   -0.506450
  C     -2.320071    0.430187    0.159063
  C     -3.104616    1.555138   -0.498447
  H     -3.936922    1.829677    0.148225
  H     -3.539182    1.266852   -1.456687
  H     -2.495645    2.447975   -0.642099
  C     -3.146468   -0.846421    0.261093
  H     -2.045160    0.747701    1.166138
  H     -4.066271   -0.645705    0.808551
  H     -3.421304   -1.219961   -0.726229
  H     -2.617167   -1.634873    0.794077
  C     -0.853336    0.364055   -1.752037
  C      0.485754    0.185223   -2.254847
  H     -1.655572    0.712675   -2.396328
  C      1.591507    0.415752   -1.446483
  C      2.788231    0.067543   -2.132809
  S      0.900745   -0.387125   -3.808392
  C      2.566647   -0.370285   -3.402990
  H      1.549382    1.329727   -0.610955
  H      3.778566    0.191798   -1.719379
  H      3.298849   -0.664655   -4.139695
  H     -0.817293   -3.188471   -0.162370
  H     -0.781896   -2.392568    2.438484
  H      1.728418   -1.591334    3.010563
  O      1.429035    2.395118    0.221087
  O      0.539540    0.942488    1.659691
  C      0.971911    2.106340    1.332514
  C      0.926422    3.137340    2.422658
  H      0.882192    4.139648    2.005203
  H      1.840728    3.065154    3.015056
  H      0.088101    2.973728    3.095887
  H      3.235342   -1.915539    0.822894
  H      1.649895   -2.885593   -1.153025

 Multiplicity           Mult            ....    1
 Number of Electrons    NEL             ....  164
 Basis Dimension        Dim             ....  358

ORBITAL ENERGIES
----------------

  NO   OCC          E(Eh)            E(eV)
   0   2.0000     -89.758109     -2442.4423
   1   2.0000     -19.628445      -534.1171
   2   2.0000     -19.598359      -533.2985
   3   2.0000     -14.837518      -403.7494
   4   2.0000     -10.687538      -290.8227
   5   2.0000     -10.658983      -290.0457
   6   2.0000     -10.635551      -289.4081
   7   2.0000     -10.633707      -289.3579
   8   2.0000     -10.631632      -289.3014
   9   2.0000     -10.630622      -289.2739
  10   2.0000     -10.629100      -289.2325
  11   2.0000     -10.625414      -289.1322
  12   2.0000     -10.615023      -288.8495
  13   2.0000     -10.606821      -288.6263
  14   2.0000     -10.580866      -287.9200
  15   2.0000     -10.579182      -287.8742
  16   2.0000     -10.556314      -287.2519
  17   2.0000     -10.551255      -287.1142
  18   2.0000     -10.536824      -286.7216
  19   2.0000      -8.397523      -228.5082
  20   2.0000      -6.287533      -171.0925
  21   2.0000      -6.283934      -170.9945
  22   2.0000      -6.282324      -170.9507
  23   2.0000      -4.028901      -109.6320
  24   2.0000      -2.347985       -63.8919
  25   2.0000      -2.313903       -62.9645
  26   2.0000      -2.311966       -62.9118
  27   2.0000      -1.313406       -35.7396
  28   2.0000      -1.216692       -33.1079
  29   2.0000      -1.209045       -32.8998
  30   2.0000      -1.172431       -31.9035
  31   2.0000      -1.122416       -30.5425
  32   2.0000      -1.024438       -27.8764
  33   2.0000      -0.986908       -26.8551
  34   2.0000      -0.977411       -26.5967
  35   2.0000      -0.962377       -26.1876
  36   2.0000      -0.955930       -26.0122
  37   2.0000      -0.931834       -25.3565
  38   2.0000      -0.902172       -24.5493
  39   2.0000      -0.871315       -23.7097
  40   2.0000      -0.796300       -21.6684
  41   2.0000      -0.788120       -21.4458
  42   2.0000      -0.786786       -21.4095
  43   2.0000      -0.778675       -21.1888
  44   2.0000      -0.771594       -20.9961
  45   2.0000      -0.759501       -20.6671
  46   2.0000      -0.742452       -20.2031
  47   2.0000      -0.722458       -19.6591
  48   2.0000      -0.692309       -18.8387
  49   2.0000      -0.676332       -18.4039
  50   2.0000      -0.663602       -18.0575
  51   2.0000      -0.652360       -17.7516
  52   2.0000      -0.648780       -17.6542
  53   2.0000      -0.639683       -17.4067
  54   2.0000      -0.638669       -17.3791
  55   2.0000      -0.633035       -17.2258
  56   2.0000      -0.623042       -16.9538
  57   2.0000      -0.609782       -16.5930
  58   2.0000      -0.607936       -16.5428
  59   2.0000      -0.606773       -16.5111
  60   2.0000      -0.595932       -16.2161
  61   2.0000      -0.587628       -15.9902
  62   2.0000      -0.575487       -15.6598
  63   2.0000      -0.567635       -15.4461
  64   2.0000      -0.562234       -15.2992
  65   2.0000      -0.557913       -15.1816
  66   2.0000      -0.552320       -15.0294
  67   2.0000      -0.548422       -14.9233
  68   2.0000      -0.539827       -14.6894
  69   2.0000      -0.534345       -14.5403
  70   2.0000      -0.527831       -14.3630
  71   2.0000      -0.519916       -14.1476
  72   2.0000      -0.515363       -14.0237
  73   2.0000      -0.506134       -13.7726
  74   2.0000      -0.492211       -13.3937
  75   2.0000      -0.480468       -13.0742
  76   2.0000      -0.465045       -12.6545
  77   2.0000      -0.449592       -12.2340
  78   2.0000      -0.443474       -12.0675
  79   2.0000      -0.420370       -11.4389
  80   2.0000      -0.417415       -11.3584
  81   2.0000      -0.401712       -10.9311
  82   0.0000      -0.200288        -5.4501
  83   0.0000      -0.161604        -4.3975
  84   0.0000      -0.141240        -3.8433
  85   0.0000      -0.093090        -2.5331
  86   0.0000      -0.074470        -2.0264

MULLIKEN ATOMIC CHARGES
-----------------------
   0 Ir:    0.615974
   1 C :   -0.212658
   2 C :   -0.291244
   3 C :   -0.237294
   4 C :   -0.241859
   5 C :   -0.166065
   6 N :   -0.434105
   7 C :   -0.123266
   8 C :   -0.688666
   9 H :    0.270834
  10 H :    0.225431
  11 H :    0.259514
  12 C :   -0.636352
  13 H :    0.280262
  14 H :    0.263277
  15 H :    0.231259
  16 H :    0.230727
  17 C :    0.069646
  18 C :   -0.189158
  19 H :    0.288394
  20 C :   -0.437756
  21 C :   -0.141930
  22 S :    0.306312
  23 C :   -0.427462
  24 H :    0.499473
  25 H :    0.263296
  26 H :    0.295897
  27 H :    0.291427
  28 H :    0.291901
  29 H :    0.305577
  30 O :   -0.489333
  31 O :   -0.534134
  32 C :    0.623128
  33 C :   -0.745602
  34 H :    0.270884
  35 H :    0.268636
  36 H :    0.255447
  37 H :    0.293507
  38 H :    0.296083
Sum of atomic charges:    1.0000000

LOEWDIN ATOMIC CHARGES
----------------------
   0 Ir:   -0.220416
   1 C :   -0.042332
   2 C :   -0.065665
   3 C :   -0.056509
   4 C :   -0.051113
   5 C :   -0.022744
   6 N :   -0.011404
   7 C :   -0.069037
   8 C :   -0.363680
   9 H :    0.156726
  10 H :    0.133400
  11 H :    0.146294
  12 C :   -0.343745
  13 H :    0.155478
  14 H :    0.152539
  15 H :    0.137355
  16 H :    0.132874
  17 C :    0.035521
  18 C :   -0.193610
  19 H :    0.161244
  20 C :   -0.201651
  21 C :   -0.141993
  22 S :    0.466660
  23 C :   -0.261435
  24 H :    0.306833
  25 H :    0.160581
  26 H :    0.167334
  27 H :    0.185165
  28 H :    0.185369
  29 H :    0.193008
  30 O :   -0.275022
  31 O :   -0.200462
  32 C :    0.161018
  33 C :   -0.374608
  34 H :    0.160985
  35 H :    0.168674
  36 H :    0.154206
  37 H :    0.187067
  38 H :    0.187096

  Mayer bond orders larger than 0.100000
B(  0-Ir,  1-C ) :   0.4220 B(  0-Ir,  2-C ) :   0.5335 B(  0-Ir,  3-C ) :   0.4601
B(  0-Ir,  4-C ) :   0.4538 B(  0-Ir,  5-C ) :   0.4031 B(  0-Ir,  6-N ) :   0.4684
B(  0-Ir, 20-C ) :   0.2667 B(  0-Ir, 31-O ) :   0.5669 B(  1-C ,  2-C ) :   1.1171
B(  1-C ,  4-C ) :   1.2422 B(  1-C , 27-H ) :   0.9035 B(  2-C ,  5-C ) :   1.1356
B(  2-C , 28-H ) :   0.9075 B(  3-C ,  4-C ) :   1.1075 B(  3-C ,  5-C ) :   1.2314
B(  3-C , 37-H ) :   0.9051 B(  4-C , 38-H ) :   0.8999 B(  5-C , 29-H ) :   0.8980
B(  6-N ,  7-C ) :   0.8916 B(  6-N , 17-C ) :   1.6772 B(  7-C ,  8-C ) :   0.9917
B(  7-C , 12-C ) :   0.9686 B(  7-C , 13-H ) :   0.8746 B(  8-C ,  9-H ) :   0.9040
B(  8-C , 10-H ) :   0.9128 B(  8-C , 11-H ) :   0.9091 B( 12-C , 14-H ) :   0.9067
B( 12-C , 15-H ) :   0.9155 B( 12-C , 16-H ) :   0.9123 B( 17-C , 18-C ) :   1.0735
B( 17-C , 19-H ) :   0.8749 B( 18-C , 20-C ) :   1.2951 B( 18-C , 22-S ) :   1.2178
B( 20-C , 21-C ) :   1.2795 B( 20-C , 24-H ) :   0.4362 B( 21-C , 23-C ) :   1.5417
B( 21-C , 25-H ) :   0.9054 B( 22-S , 23-C ) :   1.2100 B( 23-C , 26-H ) :   0.8924
B( 24-H , 30-O ) :   0.2614 B( 30-O , 32-C ) :   1.6510 B( 31-O , 32-C ) :   1.3034
B( 32-C , 33-C ) :   0.9481 B( 33-C , 34-H ) :   0.9038 B( 33-C , 35-H ) :   0.8970
B( 33-C , 36-H ) :   0.9089

Dispersion correction           -0.030652100
FINAL SINGLE POINT ENERGY     -1288.395926665047

DIPOLE MOMENT
-------------
                                X             Y             Z
Electronic contribution:     34.96570     -69.79230      77.60922
Nuclear contribution   :    -35.58959      68.71132     -77.75786
                        -----------------------------------------
Total Dipole Moment    :     -0.62389      -1.08098      -0.14863
                        -----------------------------------------
Magnitude (a.u.)       :      1.25692
Magnitude (Debye)      :      3.19484

Rotational constants in cm-1:     0.010580     0.008927     0.008156
Rotational constants in MHz :   317.184514   267.633762   244.504931

                             ****ORCA TERMINATED NORMALLY****
TOTAL RUN TIME: 0 days 1 hours 36 minutes 29 seconds 261 msec
