                         Program Version 5.0.3 -  RELEASE  -
|  1> ! Opt PBEh-3c
|  2> %geom Constraints
|  3> { B 0 20 2.4714285714285715 C }
|  4> { B 24 30 1.4285714285714286 C }
|  5>     end
|  6> end
|  7> %output
|  8> xyzfile=True
|  9> end
| 10> %scf
| 11> maxiter 250
| 12> end
| 13> %output
| 14> Print[P_Hirshfeld] = 1
| 15> end
| 16> % maxcore
| 17> 4000
| 18> *xyz 1 1
| 19> Ir   0.58518763  -0.72519980   0.46323640
| 20> C    0.02939482  -2.80553066   0.34537432
| 21> C    0.11371204  -2.35881587   1.71485350
| 22> C    2.19709561  -2.13903860   0.76022139
| 23> C    1.29316741  -2.64352820  -0.24922401
| 24> C    1.48202072  -2.00302860   1.96267734
| 25> N   -1.04340778   0.17101491  -0.51855504
| 26> C   -2.31469840   0.50399924   0.14307967
| 27> C   -3.13027695   1.55103949  -0.59797982
| 28> H   -3.96128665   1.86097427   0.03412112
| 29> H   -3.56855441   1.17329477  -1.52321349
| 30> H   -2.54527288   2.44335249  -0.82312997
| 31> C   -3.11729533  -0.76938195   0.37971651
| 32> H   -2.02225429   0.91598702   1.11040482
| 33> H   -4.03138844  -0.52881495   0.92037460
| 34> H   -3.40210017  -1.23951192  -0.56250085
| 35> H   -2.56967242  -1.49475564   0.97977304
| 36> C   -0.83738962   0.37688630  -1.76137201
| 37> C    0.51437171   0.15342402  -2.22812135
| 38> H   -1.61576125   0.73627641  -2.42846317
| 39> C    1.61866405   0.51422461  -1.46481605
| 40> C    2.82192603   0.09919907  -2.10486404
| 41> S    0.93816599  -0.62621315  -3.68695280
| 42> C    2.60724432  -0.51943007  -3.29622604
| 43> H    1.53826234   1.38782963  -0.67553122
| 44> H    3.80903234   0.30260811  -1.71585151
| 45> H    3.34269310  -0.90169323  -3.98791189
| 46> H   -0.86178037  -3.16440767  -0.14922579
| 47> H   -0.67434240  -2.39286958   2.45280431
| 48> H    1.87141370  -1.61362351   2.89236654
| 49> O    1.30292904   2.45552349   0.26600199
| 50> O    0.53634868   0.90433988   1.67442928
| 51> C    0.90423144   2.10647323   1.37384283
| 52> C    0.84496568   3.07931099   2.51819760
| 53> H    0.79930312   4.10102380   2.15124573
| 54> H    1.75183311   2.97981781   3.11792352
| 55> H    0.00092151   2.88056276   3.17540829
| 56> H    3.24201262  -1.90886633   0.61395821
| 57> H    1.54995430  -2.86326252  -1.27533191
| 58> *
| 59>
| 60>                          ****END OF INPUT****
 Total Charge           Charge          ....    1
 Multiplicity           Mult            ....    1
 Number of Electrons    NEL             ....  164
Dispersion correction           -0.030999331
FINAL SINGLE POINT ENERGY     -1288.397607338211
Dispersion correction            ... done
Dispersion correction           -0.031023341
FINAL SINGLE POINT ENERGY     -1288.396231794626
Dispersion correction            ... done
Dispersion correction           -0.030967863
FINAL SINGLE POINT ENERGY     -1288.397673574630
Dispersion correction            ... done
FINAL SINGLE POINT ENERGY     -1288.395985795903
FINAL SINGLE POINT ENERGY     -1288.397756162288
FINAL SINGLE POINT ENERGY     -1288.397772849123
FINAL SINGLE POINT ENERGY     -1288.397789338699
FINAL SINGLE POINT ENERGY     -1288.397797928304
FINAL SINGLE POINT ENERGY     -1288.397804733592
Dispersion correction            ... done
Dispersion correction           -0.030883041
FINAL SINGLE POINT ENERGY     -1288.397815463751
Dispersion correction            ... done
Dispersion correction           -0.030880236
FINAL SINGLE POINT ENERGY     -1288.397818518454
Dispersion correction            ... done
                    ***********************HURRAY********************

CARTESIAN COORDINATES (ANGSTROEM)
---------------------------------
  Ir     0.589473   -0.722345    0.463065
  C      0.036541   -2.804969    0.352003
  C      0.106281   -2.355391    1.720467
  C      2.199382   -2.133375    0.784785
  C      1.306115   -2.643214   -0.231262
  C      1.470326   -1.993646    1.979160
  N     -1.044644    0.163390   -0.518497
  C     -2.317027    0.485078    0.146995
  C     -3.123823    1.556510   -0.568834
  H     -3.953345    1.857333    0.069650
  H     -3.563957    1.205721   -1.503686
  H     -2.530860    2.448971   -0.771181
  C     -3.126793   -0.790412    0.345672
  H     -2.027092    0.869321    1.126332
  H     -4.041623   -0.560828    0.889903
  H     -3.410183   -1.233000   -0.610180
  H     -2.583795   -1.534663    0.926466
  C     -0.846885    0.373050   -1.762733
  C      0.502079    0.159226   -2.236617
  H     -1.631692    0.729447   -2.423789
  C      1.602049    0.475423   -1.446909
  C      2.807418    0.075289   -2.092295
  S      0.932005   -0.564885   -3.720110
  C      2.597994   -0.491013   -3.310679
  H      1.531900    1.364993   -0.657434
  H      3.792953    0.252827   -1.686935
  H      3.336069   -0.850884   -4.011531
  H     -0.848596   -3.167501   -0.150720
  H     -0.689012   -2.388729    2.450497
  H      1.849497   -1.599677    2.911166
  O      1.330467    2.447855    0.252319
  O      0.534690    0.917317    1.666030
  C      0.919030    2.110850    1.361221
  C      0.863615    3.095706    2.494916
  H      0.822781    4.114013    2.118072
  H      1.770252    2.998027    3.095327
  H      0.018576    2.906665    3.153569
  H      3.246272   -1.905448    0.650183
  H      1.572932   -2.867842   -1.253668

 Multiplicity           Mult            ....    1
 Number of Electrons    NEL             ....  164
 Basis Dimension        Dim             ....  358

ORBITAL ENERGIES
----------------

  NO   OCC          E(Eh)            E(eV)
   0   2.0000     -89.762205     -2442.5538
   1   2.0000     -19.623011      -533.9693
   2   2.0000     -19.587220      -532.9953
   3   2.0000     -14.840987      -403.8438
   4   2.0000     -10.680044      -290.6188
   5   2.0000     -10.662072      -290.1297
   6   2.0000     -10.637551      -289.4625
   7   2.0000     -10.634116      -289.3690
   8   2.0000     -10.633467      -289.3513
   9   2.0000     -10.632163      -289.3159
  10   2.0000     -10.631688      -289.3029
  11   2.0000     -10.630997      -289.2841
  12   2.0000     -10.616169      -288.8806
  13   2.0000     -10.609906      -288.7102
  14   2.0000     -10.584175      -288.0100
  15   2.0000     -10.582133      -287.9545
  16   2.0000     -10.557214      -287.2764
  17   2.0000     -10.552117      -287.1377
  18   2.0000     -10.532344      -286.5997
  19   2.0000      -8.401544      -228.6176
  20   2.0000      -6.291597      -171.2030
  21   2.0000      -6.287955      -171.1039
  22   2.0000      -6.286305      -171.0591
  23   2.0000      -4.030112      -109.6649
  24   2.0000      -2.349239       -63.9260
  25   2.0000      -2.315062       -62.9961
  26   2.0000      -2.313555       -62.9550
  27   2.0000      -1.304550       -35.4986
  28   2.0000      -1.213517       -33.0215
  29   2.0000      -1.207771       -32.8651
  30   2.0000      -1.173733       -31.9389
  31   2.0000      -1.126508       -30.6539
  32   2.0000      -1.027092       -27.9486
  33   2.0000      -0.988441       -26.8969
  34   2.0000      -0.978766       -26.6336
  35   2.0000      -0.965692       -26.2778
  36   2.0000      -0.959664       -26.1138
  37   2.0000      -0.926266       -25.2050
  38   2.0000      -0.903513       -24.5858
  39   2.0000      -0.873932       -23.7809
  40   2.0000      -0.798062       -21.7164
  41   2.0000      -0.789630       -21.4869
  42   2.0000      -0.788070       -21.4445
  43   2.0000      -0.781220       -21.2581
  44   2.0000      -0.773142       -21.0383
  45   2.0000      -0.755643       -20.5621
  46   2.0000      -0.744154       -20.2495
  47   2.0000      -0.722890       -19.6708
  48   2.0000      -0.694065       -18.8865
  49   2.0000      -0.673382       -18.3237
  50   2.0000      -0.665356       -18.1052
  51   2.0000      -0.651394       -17.7253
  52   2.0000      -0.648159       -17.6373
  53   2.0000      -0.640488       -17.4286
  54   2.0000      -0.636768       -17.3273
  55   2.0000      -0.629205       -17.1215
  56   2.0000      -0.623721       -16.9723
  57   2.0000      -0.611932       -16.6515
  58   2.0000      -0.609249       -16.5785
  59   2.0000      -0.608242       -16.5511
  60   2.0000      -0.597630       -16.2623
  61   2.0000      -0.588832       -16.0229
  62   2.0000      -0.577911       -15.7258
  63   2.0000      -0.571104       -15.5405
  64   2.0000      -0.563803       -15.3419
  65   2.0000      -0.554698       -15.0941
  66   2.0000      -0.552601       -15.0370
  67   2.0000      -0.548514       -14.9258
  68   2.0000      -0.539189       -14.6721
  69   2.0000      -0.535467       -14.5708
  70   2.0000      -0.528164       -14.3721
  71   2.0000      -0.521031       -14.1780
  72   2.0000      -0.516104       -14.0439
  73   2.0000      -0.506111       -13.7720
  74   2.0000      -0.488799       -13.3009
  75   2.0000      -0.481259       -13.0957
  76   2.0000      -0.466132       -12.6841
  77   2.0000      -0.449370       -12.2280
  78   2.0000      -0.441283       -12.0079
  79   2.0000      -0.423545       -11.5253
  80   2.0000      -0.417253       -11.3540
  81   2.0000      -0.403668       -10.9844
  82   0.0000      -0.201325        -5.4783
  83   0.0000      -0.163694        -4.4543
  84   0.0000      -0.141775        -3.8579
  85   0.0000      -0.099698        -2.7129
  86   0.0000      -0.076639        -2.0854

MULLIKEN ATOMIC CHARGES
-----------------------
   0 Ir:    0.616654
   1 C :   -0.208998
   2 C :   -0.292148
   3 C :   -0.233695
   4 C :   -0.246010
   5 C :   -0.165515
   6 N :   -0.426410
   7 C :   -0.119067
   8 C :   -0.693625
   9 H :    0.272664
  10 H :    0.225693
  11 H :    0.260898
  12 C :   -0.638742
  13 H :    0.281769
  14 H :    0.264758
  15 H :    0.230832
  16 H :    0.232626
  17 C :    0.069077
  18 C :   -0.200431
  19 H :    0.292050
  20 C :   -0.434593
  21 C :   -0.134808
  22 S :    0.300549
  23 C :   -0.430474
  24 H :    0.499625
  25 H :    0.266862
  26 H :    0.297353
  27 H :    0.292068
  28 H :    0.293166
  29 H :    0.306722
  30 O :   -0.481327
  31 O :   -0.541910
  32 C :    0.614284
  33 C :   -0.745600
  34 H :    0.268951
  35 H :    0.265466
  36 H :    0.252106
  37 H :    0.294289
  38 H :    0.294890
Sum of atomic charges:    1.0000000

LOEWDIN ATOMIC CHARGES
----------------------
   0 Ir:   -0.218744
   1 C :   -0.039269
   2 C :   -0.060922
   3 C :   -0.050546
   4 C :   -0.056054
   5 C :   -0.024758
   6 N :   -0.005630
   7 C :   -0.068729
   8 C :   -0.364621
   9 H :    0.157536
  10 H :    0.133719
  11 H :    0.147003
  12 C :   -0.343483
  13 H :    0.156737
  14 H :    0.153181
  15 H :    0.137237
  16 H :    0.134116
  17 C :    0.035701
  18 C :   -0.184987
  19 H :    0.163032
  20 C :   -0.189597
  21 C :   -0.139275
  22 S :    0.465787
  23 C :   -0.262987
  24 H :    0.287283
  25 H :    0.162430
  26 H :    0.167900
  27 H :    0.185564
  28 H :    0.186139
  29 H :    0.193729
  30 O :   -0.277033
  31 O :   -0.208932
  32 C :    0.153169
  33 C :   -0.376553
  34 H :    0.159336
  35 H :    0.166560
  36 H :    0.152686
  37 H :    0.187345
  38 H :    0.185932

  Mayer bond orders larger than 0.100000
B(  0-Ir,  1-C ) :   0.4198 B(  0-Ir,  2-C ) :   0.5379 B(  0-Ir,  3-C ) :   0.4624
B(  0-Ir,  4-C ) :   0.4511 B(  0-Ir,  5-C ) :   0.4023 B(  0-Ir,  6-N ) :   0.4635
B(  0-Ir, 20-C ) :   0.2432 B(  0-Ir, 31-O ) :   0.5858 B(  1-C ,  2-C ) :   1.1164
B(  1-C ,  4-C ) :   1.2457 B(  1-C , 27-H ) :   0.9030 B(  2-C ,  5-C ) :   1.1337
B(  2-C , 28-H ) :   0.9071 B(  3-C ,  4-C ) :   1.1051 B(  3-C ,  5-C ) :   1.2334
B(  3-C , 37-H ) :   0.9038 B(  4-C , 38-H ) :   0.8988 B(  5-C , 29-H ) :   0.8978
B(  6-N ,  7-C ) :   0.8913 B(  6-N , 17-C ) :   1.6937 B(  7-C ,  8-C ) :   0.9922
B(  7-C , 12-C ) :   0.9691 B(  7-C , 13-H ) :   0.8717 B(  8-C ,  9-H ) :   0.9034
B(  8-C , 10-H ) :   0.9125 B(  8-C , 11-H ) :   0.9080 B( 12-C , 14-H ) :   0.9063
B( 12-C , 15-H ) :   0.9154 B( 12-C , 16-H ) :   0.9112 B( 17-C , 18-C ) :   1.0531
B( 17-C , 19-H ) :   0.8740 B( 18-C , 20-C ) :   1.2966 B( 18-C , 22-S ) :   1.2248
B( 20-C , 21-C ) :   1.2631 B( 20-C , 24-H ) :   0.4835 B( 21-C , 23-C ) :   1.5484
B( 21-C , 25-H ) :   0.9041 B( 22-S , 23-C ) :   1.2021 B( 23-C , 26-H ) :   0.8922
B( 24-H , 30-O ) :   0.2333 B( 30-O , 32-C ) :   1.7002 B( 31-O , 32-C ) :   1.2704
B( 32-C , 33-C ) :   0.9463 B( 33-C , 34-H ) :   0.9054 B( 33-C , 35-H ) :   0.8992
B( 33-C , 36-H ) :   0.9098

Dispersion correction           -0.030877288
FINAL SINGLE POINT ENERGY     -1288.397820890143

DIPOLE MOMENT
-------------
                                X             Y             Z
Electronic contribution:     35.19810     -67.75153      73.66633
Nuclear contribution   :    -35.82910      66.50423     -73.94082
                        -----------------------------------------
Total Dipole Moment    :     -0.63100      -1.24730      -0.27449
                        -----------------------------------------
Magnitude (a.u.)       :      1.42453
Magnitude (Debye)      :      3.62086

Rotational constants in cm-1:     0.010713     0.009082     0.008248
Rotational constants in MHz :   321.162791   272.278946   247.276528

                             ****ORCA TERMINATED NORMALLY****
TOTAL RUN TIME: 0 days 1 hours 44 minutes 30 seconds 797 msec
