                         Program Version 5.0.3 -  RELEASE  -
|  1> ! Opt PBEh-3c
|  2> %geom Constraints
|  3> { B 0 20 2.6 C }
|  4> { B 24 30 1.4857142857142858 C }
|  5>     end
|  6> end
|  7> %output
|  8> xyzfile=True
|  9> end
| 10> %scf
| 11> maxiter 250
| 12> end
| 13> %output
| 14> Print[P_Hirshfeld] = 1
| 15> end
| 16> % maxcore
| 17> 4000
| 18> %pal nprocs 4
| 19> end
| 20> *xyz 1 1
| 21> Ir   0.58127022  -0.72844282   0.47086482
| 22> C    0.03328717  -2.80987120   0.32994191
| 23> C    0.12225722  -2.36865279   1.70260242
| 24> C    2.20015296  -2.13837558   0.74355575
| 25> C    1.29358007  -2.63848607  -0.26611939
| 26> C    1.49212580  -2.01538874   1.95052150
| 27> N   -1.03750421   0.18293623  -0.51225760
| 28> C   -2.30714981   0.53113388   0.14443891
| 29> C   -3.12421679   1.56049530  -0.61862125
| 30> H   -3.95587925   1.88199254   0.00675108
| 31> H   -3.56149961   1.16197250  -1.53561408
| 32> H   -2.54112751   2.44921255  -0.86226438
| 33> C   -3.10732788  -0.73767610   0.41084104
| 34> H   -2.01256348   0.96462984   1.10169806
| 35> H   -4.01976961  -0.48662739   0.94947070
| 36> H   -3.39506562  -1.22756418  -0.52039568
| 37> H   -2.55751361  -1.45018685   1.02433374
| 38> C   -0.82197069   0.38217829  -1.75318122
| 39> C    0.53119254   0.13744493  -2.21459207
| 40> H   -1.59156608   0.74914022  -2.42646712
| 41> C    1.64852013   0.57070281  -1.51236442
| 42> C    2.84276305   0.12703087  -2.14917174
| 43> S    0.93374971  -0.73853610  -3.62757506
| 44> C    2.60967727  -0.58056549  -3.28603374
| 45> H    1.55972520   1.41598901  -0.73319531
| 46> H    3.83499086   0.37153039  -1.79907502
| 47> H    3.33513993  -1.00433067  -3.96390215
| 48> H   -0.85884917  -3.16923644  -0.16242641
| 49> H   -0.66338006  -2.40813802   2.44314221
| 50> H    1.88383953  -1.63255189   2.88197198
| 51> O    1.22897682   2.46781482   0.28379435
| 52> O    0.54583460   0.88099415   1.69653385
| 53> C    0.86940280   2.10064290   1.39453708
| 54> C    0.80175325   3.05683398   2.55359597
| 55> H    0.72262559   4.08097735   2.19914457
| 56> H    1.72019555   2.97570190   3.13819176
| 57> H   -0.02599310   2.82881450   3.22203568
| 58> H    3.24242750  -1.89924635   0.59189796
| 59> H    1.54725870  -2.84510226  -1.29586867
| 60> *
| 61>
| 62>                          ****END OF INPUT****
 Total Charge           Charge          ....    1
 Multiplicity           Mult            ....    1
 Number of Electrons    NEL             ....  164
Dispersion correction           -0.030974943
FINAL SINGLE POINT ENERGY     -1288.397418566607
Dispersion correction            ... done
Dispersion correction           -0.030939327
FINAL SINGLE POINT ENERGY     -1288.397414432400
Dispersion correction            ... done
Dispersion correction           -0.030959688
FINAL SINGLE POINT ENERGY     -1288.397426928498
Dispersion correction            ... done
FINAL SINGLE POINT ENERGY     -1288.397393889198
FINAL SINGLE POINT ENERGY     -1288.397423733945
Dispersion correction            ... done
Dispersion correction           -0.030953465
FINAL SINGLE POINT ENERGY     -1288.397419453338
Dispersion correction            ... done
Dispersion correction           -0.030956078
FINAL SINGLE POINT ENERGY     -1288.397428266793
Dispersion correction            ... done
                    ***********************HURRAY********************

CARTESIAN COORDINATES (ANGSTROEM)
---------------------------------
  Ir     0.579587   -0.729627    0.473229
  C      0.029564   -2.809777    0.332386
  C      0.119725   -2.369411    1.705220
  C      2.197337   -2.140902    0.745168
  C      1.289789   -2.639156   -0.264602
  C      1.490205   -2.017651    1.952585
  N     -1.038272    0.181567   -0.511722
  C     -2.308843    0.528492    0.143956
  C     -3.126963    1.556140   -0.620371
  H     -3.959993    1.876252    0.003848
  H     -3.562029    1.155962   -1.537675
  H     -2.545272    2.445824   -0.863822
  C     -3.108048   -0.740956    0.410902
  H     -2.015369    0.962640    1.101276
  H     -4.021235   -0.490315    0.948434
  H     -3.394468   -1.232461   -0.519876
  H     -2.557678   -1.451737    1.025877
  C     -0.821821    0.381957   -1.752485
  C      0.531644    0.140608   -2.213873
  H     -1.591738    0.747908   -2.425972
  C      1.648164    0.570796   -1.508448
  C      2.842664    0.130597   -2.147215
  S      0.935062   -0.727328   -3.631805
  C      2.610563   -0.570811   -3.288181
  H      1.558673    1.417007   -0.724021
  H      3.834736    0.373177   -1.795265
  H      3.336687   -0.990548   -3.967858
  H     -0.863222   -3.167626   -0.159934
  H     -0.665407   -2.409070    2.446282
  H      1.882991   -1.635558    2.883877
  O      1.244651    2.463405    0.282849
  O      0.543763    0.883502    1.694759
  C      0.876436    2.100031    1.392690
  C      0.808529    3.059408    2.548813
  H      0.738783    4.083341    2.191831
  H      1.722712    2.973023    3.139307
  H     -0.025007    2.838420    3.212415
  H      3.239710   -1.902616    0.592784
  H      1.542758   -2.845317   -1.294620

 Multiplicity           Mult            ....    1
 Number of Electrons    NEL             ....  164
 Basis Dimension        Dim             ....  358

ORBITAL ENERGIES
----------------

  NO   OCC          E(Eh)            E(eV)
   0   2.0000     -89.760810     -2442.5158
   1   2.0000     -19.620664      -533.9054
   2   2.0000     -19.579434      -532.7835
   3   2.0000     -14.842803      -403.8932
   4   2.0000     -10.675628      -290.4986
   5   2.0000     -10.663720      -290.1746
   6   2.0000     -10.640011      -289.5294
   7   2.0000     -10.638781      -289.4960
   8   2.0000     -10.636140      -289.4241
   9   2.0000     -10.635306      -289.4014
  10   2.0000     -10.633866      -289.3622
  11   2.0000     -10.632775      -289.3325
  12   2.0000     -10.617348      -288.9127
  13   2.0000     -10.609930      -288.7109
  14   2.0000     -10.582913      -287.9757
  15   2.0000     -10.582379      -287.9612
  16   2.0000     -10.558145      -287.3017
  17   2.0000     -10.552723      -287.1542
  18   2.0000     -10.529630      -286.5258
  19   2.0000      -8.400056      -228.5772
  20   2.0000      -6.290203      -171.1651
  21   2.0000      -6.286552      -171.0658
  22   2.0000      -6.284683      -171.0149
  23   2.0000      -4.032939      -109.7419
  24   2.0000      -2.352491       -64.0145
  25   2.0000      -2.317880       -63.0727
  26   2.0000      -2.316461       -63.0341
  27   2.0000      -1.298916       -35.3453
  28   2.0000      -1.215075       -33.0639
  29   2.0000      -1.203170       -32.7399
  30   2.0000      -1.176836       -32.0233
  31   2.0000      -1.125990       -30.6397
  32   2.0000      -1.027942       -27.9717
  33   2.0000      -0.991945       -26.9922
  34   2.0000      -0.981840       -26.7172
  35   2.0000      -0.965074       -26.2610
  36   2.0000      -0.959820       -26.1180
  37   2.0000      -0.922852       -25.1121
  38   2.0000      -0.904582       -24.6149
  39   2.0000      -0.874335       -23.7919
  40   2.0000      -0.797744       -21.7077
  41   2.0000      -0.792720       -21.5710
  42   2.0000      -0.790760       -21.5177
  43   2.0000      -0.781441       -21.2641
  44   2.0000      -0.775411       -21.1000
  45   2.0000      -0.754713       -20.5368
  46   2.0000      -0.744344       -20.2546
  47   2.0000      -0.722368       -19.6566
  48   2.0000      -0.695798       -18.9336
  49   2.0000      -0.670895       -18.2560
  50   2.0000      -0.664875       -18.0922
  51   2.0000      -0.652963       -17.7680
  52   2.0000      -0.649250       -17.6670
  53   2.0000      -0.641760       -17.4632
  54   2.0000      -0.635524       -17.2935
  55   2.0000      -0.626852       -17.0575
  56   2.0000      -0.624396       -16.9907
  57   2.0000      -0.613332       -16.6896
  58   2.0000      -0.611979       -16.6528
  59   2.0000      -0.609826       -16.5942
  60   2.0000      -0.597007       -16.2454
  61   2.0000      -0.588419       -16.0117
  62   2.0000      -0.577152       -15.7051
  63   2.0000      -0.572274       -15.5724
  64   2.0000      -0.564314       -15.3558
  65   2.0000      -0.554111       -15.0781
  66   2.0000      -0.551614       -15.0102
  67   2.0000      -0.548558       -14.9270
  68   2.0000      -0.539021       -14.6675
  69   2.0000      -0.534586       -14.5468
  70   2.0000      -0.528304       -14.3759
  71   2.0000      -0.522928       -14.2296
  72   2.0000      -0.516542       -14.0558
  73   2.0000      -0.508406       -13.8344
  74   2.0000      -0.487581       -13.2678
  75   2.0000      -0.481201       -13.0942
  76   2.0000      -0.464144       -12.6300
  77   2.0000      -0.451056       -12.2739
  78   2.0000      -0.439386       -11.9563
  79   2.0000      -0.424477       -11.5506
  80   2.0000      -0.417451       -11.3594
  81   2.0000      -0.405383       -11.0310
  82   0.0000      -0.201373        -5.4796
  83   0.0000      -0.168170        -4.5761
  84   0.0000      -0.142330        -3.8730
  85   0.0000      -0.105095        -2.8598
  86   0.0000      -0.077872        -2.1190

MULLIKEN ATOMIC CHARGES
-----------------------
   0 Ir:    0.626080
   1 C :   -0.207674
   2 C :   -0.298495
   3 C :   -0.230008
   4 C :   -0.244680
   5 C :   -0.163976
   6 N :   -0.422524
   7 C :   -0.115648
   8 C :   -0.696881
   9 H :    0.273877
  10 H :    0.226258
  11 H :    0.261905
  12 C :   -0.640698
  13 H :    0.281539
  14 H :    0.266061
  15 H :    0.230977
  16 H :    0.233397
  17 C :    0.066506
  18 C :   -0.240864
  19 H :    0.293923
  20 C :   -0.370937
  21 C :   -0.146373
  22 S :    0.287395
  23 C :   -0.428111
  24 H :    0.484216
  25 H :    0.268746
  26 H :    0.297177
  27 H :    0.293496
  28 H :    0.295723
  29 H :    0.309136
  30 O :   -0.476308
  31 O :   -0.549563
  32 C :    0.607443
  33 C :   -0.746543
  34 H :    0.267573
  35 H :    0.264012
  36 H :    0.249698
  37 H :    0.297849
  38 H :    0.296295
Sum of atomic charges:    1.0000000

LOEWDIN ATOMIC CHARGES
----------------------
   0 Ir:   -0.202749
   1 C :   -0.039663
   2 C :   -0.049667
   3 C :   -0.044066
   4 C :   -0.054549
   5 C :   -0.026317
   6 N :   -0.005959
   7 C :   -0.067921
   8 C :   -0.365091
   9 H :    0.158046
  10 H :    0.134190
  11 H :    0.147572
  12 C :   -0.343270
  13 H :    0.156950
  14 H :    0.153634
  15 H :    0.137366
  16 H :    0.134776
  17 C :    0.037929
  18 C :   -0.190541
  19 H :    0.163846
  20 C :   -0.169757
  21 C :   -0.146774
  22 S :    0.453182
  23 C :   -0.262412
  24 H :    0.263622
  25 H :    0.162933
  26 H :    0.167660
  27 H :    0.186591
  28 H :    0.187394
  29 H :    0.195040
  30 O :   -0.276491
  31 O :   -0.215326
  32 C :    0.148188
  33 C :   -0.378360
  34 H :    0.158369
  35 H :    0.165477
  36 H :    0.151361
  37 H :    0.188956
  38 H :    0.185833

  Mayer bond orders larger than 0.100000
B(  0-Ir,  1-C ) :   0.4193 B(  0-Ir,  2-C ) :   0.5672 B(  0-Ir,  3-C ) :   0.4670
B(  0-Ir,  4-C ) :   0.4497 B(  0-Ir,  5-C ) :   0.4030 B(  0-Ir,  6-N ) :   0.4624
B(  0-Ir, 20-C ) :   0.1853 B(  0-Ir, 31-O ) :   0.6079 B(  1-C ,  2-C ) :   1.1089
B(  1-C ,  4-C ) :   1.2514 B(  1-C , 27-H ) :   0.9028 B(  2-C ,  5-C ) :   1.1266
B(  2-C , 28-H ) :   0.9055 B(  3-C ,  4-C ) :   1.1013 B(  3-C ,  5-C ) :   1.2367
B(  3-C , 37-H ) :   0.9016 B(  4-C , 38-H ) :   0.8957 B(  5-C , 29-H ) :   0.8967
B(  6-N ,  7-C ) :   0.8898 B(  6-N , 17-C ) :   1.7092 B(  7-C ,  8-C ) :   0.9931
B(  7-C , 12-C ) :   0.9698 B(  7-C , 13-H ) :   0.8706 B(  8-C ,  9-H ) :   0.9029
B(  8-C , 10-H ) :   0.9121 B(  8-C , 11-H ) :   0.9072 B( 12-C , 14-H ) :   0.9059
B( 12-C , 15-H ) :   0.9151 B( 12-C , 16-H ) :   0.9102 B( 17-C , 18-C ) :   1.0370
B( 17-C , 19-H ) :   0.8734 B( 18-C , 20-C ) :   1.3222 B( 18-C , 22-S ) :   1.2094
B( 20-C , 21-C ) :   1.2606 B( 20-C , 24-H ) :   0.5527 B( 21-C , 23-C ) :   1.5473
B( 21-C , 25-H ) :   0.9034 B( 22-S , 23-C ) :   1.2003 B( 23-C , 26-H ) :   0.8927
B( 24-H , 30-O ) :   0.1945 B( 30-O , 32-C ) :   1.7454 B( 31-O , 32-C ) :   1.2389
B( 32-C , 33-C ) :   0.9454 B( 33-C , 34-H ) :   0.9064 B( 33-C , 35-H ) :   0.9003
B( 33-C , 36-H ) :   0.9105

Dispersion correction           -0.030956473
FINAL SINGLE POINT ENERGY     -1288.397427837106

DIPOLE MOMENT
-------------
                                X             Y             Z
Electronic contribution:     34.27437     -67.45405      73.98728
Nuclear contribution   :    -34.90621      66.07167     -74.24201
                        -----------------------------------------
Total Dipole Moment    :     -0.63184      -1.38239      -0.25472
                        -----------------------------------------
Magnitude (a.u.)       :      1.54114
Magnitude (Debye)      :      3.91726

Rotational constants in cm-1:     0.010827     0.009089     0.008238
Rotational constants in MHz :   324.598296   272.482648   246.980979

                             ****ORCA TERMINATED NORMALLY****
TOTAL RUN TIME: 0 days 0 hours 16 minutes 20 seconds 129 msec
