                         Program Version 5.0.3 -  RELEASE  -
|  1> ! Opt PBEh-3c
|  2> %geom Constraints
|  3> { B 0 20 2.1285714285714286 C }
|  4> { B 24 30 1.4428571428571428 C }
|  5>     end
|  6> end
|  7> %output
|  8> xyzfile=True
|  9> end
| 10> %scf
| 11> maxiter 250
| 12> end
| 13> %output
| 14> Print[P_Hirshfeld] = 1
| 15> end
| 16> % maxcore
| 17> 4000
| 18> *xyz 1 1
| 19> Ir   0.62943973  -0.71754102   0.42113590
| 20> C    0.14035399  -2.83230879   0.31723503
| 21> C    0.00263281  -2.37958354   1.67654593
| 22> C    2.20319428  -2.07875882   1.03472873
| 23> C    1.48134998  -2.64766916  -0.07558304
| 24> C    1.28721003  -1.94514546   2.10616801
| 25> N   -1.05187746   0.13255161  -0.51453261
| 26> C   -2.31363817   0.38563636   0.19797581
| 27> C   -3.09377561   1.57421298  -0.34471928
| 28> H   -3.91436705   1.79722927   0.33568647
| 29> H   -3.54297412   1.37752983  -1.31909373
| 30> H   -2.47591658   2.46956579  -0.41618367
| 31> C   -3.15585462  -0.88541644   0.19876837
| 32> H   -2.01667671   0.61031779   1.22317923
| 33> H   -4.05139449  -0.73441567   0.79993087
| 34> H   -3.47253995  -1.14915153  -0.81113930
| 35> H   -2.61667081  -1.73228980   0.62050140
| 36> C   -0.90444256   0.41245025  -1.75574827
| 37> C    0.41998789   0.21536386  -2.27487047
| 38> H   -1.71258229   0.80860834  -2.36260328
| 39> C    1.48235461   0.16821666  -1.36857684
| 40> C    2.69655670  -0.12864024  -2.06313171
| 41> S    0.88386783  -0.08658743  -3.87604619
| 42> C    2.52137004  -0.28761475  -3.40208572
| 43> H    1.55113050   1.16824051  -0.65440287
| 44> H    3.66701325  -0.16423047  -1.58977424
| 45> H    3.27258477  -0.48909534  -4.15054305
| 46> H   -0.64586932  -3.24454773  -0.29850603
| 47> H   -0.88678378  -2.42815991   2.28635923
| 48> H    1.51106635  -1.51345704   3.07149387
| 49> O    1.52616531   2.39202704   0.13615932
| 50> O    0.56161094   0.98552816   1.56768033
| 51> C    1.02359688   2.13376268   1.23615648
| 52> C    0.95612835   3.19285326   2.29948495
| 53> H    0.91009430   4.18373147   1.85543627
| 54> H    1.86394578   3.14333954   2.90361869
| 55> H    0.10981185   3.04027820   2.96489099
| 56> H    3.25815483  -1.85431923   1.06786370
| 57> H    1.89511254  -2.89332131  -1.04271919
| 58> *
| 59>
| 60>                          ****END OF INPUT****
 Total Charge           Charge          ....    1
 Multiplicity           Mult            ....    1
 Number of Electrons    NEL             ....  164
Dispersion correction           -0.030973917
FINAL SINGLE POINT ENERGY     -1288.399341697694
Dispersion correction            ... done
Dispersion correction           -0.030907564
FINAL SINGLE POINT ENERGY     -1288.399325947386
Dispersion correction            ... done
Dispersion correction           -0.030916179
FINAL SINGLE POINT ENERGY     -1288.398876823791
Dispersion correction            ... done
FINAL SINGLE POINT ENERGY     -1288.399659969386
FINAL SINGLE POINT ENERGY     -1288.399706830809
FINAL SINGLE POINT ENERGY     -1288.399755401780
FINAL SINGLE POINT ENERGY     -1288.399779314003
FINAL SINGLE POINT ENERGY     -1288.399778520462
FINAL SINGLE POINT ENERGY     -1288.399777846570
FINAL SINGLE POINT ENERGY     -1288.399775212687
FINAL SINGLE POINT ENERGY     -1288.399764032248
FINAL SINGLE POINT ENERGY     -1288.399763158459
FINAL SINGLE POINT ENERGY     -1288.399770627272
Dispersion correction            ... done
Dispersion correction           -0.030787882
FINAL SINGLE POINT ENERGY     -1288.399773276574
Dispersion correction            ... done
Dispersion correction           -0.030784443
FINAL SINGLE POINT ENERGY     -1288.399774514891
Dispersion correction            ... done
                    ***********************HURRAY********************

CARTESIAN COORDINATES (ANGSTROEM)
---------------------------------
  Ir     0.618299   -0.715906    0.414291
  C      0.131094   -2.833411    0.342439
  C     -0.028894   -2.370738    1.695666
  C      2.180830   -2.067355    1.082827
  C      1.479926   -2.653173   -0.029969
  C      1.243853   -1.924247    2.137877
  N     -1.065853    0.131865   -0.518854
  C     -2.334636    0.351184    0.191362
  C     -3.139179    1.529127   -0.339017
  H     -3.966039    1.724968    0.341909
  H     -3.581661    1.333776   -1.316826
  H     -2.541655    2.439099   -0.397883
  C     -3.152632   -0.935696    0.170859
  H     -2.047073    0.568872    1.221002
  H     -4.057494   -0.808243    0.763602
  H     -3.453284   -1.194236   -0.845258
  H     -2.603078   -1.777320    0.589024
  C     -0.913035    0.459644   -1.748438
  C      0.408415    0.274591   -2.271383
  H     -1.719405    0.879030   -2.341444
  C      1.454849    0.112144   -1.359218
  C      2.667764   -0.163939   -2.066777
  S      0.885209    0.110435   -3.888452
  C      2.506583   -0.189673   -3.417211
  H      1.606373    1.129281   -0.637804
  H      3.630620   -0.275610   -1.589614
  H      3.262201   -0.346584   -4.171873
  H     -0.642289   -3.258141   -0.280912
  H     -0.927554   -2.414614    2.291847
  H      1.450492   -1.478726    3.100791
  O      1.692505    2.334135    0.151339
  O      0.549940    1.014152    1.532374
  C      1.101687    2.123841    1.220659
  C      1.035224    3.209644    2.256061
  H      1.026676    4.189683    1.785835
  H      1.927348    3.153705    2.882327
  H      0.168286    3.095800    2.901787
  H      3.235323   -1.844247    1.133892
  H      1.909632   -2.913928   -0.986098

 Multiplicity           Mult            ....    1
 Number of Electrons    NEL             ....  164
 Basis Dimension        Dim             ....  358

ORBITAL ENERGIES
----------------

  NO   OCC          E(Eh)            E(eV)
   0   2.0000     -89.767465     -2442.6969
   1   2.0000     -19.628972      -534.1315
   2   2.0000     -19.608983      -533.5876
   3   2.0000     -14.837021      -403.7359
   4   2.0000     -10.688896      -290.8596
   5   2.0000     -10.657001      -289.9917
   6   2.0000     -10.630372      -289.2671
   7   2.0000     -10.627307      -289.1837
   8   2.0000     -10.625691      -289.1398
   9   2.0000     -10.624269      -289.1011
  10   2.0000     -10.617434      -288.9151
  11   2.0000     -10.615388      -288.8594
  12   2.0000     -10.613634      -288.8117
  13   2.0000     -10.612103      -288.7700
  14   2.0000     -10.591304      -288.2040
  15   2.0000     -10.589993      -288.1684
  16   2.0000     -10.554390      -287.1995
  17   2.0000     -10.551123      -287.1106
  18   2.0000     -10.539634      -286.7980
  19   2.0000      -8.406856      -228.7622
  20   2.0000      -6.296717      -171.3424
  21   2.0000      -6.293135      -171.2449
  22   2.0000      -6.291880      -171.2108
  23   2.0000      -4.022217      -109.4501
  24   2.0000      -2.339618       -63.6642
  25   2.0000      -2.308166       -62.8084
  26   2.0000      -2.305534       -62.7368
  27   2.0000      -1.315783       -35.8043
  28   2.0000      -1.217596       -33.1325
  29   2.0000      -1.209438       -32.9105
  30   2.0000      -1.162461       -31.6322
  31   2.0000      -1.130393       -30.7596
  32   2.0000      -1.026097       -27.9215
  33   2.0000      -0.975225       -26.5372
  34   2.0000      -0.972292       -26.4574
  35   2.0000      -0.968441       -26.3526
  36   2.0000      -0.961086       -26.1525
  37   2.0000      -0.933607       -25.4047
  38   2.0000      -0.901144       -24.5214
  39   2.0000      -0.874206       -23.7884
  40   2.0000      -0.800099       -21.7718
  41   2.0000      -0.783942       -21.3322
  42   2.0000      -0.778607       -21.1870
  43   2.0000      -0.777937       -21.1688
  44   2.0000      -0.763283       -20.7700
  45   2.0000      -0.756341       -20.5811
  46   2.0000      -0.743656       -20.2359
  47   2.0000      -0.723066       -19.6756
  48   2.0000      -0.691084       -18.8053
  49   2.0000      -0.682172       -18.5628
  50   2.0000      -0.664226       -18.0745
  51   2.0000      -0.653571       -17.7846
  52   2.0000      -0.646862       -17.6020
  53   2.0000      -0.635796       -17.3009
  54   2.0000      -0.632607       -17.2141
  55   2.0000      -0.628866       -17.1123
  56   2.0000      -0.622326       -16.9344
  57   2.0000      -0.612565       -16.6687
  58   2.0000      -0.601542       -16.3688
  59   2.0000      -0.598906       -16.2971
  60   2.0000      -0.598128       -16.2759
  61   2.0000      -0.592152       -16.1133
  62   2.0000      -0.581061       -15.8115
  63   2.0000      -0.570650       -15.5282
  64   2.0000      -0.563229       -15.3262
  65   2.0000      -0.562516       -15.3069
  66   2.0000      -0.552368       -15.0307
  67   2.0000      -0.547687       -14.9033
  68   2.0000      -0.542052       -14.7500
  69   2.0000      -0.536166       -14.5898
  70   2.0000      -0.529113       -14.3979
  71   2.0000      -0.518709       -14.1148
  72   2.0000      -0.513713       -13.9788
  73   2.0000      -0.498504       -13.5650
  74   2.0000      -0.491755       -13.3813
  75   2.0000      -0.485598       -13.2138
  76   2.0000      -0.478215       -13.0129
  77   2.0000      -0.447427       -12.1751
  78   2.0000      -0.443697       -12.0736
  79   2.0000      -0.421081       -11.4582
  80   2.0000      -0.415687       -11.3114
  81   2.0000      -0.395668       -10.7667
  82   0.0000      -0.208183        -5.6650
  83   0.0000      -0.143388        -3.9018
  84   0.0000      -0.135630        -3.6907
  85   0.0000      -0.089411        -2.4330
  86   0.0000      -0.075854        -2.0641

MULLIKEN ATOMIC CHARGES
-----------------------
   0 Ir:    0.605293
   1 C :   -0.233320
   2 C :   -0.263769
   3 C :   -0.264668
   4 C :   -0.230564
   5 C :   -0.154567
   6 N :   -0.429743
   7 C :   -0.125944
   8 C :   -0.684780
   9 H :    0.270419
  10 H :    0.224313
  11 H :    0.255789
  12 C :   -0.634618
  13 H :    0.282478
  14 H :    0.260303
  15 H :    0.232115
  16 H :    0.233448
  17 C :    0.070179
  18 C :   -0.126273
  19 H :    0.287418
  20 C :   -0.564688
  21 C :   -0.094655
  22 S :    0.342763
  23 C :   -0.430150
  24 H :    0.472622
  25 H :    0.268584
  26 H :    0.299118
  27 H :    0.285903
  28 H :    0.283476
  29 H :    0.299995
  30 O :   -0.471601
  31 O :   -0.521168
  32 C :    0.624119
  33 C :   -0.743499
  34 H :    0.271225
  35 H :    0.271249
  36 H :    0.257224
  37 H :    0.283478
  38 H :    0.292497
Sum of atomic charges:    1.0000000

LOEWDIN ATOMIC CHARGES
----------------------
   0 Ir:   -0.255443
   1 C :   -0.053677
   2 C :   -0.094203
   3 C :   -0.089421
   4 C :   -0.046357
   5 C :   -0.015567
   6 N :    0.000351
   7 C :   -0.069643
   8 C :   -0.362798
   9 H :    0.156713
  10 H :    0.132884
  11 H :    0.144331
  12 C :   -0.343523
  13 H :    0.156454
  14 H :    0.151387
  15 H :    0.137724
  16 H :    0.133359
  17 C :    0.028001
  18 C :   -0.179270
  19 H :    0.161425
  20 C :   -0.217904
  21 C :   -0.120818
  22 S :    0.501293
  23 C :   -0.259733
  24 H :    0.339916
  25 H :    0.163426
  26 H :    0.169772
  27 H :    0.182236
  28 H :    0.180481
  29 H :    0.189470
  30 O :   -0.264183
  31 O :   -0.193806
  32 C :    0.157249
  33 C :   -0.373114
  34 H :    0.162100
  35 H :    0.169923
  36 H :    0.154476
  37 H :    0.182305
  38 H :    0.184186

  Mayer bond orders larger than 0.100000
B(  0-Ir,  1-C ) :   0.4298 B(  0-Ir,  2-C ) :   0.4250 B(  0-Ir,  3-C ) :   0.4650
B(  0-Ir,  4-C ) :   0.4292 B(  0-Ir,  5-C ) :   0.3800 B(  0-Ir,  6-N ) :   0.4631
B(  0-Ir, 20-C ) :   0.4529 B(  0-Ir, 31-O ) :   0.5422 B(  1-C ,  2-C ) :   1.1289
B(  1-C ,  4-C ) :   1.2340 B(  1-C , 27-H ) :   0.9073 B(  2-C ,  5-C ) :   1.1934
B(  2-C , 28-H ) :   0.9101 B(  3-C ,  4-C ) :   1.1281 B(  3-C ,  5-C ) :   1.1894
B(  3-C , 37-H ) :   0.9120 B(  4-C , 38-H ) :   0.8997 B(  5-C , 29-H ) :   0.9004
B(  6-N ,  7-C ) :   0.8952 B(  6-N , 17-C ) :   1.6545 B(  7-C ,  8-C ) :   0.9906
B(  7-C , 12-C ) :   0.9661 B(  7-C , 13-H ) :   0.8742 B(  8-C ,  9-H ) :   0.9044
B(  8-C , 10-H ) :   0.9130 B(  8-C , 11-H ) :   0.9111 B( 12-C , 14-H ) :   0.9074
B( 12-C , 15-H ) :   0.9153 B( 12-C , 16-H ) :   0.9117 B( 17-C , 18-C ) :   1.1024
B( 17-C , 19-H ) :   0.8759 B( 18-C , 20-C ) :   1.2250 B( 18-C , 22-S ) :   1.2558
B( 20-C , 21-C ) :   1.2544 B( 20-C , 24-H ) :   0.3978 B( 21-C , 23-C ) :   1.5530
B( 21-C , 25-H ) :   0.9019 B( 22-S , 23-C ) :   1.2087 B( 23-C , 26-H ) :   0.8910
B( 24-H , 30-O ) :   0.3031 B( 30-O , 32-C ) :   1.6270 B( 31-O , 32-C ) :   1.3342
B( 32-C , 33-C ) :   0.9436 B( 33-C , 34-H ) :   0.9026 B( 33-C , 35-H ) :   0.8959
B( 33-C , 36-H ) :   0.9086

Dispersion correction           -0.030783353
FINAL SINGLE POINT ENERGY     -1288.399773928936

DIPOLE MOMENT
-------------
                                X             Y             Z
Electronic contribution:     37.90964     -71.25493      70.19334
Nuclear contribution   :    -38.56056      70.53721     -70.58664
                        -----------------------------------------
Total Dipole Moment    :     -0.65091      -0.71772      -0.39330
                        -----------------------------------------
Magnitude (a.u.)       :      1.04570
Magnitude (Debye)      :      2.65796

Rotational constants in cm-1:     0.010520     0.008981     0.008247
Rotational constants in MHz :   315.394437   269.252130   247.251000

                             ****ORCA TERMINATED NORMALLY****
TOTAL RUN TIME: 0 days 2 hours 1 minutes 23 seconds 628 msec
