                         Program Version 5.0.3 -  RELEASE  -
|  1> ! Opt PBEh-3c
|  2> %geom Constraints
|  3> { B 0 20 2.257142857142857 C }
|  4> { B 24 30 1.3857142857142857 C }
|  5>     end
|  6> end
|  7> %output
|  8> xyzfile=True
|  9> end
| 10> %scf
| 11> maxiter 250
| 12> end
| 13> %output
| 14> Print[P_Hirshfeld] = 1
| 15> end
| 16> % maxcore
| 17> 4000
| 18> *xyz 1 1
| 19> Ir   0.61009988  -0.72268621   0.45506617
| 20> C    0.07499806  -2.81951422   0.36836997
| 21> C    0.03297619  -2.35381343   1.72928160
| 22> C    2.19439054  -2.11581167   0.95122713
| 23> C    1.38808947  -2.65971476  -0.11606888
| 24> C    1.36104275  -1.95855054   2.07873601
| 25> N   -1.04480223   0.13554725  -0.51788959
| 26> C   -2.31728839   0.40445672   0.17141542
| 27> C   -3.10583486   1.55774365  -0.43082631
| 28> H   -3.93301113   1.80395472   0.23352199
| 29> H   -3.54752027   1.31094566  -1.39726003
| 30> H   -2.49726726   2.45566741  -0.54023036
| 31> C   -3.14659646  -0.87349657   0.22647445
| 32> H   -2.03166627   0.67872202   1.18796380
| 33> H   -4.05699248  -0.69685964   0.79754145
| 34> H   -3.43797409  -1.19884195  -0.77303692
| 35> H   -2.61066314  -1.68795214   0.71127482
| 36> C   -0.87792780   0.39376276  -1.76068549
| 37> C    0.45452073   0.21035794  -2.27095998
| 38> H   -1.68326991   0.76803828  -2.38554890
| 39> C    1.53578202   0.27890563  -1.39693988
| 40> C    2.74384087  -0.03967343  -2.08307970
| 41> S    0.89968073  -0.20543577  -3.85771941
| 42> C    2.54984660  -0.31505812  -3.40185077
| 43> H    1.54708860   1.24095277  -0.61497967
| 44> H    3.72266142  -0.00950443  -1.62700663
| 45> H    3.29435023  -0.55526867  -4.14567075
| 46> H   -0.76120606  -3.20674262  -0.19584125
| 47> H   -0.81631844  -2.38313199   2.39526168
| 48> H    1.65913871  -1.53640890   3.02797497
| 49> O    1.48531170   2.38895319   0.18394377
| 50> O    0.54283939   0.96599017   1.61472114
| 51> C    0.99793820   2.11863138   1.28877930
| 52> C    0.94172109   3.16501954   2.36401969
| 53> H    0.92621890   4.16276643   1.93389641
| 54> H    1.83770114   3.08336557   2.98238516
| 55> H    0.08221991   3.02372150   3.01522915
| 56> H    3.25100828  -1.89977125   0.90731301
| 57> H    1.73424352  -2.91007634  -1.10806248
| 58> *
| 59>
| 60>                          ****END OF INPUT****
 Total Charge           Charge          ....    1
 Multiplicity           Mult            ....    1
 Number of Electrons    NEL             ....  164
Dispersion correction           -0.030868830
FINAL SINGLE POINT ENERGY     -1288.400704557933
Dispersion correction            ... done
Dispersion correction           -0.030803040
FINAL SINGLE POINT ENERGY     -1288.400564934828
Dispersion correction            ... done
Dispersion correction           -0.030817673
FINAL SINGLE POINT ENERGY     -1288.400037244243
Dispersion correction            ... done
FINAL SINGLE POINT ENERGY     -1288.400956041952
FINAL SINGLE POINT ENERGY     -1288.401023392799
FINAL SINGLE POINT ENERGY     -1288.401049949200
FINAL SINGLE POINT ENERGY     -1288.401087434401
FINAL SINGLE POINT ENERGY     -1288.401118056625
FINAL SINGLE POINT ENERGY     -1288.401133646736
FINAL SINGLE POINT ENERGY     -1288.401146240524
FINAL SINGLE POINT ENERGY     -1288.401157016425
FINAL SINGLE POINT ENERGY     -1288.401171381682
FINAL SINGLE POINT ENERGY     -1288.401177059865
FINAL SINGLE POINT ENERGY     -1288.401183608557
FINAL SINGLE POINT ENERGY     -1288.401185755682
Dispersion correction            ... done
Dispersion correction           -0.030652821
FINAL SINGLE POINT ENERGY     -1288.401187748733
Dispersion correction            ... done
Dispersion correction           -0.030651419
FINAL SINGLE POINT ENERGY     -1288.401188511347
Dispersion correction            ... done
                    ***********************HURRAY********************

CARTESIAN COORDINATES (ANGSTROEM)
---------------------------------
  Ir     0.608180   -0.723025    0.454149
  C      0.110408   -2.829389    0.352631
  C     -0.028286   -2.363825    1.708049
  C      2.177020   -2.087455    1.071930
  C      1.452773   -2.653234   -0.039052
  C      1.261884   -1.940293    2.139868
  N     -1.055635    0.126027   -0.510625
  C     -2.331417    0.361319    0.184706
  C     -3.121249    1.539257   -0.367592
  H     -3.951412    1.752440    0.304245
  H     -3.558376    1.335596   -1.346040
  H     -2.514646    2.442634   -0.434244
  C     -3.158509   -0.919409    0.173113
  H     -2.053115    0.590513    1.214302
  H     -4.068208   -0.777749    0.755115
  H     -3.451262   -1.189696   -0.842292
  H     -2.619290   -1.759219    0.608402
  C     -0.896446    0.419835   -1.747307
  C      0.428082    0.247793   -2.273789
  H     -1.707624    0.809722   -2.354731
  C      1.507611    0.204441   -1.396668
  C      2.707642   -0.084256   -2.110004
  S      0.865477   -0.030469   -3.892273
  C      2.508853   -0.228283   -3.449611
  H      1.601403    1.182356   -0.598208
  H      3.686473   -0.124230   -1.654723
  H      3.248538   -0.419099   -4.212268
  H     -0.677342   -3.238036   -0.263537
  H     -0.918146   -2.405894    2.317826
  H      1.487334   -1.506355    3.103846
  O      1.652396    2.326299    0.182176
  O      0.539401    0.997598    1.578534
  C      1.077284    2.112073    1.260462
  C      1.017025    3.196226    2.296513
  H      0.985600    4.176135    1.826927
  H      1.922825    3.153004    2.904072
  H      0.165465    3.070382    2.960210
  H      3.232253   -1.863663    1.102333
  H      1.866404   -2.900883   -1.005706

 Multiplicity           Mult            ....    1
 Number of Electrons    NEL             ....  164
 Basis Dimension        Dim             ....  358

ORBITAL ENERGIES
----------------

  NO   OCC          E(Eh)            E(eV)
   0   2.0000     -89.762694     -2442.5671
   1   2.0000     -19.630415      -534.1707
   2   2.0000     -19.608978      -533.5874
   3   2.0000     -14.835818      -403.7031
   4   2.0000     -10.690746      -290.9100
   5   2.0000     -10.656899      -289.9890
   6   2.0000     -10.630004      -289.2571
   7   2.0000     -10.628485      -289.2158
   8   2.0000     -10.626705      -289.1673
   9   2.0000     -10.626564      -289.1635
  10   2.0000     -10.622140      -289.0431
  11   2.0000     -10.619205      -288.9632
  12   2.0000     -10.613568      -288.8099
  13   2.0000     -10.609345      -288.6949
  14   2.0000     -10.586777      -288.0809
  15   2.0000     -10.586272      -288.0671
  16   2.0000     -10.554649      -287.2066
  17   2.0000     -10.550803      -287.1019
  18   2.0000     -10.540179      -286.8129
  19   2.0000      -8.402142      -228.6339
  20   2.0000      -6.292045      -171.2153
  21   2.0000      -6.288468      -171.1179
  22   2.0000      -6.287092      -171.0805
  23   2.0000      -4.024204      -109.5042
  24   2.0000      -2.342207       -63.7347
  25   2.0000      -2.309440       -62.8431
  26   2.0000      -2.307318       -62.7853
  27   2.0000      -1.318030       -35.8654
  28   2.0000      -1.219798       -33.1924
  29   2.0000      -1.207962       -32.8703
  30   2.0000      -1.165824       -31.7237
  31   2.0000      -1.126523       -30.6542
  32   2.0000      -1.024438       -27.8764
  33   2.0000      -0.979132       -26.6435
  34   2.0000      -0.971520       -26.4364
  35   2.0000      -0.966792       -26.3078
  36   2.0000      -0.958859       -26.0919
  37   2.0000      -0.934962       -25.4416
  38   2.0000      -0.900870       -24.5139
  39   2.0000      -0.872246       -23.7350
  40   2.0000      -0.797832       -21.7101
  41   2.0000      -0.781992       -21.2791
  42   2.0000      -0.781254       -21.2590
  43   2.0000      -0.780376       -21.2351
  44   2.0000      -0.766174       -20.8487
  45   2.0000      -0.758931       -20.6516
  46   2.0000      -0.742347       -20.2003
  47   2.0000      -0.722585       -19.6625
  48   2.0000      -0.691039       -18.8041
  49   2.0000      -0.680857       -18.5271
  50   2.0000      -0.663205       -18.0467
  51   2.0000      -0.654601       -17.8126
  52   2.0000      -0.647310       -17.6142
  53   2.0000      -0.637373       -17.3438
  54   2.0000      -0.634583       -17.2679
  55   2.0000      -0.631549       -17.1853
  56   2.0000      -0.622087       -16.9278
  57   2.0000      -0.610286       -16.6067
  58   2.0000      -0.601730       -16.3739
  59   2.0000      -0.601075       -16.3561
  60   2.0000      -0.598291       -16.2803
  61   2.0000      -0.590585       -16.0706
  62   2.0000      -0.578673       -15.7465
  63   2.0000      -0.568378       -15.4664
  64   2.0000      -0.562888       -15.3170
  65   2.0000      -0.562116       -15.2960
  66   2.0000      -0.552750       -15.0411
  67   2.0000      -0.547635       -14.9019
  68   2.0000      -0.541314       -14.7299
  69   2.0000      -0.535249       -14.5649
  70   2.0000      -0.528340       -14.3769
  71   2.0000      -0.518480       -14.1086
  72   2.0000      -0.513882       -13.9834
  73   2.0000      -0.500857       -13.6290
  74   2.0000      -0.493405       -13.4262
  75   2.0000      -0.480070       -13.0634
  76   2.0000      -0.476152       -12.9567
  77   2.0000      -0.446512       -12.1502
  78   2.0000      -0.445471       -12.1219
  79   2.0000      -0.419529       -11.4160
  80   2.0000      -0.417510       -11.3610
  81   2.0000      -0.398576       -10.8458
  82   0.0000      -0.203147        -5.5279
  83   0.0000      -0.145945        -3.9714
  84   0.0000      -0.141836        -3.8596
  85   0.0000      -0.088697        -2.4136
  86   0.0000      -0.073311        -1.9949

MULLIKEN ATOMIC CHARGES
-----------------------
   0 Ir:    0.605233
   1 C :   -0.226803
   2 C :   -0.274644
   3 C :   -0.256073
   4 C :   -0.232358
   5 C :   -0.159184
   6 N :   -0.433316
   7 C :   -0.126380
   8 C :   -0.683743
   9 H :    0.269789
  10 H :    0.224449
  11 H :    0.256347
  12 C :   -0.634612
  13 H :    0.281275
  14 H :    0.260734
  15 H :    0.231805
  16 H :    0.231934
  17 C :    0.070411
  18 C :   -0.146055
  19 H :    0.286472
  20 C :   -0.512883
  21 C :   -0.116301
  22 S :    0.331037
  23 C :   -0.428961
  24 H :    0.481920
  25 H :    0.265777
  26 H :    0.297685
  27 H :    0.287658
  28 H :    0.285991
  29 H :    0.301954
  30 O :   -0.481204
  31 O :   -0.522896
  32 C :    0.627158
  33 C :   -0.744349
  34 H :    0.271766
  35 H :    0.271614
  36 H :    0.257801
  37 H :    0.286773
  38 H :    0.294181
Sum of atomic charges:    1.0000000

LOEWDIN ATOMIC CHARGES
----------------------
   0 Ir:   -0.246053
   1 C :   -0.050882
   2 C :   -0.085402
   3 C :   -0.080816
   4 C :   -0.044892
   5 C :   -0.015669
   6 N :   -0.005859
   7 C :   -0.069473
   8 C :   -0.362652
   9 H :    0.156420
  10 H :    0.132849
  11 H :    0.144636
  12 C :   -0.343767
  13 H :    0.155727
  14 H :    0.151538
  15 H :    0.137545
  16 H :    0.132739
  17 C :    0.031083
  18 C :   -0.186630
  19 H :    0.160668
  20 C :   -0.213785
  21 C :   -0.129115
  22 S :    0.488700
  23 C :   -0.260197
  24 H :    0.332376
  25 H :    0.161975
  26 H :    0.168731
  27 H :    0.183256
  28 H :    0.182055
  29 H :    0.190770
  30 O :   -0.267642
  31 O :   -0.193374
  32 C :    0.161129
  33 C :   -0.373062
  34 H :    0.162560
  35 H :    0.170271
  36 H :    0.154730
  37 H :    0.183937
  38 H :    0.185576

  Mayer bond orders larger than 0.100000
B(  0-Ir,  1-C ) :   0.4259 B(  0-Ir,  2-C ) :   0.4687 B(  0-Ir,  3-C ) :   0.4634
B(  0-Ir,  4-C ) :   0.4393 B(  0-Ir,  5-C ) :   0.3943 B(  0-Ir,  6-N ) :   0.4646
B(  0-Ir, 20-C ) :   0.3794 B(  0-Ir, 31-O ) :   0.5447 B(  1-C ,  2-C ) :   1.1252
B(  1-C ,  4-C ) :   1.2373 B(  1-C , 27-H ) :   0.9061 B(  2-C ,  5-C ) :   1.1686
B(  2-C , 28-H ) :   0.9097 B(  3-C ,  4-C ) :   1.1206 B(  3-C ,  5-C ) :   1.2045
B(  3-C , 37-H ) :   0.9100 B(  4-C , 38-H ) :   0.8999 B(  5-C , 29-H ) :   0.8994
B(  6-N ,  7-C ) :   0.8939 B(  6-N , 17-C ) :   1.6603 B(  7-C ,  8-C ) :   0.9907
B(  7-C , 12-C ) :   0.9670 B(  7-C , 13-H ) :   0.8754 B(  8-C ,  9-H ) :   0.9045
B(  8-C , 10-H ) :   0.9131 B(  8-C , 11-H ) :   0.9109 B( 12-C , 14-H ) :   0.9074
B( 12-C , 15-H ) :   0.9155 B( 12-C , 16-H ) :   0.9124 B( 17-C , 18-C ) :   1.0958
B( 17-C , 19-H ) :   0.8759 B( 18-C , 20-C ) :   1.2566 B( 18-C , 22-S ) :   1.2387
B( 20-C , 21-C ) :   1.2747 B( 20-C , 24-H ) :   0.3941 B( 21-C , 23-C ) :   1.5452
B( 21-C , 25-H ) :   0.9037 B( 22-S , 23-C ) :   1.2135 B( 23-C , 26-H ) :   0.8914
B( 24-H , 30-O ) :   0.3015 B( 30-O , 32-C ) :   1.6161 B( 31-O , 32-C ) :   1.3357
B( 32-C , 33-C ) :   0.9459 B( 33-C , 34-H ) :   0.9022 B( 33-C , 35-H ) :   0.8955
B( 33-C , 36-H ) :   0.9086

Dispersion correction           -0.030653240
FINAL SINGLE POINT ENERGY     -1288.401188925533

DIPOLE MOMENT
-------------
                                X             Y             Z
Electronic contribution:     37.08356     -70.94872      74.06098
Nuclear contribution   :    -37.72069      70.15447     -74.33093
                        -----------------------------------------
Total Dipole Moment    :     -0.63713      -0.79425      -0.26995
                        -----------------------------------------
Magnitude (a.u.)       :      1.05340
Magnitude (Debye)      :      2.67752

Rotational constants in cm-1:     0.010529     0.008887     0.008189
Rotational constants in MHz :   315.655488   266.431004   245.502743

                             ****ORCA TERMINATED NORMALLY****
TOTAL RUN TIME: 0 days 2 hours 12 minutes 22 seconds 636 msec
