                         Program Version 5.0.3 -  RELEASE  -
|  1> ! Opt PBEh-3c
|  2> %geom Constraints
|  3> { B 0 20 2.257142857142857 C }
|  4> { B 24 30 1.3 C }
|  5>     end
|  6> end
|  7> %output
|  8> xyzfile=True
|  9> end
| 10> %scf
| 11> maxiter 250
| 12> end
| 13> %output
| 14> Print[P_Hirshfeld] = 1
| 15> end
| 16> % maxcore
| 17> 4000
| 18> *xyz 1 1
| 19> Ir   0.59657777  -0.74023058   0.48168766
| 20> C    0.08090609  -2.83772466   0.39835510
| 21> C   -0.07044423  -2.35889269   1.74761644
| 22> C    2.14640918  -2.11145378   1.13645234
| 23> C    1.43075630  -2.67819874   0.02136232
| 24> C    1.21869580  -1.94369111   2.19053773
| 25> N   -1.05250003   0.10950953  -0.50541056
| 26> C   -2.33902857   0.32270068   0.17897965
| 27> C   -3.12846551   1.50949495  -0.35568336
| 28> H   -3.96561795   1.70502738   0.31273567
| 29> H   -3.55541062   1.32590504  -1.34253408
| 30> H   -2.52467657   2.41628181  -0.39735239
| 31> C   -3.16196680  -0.95949951   0.12885256
| 32> H   -2.07689958   0.53197683   1.21716196
| 33> H   -4.08267940  -0.83224204   0.69686091
| 34> H   -3.43537741  -1.21106163  -0.89672562
| 35> H   -2.62877191  -1.80662243   0.55711996
| 36> C   -0.88722035   0.43053284  -1.73581402
| 37> C    0.43298486   0.28404743  -2.27456393
| 38> H   -1.70259348   0.82568369  -2.33434786
| 39> C    1.51751452   0.17783798  -1.41542214
| 40> C    2.70974650  -0.06853991  -2.15030288
| 41> S    0.86107862   0.13063575  -3.91663213
| 42> C    2.50207850  -0.10894828  -3.49816888
| 43> H    1.64588039   1.18626138  -0.55493577
| 44> H    3.69083957  -0.15466811  -1.70650209
| 45> H    3.23771547  -0.24920779  -4.27565315
| 46> H   -0.70196677  -3.24511110  -0.22475099
| 47> H   -0.96742186  -2.38865630   2.34757241
| 48> H    1.43681100  -1.50311867   3.15323367
| 49> O    1.72929856   2.27286904   0.17968804
| 50> O    0.54117851   1.01032981   1.57475317
| 51> C    1.11731308   2.09617861   1.25312289
| 52> C    1.07283081   3.21357638   2.25123416
| 53> H    0.99798748   4.17479034   1.74818848
| 54> H    2.00544934   3.21703834   2.81829633
| 55> H    0.25162033   3.09162688   2.95198802
| 56> H    3.20315717  -1.89686858   1.17765101
| 57> H    1.85358123  -2.93837875  -0.93791043
| 58> *
| 59>
| 60>                          ****END OF INPUT****
 Total Charge           Charge          ....    1
 Multiplicity           Mult            ....    1
 Number of Electrons    NEL             ....  164
Dispersion correction           -0.030544192
FINAL SINGLE POINT ENERGY     -1288.403299198674
Dispersion correction            ... done
Dispersion correction           -0.030503279
FINAL SINGLE POINT ENERGY     -1288.403551595747
Dispersion correction            ... done
Dispersion correction           -0.030482329
FINAL SINGLE POINT ENERGY     -1288.403641383754
Dispersion correction            ... done
FINAL SINGLE POINT ENERGY     -1288.403695950172
FINAL SINGLE POINT ENERGY     -1288.403735116374
FINAL SINGLE POINT ENERGY     -1288.403752962987
FINAL SINGLE POINT ENERGY     -1288.403762359317
FINAL SINGLE POINT ENERGY     -1288.403767596036
FINAL SINGLE POINT ENERGY     -1288.403772342753
FINAL SINGLE POINT ENERGY     -1288.403780427786
FINAL SINGLE POINT ENERGY     -1288.403790143268
FINAL SINGLE POINT ENERGY     -1288.403799104596
Dispersion correction            ... done
Dispersion correction           -0.030412259
FINAL SINGLE POINT ENERGY     -1288.403804162593
Dispersion correction            ... done
Dispersion correction           -0.030413675
FINAL SINGLE POINT ENERGY     -1288.403806435318
Dispersion correction            ... done
                    ***********************HURRAY********************

CARTESIAN COORDINATES (ANGSTROEM)
---------------------------------
  Ir     0.597722   -0.741981    0.471903
  C      0.111873   -2.845039    0.382438
  C     -0.109869   -2.373071    1.724984
  C      2.129675   -2.086975    1.217916
  C      1.479280   -2.671251    0.075863
  C      1.143845   -1.933103    2.226157
  N     -1.061688    0.101206   -0.503013
  C     -2.348273    0.292480    0.187090
  C     -3.134616    1.499825   -0.304537
  H     -3.973577    1.670869    0.368188
  H     -3.558020    1.355599   -1.299393
  H     -2.528572    2.406037   -0.309267
  C     -3.172501   -0.986084    0.088717
  H     -2.088006    0.464441    1.232575
  H     -4.090808   -0.882798    0.665473
  H     -3.449911   -1.195814   -0.945159
  H     -2.636873   -1.850452    0.478062
  C     -0.903468    0.444564   -1.728723
  C      0.412008    0.301543   -2.275911
  H     -1.721850    0.851829   -2.314703
  C      1.485896    0.118831   -1.416176
  C      2.679690   -0.104685   -2.155996
  S      0.851324    0.243582   -3.920921
  C      2.482597   -0.054893   -3.505614
  H      1.666205    1.174075   -0.563805
  H      3.655159   -0.240347   -1.712042
  H      3.222619   -0.161835   -4.284238
  H     -0.631193   -3.271241   -0.275686
  H     -1.034832   -2.413340    2.279938
  H      1.305810   -1.485519    3.196687
  O      1.785154    2.254806    0.148845
  O      0.556382    1.031165    1.542535
  C      1.157865    2.098196    1.221589
  C      1.133990    3.230413    2.202487
  H      1.009816    4.180283    1.686948
  H      2.093758    3.270172    2.720445
  H      0.349913    3.101200    2.942821
  H      3.181098   -1.864961    1.315108
  H      1.951746   -2.928538   -0.860847

 Multiplicity           Mult            ....    1
 Number of Electrons    NEL             ....  164
 Basis Dimension        Dim             ....  358

ORBITAL ENERGIES
----------------

  NO   OCC          E(Eh)            E(eV)
   0   2.0000     -89.757011     -2442.4124
   1   2.0000     -19.639972      -534.4308
   2   2.0000     -19.629653      -534.1500
   3   2.0000     -14.830501      -403.5584
   4   2.0000     -10.703070      -291.2453
   5   2.0000     -10.652577      -289.8714
   6   2.0000     -10.628141      -289.2064
   7   2.0000     -10.625656      -289.1388
   8   2.0000     -10.624670      -289.1120
   9   2.0000     -10.618770      -288.9514
  10   2.0000     -10.617944      -288.9289
  11   2.0000     -10.614965      -288.8479
  12   2.0000     -10.611826      -288.7625
  13   2.0000     -10.606014      -288.6043
  14   2.0000     -10.586223      -288.0658
  15   2.0000     -10.582859      -287.9742
  16   2.0000     -10.552681      -287.1531
  17   2.0000     -10.549621      -287.0698
  18   2.0000     -10.547883      -287.0225
  19   2.0000      -8.396445      -228.4789
  20   2.0000      -6.286354      -171.0604
  21   2.0000      -6.282832      -170.9646
  22   2.0000      -6.281354      -170.9243
  23   2.0000      -4.021908      -109.4417
  24   2.0000      -2.339423       -63.6589
  25   2.0000      -2.307518       -62.7908
  26   2.0000      -2.304390       -62.7056
  27   2.0000      -1.332732       -36.2655
  28   2.0000      -1.234023       -33.5795
  29   2.0000      -1.202924       -32.7332
  30   2.0000      -1.162990       -31.6466
  31   2.0000      -1.121689       -30.5227
  32   2.0000      -1.021107       -27.7857
  33   2.0000      -0.975895       -26.5555
  34   2.0000      -0.968889       -26.3648
  35   2.0000      -0.962377       -26.1876
  36   2.0000      -0.955198       -25.9923
  37   2.0000      -0.943733       -25.6803
  38   2.0000      -0.899104       -24.4659
  39   2.0000      -0.868324       -23.6283
  40   2.0000      -0.794477       -21.6188
  41   2.0000      -0.779102       -21.2005
  42   2.0000      -0.778807       -21.1924
  43   2.0000      -0.777205       -21.1488
  44   2.0000      -0.767710       -20.8905
  45   2.0000      -0.763417       -20.7736
  46   2.0000      -0.740157       -20.1407
  47   2.0000      -0.721874       -19.6432
  48   2.0000      -0.692838       -18.8531
  49   2.0000      -0.682498       -18.5717
  50   2.0000      -0.664374       -18.0785
  51   2.0000      -0.662106       -18.0168
  52   2.0000      -0.650317       -17.6960
  53   2.0000      -0.638550       -17.3758
  54   2.0000      -0.632209       -17.2033
  55   2.0000      -0.630332       -17.1522
  56   2.0000      -0.620767       -16.8919
  57   2.0000      -0.606833       -16.5128
  58   2.0000      -0.599064       -16.3014
  59   2.0000      -0.598355       -16.2821
  60   2.0000      -0.595425       -16.2023
  61   2.0000      -0.588950       -16.0262
  62   2.0000      -0.575973       -15.6730
  63   2.0000      -0.571088       -15.5401
  64   2.0000      -0.561489       -15.2789
  65   2.0000      -0.560127       -15.2418
  66   2.0000      -0.557589       -15.1728
  67   2.0000      -0.545528       -14.8446
  68   2.0000      -0.541369       -14.7314
  69   2.0000      -0.534465       -14.5435
  70   2.0000      -0.527988       -14.3673
  71   2.0000      -0.517456       -14.0807
  72   2.0000      -0.512824       -13.9547
  73   2.0000      -0.503781       -13.7086
  74   2.0000      -0.498376       -13.5615
  75   2.0000      -0.478910       -13.0318
  76   2.0000      -0.478113       -13.0101
  77   2.0000      -0.449820       -12.2402
  78   2.0000      -0.445209       -12.1147
  79   2.0000      -0.417551       -11.3621
  80   2.0000      -0.414647       -11.2831
  81   2.0000      -0.395972       -10.7749
  82   0.0000      -0.196938        -5.3589
  83   0.0000      -0.142173        -3.8687
  84   0.0000      -0.140432        -3.8214
  85   0.0000      -0.083189        -2.2637
  86   0.0000      -0.074074        -2.0157

MULLIKEN ATOMIC CHARGES
-----------------------
   0 Ir:    0.600580
   1 C :   -0.238613
   2 C :   -0.270760
   3 C :   -0.262990
   4 C :   -0.225177
   5 C :   -0.158053
   6 N :   -0.441405
   7 C :   -0.125533
   8 C :   -0.680450
   9 H :    0.268246
  10 H :    0.224715
  11 H :    0.253256
  12 C :   -0.633394
  13 H :    0.276662
  14 H :    0.258390
  15 H :    0.232549
  16 H :    0.231590
  17 C :    0.069461
  18 C :   -0.141016
  19 H :    0.282858
  20 C :   -0.497028
  21 C :   -0.128349
  22 S :    0.331668
  23 C :   -0.424081
  24 H :    0.479280
  25 H :    0.263149
  26 H :    0.295976
  27 H :    0.286887
  28 H :    0.283640
  29 H :    0.298806
  30 O :   -0.493036
  31 O :   -0.504756
  32 C :    0.636297
  33 C :   -0.744579
  34 H :    0.274937
  35 H :    0.277016
  36 H :    0.263683
  37 H :    0.284830
  38 H :    0.294746
Sum of atomic charges:    1.0000000

LOEWDIN ATOMIC CHARGES
----------------------
   0 Ir:   -0.253753
   1 C :   -0.056160
   2 C :   -0.091019
   3 C :   -0.090421
   4 C :   -0.037905
   5 C :   -0.015926
   6 N :   -0.012825
   7 C :   -0.068804
   8 C :   -0.362006
   9 H :    0.155608
  10 H :    0.132734
  11 H :    0.143125
  12 C :   -0.344242
  13 H :    0.153233
  14 H :    0.150425
  15 H :    0.137926
  16 H :    0.132217
  17 C :    0.031559
  18 C :   -0.201823
  19 H :    0.158747
  20 C :   -0.216453
  21 C :   -0.137887
  22 S :    0.483517
  23 C :   -0.257395
  24 H :    0.357413
  25 H :    0.160015
  26 H :    0.168065
  27 H :    0.182979
  28 H :    0.180735
  29 H :    0.188898
  30 O :   -0.260064
  31 O :   -0.176247
  32 C :    0.171433
  33 C :   -0.370971
  34 H :    0.166319
  35 H :    0.173119
  36 H :    0.156798
  37 H :    0.183014
  38 H :    0.186022

  Mayer bond orders larger than 0.100000
B(  0-Ir,  1-C ) :   0.4406 B(  0-Ir,  2-C ) :   0.4459 B(  0-Ir,  3-C ) :   0.4653
B(  0-Ir,  4-C ) :   0.4372 B(  0-Ir,  5-C ) :   0.3898 B(  0-Ir,  6-N ) :   0.4678
B(  0-Ir, 20-C ) :   0.4280 B(  0-Ir, 31-O ) :   0.5137 B(  1-C ,  2-C ) :   1.1262
B(  1-C ,  4-C ) :   1.2250 B(  1-C , 27-H ) :   0.9072 B(  2-C ,  5-C ) :   1.1883
B(  2-C , 28-H ) :   0.9101 B(  3-C ,  4-C ) :   1.1327 B(  3-C ,  5-C ) :   1.1879
B(  3-C , 37-H ) :   0.9113 B(  4-C , 38-H ) :   0.9001 B(  5-C , 29-H ) :   0.9006
B(  6-N ,  7-C ) :   0.8955 B(  6-N , 17-C ) :   1.6460 B(  7-C ,  8-C ) :   0.9905
B(  7-C , 12-C ) :   0.9675 B(  7-C , 13-H ) :   0.8790 B(  8-C ,  9-H ) :   0.9050
B(  8-C , 10-H ) :   0.9131 B(  8-C , 11-H ) :   0.9125 B( 12-C , 14-H ) :   0.9080
B( 12-C , 15-H ) :   0.9154 B( 12-C , 16-H ) :   0.9128 B( 17-C , 18-C ) :   1.1143
B( 17-C , 19-H ) :   0.8767 B( 18-C , 20-C ) :   1.2610 B( 18-C , 22-S ) :   1.2176
B( 20-C , 21-C ) :   1.2975 B( 20-C , 24-H ) :   0.3205 B( 21-C , 23-C ) :   1.5310
B( 21-C , 25-H ) :   0.9043 B( 22-S , 23-C ) :   1.2274 B( 23-C , 26-H ) :   0.8917
B( 24-H , 30-O ) :   0.3591 B( 30-O , 32-C ) :   1.5333 B( 31-O , 32-C ) :   1.3986
B( 32-C , 33-C ) :   0.9474 B( 33-C , 34-H ) :   0.8985 B( 33-C , 35-H ) :   0.8922
B( 33-C , 36-H ) :   0.9076

Dispersion correction           -0.030415385
FINAL SINGLE POINT ENERGY     -1288.403807922628

DIPOLE MOMENT
-------------
                                X             Y             Z
Electronic contribution:     36.12381     -74.27854      76.11208
Nuclear contribution   :    -36.69746      73.82006     -76.18232
                        -----------------------------------------
Total Dipole Moment    :     -0.57364      -0.45849      -0.07024
                        -----------------------------------------
Magnitude (a.u.)       :      0.73771
Magnitude (Debye)      :      1.87510

Rotational constants in cm-1:     0.010558     0.008635     0.008119
Rotational constants in MHz :   316.526444   258.881101   243.387457

                             ****ORCA TERMINATED NORMALLY****
TOTAL RUN TIME: 0 days 1 hours 57 minutes 44 seconds 323 msec
