                         Program Version 5.0.3 -  RELEASE  -
|  1> ! Opt PBEh-3c
|  2> %geom Constraints
|  3> { B 0 20 2.0428571428571427 C }
|  4> { B 24 30 1.4428571428571428 C }
|  5>     end
|  6> end
|  7> %output
|  8> xyzfile=True
|  9> end
| 10> %scf
| 11> maxiter 250
| 12> end
| 13> %output
| 14> Print[P_Hirshfeld] = 1
| 15> end
| 16> % maxcore
| 17> 4000
| 18> *xyz 1 1
| 19> Ir   0.62599146  -0.72024179   0.40273016
| 20> C    0.15214798  -2.84093529   0.32133487
| 21> C   -0.04181264  -2.39007350   1.67489626
| 22> C    2.17843336  -2.06366936   1.11411792
| 23> C    1.51023378  -2.65337371  -0.01451622
| 24> C    1.21245986  -1.93446192   2.14837337
| 25> N   -1.06551166   0.13090900  -0.51463977
| 26> C   -2.32998962   0.34543703   0.20381954
| 27> C   -3.12873842   1.53800890  -0.30224923
| 28> H   -3.95366754   1.72505244   0.38342034
| 29> H   -3.57304709   1.36487348  -1.28338793
| 30> H   -2.52591960   2.44547593  -0.34375172
| 31> C   -3.15533205  -0.93626127   0.16166524
| 32> H   -2.03778534   0.54292571   1.23619682
| 33> H   -4.05484406  -0.81721429   0.76423247
| 34> H   -3.46513121  -1.17095387  -0.85747987
| 35> H   -2.60686280  -1.79000887   0.55608757
| 36> C   -0.91792177   0.47066098  -1.74192762
| 37> C    0.40060860   0.27882590  -2.26760208
| 38> H   -1.72338158   0.90218113  -2.32706600
| 39> C    1.43607098   0.07454066  -1.34721159
| 40> C    2.65235718  -0.19563777  -2.05613899
| 41> S    0.88951566   0.15995760  -3.88325407
| 42> C    2.50275194  -0.17758931  -3.40738905
| 43> H    1.60617806   1.11655962  -0.66441209
| 44> H    3.60986067  -0.33397590  -1.57501383
| 45> H    3.26293978  -0.32105801  -4.16013870
| 46> H   -0.60128245  -3.27308413  -0.32094747
| 47> H   -0.95490744  -2.44080523   2.24806552
| 48> H    1.39176240  -1.49167996   3.11797700
| 49> O    1.69166508   2.34084706   0.12113073
| 50> O    0.56753767   1.01674733   1.51371936
| 51> C    1.10658370   2.12968725   1.19366419
| 52> C    1.03208074   3.22299852   2.22102211
| 53> H    0.95208168   4.19501366   1.74032620
| 54> H    1.95557974   3.22328549   2.80261424
| 55> H    0.20279445   3.07498668   2.90750978
| 56> H    3.23074604  -1.83945153   1.19529236
| 57> H    1.96512448  -2.90930872  -0.96032966
| 58> *
| 59>
| 60>                          ****END OF INPUT****
 Total Charge           Charge          ....    1
 Multiplicity           Mult            ....    1
 Number of Electrons    NEL             ....  164
Dispersion correction           -0.030937688
FINAL SINGLE POINT ENERGY     -1288.396532337557
Dispersion correction            ... done
Dispersion correction           -0.030891105
FINAL SINGLE POINT ENERGY     -1288.396621485073
Dispersion correction            ... done
Dispersion correction           -0.030898593
FINAL SINGLE POINT ENERGY     -1288.395756154177
Dispersion correction            ... done
FINAL SINGLE POINT ENERGY     -1288.396871525490
FINAL SINGLE POINT ENERGY     -1288.396899987083
FINAL SINGLE POINT ENERGY     -1288.396932792627
FINAL SINGLE POINT ENERGY     -1288.396961210507
FINAL SINGLE POINT ENERGY     -1288.396970564251
FINAL SINGLE POINT ENERGY     -1288.396972915916
FINAL SINGLE POINT ENERGY     -1288.396972925381
FINAL SINGLE POINT ENERGY     -1288.396971531481
FINAL SINGLE POINT ENERGY     -1288.396971290078
FINAL SINGLE POINT ENERGY     -1288.396972743628
FINAL SINGLE POINT ENERGY     -1288.396976081302
Dispersion correction            ... done
Dispersion correction           -0.030831400
FINAL SINGLE POINT ENERGY     -1288.396980579662
Dispersion correction            ... done
Dispersion correction           -0.030832564
FINAL SINGLE POINT ENERGY     -1288.396983175283
Dispersion correction            ... done
                    ***********************HURRAY********************

CARTESIAN COORDINATES (ANGSTROEM)
---------------------------------
  Ir     0.624598   -0.726794    0.392005
  C      0.166428   -2.850220    0.315812
  C     -0.062648   -2.410735    1.668369
  C      2.165298   -2.055263    1.158177
  C      1.533501   -2.654621    0.016659
  C      1.169639   -1.940847    2.170880
  N     -1.072409    0.123361   -0.513949
  C     -2.335105    0.326153    0.210328
  C     -3.130947    1.531605   -0.268915
  H     -3.955662    1.705033    0.420517
  H     -3.574953    1.382365   -1.254098
  H     -2.525443    2.438018   -0.289536
  C     -3.163189   -0.952711    0.142255
  H     -2.041540    0.501257    1.246437
  H     -4.060087   -0.846466    0.751102
  H     -3.477171   -1.163305   -0.880855
  H     -2.613928   -1.816182    0.513781
  C     -0.928211    0.480806   -1.737260
  C      0.388696    0.290736   -2.264469
  H     -1.733862    0.923245   -2.313572
  C      1.407367    0.031099   -1.336039
  C      2.631900   -0.216957   -2.043295
  S      0.901175    0.253737   -3.875941
  C      2.503028   -0.125732   -3.393555
  H      1.603347    1.123671   -0.697808
  H      3.581002   -0.391927   -1.557247
  H      3.273737   -0.238056   -4.140907
  H     -0.564823   -3.294265   -0.343662
  H     -0.990136   -2.468461    2.217058
  H      1.319506   -1.496097    3.144528
  O      1.697491    2.340569    0.071693
  O      0.588466    1.026636    1.486502
  C      1.125264    2.133456    1.155604
  C      1.072525    3.235431    2.174593
  H      0.973550    4.202947    1.688288
  H      2.011701    3.246394    2.730416
  H      0.262682    3.087844    2.883768
  H      3.213917   -1.826800    1.269434
  H      2.014666   -2.909731   -0.916359

 Multiplicity           Mult            ....    1
 Number of Electrons    NEL             ....  164
 Basis Dimension        Dim             ....  358

ORBITAL ENERGIES
----------------

  NO   OCC          E(Eh)            E(eV)
   0   2.0000     -89.769001     -2442.7387
   1   2.0000     -19.631270      -534.1940
   2   2.0000     -19.615619      -533.7681
   3   2.0000     -14.836574      -403.7237
   4   2.0000     -10.692090      -290.9466
   5   2.0000     -10.656117      -289.9677
   6   2.0000     -10.630981      -289.2837
   7   2.0000     -10.623712      -289.0859
   8   2.0000     -10.622379      -289.0496
   9   2.0000     -10.621287      -289.0199
  10   2.0000     -10.613461      -288.8070
  11   2.0000     -10.613380      -288.8048
  12   2.0000     -10.613055      -288.7959
  13   2.0000     -10.610682      -288.7313
  14   2.0000     -10.593249      -288.2569
  15   2.0000     -10.591399      -288.2066
  16   2.0000     -10.553801      -287.1835
  17   2.0000     -10.551075      -287.1093
  18   2.0000     -10.541757      -286.8558
  19   2.0000      -8.408336      -228.8024
  20   2.0000      -6.298183      -171.3823
  21   2.0000      -6.294617      -171.2852
  22   2.0000      -6.293373      -171.2514
  23   2.0000      -4.019590      -109.3786
  24   2.0000      -2.336487       -63.5790
  25   2.0000      -2.306550       -62.7644
  26   2.0000      -2.302923       -62.6657
  27   2.0000      -1.319072       -35.8938
  28   2.0000      -1.220922       -33.2230
  29   2.0000      -1.209496       -32.9120
  30   2.0000      -1.158591       -31.5269
  31   2.0000      -1.131532       -30.7905
  32   2.0000      -1.026514       -27.9329
  33   2.0000      -0.974302       -26.5121
  34   2.0000      -0.971363       -26.4321
  35   2.0000      -0.965513       -26.2730
  36   2.0000      -0.960520       -26.1371
  37   2.0000      -0.935759       -25.4633
  38   2.0000      -0.900860       -24.5137
  39   2.0000      -0.874613       -23.7994
  40   2.0000      -0.800751       -21.7895
  41   2.0000      -0.784747       -21.3540
  42   2.0000      -0.775377       -21.0991
  43   2.0000      -0.774507       -21.0754
  44   2.0000      -0.760112       -20.6837
  45   2.0000      -0.756568       -20.5873
  46   2.0000      -0.744302       -20.2535
  47   2.0000      -0.722417       -19.6580
  48   2.0000      -0.692662       -18.8483
  49   2.0000      -0.684946       -18.6383
  50   2.0000      -0.664579       -18.0841
  51   2.0000      -0.656132       -17.8543
  52   2.0000      -0.647069       -17.6076
  53   2.0000      -0.636565       -17.3218
  54   2.0000      -0.630553       -17.1582
  55   2.0000      -0.625571       -17.0227
  56   2.0000      -0.622106       -16.9284
  57   2.0000      -0.613407       -16.6917
  58   2.0000      -0.602823       -16.4037
  59   2.0000      -0.596330       -16.2270
  60   2.0000      -0.594831       -16.1862
  61   2.0000      -0.592137       -16.1129
  62   2.0000      -0.581157       -15.8141
  63   2.0000      -0.570122       -15.5138
  64   2.0000      -0.565013       -15.3748
  65   2.0000      -0.563310       -15.3284
  66   2.0000      -0.553170       -15.0525
  67   2.0000      -0.547111       -14.8876
  68   2.0000      -0.542237       -14.7550
  69   2.0000      -0.536112       -14.5883
  70   2.0000      -0.530819       -14.4443
  71   2.0000      -0.518723       -14.1152
  72   2.0000      -0.513349       -13.9689
  73   2.0000      -0.498705       -13.5704
  74   2.0000      -0.492630       -13.4051
  75   2.0000      -0.490164       -13.3380
  76   2.0000      -0.476361       -12.9624
  77   2.0000      -0.450209       -12.2508
  78   2.0000      -0.442419       -12.0388
  79   2.0000      -0.421309       -11.4644
  80   2.0000      -0.413618       -11.2551
  81   2.0000      -0.392790       -10.6884
  82   0.0000      -0.209773        -5.7082
  83   0.0000      -0.143765        -3.9120
  84   0.0000      -0.126950        -3.4545
  85   0.0000      -0.089128        -2.4253
  86   0.0000      -0.076933        -2.0935

MULLIKEN ATOMIC CHARGES
-----------------------
   0 Ir:    0.613348
   1 C :   -0.248470
   2 C :   -0.253109
   3 C :   -0.276601
   4 C :   -0.222360
   5 C :   -0.150184
   6 N :   -0.428812
   7 C :   -0.127483
   8 C :   -0.681914
   9 H :    0.269870
  10 H :    0.224079
  11 H :    0.254637
  12 C :   -0.633575
  13 H :    0.281131
  14 H :    0.259231
  15 H :    0.232560
  16 H :    0.234703
  17 C :    0.069943
  18 C :   -0.115158
  19 H :    0.286765
  20 C :   -0.598799
  21 C :   -0.084330
  22 S :    0.349322
  23 C :   -0.428393
  24 H :    0.469398
  25 H :    0.270289
  26 H :    0.299470
  27 H :    0.283818
  28 H :    0.280561
  29 H :    0.297116
  30 O :   -0.470863
  31 O :   -0.514137
  32 C :    0.626078
  33 C :   -0.743422
  34 H :    0.271217
  35 H :    0.273541
  36 H :    0.258809
  37 H :    0.280346
  38 H :    0.291378
Sum of atomic charges:    1.0000000

LOEWDIN ATOMIC CHARGES
----------------------
   0 Ir:   -0.259637
   1 C :   -0.061323
   2 C :   -0.098659
   3 C :   -0.099474
   4 C :   -0.042951
   5 C :   -0.017952
   6 N :    0.002831
   7 C :   -0.069790
   8 C :   -0.362221
   9 H :    0.156527
  10 H :    0.132769
  11 H :    0.143801
  12 C :   -0.343490
  13 H :    0.155706
  14 H :    0.150989
  15 H :    0.137954
  16 H :    0.133840
  17 C :    0.026525
  18 C :   -0.179701
  19 H :    0.161332
  20 C :   -0.221001
  21 C :   -0.119571
  22 S :    0.506667
  23 C :   -0.258226
  24 H :    0.353859
  25 H :    0.164016
  26 H :    0.170235
  27 H :    0.181280
  28 H :    0.178525
  29 H :    0.187520
  30 O :   -0.261711
  31 O :   -0.187382
  32 C :    0.158593
  33 C :   -0.372650
  34 H :    0.162936
  35 H :    0.171021
  36 H :    0.154684
  37 H :    0.180891
  38 H :    0.183238

  Mayer bond orders larger than 0.100000
B(  0-Ir,  1-C ) :   0.4468 B(  0-Ir,  2-C ) :   0.3834 B(  0-Ir,  3-C ) :   0.4705
B(  0-Ir,  4-C ) :   0.4181 B(  0-Ir,  5-C ) :   0.3562 B(  0-Ir,  6-N ) :   0.4627
B(  0-Ir, 20-C ) :   0.5278 B(  0-Ir, 31-O ) :   0.5292 B(  1-C ,  2-C ) :   1.1259
B(  1-C ,  4-C ) :   1.2250 B(  1-C , 27-H ) :   0.9092 B(  2-C ,  5-C ) :   1.2314
B(  2-C , 28-H ) :   0.9102 B(  3-C ,  4-C ) :   1.1415 B(  3-C ,  5-C ) :   1.1673
B(  3-C , 37-H ) :   0.9143 B(  4-C , 38-H ) :   0.8992 B(  5-C , 29-H ) :   0.9016
B(  6-N ,  7-C ) :   0.8959 B(  6-N , 17-C ) :   1.6482 B(  7-C ,  8-C ) :   0.9902
B(  7-C , 12-C ) :   0.9659 B(  7-C , 13-H ) :   0.8753 B(  8-C ,  9-H ) :   0.9046
B(  8-C , 10-H ) :   0.9131 B(  8-C , 11-H ) :   0.9117 B( 12-C , 14-H ) :   0.9076
B( 12-C , 15-H ) :   0.9152 B( 12-C , 16-H ) :   0.9114 B( 17-C , 18-C ) :   1.1115
B( 17-C , 19-H ) :   0.8764 B( 18-C , 20-C ) :   1.2020 B( 18-C , 22-S ) :   1.2592
B( 20-C , 21-C ) :   1.2416 B( 20-C , 24-H ) :   0.3739 B( 21-C , 23-C ) :   1.5536
B( 21-C , 25-H ) :   0.9006 B( 22-S , 23-C ) :   1.2081 B( 23-C , 26-H ) :   0.8911
B( 24-H , 30-O ) :   0.3227 B( 30-O , 32-C ) :   1.6030 B( 31-O , 32-C ) :   1.3560
B( 32-C , 33-C ) :   0.9426 B( 33-C , 34-H ) :   0.9017 B( 33-C , 35-H ) :   0.8947
B( 33-C , 36-H ) :   0.9085

Dispersion correction           -0.030834150
FINAL SINGLE POINT ENERGY     -1288.396983487630

DIPOLE MOMENT
-------------
                                X             Y             Z
Electronic contribution:     38.49516     -73.06483      68.10326
Nuclear contribution   :    -39.13237      72.52297     -68.51043
                        -----------------------------------------
Total Dipole Moment    :     -0.63721      -0.54185      -0.40718
                        -----------------------------------------
Magnitude (a.u.)       :      0.93029
Magnitude (Debye)      :      2.36460

Rotational constants in cm-1:     0.010524     0.009024     0.008266
Rotational constants in MHz :   315.506153   270.527089   247.803324

                             ****ORCA TERMINATED NORMALLY****
TOTAL RUN TIME: 0 days 2 hours 6 minutes 20 seconds 38 msec
