                         Program Version 5.0.3 -  RELEASE  -
|  1> ! Opt PBEh-3c
|  2> %geom Constraints
|  3> { B 0 20 2.1285714285714286 C }
|  4> { B 24 30 1.5 C }
|  5>     end
|  6> end
|  7> %output
|  8> xyzfile=True
|  9> end
| 10> %scf
| 11> maxiter 250
| 12> end
| 13> %output
| 14> Print[P_Hirshfeld] = 1
| 15> end
| 16> % maxcore
| 17> 4000
| 18> *xyz 1 1
| 19> Ir   0.63149709  -0.70952942   0.40655875
| 20> C    0.10331408  -2.81897807   0.34301190
| 21> C    0.06965704  -2.35838069   1.70398082
| 22> C    2.22140580  -2.09650310   0.90435001
| 23> C    1.41221641  -2.65376008  -0.15284899
| 24> C    1.39206990  -1.94314305   2.03822860
| 25> N   -1.04751064   0.14686645  -0.52958273
| 26> C   -2.30626908   0.42474454   0.17808516
| 27> C   -3.09508879   1.58310750  -0.41318207
| 28> H   -3.91351845   1.83245136   0.26072468
| 29> H   -3.54842092   1.33984585  -1.37514492
| 30> H   -2.48255573   2.47775430  -0.52731999
| 31> C   -3.14049944  -0.84971283   0.24480063
| 32> H   -2.00199753   0.69508559   1.19010226
| 33> H   -4.03767021  -0.67030582   0.83547447
| 34> H   -3.45402267  -1.16986380  -0.74962778
| 35> H   -2.59745834  -1.66790487   0.71536896
| 36> C   -0.89076349   0.40481642  -1.77341156
| 37> C    0.44213887   0.19383210  -2.27192958
| 38> H   -1.68972256   0.79533693  -2.39579732
| 39> C    1.49931372   0.21721178  -1.35501643
| 40> C    2.72230649  -0.11067601  -2.02275295
| 41> S    0.91900270  -0.21752713  -3.84260776
| 42> C    2.55792449  -0.36802937  -3.34633112
| 43> H    1.52194092   1.20426723  -0.66847504
| 44> H    3.68974560  -0.09997518  -1.54200446
| 45> H    3.31502459  -0.61385057  -4.07537197
| 46> H   -0.73419936  -3.21475226  -0.21332004
| 47> H   -0.77530231  -2.38907281   2.37509073
| 48> H    1.69360093  -1.51372022   2.98308034
| 49> O    1.40797013   2.44875607   0.16113823
| 50> O    0.55000272   0.96570773   1.58474423
| 51> C    0.95936348   2.14158567   1.26774182
| 52> C    0.89107860   3.15939804   2.37197828
| 53> H    0.86382675   4.16767270   1.96796306
| 54> H    1.78682878   3.07123913   2.98968362
| 55> H    0.03298698   2.99227570   3.01931301
| 56> H    3.27822123  -1.88252374   0.85802713
| 57> H    1.75293228  -2.91455611  -1.14398185
| 58> *
| 59>
| 60>                          ****END OF INPUT****
 Total Charge           Charge          ....    1
 Multiplicity           Mult            ....    1
 Number of Electrons    NEL             ....  164
Dispersion correction           -0.031085317
FINAL SINGLE POINT ENERGY     -1288.397995248915
Dispersion correction            ... done
Dispersion correction           -0.031030480
FINAL SINGLE POINT ENERGY     -1288.398073461486
Dispersion correction            ... done
Dispersion correction           -0.031074260
FINAL SINGLE POINT ENERGY     -1288.397542399611
Dispersion correction            ... done
FINAL SINGLE POINT ENERGY     -1288.398259517116
FINAL SINGLE POINT ENERGY     -1288.398288203962
FINAL SINGLE POINT ENERGY     -1288.398352739611
FINAL SINGLE POINT ENERGY     -1288.398362994240
FINAL SINGLE POINT ENERGY     -1288.398372081361
FINAL SINGLE POINT ENERGY     -1288.398381041057
FINAL SINGLE POINT ENERGY     -1288.398391929132
FINAL SINGLE POINT ENERGY     -1288.398402187222
FINAL SINGLE POINT ENERGY     -1288.398412913344
FINAL SINGLE POINT ENERGY     -1288.398421014183
FINAL SINGLE POINT ENERGY     -1288.398428527419
Dispersion correction            ... done
Dispersion correction           -0.030945925
FINAL SINGLE POINT ENERGY     -1288.398434002411
Dispersion correction            ... done
Dispersion correction           -0.030944881
FINAL SINGLE POINT ENERGY     -1288.398435022071
Dispersion correction            ... done
                    ***********************HURRAY********************

CARTESIAN COORDINATES (ANGSTROEM)
---------------------------------
  Ir     0.637923   -0.713403    0.404584
  C      0.153752   -2.833795    0.304474
  C      0.019499   -2.385822    1.665237
  C      2.215757   -2.072334    1.015010
  C      1.492922   -2.644779   -0.092506
  C      1.301944   -1.944457    2.090082
  N     -1.050888    0.135884   -0.518342
  C     -2.306072    0.398208    0.201443
  C     -3.082133    1.589966   -0.339715
  H     -3.897876    1.819234    0.344450
  H     -3.537430    1.393641   -1.311328
  H     -2.459250    2.481405   -0.416288
  C     -3.154450   -0.868817    0.211431
  H     -2.000448    0.623143    1.223971
  H     -4.043520   -0.712172    0.820626
  H     -3.481664   -1.132565   -0.795102
  H     -2.614985   -1.717289    0.629713
  C     -0.908363    0.408964   -1.761686
  C      0.415756    0.200013   -2.276704
  H     -1.714817    0.807949   -2.368652
  C      1.469395    0.148269   -1.355244
  C      2.690481   -0.151337   -2.042176
  S      0.892398   -0.109317   -3.869792
  C      2.526746   -0.314248   -3.380868
  H      1.532249    1.158255   -0.683130
  H      3.656862   -0.186169   -1.560406
  H      3.283506   -0.519533   -4.122660
  H     -0.632953   -3.249086   -0.308589
  H     -0.868167   -2.437506    2.277267
  H      1.527157   -1.512524    3.054958
  O      1.468033    2.422791    0.121124
  O      0.567934    0.981559    1.560977
  C      0.997502    2.143859    1.227722
  C      0.928576    3.188397    2.306443
  H      0.881815    4.185516    1.876960
  H      1.835059    3.129978    2.911804
  H      0.081810    3.025739    2.969188
  H      3.270558   -1.847004    1.046690
  H      1.904753   -2.891423   -1.060224

 Multiplicity           Mult            ....    1
 Number of Electrons    NEL             ....  164
 Basis Dimension        Dim             ....  358

ORBITAL ENERGIES
----------------

  NO   OCC          E(Eh)            E(eV)
   0   2.0000     -89.771206     -2442.7987
   1   2.0000     -19.624043      -533.9974
   2   2.0000     -19.598819      -533.3110
   3   2.0000     -14.839806      -403.8117
   4   2.0000     -10.682427      -290.6836
   5   2.0000     -10.659689      -290.0649
   6   2.0000     -10.636029      -289.4211
   7   2.0000     -10.628045      -289.2038
   8   2.0000     -10.627064      -289.1771
   9   2.0000     -10.625157      -289.1252
  10   2.0000     -10.619565      -288.9730
  11   2.0000     -10.617000      -288.9033
  12   2.0000     -10.614411      -288.8328
  13   2.0000     -10.614357      -288.8313
  14   2.0000     -10.593616      -288.2670
  15   2.0000     -10.590742      -288.1888
  16   2.0000     -10.555317      -287.2248
  17   2.0000     -10.551264      -287.1145
  18   2.0000     -10.535538      -286.6866
  19   2.0000      -8.410577      -228.8634
  20   2.0000      -6.300435      -171.4436
  21   2.0000      -6.296827      -171.3454
  22   2.0000      -6.295619      -171.3125
  23   2.0000      -4.023006      -109.4716
  24   2.0000      -2.340648       -63.6923
  25   2.0000      -2.308945       -62.8296
  26   2.0000      -2.306539       -62.7641
  27   2.0000      -1.308241       -35.5991
  28   2.0000      -1.213097       -33.0100
  29   2.0000      -1.209735       -32.9186
  30   2.0000      -1.163808       -31.6688
  31   2.0000      -1.133309       -30.8389
  32   2.0000      -1.027941       -27.9717
  33   2.0000      -0.976697       -26.5773
  34   2.0000      -0.975038       -26.5321
  35   2.0000      -0.969844       -26.3908
  36   2.0000      -0.963281       -26.2122
  37   2.0000      -0.928654       -25.2700
  38   2.0000      -0.901626       -24.5345
  39   2.0000      -0.876538       -23.8518
  40   2.0000      -0.802143       -21.8274
  41   2.0000      -0.786084       -21.3904
  42   2.0000      -0.779923       -21.2228
  43   2.0000      -0.779110       -21.2007
  44   2.0000      -0.764620       -20.8064
  45   2.0000      -0.754801       -20.5392
  46   2.0000      -0.743549       -20.2330
  47   2.0000      -0.724544       -19.7158
  48   2.0000      -0.691069       -18.8050
  49   2.0000      -0.678147       -18.4533
  50   2.0000      -0.665329       -18.1045
  51   2.0000      -0.649692       -17.6790
  52   2.0000      -0.646201       -17.5840
  53   2.0000      -0.634558       -17.2672
  54   2.0000      -0.632523       -17.2118
  55   2.0000      -0.628185       -17.0938
  56   2.0000      -0.622947       -16.9512
  57   2.0000      -0.614914       -16.7327
  58   2.0000      -0.603410       -16.4196
  59   2.0000      -0.600146       -16.3308
  60   2.0000      -0.599428       -16.3113
  61   2.0000      -0.593404       -16.1473
  62   2.0000      -0.582687       -15.8557
  63   2.0000      -0.574371       -15.6294
  64   2.0000      -0.564652       -15.3650
  65   2.0000      -0.558620       -15.2008
  66   2.0000      -0.551368       -15.0035
  67   2.0000      -0.548117       -14.9150
  68   2.0000      -0.541464       -14.7340
  69   2.0000      -0.536975       -14.6118
  70   2.0000      -0.529065       -14.3966
  71   2.0000      -0.518953       -14.1214
  72   2.0000      -0.514750       -14.0071
  73   2.0000      -0.498715       -13.5707
  74   2.0000      -0.487555       -13.2670
  75   2.0000      -0.485028       -13.1983
  76   2.0000      -0.477958       -13.0059
  77   2.0000      -0.445649       -12.1267
  78   2.0000      -0.442573       -12.0430
  79   2.0000      -0.424095       -11.5402
  80   2.0000      -0.415384       -11.3032
  81   2.0000      -0.395902       -10.7730
  82   0.0000      -0.211557        -5.7568
  83   0.0000      -0.143220        -3.8972
  84   0.0000      -0.139138        -3.7861
  85   0.0000      -0.092690        -2.5222
  86   0.0000      -0.078399        -2.1334

MULLIKEN ATOMIC CHARGES
-----------------------
   0 Ir:    0.607486
   1 C :   -0.229647
   2 C :   -0.263311
   3 C :   -0.263960
   4 C :   -0.231935
   5 C :   -0.155644
   6 N :   -0.424897
   7 C :   -0.129970
   8 C :   -0.682450
   9 H :    0.269954
  10 H :    0.223436
  11 H :    0.258823
  12 C :   -0.633846
  13 H :    0.283849
  14 H :    0.261311
  15 H :    0.231305
  16 H :    0.233456
  17 C :    0.072866
  18 C :   -0.127414
  19 H :    0.288871
  20 C :   -0.569247
  21 C :   -0.090919
  22 S :    0.341491
  23 C :   -0.433581
  24 H :    0.475791
  25 H :    0.270506
  26 H :    0.300192
  27 H :    0.285774
  28 H :    0.284605
  29 H :    0.301990
  30 O :   -0.467113
  31 O :   -0.528861
  32 C :    0.616721
  33 C :   -0.743362
  34 H :    0.269222
  35 H :    0.268501
  36 H :    0.254032
  37 H :    0.283966
  38 H :    0.292010
Sum of atomic charges:    1.0000000

LOEWDIN ATOMIC CHARGES
----------------------
   0 Ir:   -0.254461
   1 C :   -0.052792
   2 C :   -0.089120
   3 C :   -0.086315
   4 C :   -0.048277
   5 C :   -0.015422
   6 N :    0.004313
   7 C :   -0.070564
   8 C :   -0.362397
   9 H :    0.156734
  10 H :    0.132564
  11 H :    0.145844
  12 C :   -0.343373
  13 H :    0.157051
  14 H :    0.151984
  15 H :    0.137280
  16 H :    0.133718
  17 C :    0.029279
  18 C :   -0.169215
  19 H :    0.162376
  20 C :   -0.214928
  21 C :   -0.116562
  22 S :    0.503848
  23 C :   -0.261430
  24 H :    0.323964
  25 H :    0.164768
  26 H :    0.170125
  27 H :    0.182242
  28 H :    0.181163
  29 H :    0.190606
  30 O :   -0.266639
  31 O :   -0.200715
  32 C :    0.150898
  33 C :   -0.374647
  34 H :    0.160008
  35 H :    0.168240
  36 H :    0.153466
  37 H :    0.182594
  38 H :    0.183794

  Mayer bond orders larger than 0.100000
B(  0-Ir,  1-C ) :   0.4240 B(  0-Ir,  2-C ) :   0.4337 B(  0-Ir,  3-C ) :   0.4658
B(  0-Ir,  4-C ) :   0.4284 B(  0-Ir,  5-C ) :   0.3821 B(  0-Ir,  6-N ) :   0.4613
B(  0-Ir, 20-C ) :   0.4323 B(  0-Ir, 31-O ) :   0.5572 B(  1-C ,  2-C ) :   1.1285
B(  1-C ,  4-C ) :   1.2398 B(  1-C , 27-H ) :   0.9072 B(  2-C ,  5-C ) :   1.1853
B(  2-C , 28-H ) :   0.9099 B(  3-C ,  4-C ) :   1.1229 B(  3-C ,  5-C ) :   1.1959
B(  3-C , 37-H ) :   0.9118 B(  4-C , 38-H ) :   0.8992 B(  5-C , 29-H ) :   0.8996
B(  6-N ,  7-C ) :   0.8934 B(  6-N , 17-C ) :   1.6617 B(  7-C ,  8-C ) :   0.9902
B(  7-C , 12-C ) :   0.9664 B(  7-C , 13-H ) :   0.8732 B(  8-C ,  9-H ) :   0.9044
B(  8-C , 10-H ) :   0.9134 B(  8-C , 11-H ) :   0.9098 B( 12-C , 14-H ) :   0.9071
B( 12-C , 15-H ) :   0.9155 B( 12-C , 16-H ) :   0.9121 B( 17-C , 18-C ) :   1.0936
B( 17-C , 19-H ) :   0.8762 B( 18-C , 20-C ) :   1.2193 B( 18-C , 22-S ) :   1.2681
B( 20-C , 21-C ) :   1.2429 B( 20-C , 24-H ) :   0.4397 B( 21-C , 23-C ) :   1.5614
B( 21-C , 25-H ) :   0.9014 B( 22-S , 23-C ) :   1.1993 B( 23-C , 26-H ) :   0.8908
B( 24-H , 30-O ) :   0.2738 B( 30-O , 32-C ) :   1.6693 B( 31-O , 32-C ) :   1.3046
B( 32-C , 33-C ) :   0.9429 B( 33-C , 34-H ) :   0.9044 B( 33-C , 35-H ) :   0.8976
B( 33-C , 36-H ) :   0.9093

Dispersion correction           -0.030946251
FINAL SINGLE POINT ENERGY     -1288.398433925247

DIPOLE MOMENT
-------------
                                X             Y             Z
Electronic contribution:     40.14641     -69.58060      69.20746
Nuclear contribution   :    -40.78271      68.66295     -69.70624
                        -----------------------------------------
Total Dipole Moment    :     -0.63631      -0.91765      -0.49878
                        -----------------------------------------
Magnitude (a.u.)       :      1.22301
Magnitude (Debye)      :      3.10864

Rotational constants in cm-1:     0.010561     0.009182     0.008229
Rotational constants in MHz :   316.623760   275.278739   246.699701

                             ****ORCA TERMINATED NORMALLY****
TOTAL RUN TIME: 0 days 2 hours 3 minutes 55 seconds 516 msec
