                         Program Version 5.0.3 -  RELEASE  -
|  1> ! Opt PBEh-3c
|  2> %geom Constraints
|  3> { B 0 20 2.085714285714286 C }
|  4> { B 24 30 1.3857142857142857 C }
|  5>     end
|  6> end
|  7> %output
|  8> xyzfile=True
|  9> end
| 10> %scf
| 11> maxiter 250
| 12> end
| 13> %output
| 14> Print[P_Hirshfeld] = 1
| 15> end
| 16> % maxcore
| 17> 4000
| 18> *xyz 1 1
| 19> Ir   0.61375408  -0.72827890   0.42160037
| 20> C    0.11734339  -2.84078410   0.35681485
| 21> C   -0.05404324  -2.37831539   1.70870037
| 22> C    2.16311390  -2.08342909   1.11634276
| 23> C    1.47200337  -2.66831304  -0.00176979
| 24> C    1.21445617  -1.93475629   2.16157534
| 25> N   -1.06514051   0.12363596  -0.51569964
| 26> C   -2.33756524   0.33085053   0.19205550
| 27> C   -3.14010713   1.51758338  -0.32184377
| 28> H   -3.97012659   1.70157179   0.35847037
| 29> H   -3.57763537   1.33950570  -1.30513600
| 30> H   -2.54234824   2.42846307  -0.36215515
| 31> C   -3.15585061  -0.95501281   0.14703880
| 32> H   -2.05583670   0.53255193   1.22665634
| 33> H   -4.06429465  -0.83682038   0.73627655
| 34> H   -3.45022666  -1.19780258  -0.87477164
| 35> H   -2.60907843  -1.80334175   0.55511839
| 36> C   -0.90897856   0.47173561  -1.73981524
| 37> C    0.41125148   0.29625989  -2.26607500
| 38> H   -1.71539437   0.90035125  -2.32603259
| 39> C    1.45076179   0.08628745  -1.35792657
| 40> C    2.66479319  -0.16730736  -2.06938190
| 41> S    0.89752532   0.21083983  -3.88805830
| 42> C    2.51167241  -0.12505502  -3.42139091
| 43> H    1.62491925   1.13660982  -0.62621668
| 44> H    3.62373190  -0.31354883  -1.59359713
| 45> H    3.27143037  -0.25235574  -4.17750940
| 46> H   -0.65056991  -3.26452710  -0.27389745
| 47> H   -0.95882296  -2.41788777   2.29574868
| 48> H    1.41316831  -1.48832699   3.12576038
| 49> O    1.72201291   2.30892748   0.13289079
| 50> O    0.55834729   1.01895340   1.52355758
| 51> C    1.11984015   2.11609789   1.20477433
| 52> C    1.06235423   3.22383624   2.21569667
| 53> H    0.95027865   4.18622476   1.72164570
| 54> H    2.00571096   3.25073636   2.76373814
| 55> H    0.25838386   3.07418246   2.93088140
| 56> H    3.21824769  -1.86670592   1.17944514
| 57> H    1.91028854  -2.93344577  -0.95277124
| 58> *
| 59>
| 60>                          ****END OF INPUT****
 Total Charge           Charge          ....    1
 Multiplicity           Mult            ....    1
 Number of Electrons    NEL             ....  164
Dispersion correction           -0.030840517
FINAL SINGLE POINT ENERGY     -1288.400815062406
Dispersion correction            ... done
Dispersion correction           -0.030789325
FINAL SINGLE POINT ENERGY     -1288.400702643608
Dispersion correction            ... done
Dispersion correction           -0.030791554
FINAL SINGLE POINT ENERGY     -1288.399779182153
Dispersion correction            ... done
FINAL SINGLE POINT ENERGY     -1288.401109517574
FINAL SINGLE POINT ENERGY     -1288.401160798620
FINAL SINGLE POINT ENERGY     -1288.401200529590
FINAL SINGLE POINT ENERGY     -1288.401251269448
FINAL SINGLE POINT ENERGY     -1288.401264161277
FINAL SINGLE POINT ENERGY     -1288.401266577957
FINAL SINGLE POINT ENERGY     -1288.401269224442
FINAL SINGLE POINT ENERGY     -1288.401273716801
FINAL SINGLE POINT ENERGY     -1288.401279893310
FINAL SINGLE POINT ENERGY     -1288.401287589495
FINAL SINGLE POINT ENERGY     -1288.401295334864
Dispersion correction            ... done
Dispersion correction           -0.030729675
FINAL SINGLE POINT ENERGY     -1288.401298347017
Dispersion correction            ... done
Dispersion correction           -0.030729993
FINAL SINGLE POINT ENERGY     -1288.401300409561
Dispersion correction            ... done
                    ***********************HURRAY********************

CARTESIAN COORDINATES (ANGSTROEM)
---------------------------------
  Ir     0.616831   -0.733308    0.410245
  C      0.155298   -2.850769    0.331925
  C     -0.085571   -2.405365    1.680584
  C      2.149299   -2.060969    1.191487
  C      1.526057   -2.659398    0.045049
  C      1.144548   -1.939010    2.193783
  N     -1.073117    0.114700   -0.509964
  C     -2.342859    0.306793    0.206076
  C     -3.136761    1.516740   -0.265449
  H     -3.966507    1.681796    0.419973
  H     -3.573488    1.378595   -1.255467
  H     -2.531812    2.423733   -0.271733
  C     -3.169012   -0.971761    0.117236
  H     -2.059319    0.471696    1.246689
  H     -4.071835   -0.873462    0.718687
  H     -3.472993   -1.172011   -0.910977
  H     -2.622380   -1.838830    0.484364
  C     -0.925286    0.478588   -1.731054
  C      0.391103    0.303577   -2.264161
  H     -1.734224    0.917181   -2.306095
  C      1.418131    0.038094   -1.354142
  C      2.636510   -0.196078   -2.068048
  S      0.892406    0.293770   -3.883319
  C      2.497080   -0.084633   -3.417632
  H      1.624987    1.143835   -0.663509
  H      3.589239   -0.378852   -1.592188
  H      3.263316   -0.184727   -4.171333
  H     -0.570921   -3.293596   -0.333900
  H     -1.017942   -2.459762    2.221311
  H      1.286616   -1.492636    3.167886
  O      1.736542    2.309226    0.077857
  O      0.585346    1.033108    1.492011
  C      1.146058    2.122919    1.161317
  C      1.109867    3.240705    2.161477
  H      0.991744    4.199063    1.661028
  H      2.062709    3.269699    2.692794
  H      0.317753    3.099028    2.891193
  H      3.197270   -1.833620    1.310687
  H      2.014682   -2.914869   -0.883946

 Multiplicity           Mult            ....    1
 Number of Electrons    NEL             ....  164
 Basis Dimension        Dim             ....  358

ORBITAL ENERGIES
----------------

  NO   OCC          E(Eh)            E(eV)
   0   2.0000     -89.765069     -2442.6317
   1   2.0000     -19.635345      -534.3049
   2   2.0000     -19.623602      -533.9854
   3   2.0000     -14.834049      -403.6550
   4   2.0000     -10.697390      -291.0908
   5   2.0000     -10.654482      -289.9232
   6   2.0000     -10.626225      -289.1543
   7   2.0000     -10.624132      -289.0973
   8   2.0000     -10.622649      -289.0570
   9   2.0000     -10.621262      -289.0192
  10   2.0000     -10.613800      -288.8162
  11   2.0000     -10.612693      -288.7861
  12   2.0000     -10.610792      -288.7343
  13   2.0000     -10.610747      -288.7331
  14   2.0000     -10.590331      -288.1776
  15   2.0000     -10.589837      -288.1641
  16   2.0000     -10.553092      -287.1642
  17   2.0000     -10.550517      -287.0942
  18   2.0000     -10.544915      -286.9417
  19   2.0000      -8.404424      -228.6960
  20   2.0000      -6.294292      -171.2764
  21   2.0000      -6.290745      -171.1799
  22   2.0000      -6.289417      -171.1437
  23   2.0000      -4.019469      -109.3753
  24   2.0000      -2.336364       -63.5757
  25   2.0000      -2.306003       -62.7495
  26   2.0000      -2.302575       -62.6563
  27   2.0000      -1.325498       -36.0686
  28   2.0000      -1.226990       -33.3881
  29   2.0000      -1.207086       -32.8465
  30   2.0000      -1.158881       -31.5348
  31   2.0000      -1.128398       -30.7053
  32   2.0000      -1.024623       -27.8814
  33   2.0000      -0.971777       -26.4434
  34   2.0000      -0.970335       -26.4042
  35   2.0000      -0.965075       -26.2610
  36   2.0000      -0.958976       -26.0951
  37   2.0000      -0.939852       -25.5747
  38   2.0000      -0.900090       -24.4927
  39   2.0000      -0.872341       -23.7376
  40   2.0000      -0.798443       -21.7267
  41   2.0000      -0.782515       -21.2933
  42   2.0000      -0.775514       -21.1028
  43   2.0000      -0.774802       -21.0834
  44   2.0000      -0.761259       -20.7149
  45   2.0000      -0.759438       -20.6654
  46   2.0000      -0.742651       -20.2086
  47   2.0000      -0.721531       -19.6339
  48   2.0000      -0.694753       -18.9052
  49   2.0000      -0.684782       -18.6339
  50   2.0000      -0.663673       -18.0595
  51   2.0000      -0.660192       -17.9647
  52   2.0000      -0.648342       -17.6423
  53   2.0000      -0.637928       -17.3589
  54   2.0000      -0.630237       -17.1496
  55   2.0000      -0.626154       -17.0385
  56   2.0000      -0.621423       -16.9098
  57   2.0000      -0.611113       -16.6292
  58   2.0000      -0.600549       -16.3418
  59   2.0000      -0.596095       -16.2206
  60   2.0000      -0.594965       -16.1898
  61   2.0000      -0.591227       -16.0881
  62   2.0000      -0.579283       -15.7631
  63   2.0000      -0.568591       -15.4722
  64   2.0000      -0.566142       -15.4055
  65   2.0000      -0.562163       -15.2972
  66   2.0000      -0.555054       -15.1038
  67   2.0000      -0.546248       -14.8642
  68   2.0000      -0.542243       -14.7552
  69   2.0000      -0.535291       -14.5660
  70   2.0000      -0.530097       -14.4247
  71   2.0000      -0.518128       -14.0990
  72   2.0000      -0.512771       -13.9532
  73   2.0000      -0.500763       -13.6265
  74   2.0000      -0.495160       -13.4740
  75   2.0000      -0.488670       -13.2974
  76   2.0000      -0.476776       -12.9737
  77   2.0000      -0.451265       -12.2796
  78   2.0000      -0.443403       -12.0656
  79   2.0000      -0.418703       -11.3935
  80   2.0000      -0.414516       -11.2796
  81   2.0000      -0.393402       -10.7050
  82   0.0000      -0.205086        -5.5807
  83   0.0000      -0.143252        -3.8981
  84   0.0000      -0.128148        -3.4871
  85   0.0000      -0.086941        -2.3658
  86   0.0000      -0.074854        -2.0369

MULLIKEN ATOMIC CHARGES
-----------------------
   0 Ir:    0.609946
   1 C :   -0.248931
   2 C :   -0.255602
   3 C :   -0.275044
   4 C :   -0.221458
   5 C :   -0.151663
   6 N :   -0.432729
   7 C :   -0.126590
   8 C :   -0.681058
   9 H :    0.269248
  10 H :    0.224282
  11 H :    0.253586
  12 C :   -0.633350
  13 H :    0.279055
  14 H :    0.258550
  15 H :    0.232659
  16 H :    0.234029
  17 C :    0.069213
  18 C :   -0.119214
  19 H :    0.285244
  20 C :   -0.576255
  21 C :   -0.095325
  22 S :    0.344523
  23 C :   -0.426838
  24 H :    0.472153
  25 H :    0.267899
  26 H :    0.298299
  27 H :    0.284331
  28 H :    0.280778
  29 H :    0.296738
  30 O :   -0.478428
  31 O :   -0.507757
  32 C :    0.631140
  33 C :   -0.743793
  34 H :    0.272779
  35 H :    0.275460
  36 H :    0.261339
  37 H :    0.280776
  38 H :    0.292007
Sum of atomic charges:    1.0000000

LOEWDIN ATOMIC CHARGES
----------------------
   0 Ir:   -0.260461
   1 C :   -0.061018
   2 C :   -0.097871
   3 C :   -0.099049
   4 C :   -0.040735
   5 C :   -0.017894
   6 N :   -0.002055
   7 C :   -0.069471
   8 C :   -0.362082
   9 H :    0.156173
  10 H :    0.132753
  11 H :    0.143287
  12 C :   -0.343757
  13 H :    0.154571
  14 H :    0.150625
  15 H :    0.138002
  16 H :    0.133436
  17 C :    0.027963
  18 C :   -0.187942
  19 H :    0.160388
  20 C :   -0.220090
  21 C :   -0.125717
  22 S :    0.499885
  23 C :   -0.257639
  24 H :    0.360523
  25 H :    0.162660
  26 H :    0.169562
  27 H :    0.181606
  28 H :    0.178751
  29 H :    0.187390
  30 O :   -0.260271
  31 O :   -0.180928
  32 C :    0.163827
  33 C :   -0.371761
  34 H :    0.164411
  35 H :    0.172145
  36 H :    0.155802
  37 H :    0.181120
  38 H :    0.183862

  Mayer bond orders larger than 0.100000
B(  0-Ir,  1-C ) :   0.4492 B(  0-Ir,  2-C ) :   0.3929 B(  0-Ir,  3-C ) :   0.4703
B(  0-Ir,  4-C ) :   0.4221 B(  0-Ir,  5-C ) :   0.3625 B(  0-Ir,  6-N ) :   0.4641
B(  0-Ir, 20-C ) :   0.5108 B(  0-Ir, 31-O ) :   0.5189 B(  1-C ,  2-C ) :   1.1260
B(  1-C ,  4-C ) :   1.2223 B(  1-C , 27-H ) :   0.9090 B(  2-C ,  5-C ) :   1.2265
B(  2-C , 28-H ) :   0.9102 B(  3-C ,  4-C ) :   1.1424 B(  3-C ,  5-C ) :   1.1681
B(  3-C , 37-H ) :   0.9139 B(  4-C , 38-H ) :   0.8995 B(  5-C , 29-H ) :   0.9017
B(  6-N ,  7-C ) :   0.8961 B(  6-N , 17-C ) :   1.6466 B(  7-C ,  8-C ) :   0.9903
B(  7-C , 12-C ) :   0.9666 B(  7-C , 13-H ) :   0.8769 B(  8-C ,  9-H ) :   0.9048
B(  8-C , 10-H ) :   0.9131 B(  8-C , 11-H ) :   0.9122 B( 12-C , 14-H ) :   0.9078
B( 12-C , 15-H ) :   0.9152 B( 12-C , 16-H ) :   0.9118 B( 17-C , 18-C ) :   1.1143
B( 17-C , 19-H ) :   0.8765 B( 18-C , 20-C ) :   1.2180 B( 18-C , 22-S ) :   1.2450
B( 20-C , 21-C ) :   1.2591 B( 20-C , 24-H ) :   0.3424 B( 21-C , 23-C ) :   1.5446
B( 21-C , 25-H ) :   0.9018 B( 22-S , 23-C ) :   1.2160 B( 23-C , 26-H ) :   0.8914
B( 24-H , 30-O ) :   0.3462 B( 30-O , 32-C ) :   1.5664 B( 31-O , 32-C ) :   1.3801
B( 32-C , 33-C ) :   0.9441 B( 33-C , 34-H ) :   0.9002 B( 33-C , 35-H ) :   0.8934
B( 33-C , 36-H ) :   0.9080

Dispersion correction           -0.030731591
FINAL SINGLE POINT ENERGY     -1288.401300798314

DIPOLE MOMENT
-------------
                                X             Y             Z
Electronic contribution:     37.78916     -73.84049      69.95343
Nuclear contribution   :    -38.39545      73.39443     -70.24135
                        -----------------------------------------
Total Dipole Moment    :     -0.60629      -0.44605      -0.28791
                        -----------------------------------------
Magnitude (a.u.)       :      0.80588
Magnitude (Debye)      :      2.04839

Rotational constants in cm-1:     0.010541     0.008908     0.008236
Rotational constants in MHz :   316.019765   267.046440   246.909616

                             ****ORCA TERMINATED NORMALLY****
TOTAL RUN TIME: 0 days 2 hours 7 minutes 36 seconds 792 msec
