                         Program Version 5.0.3 -  RELEASE  -
|  1> ! Opt PBEh-3c
|  2> %geom Constraints
|  3> { B 0 20 2.1285714285714286 C }
|  4> { B 24 30 1.3142857142857143 C }
|  5>     end
|  6> end
|  7> %output
|  8> xyzfile=True
|  9> end
| 10> %scf
| 11> maxiter 250
| 12> end
| 13> %output
| 14> Print[P_Hirshfeld] = 1
| 15> end
| 16> % maxcore
| 17> 4000
| 18> *xyz 1 1
| 19> Ir   0.60684088  -0.74035967   0.44225897
| 20> C    0.13070079  -2.84886420   0.36108471
| 21> C   -0.10458635  -2.38811559   1.70535387
| 22> C    2.13514111  -2.07620608   1.21385930
| 23> C    1.50148837  -2.66871458   0.06870089
| 24> C    1.13597375  -1.93484100   2.21543178
| 25> N   -1.06760495   0.10613545  -0.50615582
| 26> C   -2.34684165   0.29423358   0.19616211
| 27> C   -3.13765033   1.50401871  -0.28171392
| 28> H   -3.97281839   1.66874246   0.39721331
| 29> H   -3.56651042   1.36628438  -1.27517823
| 30> H   -2.53303721   2.41124343  -0.28314284
| 31> C   -3.17115325  -0.98438959   0.09677943
| 32> H   -2.07656160   0.45934362   1.24025164
| 33> H   -4.08289701  -0.88636285   0.68473924
| 34> H   -3.45992118  -1.18589244  -0.93558898
| 35> H   -2.63014020  -1.85126816   0.47270708
| 36> C   -0.91390527   0.46519529  -1.72807971
| 37> C    0.40181903   0.30793362  -2.26926269
| 38> H   -1.72748120   0.89125172  -2.30663851
| 39> C    1.45111918   0.06991824  -1.38687900
| 40> C    2.65708097  -0.15369192  -2.11376533
| 41> S    0.87394791   0.29325407  -3.90234052
| 42> C    2.49026169  -0.05521605  -3.46351567
| 43> H    1.65390611   1.16413808  -0.60792360
| 44> H    3.62040194  -0.32312610  -1.65487312
| 45> H    3.24411228  -0.15220892  -4.23005385
| 46> H   -0.60207011  -3.28374917  -0.30283175
| 47> H   -1.03523335  -2.43302482   2.25009101
| 48> H    1.28522657  -1.48602647   3.18739589
| 49> O    1.76999234   2.27620574   0.10966370
| 50> O    0.57216745   1.03433532   1.51461458
| 51> C    1.15712529   2.10907614   1.18834942
| 52> C    1.13041604   3.23844301   2.17340782
| 53> H    1.00525514   4.19004664   1.66149131
| 54> H    2.08934843   3.27696414   2.69301601
| 55> H    0.34595719   3.10499226   2.91262351
| 56> H    3.18486096  -1.85324114   1.32571890
| 57> H    1.98463895  -2.92726722  -0.86223093
| 58> *
| 59>
| 60>                          ****END OF INPUT****
 Total Charge           Charge          ....    1
 Multiplicity           Mult            ....    1
 Number of Electrons    NEL             ....  164
Dispersion correction           -0.030659185
FINAL SINGLE POINT ENERGY     -1288.405512609693
Dispersion correction            ... done
Dispersion correction           -0.030623685
FINAL SINGLE POINT ENERGY     -1288.405758318879
Dispersion correction            ... done
Dispersion correction           -0.030608054
FINAL SINGLE POINT ENERGY     -1288.405855525678
Dispersion correction            ... done
FINAL SINGLE POINT ENERGY     -1288.405912613588
FINAL SINGLE POINT ENERGY     -1288.405963655772
FINAL SINGLE POINT ENERGY     -1288.405989710767
FINAL SINGLE POINT ENERGY     -1288.406003581121
FINAL SINGLE POINT ENERGY     -1288.406010080691
FINAL SINGLE POINT ENERGY     -1288.406016108762
FINAL SINGLE POINT ENERGY     -1288.406019721821
FINAL SINGLE POINT ENERGY     -1288.406022298388
FINAL SINGLE POINT ENERGY     -1288.406023458319
FINAL SINGLE POINT ENERGY     -1288.406024087705
Dispersion correction            ... done
Dispersion correction           -0.030568870
FINAL SINGLE POINT ENERGY     -1288.406024686000
Dispersion correction            ... done
Dispersion correction           -0.030569564
FINAL SINGLE POINT ENERGY     -1288.406025520351
Dispersion correction            ... done
                    ***********************HURRAY********************

CARTESIAN COORDINATES (ANGSTROEM)
---------------------------------
  Ir     0.608003   -0.745722    0.429456
  C      0.144990   -2.855323    0.355060
  C     -0.121157   -2.404559    1.697550
  C      2.124016   -2.066687    1.250413
  C      1.523218   -2.668708    0.095433
  C      1.098735   -1.937474    2.232306
  N     -1.074317    0.099230   -0.506060
  C     -2.351822    0.276207    0.201564
  C     -3.140602    1.496970   -0.250901
  H     -3.975590    1.648882    0.431198
  H     -3.569345    1.381332   -1.247232
  H     -2.534062    2.402747   -0.233180
  C     -3.178366   -0.998902    0.078771
  H     -2.079798    0.420559    1.248329
  H     -4.086957   -0.913129    0.673508
  H     -3.472450   -1.177534   -0.956293
  H     -2.635695   -1.874293    0.432018
  C     -0.923890    0.474240   -1.723971
  C      0.390392    0.316882   -2.266097
  H     -1.737200    0.910940   -2.294671
  C      1.423579    0.024177   -1.379662
  C      2.637117   -0.179681   -2.101595
  S      0.884599    0.374014   -3.891520
  C      2.489724   -0.014679   -3.447447
  H      1.656137    1.185181   -0.641075
  H      3.591980   -0.385574   -1.639794
  H      3.253238   -0.085823   -4.207254
  H     -0.567753   -3.301273   -0.323108
  H     -1.064255   -2.454691    2.219765
  H      1.222039   -1.487267    3.207195
  O      1.777182    2.286014    0.066642
  O      0.593260    1.045762    1.485803
  C      1.173983    2.116749    1.155050
  C      1.164853    3.249913    2.135314
  H      1.037458    4.200738    1.622550
  H      2.130139    3.285437    2.643342
  H      0.388778    3.121276    2.884090
  H      3.169797   -1.840126    1.388655
  H      2.029411   -2.926614   -0.823413

 Multiplicity           Mult            ....    1
 Number of Electrons    NEL             ....  164
 Basis Dimension        Dim             ....  358

ORBITAL ENERGIES
----------------

  NO   OCC          E(Eh)            E(eV)
   0   2.0000     -89.760040     -2442.4949
   1   2.0000     -19.641432      -534.4705
   2   2.0000     -19.636923      -534.3478
   3   2.0000     -14.830337      -403.5540
   4   2.0000     -10.705604      -291.3143
   5   2.0000     -10.652035      -289.8566
   6   2.0000     -10.623742      -289.0867
   7   2.0000     -10.622437      -289.0512
   8   2.0000     -10.620301      -288.9931
   9   2.0000     -10.619937      -288.9832
  10   2.0000     -10.613439      -288.8064
  11   2.0000     -10.611509      -288.7538
  12   2.0000     -10.609851      -288.7087
  13   2.0000     -10.608059      -288.6600
  14   2.0000     -10.588965      -288.1404
  15   2.0000     -10.586244      -288.0664
  16   2.0000     -10.551908      -287.1320
  17   2.0000     -10.549771      -287.0739
  18   2.0000     -10.549669      -287.0711
  19   2.0000      -8.399412      -228.5596
  20   2.0000      -6.289302      -171.1406
  21   2.0000      -6.285790      -171.0450
  22   2.0000      -6.284347      -171.0058
  23   2.0000      -4.018452      -109.3476
  24   2.0000      -2.335245       -63.5453
  25   2.0000      -2.304837       -62.7178
  26   2.0000      -2.301169       -62.6180
  27   2.0000      -1.335189       -36.3323
  28   2.0000      -1.236694       -33.6522
  29   2.0000      -1.203559       -32.7505
  30   2.0000      -1.158299       -31.5189
  31   2.0000      -1.124339       -30.5948
  32   2.0000      -1.022082       -27.8123
  33   2.0000      -0.971215       -26.4281
  34   2.0000      -0.965911       -26.2838
  35   2.0000      -0.964050       -26.2331
  36   2.0000      -0.956413       -26.0253
  37   2.0000      -0.945650       -25.7324
  38   2.0000      -0.898901       -24.4603
  39   2.0000      -0.869238       -23.6532
  40   2.0000      -0.795439       -21.6450
  41   2.0000      -0.779587       -21.2136
  42   2.0000      -0.775376       -21.0991
  43   2.0000      -0.774307       -21.0700
  44   2.0000      -0.767597       -20.8874
  45   2.0000      -0.759362       -20.6633
  46   2.0000      -0.740603       -20.1528
  47   2.0000      -0.721429       -19.6311
  48   2.0000      -0.697451       -18.9786
  49   2.0000      -0.683509       -18.5992
  50   2.0000      -0.666633       -18.1400
  51   2.0000      -0.663213       -18.0469
  52   2.0000      -0.651462       -17.7272
  53   2.0000      -0.637763       -17.3544
  54   2.0000      -0.629506       -17.1297
  55   2.0000      -0.625948       -17.0329
  56   2.0000      -0.620216       -16.8769
  57   2.0000      -0.608244       -16.5512
  58   2.0000      -0.597659       -16.2631
  59   2.0000      -0.595312       -16.1993
  60   2.0000      -0.594400       -16.1744
  61   2.0000      -0.589730       -16.0474
  62   2.0000      -0.576951       -15.6996
  63   2.0000      -0.573312       -15.6006
  64   2.0000      -0.561867       -15.2892
  65   2.0000      -0.560205       -15.2439
  66   2.0000      -0.558721       -15.2036
  67   2.0000      -0.544758       -14.8236
  68   2.0000      -0.542237       -14.7550
  69   2.0000      -0.535352       -14.5677
  70   2.0000      -0.528701       -14.3867
  71   2.0000      -0.517610       -14.0849
  72   2.0000      -0.512322       -13.9410
  73   2.0000      -0.504837       -13.7373
  74   2.0000      -0.499056       -13.5800
  75   2.0000      -0.486352       -13.2343
  76   2.0000      -0.476516       -12.9667
  77   2.0000      -0.452039       -12.3006
  78   2.0000      -0.443789       -12.0761
  79   2.0000      -0.415326       -11.3016
  80   2.0000      -0.414918       -11.2905
  81   2.0000      -0.393193       -10.6993
  82   0.0000      -0.198662        -5.4059
  83   0.0000      -0.142622        -3.8809
  84   0.0000      -0.128191        -3.4882
  85   0.0000      -0.084090        -2.2882
  86   0.0000      -0.076197        -2.0734

MULLIKEN ATOMIC CHARGES
-----------------------
   0 Ir:    0.605667
   1 C :   -0.253518
   2 C :   -0.256457
   3 C :   -0.275407
   4 C :   -0.218569
   5 C :   -0.153454
   6 N :   -0.438374
   7 C :   -0.125642
   8 C :   -0.679365
   9 H :    0.268213
  10 H :    0.224566
  11 H :    0.251959
  12 C :   -0.632766
  13 H :    0.275694
  14 H :    0.257344
  15 H :    0.232840
  16 H :    0.233380
  17 C :    0.068848
  18 C :   -0.125383
  19 H :    0.283101
  20 C :   -0.545077
  21 C :   -0.111362
  22 S :    0.339106
  23 C :   -0.423957
  24 H :    0.478362
  25 H :    0.265141
  26 H :    0.296869
  27 H :    0.284589
  28 H :    0.280478
  29 H :    0.295413
  30 O :   -0.489613
  31 O :   -0.496898
  32 C :    0.636722
  33 C :   -0.744020
  34 H :    0.275231
  35 H :    0.278116
  36 H :    0.265030
  37 H :    0.280610
  38 H :    0.292583
Sum of atomic charges:    1.0000000

LOEWDIN ATOMIC CHARGES
----------------------
   0 Ir:   -0.263166
   1 C :   -0.062052
   2 C :   -0.097426
   3 C :   -0.100267
   4 C :   -0.037420
   5 C :   -0.018926
   6 N :   -0.008552
   7 C :   -0.069096
   8 C :   -0.361839
   9 H :    0.155619
  10 H :    0.132727
  11 H :    0.142501
  12 C :   -0.344133
  13 H :    0.152777
  14 H :    0.150025
  15 H :    0.138098
  16 H :    0.133031
  17 C :    0.029660
  18 C :   -0.200152
  19 H :    0.159109
  20 C :   -0.216873
  21 C :   -0.135168
  22 S :    0.491333
  23 C :   -0.256395
  24 H :    0.371298
  25 H :    0.160985
  26 H :    0.168769
  27 H :    0.181825
  28 H :    0.178649
  29 H :    0.186696
  30 O :   -0.255312
  31 O :   -0.170368
  32 C :    0.171319
  33 C :   -0.370600
  34 H :    0.166265
  35 H :    0.173766
  36 H :    0.157743
  37 H :    0.181036
  38 H :    0.184512

  Mayer bond orders larger than 0.100000
B(  0-Ir,  1-C ) :   0.4572 B(  0-Ir,  2-C ) :   0.3944 B(  0-Ir,  3-C ) :   0.4715
B(  0-Ir,  4-C ) :   0.4257 B(  0-Ir,  5-C ) :   0.3656 B(  0-Ir,  6-N ) :   0.4660
B(  0-Ir, 20-C ) :   0.5114 B(  0-Ir, 31-O ) :   0.5004 B(  1-C ,  2-C ) :   1.1261
B(  1-C ,  4-C ) :   1.2157 B(  1-C , 27-H ) :   0.9090 B(  2-C ,  5-C ) :   1.2291
B(  2-C , 28-H ) :   0.9103 B(  3-C ,  4-C ) :   1.1466 B(  3-C ,  5-C ) :   1.1645
B(  3-C , 37-H ) :   0.9139 B(  4-C , 38-H ) :   0.8999 B(  5-C , 29-H ) :   0.9022
B(  6-N ,  7-C ) :   0.8968 B(  6-N , 17-C ) :   1.6425 B(  7-C ,  8-C ) :   0.9902
B(  7-C , 12-C ) :   0.9675 B(  7-C , 13-H ) :   0.8792 B(  8-C ,  9-H ) :   0.9051
B(  8-C , 10-H ) :   0.9131 B(  8-C , 11-H ) :   0.9131 B( 12-C , 14-H ) :   0.9081
B( 12-C , 15-H ) :   0.9153 B( 12-C , 16-H ) :   0.9123 B( 17-C , 18-C ) :   1.1204
B( 17-C , 19-H ) :   0.8768 B( 18-C , 20-C ) :   1.2363 B( 18-C , 22-S ) :   1.2250
B( 20-C , 21-C ) :   1.2800 B( 20-C , 24-H ) :   0.2897 B( 21-C , 23-C ) :   1.5313
B( 21-C , 25-H ) :   0.9030 B( 22-S , 23-C ) :   1.2272 B( 23-C , 26-H ) :   0.8917
B( 24-H , 30-O ) :   0.3874 B( 30-O , 32-C ) :   1.5118 B( 31-O , 32-C ) :   1.4194
B( 32-C , 33-C ) :   0.9462 B( 33-C , 34-H ) :   0.8983 B( 33-C , 35-H ) :   0.8914
B( 33-C , 36-H ) :   0.9071

Dispersion correction           -0.030569697
FINAL SINGLE POINT ENERGY     -1288.406026316279

DIPOLE MOMENT
-------------
                                X             Y             Z
Electronic contribution:     37.02398     -75.39398      71.99417
Nuclear contribution   :    -37.57402      75.11675     -72.11646
                        -----------------------------------------
Total Dipole Moment    :     -0.55004      -0.27724      -0.12229
                        -----------------------------------------
Magnitude (a.u.)       :      0.62798
Magnitude (Debye)      :      1.59620

Rotational constants in cm-1:     0.010571     0.008747     0.008181
Rotational constants in MHz :   316.914653   262.233716   245.271054

                             ****ORCA TERMINATED NORMALLY****
TOTAL RUN TIME: 0 days 2 hours 3 minutes 50 seconds 129 msec
