                         Program Version 5.0.3 -  RELEASE  -
|  1> ! Opt PBEh-3c
|  2> %geom Constraints
|  3> { B 0 20 2.2142857142857144 C }
|  4> { B 24 30 1.457142857142857 C }
|  5>     end
|  6> end
|  7> %output
|  8> xyzfile=True
|  9> end
| 10> %scf
| 11> maxiter 250
| 12> end
| 13> %output
| 14> Print[P_Hirshfeld] = 1
| 15> end
| 16> % maxcore
| 17> 4000
| 18> *xyz 1 1
| 19> Ir   0.62361185  -0.71188522   0.42804513
| 20> C    0.10575847  -2.81700925   0.33134051
| 21> C    0.05998871  -2.35866038   1.69484897
| 22> C    2.21818863  -2.09424842   0.91761764
| 23> C    1.41733423  -2.64400170  -0.15092699
| 24> C    1.38276137  -1.95097129   2.04625328
| 25> N   -1.04568361   0.14689009  -0.52087666
| 26> C   -2.30857947   0.42891477   0.17900501
| 27> C   -3.09165125   1.58612489  -0.42201065
| 28> H   -3.91269106   1.84151849   0.24647935
| 29> H   -3.54101522   1.33918538  -1.38487536
| 30> H   -2.47588923   2.47825710  -0.53817599
| 31> C   -3.14461003  -0.84417066   0.24586680
| 32> H   -2.01021364   0.70355184   1.19159351
| 33> H   -4.04395237  -0.66270794   0.83258818
| 34> H   -3.45455424  -1.16657611  -0.74897634
| 35> H   -2.60434939  -1.66205758   0.72034589
| 36> C   -0.88580996   0.39043069  -1.76651453
| 37> C    0.44793323   0.18414523  -2.26905286
| 38> H   -1.68751235   0.76618376  -2.39493973
| 39> C    1.52594518   0.27934920  -1.38797875
| 40> C    2.73773485  -0.06823962  -2.05860541
| 41> S    0.89847036  -0.30432707  -3.82975320
| 42> C    2.54870609  -0.40077190  -3.36311264
| 43> H    1.52782689   1.23404052  -0.65695469
| 44> H    3.71437008  -0.01813767  -1.59958644
| 45> H    3.29441569  -0.67509731  -4.09379120
| 46> H   -0.72705930  -3.21025107  -0.23372179
| 47> H   -0.78933150  -2.39788577   2.36029826
| 48> H    1.67613404  -1.52936545   2.99719361
| 49> O    1.40763084   2.43799349   0.18039362
| 50> O    0.54672496   0.95872453   1.60631541
| 51> C    0.95907528   2.13419604   1.28755759
| 52> C    0.89380675   3.15260467   2.39080430
| 53> H    0.85467234   4.15978743   1.98490112
| 54> H    1.79720898   3.07343899   2.99859760
| 55> H    0.04419348   2.98031593   3.04780014
| 56> H    3.27348702  -1.87150487   0.87619205
| 57> H    1.76629334  -2.88859379  -1.14344467
| 58> *
| 59>
| 60>                          ****END OF INPUT****
 Total Charge           Charge          ....    1
 Multiplicity           Mult            ....    1
 Number of Electrons    NEL             ....  164
Dispersion correction           -0.031032117
FINAL SINGLE POINT ENERGY     -1288.400121461170
Dispersion correction            ... done
Dispersion correction           -0.030954644
FINAL SINGLE POINT ENERGY     -1288.400053447906
Dispersion correction            ... done
Dispersion correction           -0.030963405
FINAL SINGLE POINT ENERGY     -1288.399817362271
Dispersion correction            ... done
FINAL SINGLE POINT ENERGY     -1288.400390050110
FINAL SINGLE POINT ENERGY     -1288.400424249749
FINAL SINGLE POINT ENERGY     -1288.400451947913
FINAL SINGLE POINT ENERGY     -1288.400474505777
FINAL SINGLE POINT ENERGY     -1288.400481685347
FINAL SINGLE POINT ENERGY     -1288.400487660828
FINAL SINGLE POINT ENERGY     -1288.400492901341
Dispersion correction            ... done
Dispersion correction           -0.030897249
FINAL SINGLE POINT ENERGY     -1288.400498748382
Dispersion correction            ... done
Dispersion correction           -0.030894870
FINAL SINGLE POINT ENERGY     -1288.400501458118
Dispersion correction            ... done
                    ***********************HURRAY********************

CARTESIAN COORDINATES (ANGSTROEM)
---------------------------------
  Ir     0.625830   -0.713771    0.426965
  C      0.106502   -2.821343    0.341462
  C      0.042219   -2.360619    1.702563
  C      2.211419   -2.096662    0.952325
  C      1.425651   -2.651797   -0.123450
  C      1.357695   -1.947918    2.068110
  N     -1.046498    0.139348   -0.520812
  C     -2.310052    0.408835    0.182850
  C     -3.093496    1.577359   -0.396391
  H     -3.914494    1.819620    0.276965
  H     -3.542720    1.348553   -1.363746
  H     -2.478188    2.471809   -0.495961
  C     -3.147594   -0.864422    0.224540
  H     -2.013363    0.665080    1.200758
  H     -4.048402   -0.693335    0.812226
  H     -3.455385   -1.167685   -0.776986
  H     -2.609518   -1.691980    0.684347
  C     -0.890504    0.398836   -1.764872
  C      0.439765    0.200353   -2.273380
  H     -1.695247    0.782832   -2.384149
  C      1.507330    0.225103   -1.374295
  C      2.722992   -0.092953   -2.053683
  S      0.902088   -0.192189   -3.856819
  C      2.544808   -0.337831   -3.379363
  H      1.532485    1.203857   -0.646616
  H      3.695484   -0.084117   -1.583344
  H      3.296162   -0.573232   -4.117756
  H     -0.717342   -3.218674   -0.233773
  H     -0.816058   -2.397025    2.356402
  H      1.637763   -1.521244    3.020834
  O      1.453292    2.413773    0.161529
  O      0.549726    0.969328    1.595275
  C      0.982785    2.132045    1.268092
  C      0.918444    3.170527    2.351920
  H      0.891039    4.171011    1.928830
  H      1.816784    3.093959    2.967426
  H      0.062315    3.015971    3.004681
  H      3.268047   -1.878285    0.927399
  H      1.787608   -2.903929   -1.109363

 Multiplicity           Mult            ....    1
 Number of Electrons    NEL             ....  164
 Basis Dimension        Dim             ....  358

ORBITAL ENERGIES
----------------

  NO   OCC          E(Eh)            E(eV)
   0   2.0000     -89.768041     -2442.7126
   1   2.0000     -19.624925      -534.0214
   2   2.0000     -19.598710      -533.3080
   3   2.0000     -14.839197      -403.7951
   4   2.0000     -10.683563      -290.7145
   5   2.0000     -10.659687      -290.0648
   6   2.0000     -10.633478      -289.3517
   7   2.0000     -10.629980      -289.2565
   8   2.0000     -10.629599      -289.2461
   9   2.0000     -10.625823      -289.1434
  10   2.0000     -10.622229      -289.0455
  11   2.0000     -10.620714      -289.0043
  12   2.0000     -10.614418      -288.8330
  13   2.0000     -10.612613      -288.7839
  14   2.0000     -10.590567      -288.1840
  15   2.0000     -10.588346      -288.1235
  16   2.0000     -10.555531      -287.2306
  17   2.0000     -10.551243      -287.1139
  18   2.0000     -10.535860      -286.6953
  19   2.0000      -8.407431      -228.7778
  20   2.0000      -6.297327      -171.3590
  21   2.0000      -6.293721      -171.2608
  22   2.0000      -6.292411      -171.2252
  23   2.0000      -4.024304      -109.5069
  24   2.0000      -2.342321       -63.7378
  25   2.0000      -2.309608       -62.8476
  26   2.0000      -2.307846       -62.7997
  27   2.0000      -1.309666       -35.6378
  28   2.0000      -1.212897       -33.0046
  29   2.0000      -1.210413       -32.9370
  30   2.0000      -1.166084       -31.7308
  31   2.0000      -1.130835       -30.7716
  32   2.0000      -1.026986       -27.9457
  33   2.0000      -0.979473       -26.6528
  34   2.0000      -0.972436       -26.4613
  35   2.0000      -0.970580       -26.4108
  36   2.0000      -0.962135       -26.1810
  37   2.0000      -0.929555       -25.2945
  38   2.0000      -0.901761       -24.5382
  39   2.0000      -0.875169       -23.8146
  40   2.0000      -0.800472       -21.7819
  41   2.0000      -0.784448       -21.3459
  42   2.0000      -0.782093       -21.2818
  43   2.0000      -0.780946       -21.2506
  44   2.0000      -0.766593       -20.8601
  45   2.0000      -0.755354       -20.5542
  46   2.0000      -0.743449       -20.2303
  47   2.0000      -0.723786       -19.6952
  48   2.0000      -0.691406       -18.8141
  49   2.0000      -0.677920       -18.4471
  50   2.0000      -0.664876       -18.0922
  51   2.0000      -0.650088       -17.6898
  52   2.0000      -0.647082       -17.6080
  53   2.0000      -0.635643       -17.2967
  54   2.0000      -0.634209       -17.2577
  55   2.0000      -0.629743       -17.1362
  56   2.0000      -0.622692       -16.9443
  57   2.0000      -0.613304       -16.6889
  58   2.0000      -0.602178       -16.3861
  59   2.0000      -0.601796       -16.3757
  60   2.0000      -0.600697       -16.3458
  61   2.0000      -0.592194       -16.1144
  62   2.0000      -0.581181       -15.8147
  63   2.0000      -0.572640       -15.5823
  64   2.0000      -0.564152       -15.3514
  65   2.0000      -0.558714       -15.2034
  66   2.0000      -0.551557       -15.0086
  67   2.0000      -0.548210       -14.9176
  68   2.0000      -0.540828       -14.7167
  69   2.0000      -0.536774       -14.6064
  70   2.0000      -0.528399       -14.3785
  71   2.0000      -0.518954       -14.1215
  72   2.0000      -0.514776       -14.0078
  73   2.0000      -0.500191       -13.6109
  74   2.0000      -0.488390       -13.2898
  75   2.0000      -0.481870       -13.1124
  76   2.0000      -0.477096       -12.9825
  77   2.0000      -0.445487       -12.1223
  78   2.0000      -0.443839       -12.0775
  79   2.0000      -0.422996       -11.5103
  80   2.0000      -0.416542       -11.3347
  81   2.0000      -0.398303       -10.8384
  82   0.0000      -0.207537        -5.6474
  83   0.0000      -0.146363        -3.9827
  84   0.0000      -0.141712        -3.8562
  85   0.0000      -0.092873        -2.5272
  86   0.0000      -0.076519        -2.0822

MULLIKEN ATOMIC CHARGES
-----------------------
   0 Ir:    0.606453
   1 C :   -0.220883
   2 C :   -0.272116
   3 C :   -0.253940
   4 C :   -0.239017
   5 C :   -0.159705
   6 N :   -0.426983
   7 C :   -0.127694
   8 C :   -0.684799
   9 H :    0.270322
  10 H :    0.224001
  11 H :    0.258999
  12 C :   -0.634788
  13 H :    0.283274
  14 H :    0.261947
  15 H :    0.231156
  16 H :    0.232657
  17 C :    0.072033
  18 C :   -0.140063
  19 H :    0.288926
  20 C :   -0.535949
  21 C :   -0.104389
  22 S :    0.332355
  23 C :   -0.433117
  24 H :    0.483546
  25 H :    0.268019
  26 H :    0.299195
  27 H :    0.287406
  28 H :    0.286752
  29 H :    0.302996
  30 O :   -0.473138
  31 O :   -0.529844
  32 C :    0.619094
  33 C :   -0.743933
  34 H :    0.269788
  35 H :    0.268235
  36 H :    0.254564
  37 H :    0.286229
  38 H :    0.292409
Sum of atomic charges:    1.0000000

LOEWDIN ATOMIC CHARGES
----------------------
   0 Ir:   -0.248655
   1 C :   -0.046677
   2 C :   -0.084480
   3 C :   -0.076024
   4 C :   -0.052644
   5 C :   -0.017017
   6 N :    0.000329
   7 C :   -0.070168
   8 C :   -0.362901
   9 H :    0.156776
  10 H :    0.132802
  11 H :    0.145949
  12 C :   -0.343474
  13 H :    0.156832
  14 H :    0.152160
  15 H :    0.137239
  16 H :    0.133480
  17 C :    0.031069
  18 C :   -0.174329
  19 H :    0.162110
  20 C :   -0.211002
  21 C :   -0.122174
  22 S :    0.494764
  23 C :   -0.261910
  24 H :    0.318699
  25 H :    0.163611
  26 H :    0.169394
  27 H :    0.182963
  28 H :    0.182558
  29 H :    0.191361
  30 O :   -0.269257
  31 O :   -0.200712
  32 C :    0.153438
  33 C :   -0.374572
  34 H :    0.160198
  35 H :    0.168206
  36 H :    0.153944
  37 H :    0.183591
  38 H :    0.184525

  Mayer bond orders larger than 0.100000
B(  0-Ir,  1-C ) :   0.4187 B(  0-Ir,  2-C ) :   0.4635 B(  0-Ir,  3-C ) :   0.4616
B(  0-Ir,  4-C ) :   0.4384 B(  0-Ir,  5-C ) :   0.3928 B(  0-Ir,  6-N ) :   0.4627
B(  0-Ir, 20-C ) :   0.3792 B(  0-Ir, 31-O ) :   0.5599 B(  1-C ,  2-C ) :   1.1288
B(  1-C ,  4-C ) :   1.2414 B(  1-C , 27-H ) :   0.9057 B(  2-C ,  5-C ) :   1.1645
B(  2-C , 28-H ) :   0.9097 B(  3-C ,  4-C ) :   1.1162 B(  3-C ,  5-C ) :   1.2114
B(  3-C , 37-H ) :   0.9098 B(  4-C , 38-H ) :   0.9004 B(  5-C , 29-H ) :   0.8991
B(  6-N ,  7-C ) :   0.8929 B(  6-N , 17-C ) :   1.6673 B(  7-C ,  8-C ) :   0.9906
B(  7-C , 12-C ) :   0.9671 B(  7-C , 13-H ) :   0.8732 B(  8-C ,  9-H ) :   0.9043
B(  8-C , 10-H ) :   0.9132 B(  8-C , 11-H ) :   0.9096 B( 12-C , 14-H ) :   0.9070
B( 12-C , 15-H ) :   0.9156 B( 12-C , 16-H ) :   0.9122 B( 17-C , 18-C ) :   1.0862
B( 17-C , 19-H ) :   0.8758 B( 18-C , 20-C ) :   1.2427 B( 18-C , 22-S ) :   1.2557
B( 20-C , 21-C ) :   1.2569 B( 20-C , 24-H ) :   0.4339 B( 21-C , 23-C ) :   1.5549
B( 21-C , 25-H ) :   0.9030 B( 22-S , 23-C ) :   1.2035 B( 23-C , 26-H ) :   0.8911
B( 24-H , 30-O ) :   0.2753 B( 30-O , 32-C ) :   1.6617 B( 31-O , 32-C ) :   1.3048
B( 32-C , 33-C ) :   0.9446 B( 33-C , 34-H ) :   0.9043 B( 33-C , 35-H ) :   0.8976
B( 33-C , 36-H ) :   0.9091

Dispersion correction           -0.030890975
FINAL SINGLE POINT ENERGY     -1288.400504594971

DIPOLE MOMENT
-------------
                                X             Y             Z
Electronic contribution:     38.88645     -69.12994      71.21222
Nuclear contribution   :    -39.51270      68.16387     -71.63251
                        -----------------------------------------
Total Dipole Moment    :     -0.62625      -0.96607      -0.42029
                        -----------------------------------------
Magnitude (a.u.)       :      1.22561
Magnitude (Debye)      :      3.11526

Rotational constants in cm-1:     0.010588     0.009119     0.008216
Rotational constants in MHz :   317.408719   273.365764   246.305472

                             ****ORCA TERMINATED NORMALLY****
TOTAL RUN TIME: 0 days 1 hours 33 minutes 57 seconds 475 msec
