                         Program Version 5.0.3 -  RELEASE  -
|  1> ! Opt PBEh-3c
|  2> %geom Constraints
|  3> { B 0 20 2.085714285714286 C }
|  4> { B 24 30 1.3285714285714287 C }
|  5>     end
|  6> end
|  7> %output
|  8> xyzfile=True
|  9> end
| 10> %scf
| 11> maxiter 250
| 12> end
| 13> %output
| 14> Print[P_Hirshfeld] = 1
| 15> end
| 16> % maxcore
| 17> 4000
| 18> *xyz 1 1
| 19> Ir   0.61040593  -0.73894658   0.42694530
| 20> C    0.14081192  -2.85085722   0.35102379
| 21> C   -0.10208274  -2.39676578   1.69631547
| 22> C    2.13708797  -2.06896629   1.21321185
| 23> C    1.51318777  -2.66630744   0.06637992
| 24> C    1.13078291  -1.93571285   2.21134705
| 25> N   -1.07151878   0.10831817  -0.50834122
| 26> C   -2.34740049   0.29404909   0.19962697
| 27> C   -3.14047459   1.50506184  -0.27097028
| 28> H   -3.97426827   1.66591484   0.41052389
| 29> H   -3.57140089   1.37109486  -1.26407599
| 30> H   -2.53670546   2.41286353  -0.26981634
| 31> C   -3.17129224  -0.98488144   0.09906007
| 32> H   -2.07245672   0.45513781   1.24317217
| 33> H   -4.07983852  -0.89009958   0.69244277
| 34> H   -3.46542936  -1.18192810  -0.93264477
| 35> H   -2.62722006  -1.85281228   0.46799648
| 36> C   -0.91994825   0.47478203  -1.72824095
| 37> C    0.39592766   0.31155808  -2.26623275
| 38> H   -1.73136471   0.90897543  -2.30349334
| 39> C    1.43213836   0.04770761  -1.37215101
| 40> C    2.64452755  -0.17625326  -2.09263569
| 41> S    0.88492070   0.31737495  -3.89234903
| 42> C    2.49354190  -0.05508614  -3.44164288
| 43> H    1.64398749   1.16504336  -0.63544272
| 44> H    3.60140369  -0.36153633  -1.62628838
| 45> H    3.25471554  -0.14732917  -4.20148680
| 46> H   -0.58596719  -3.29136663  -0.31574547
| 47> H   -1.03553950  -2.44587205   2.23571925
| 48> H    1.27269094  -1.48650625   3.18420063
| 49> O    1.76014415   2.29033949   0.08807752
| 50> O    0.58157347   1.03694607   1.49932320
| 51> C    1.15783322   2.11548873   1.17124419
| 52> C    1.13419541   3.24142328   2.16089014
| 53> H    1.00658090   4.19516386   1.65368178
| 54> H    2.09498510   3.27813989   2.67720336
| 55> H    0.35266643   3.10427062   2.90256789
| 56> H    3.18555506  -1.84403454   1.33255217
| 57> H    2.00261383  -2.92520163  -0.86120817
| 58> *
| 59>
| 60>                          ****END OF INPUT****
 Total Charge           Charge          ....    1
 Multiplicity           Mult            ....    1
 Number of Electrons    NEL             ....  164
Dispersion correction           -0.030726824
FINAL SINGLE POINT ENERGY     -1288.404467531941
Dispersion correction            ... done
Dispersion correction           -0.030692180
FINAL SINGLE POINT ENERGY     -1288.404712919727
Dispersion correction            ... done
Dispersion correction           -0.030677839
FINAL SINGLE POINT ENERGY     -1288.404810218546
Dispersion correction            ... done
FINAL SINGLE POINT ENERGY     -1288.404873491145
FINAL SINGLE POINT ENERGY     -1288.404925466991
FINAL SINGLE POINT ENERGY     -1288.404953667433
FINAL SINGLE POINT ENERGY     -1288.404969409100
FINAL SINGLE POINT ENERGY     -1288.404978732475
FINAL SINGLE POINT ENERGY     -1288.404986708769
FINAL SINGLE POINT ENERGY     -1288.404991202154
FINAL SINGLE POINT ENERGY     -1288.404993819291
FINAL SINGLE POINT ENERGY     -1288.404995118671
FINAL SINGLE POINT ENERGY     -1288.404996182811
Dispersion correction            ... done
Dispersion correction           -0.030638552
FINAL SINGLE POINT ENERGY     -1288.404997476528
Dispersion correction            ... done
Dispersion correction           -0.030639291
FINAL SINGLE POINT ENERGY     -1288.404999009407
Dispersion correction            ... done
                    ***********************HURRAY********************

CARTESIAN COORDINATES (ANGSTROEM)
---------------------------------
  Ir     0.611231   -0.745159    0.414491
  C      0.159316   -2.858203    0.341704
  C     -0.120667   -2.417566    1.685289
  C      2.124079   -2.057743    1.256550
  C      1.539993   -2.664543    0.097014
  C      1.087423   -1.941705    2.231377
  N     -1.078877    0.100052   -0.506298
  C     -2.352759    0.274012    0.207584
  C     -3.141137    1.499309   -0.232799
  H     -3.974508    1.646399    0.452317
  H     -3.572075    1.392590   -1.229196
  H     -2.533431    2.404159   -0.208705
  C     -3.181163   -0.999349    0.078315
  H     -2.075963    0.409819    1.254259
  H     -4.085587   -0.918575    0.680051
  H     -3.482403   -1.167822   -0.956387
  H     -2.636397   -1.878372    0.419122
  C     -0.931205    0.482222   -1.722412
  C      0.383155    0.318920   -2.261542
  H     -1.742689    0.926532   -2.289521
  C      1.403301    0.000885   -1.364904
  C      2.623721   -0.200802   -2.080488
  S      0.895002    0.398804   -3.878858
  C      2.492219   -0.011897   -3.424237
  H      1.646102    1.184771   -0.674469
  H      3.572096   -0.421989   -1.612301
  H      3.263234   -0.076509   -4.177011
  H     -0.543110   -3.310926   -0.342673
  H     -1.069100   -2.473443    2.197075
  H      1.198230   -1.493087    3.208438
  O      1.767483    2.299260    0.038471
  O      0.605754    1.048918    1.467876
  C      1.176590    2.123703    1.132336
  C      1.170695    3.254778    2.115590
  H      1.044571    4.207355    1.605926
  H      2.136433    3.286443    2.623053
  H      0.395352    3.125278    2.865026
  H      3.167331   -1.827414    1.407154
  H      2.057133   -2.919916   -0.816479

 Multiplicity           Mult            ....    1
 Number of Electrons    NEL             ....  164
 Basis Dimension        Dim             ....  358

ORBITAL ENERGIES
----------------

  NO   OCC          E(Eh)            E(eV)
   0   2.0000     -89.761555     -2442.5361
   1   2.0000     -19.640958      -534.4576
   2   2.0000     -19.636889      -534.3469
   3   2.0000     -14.830840      -403.5677
   4   2.0000     -10.705134      -291.3015
   5   2.0000     -10.652272      -289.8631
   6   2.0000     -10.622327      -289.0482
   7   2.0000     -10.621591      -289.0282
   8   2.0000     -10.621443      -289.0241
   9   2.0000     -10.619070      -288.9596
  10   2.0000     -10.612138      -288.7710
  11   2.0000     -10.611660      -288.7579
  12   2.0000     -10.609127      -288.6890
  13   2.0000     -10.608576      -288.6740
  14   2.0000     -10.589997      -288.1685
  15   2.0000     -10.587781      -288.1082
  16   2.0000     -10.551913      -287.1321
  17   2.0000     -10.549819      -287.0752
  18   2.0000     -10.549537      -287.0675
  19   2.0000      -8.400912      -228.6004
  20   2.0000      -6.290795      -171.1812
  21   2.0000      -6.287285      -171.0857
  22   2.0000      -6.285856      -171.0468
  23   2.0000      -4.017623      -109.3251
  24   2.0000      -2.334243       -63.5180
  25   2.0000      -2.304368       -62.7050
  26   2.0000      -2.300529       -62.6006
  27   2.0000      -1.334384       -36.3104
  28   2.0000      -1.236008       -33.6335
  29   2.0000      -1.204334       -32.7716
  30   2.0000      -1.156987       -31.4832
  31   2.0000      -1.125730       -30.6327
  32   2.0000      -1.022804       -27.8319
  33   2.0000      -0.970161       -26.3994
  34   2.0000      -0.967346       -26.3228
  35   2.0000      -0.962986       -26.2042
  36   2.0000      -0.956958       -26.0402
  37   2.0000      -0.945341       -25.7240
  38   2.0000      -0.899029       -24.4638
  39   2.0000      -0.870022       -23.6745
  40   2.0000      -0.796247       -21.6670
  41   2.0000      -0.780561       -21.2401
  42   2.0000      -0.774358       -21.0713
  43   2.0000      -0.773220       -21.0404
  44   2.0000      -0.766510       -20.8578
  45   2.0000      -0.758236       -20.6327
  46   2.0000      -0.741026       -20.1643
  47   2.0000      -0.721186       -19.6245
  48   2.0000      -0.698931       -19.0189
  49   2.0000      -0.683852       -18.6086
  50   2.0000      -0.666492       -18.1362
  51   2.0000      -0.663353       -18.0508
  52   2.0000      -0.651370       -17.7247
  53   2.0000      -0.637857       -17.3570
  54   2.0000      -0.628999       -17.1159
  55   2.0000      -0.624617       -16.9967
  56   2.0000      -0.620148       -16.8751
  57   2.0000      -0.609207       -16.5774
  58   2.0000      -0.598760       -16.2931
  59   2.0000      -0.594560       -16.1788
  60   2.0000      -0.593360       -16.1461
  61   2.0000      -0.589997       -16.0546
  62   2.0000      -0.577527       -15.7153
  63   2.0000      -0.573210       -15.5978
  64   2.0000      -0.562675       -15.3112
  65   2.0000      -0.560707       -15.2576
  66   2.0000      -0.558453       -15.1963
  67   2.0000      -0.544826       -14.8255
  68   2.0000      -0.542350       -14.7581
  69   2.0000      -0.535439       -14.5700
  70   2.0000      -0.529451       -14.4071
  71   2.0000      -0.517808       -14.0903
  72   2.0000      -0.512284       -13.9400
  73   2.0000      -0.504663       -13.7326
  74   2.0000      -0.499354       -13.5881
  75   2.0000      -0.488439       -13.2911
  76   2.0000      -0.475729       -12.9453
  77   2.0000      -0.452728       -12.3194
  78   2.0000      -0.443214       -12.0605
  79   2.0000      -0.416162       -11.3244
  80   2.0000      -0.414040       -11.2666
  81   2.0000      -0.392362       -10.6767
  82   0.0000      -0.200021        -5.4428
  83   0.0000      -0.142895        -3.8884
  84   0.0000      -0.124654        -3.3920
  85   0.0000      -0.084883        -2.3098
  86   0.0000      -0.076265        -2.0753

MULLIKEN ATOMIC CHARGES
-----------------------
   0 Ir:    0.608872
   1 C :   -0.258387
   2 C :   -0.251930
   3 C :   -0.279255
   4 C :   -0.216443
   5 C :   -0.151895
   6 N :   -0.436989
   7 C :   -0.126058
   8 C :   -0.678886
   9 H :    0.268272
  10 H :    0.224446
  11 H :    0.251890
  12 C :   -0.632571
  13 H :    0.275735
  14 H :    0.257229
  15 H :    0.232903
  16 H :    0.233971
  17 C :    0.069318
  18 C :   -0.122417
  19 H :    0.283467
  20 C :   -0.561125
  21 C :   -0.104716
  22 S :    0.341606
  23 C :   -0.423753
  24 H :    0.477197
  25 H :    0.266179
  26 H :    0.297369
  27 H :    0.283847
  28 H :    0.279621
  29 H :    0.294503
  30 O :   -0.487093
  31 O :   -0.496380
  32 C :    0.636129
  33 C :   -0.743857
  34 H :    0.274930
  35 H :    0.277990
  36 H :    0.264854
  37 H :    0.279529
  38 H :    0.291897
Sum of atomic charges:    1.0000000

LOEWDIN ATOMIC CHARGES
----------------------
   0 Ir:   -0.264205
   1 C :   -0.064315
   2 C :   -0.098355
   3 C :   -0.102701
   4 C :   -0.037638
   5 C :   -0.020489
   6 N :   -0.006593
   7 C :   -0.069212
   8 C :   -0.361734
   9 H :    0.155682
  10 H :    0.132716
  11 H :    0.142477
  12 C :   -0.344070
  13 H :    0.152822
  14 H :    0.150008
  15 H :    0.138139
  16 H :    0.133328
  17 C :    0.028946
  18 C :   -0.198703
  19 H :    0.159406
  20 C :   -0.215993
  21 C :   -0.133631
  22 S :    0.494358
  23 C :   -0.256035
  24 H :    0.373608
  25 H :    0.161566
  26 H :    0.169120
  27 H :    0.181443
  28 H :    0.178012
  29 H :    0.186048
  30 O :   -0.255150
  31 O :   -0.170261
  32 C :    0.170258
  33 C :   -0.370692
  34 H :    0.165928
  35 H :    0.173699
  36 H :    0.157730
  37 H :    0.180506
  38 H :    0.183975

  Mayer bond orders larger than 0.100000
B(  0-Ir,  1-C ) :   0.4623 B(  0-Ir,  2-C ) :   0.3782 B(  0-Ir,  3-C ) :   0.4736
B(  0-Ir,  4-C ) :   0.4210 B(  0-Ir,  5-C ) :   0.3550 B(  0-Ir,  6-N ) :   0.4655
B(  0-Ir, 20-C ) :   0.5384 B(  0-Ir, 31-O ) :   0.4996 B(  1-C ,  2-C ) :   1.1249
B(  1-C ,  4-C ) :   1.2135 B(  1-C , 27-H ) :   0.9096 B(  2-C ,  5-C ) :   1.2440
B(  2-C , 28-H ) :   0.9102 B(  3-C ,  4-C ) :   1.1508 B(  3-C ,  5-C ) :   1.1575
B(  3-C , 37-H ) :   0.9146 B(  4-C , 38-H ) :   0.8998 B(  5-C , 29-H ) :   0.9026
B(  6-N ,  7-C ) :   0.8969 B(  6-N , 17-C ) :   1.6418 B(  7-C ,  8-C ) :   0.9901
B(  7-C , 12-C ) :   0.9674 B(  7-C , 13-H ) :   0.8791 B(  8-C ,  9-H ) :   0.9051
B(  8-C , 10-H ) :   0.9131 B(  8-C , 11-H ) :   0.9131 B( 12-C , 14-H ) :   0.9081
B( 12-C , 15-H ) :   0.9152 B( 12-C , 16-H ) :   0.9121 B( 17-C , 18-C ) :   1.1215
B( 17-C , 19-H ) :   0.8769 B( 18-C , 20-C ) :   1.2273 B( 18-C , 22-S ) :   1.2286
B( 20-C , 21-C ) :   1.2704 B( 20-C , 24-H ) :   0.2887 B( 21-C , 23-C ) :   1.5324
B( 21-C , 25-H ) :   0.9025 B( 22-S , 23-C ) :   1.2259 B( 23-C , 26-H ) :   0.8917
B( 24-H , 30-O ) :   0.3891 B( 30-O , 32-C ) :   1.5141 B( 31-O , 32-C ) :   1.4191
B( 32-C , 33-C ) :   0.9455 B( 33-C , 34-H ) :   0.8986 B( 33-C , 35-H ) :   0.8915
B( 33-C , 36-H ) :   0.9071

Dispersion correction           -0.030639510
FINAL SINGLE POINT ENERGY     -1288.405000243225

DIPOLE MOMENT
-------------
                                X             Y             Z
Electronic contribution:     37.30254     -75.50384      70.50560
Nuclear contribution   :    -37.85451      75.25173     -70.66362
                        -----------------------------------------
Total Dipole Moment    :     -0.55198      -0.25211      -0.15802
                        -----------------------------------------
Magnitude (a.u.)       :      0.62706
Magnitude (Debye)      :      1.59387

Rotational constants in cm-1:     0.010574     0.008802     0.008210
Rotational constants in MHz :   316.997667   263.865357   246.116496

                             ****ORCA TERMINATED NORMALLY****
TOTAL RUN TIME: 0 days 2 hours 4 minutes 11 seconds 459 msec
