                         Program Version 5.0.3 -  RELEASE  -
|  1> ! Opt PBEh-3c
|  2> %geom Constraints
|  3> { B 0 20 2.5571428571428574 C }
|  4> { B 24 30 1.3857142857142857 C }
|  5>     end
|  6> end
|  7> %output
|  8> xyzfile=True
|  9> end
| 10> %scf
| 11> maxiter 250
| 12> end
| 13> %output
| 14> Print[P_Hirshfeld] = 1
| 15> end
| 16> % maxcore
| 17> 4000
| 18> *xyz 1 1
| 19> Ir   0.56791649  -0.73738145   0.49398399
| 20> C    0.01269384  -2.81402739   0.35404947
| 21> C    0.09836814  -2.37617159   1.72716731
| 22> C    2.18102021  -2.15230092   0.77529413
| 23> C    1.27584050  -2.64579357  -0.23884205
| 24> C    1.46864718  -2.02714843   1.97960503
| 25> N   -1.04089605   0.16720057  -0.50819311
| 26> C   -2.31816253   0.50354589   0.14129383
| 27> C   -3.13259685   1.53945756  -0.61648876
| 28> H   -3.96868103   1.85323763   0.00691099
| 29> H   -3.56335451   1.14955849  -1.54015624
| 30> H   -2.54962940   2.43142990  -0.84818138
| 31> C   -3.11899383  -0.76911248   0.38730593
| 32> H   -2.03392165   0.92768007   1.10596378
| 33> H   -4.03860635  -0.52481008   0.91681013
| 34> H   -3.39415043  -1.25204604  -0.55132296
| 35> H   -2.57494794  -1.48522728   1.00166208
| 36> C   -0.82430254   0.36990773  -1.75005842
| 37> C    0.52882775   0.15418923  -2.21762329
| 38> H   -1.60160087   0.72443945  -2.42131239
| 39> C    1.63938759   0.55927714  -1.48859671
| 40> C    2.83656926   0.15047680  -2.14240745
| 41> S    0.93941501  -0.64539216  -3.67418014
| 42> C    2.61193479  -0.49805383  -3.31662611
| 43> H    1.54601881   1.41936496  -0.66742403
| 44> H    3.82740782   0.37862052  -1.77717569
| 45> H    3.34272498  -0.88236997  -4.01217492
| 46> H   -0.87915249  -3.16813972  -0.14270532
| 47> H   -0.68981374  -2.41542889   2.46491686
| 48> H    1.85920252  -1.64810806   2.91305518
| 49> O    1.31252992   2.43359132   0.26896681
| 50> O    0.53949307   0.89893012   1.69286600
| 51> C    0.91368269   2.09579132   1.38135579
| 52> C    0.86171922   3.07997521   2.51547698
| 53> H    0.81648395   4.09802712   2.13839766
| 54> H    1.77146292   2.98482659   3.11158133
| 55> H    0.02047559   2.88926069   3.17852484
| 56> H    3.22468419  -1.91690837   0.62735916
| 57> H    1.53167380  -2.85117805  -1.26833820
| 58> *
| 59>
| 60>                          ****END OF INPUT****
 Total Charge           Charge          ....    1
 Multiplicity           Mult            ....    1
 Number of Electrons    NEL             ....  164
Dispersion correction           -0.030928155
FINAL SINGLE POINT ENERGY     -1288.394297439878
Dispersion correction            ... done
Dispersion correction           -0.030973816
FINAL SINGLE POINT ENERGY     -1288.392501184011
Dispersion correction            ... done
Dispersion correction           -0.030914406
FINAL SINGLE POINT ENERGY     -1288.394337339955
Dispersion correction            ... done
FINAL SINGLE POINT ENERGY     -1288.392292369766
FINAL SINGLE POINT ENERGY     -1288.394438441955
FINAL SINGLE POINT ENERGY     -1288.394464763826
FINAL SINGLE POINT ENERGY     -1288.394480150366
FINAL SINGLE POINT ENERGY     -1288.394487933463
Dispersion correction            ... done
Dispersion correction           -0.030821478
FINAL SINGLE POINT ENERGY     -1288.394495560145
Dispersion correction            ... done
Dispersion correction           -0.030815904
FINAL SINGLE POINT ENERGY     -1288.394505283546
Dispersion correction            ... done
                    ***********************HURRAY********************

CARTESIAN COORDINATES (ANGSTROEM)
---------------------------------
  Ir     0.572634   -0.735270    0.491913
  C      0.014856   -2.811825    0.361465
  C      0.093472   -2.371079    1.733208
  C      2.182015   -2.151507    0.790306
  C      1.281587   -2.647887   -0.226416
  C      1.461923   -2.020058    1.989945
  N     -1.041017    0.160755   -0.510583
  C     -2.318672    0.489708    0.142293
  C     -3.129059    1.540659   -0.599419
  H     -3.963344    1.848910    0.029200
  H     -3.562529    1.167350   -1.528641
  H     -2.541883    2.433148   -0.818031
  C     -3.123984   -0.784207    0.366381
  H     -2.035265    0.897662    1.114120
  H     -4.044060   -0.545497    0.897680
  H     -3.398360   -1.251418   -0.580384
  H     -2.583316   -1.511637    0.970251
  C     -0.831596    0.366105   -1.753958
  C      0.519051    0.160318   -2.227629
  H     -1.614809    0.716496   -2.420404
  C      1.625197    0.523128   -1.469597
  C      2.825697    0.129258   -2.125939
  S      0.937808   -0.584359   -3.708754
  C      2.607448   -0.469037   -3.328090
  H      1.538589    1.399307   -0.646517
  H      3.814775    0.332598   -1.741757
  H      3.341675   -0.831490   -4.031722
  H     -0.874592   -3.166458   -0.139262
  H     -0.698397   -2.407582    2.466991
  H      1.847940   -1.637330    2.923788
  O      1.332414    2.427820    0.258942
  O      0.537594    0.908366    1.686267
  C      0.922974    2.098402    1.372193
  C      0.876207    3.091866    2.497914
  H      0.831193    4.107086    2.113273
  H      1.788327    3.000042    3.090952
  H      0.037171    2.906971    3.165260
  H      3.227459   -1.920479    0.648804
  H      1.542245   -2.859645   -1.253304

 Multiplicity           Mult            ....    1
 Number of Electrons    NEL             ....  164
 Basis Dimension        Dim             ....  358

ORBITAL ENERGIES
----------------

  NO   OCC          E(Eh)            E(eV)
   0   2.0000     -89.758036     -2442.4403
   1   2.0000     -19.625533      -534.0379
   2   2.0000     -19.589530      -533.0582
   3   2.0000     -14.840042      -403.8181
   4   2.0000     -10.682998      -290.6992
   5   2.0000     -10.661154      -290.1047
   6   2.0000     -10.638762      -289.4954
   7   2.0000     -10.636291      -289.4282
   8   2.0000     -10.635008      -289.3933
   9   2.0000     -10.633769      -289.3596
  10   2.0000     -10.632575      -289.3271
  11   2.0000     -10.627886      -289.1995
  12   2.0000     -10.616357      -288.8858
  13   2.0000     -10.607305      -288.6394
  14   2.0000     -10.580175      -287.9012
  15   2.0000     -10.578004      -287.8421
  16   2.0000     -10.557291      -287.2785
  17   2.0000     -10.552144      -287.1384
  18   2.0000     -10.533720      -286.6371
  19   2.0000      -8.397372      -228.5041
  20   2.0000      -6.287456      -171.0904
  21   2.0000      -6.283831      -170.9917
  22   2.0000      -6.282078      -170.9440
  23   2.0000      -4.031551      -109.7041
  24   2.0000      -2.351017       -63.9744
  25   2.0000      -2.316533       -63.0361
  26   2.0000      -2.314789       -62.9886
  27   2.0000      -1.307584       -35.5812
  28   2.0000      -1.212901       -33.0047
  29   2.0000      -1.210338       -32.9350
  30   2.0000      -1.175465       -31.9860
  31   2.0000      -1.122591       -30.5473
  32   2.0000      -1.025978       -27.9183
  33   2.0000      -0.990314       -26.9478
  34   2.0000      -0.980409       -26.6783
  35   2.0000      -0.962552       -26.1924
  36   2.0000      -0.956348       -26.0236
  37   2.0000      -0.928221       -25.2582
  38   2.0000      -0.903549       -24.5868
  39   2.0000      -0.872148       -23.7323
  40   2.0000      -0.796575       -21.6759
  41   2.0000      -0.791184       -21.5292
  42   2.0000      -0.789445       -21.4819
  43   2.0000      -0.779506       -21.2114
  44   2.0000      -0.773651       -21.0521
  45   2.0000      -0.757588       -20.6150
  46   2.0000      -0.743838       -20.2409
  47   2.0000      -0.722341       -19.6559
  48   2.0000      -0.694428       -18.8964
  49   2.0000      -0.673850       -18.3364
  50   2.0000      -0.664903       -18.0929
  51   2.0000      -0.652034       -17.7427
  52   2.0000      -0.649574       -17.6758
  53   2.0000      -0.641323       -17.4513
  54   2.0000      -0.638406       -17.3719
  55   2.0000      -0.631176       -17.1752
  56   2.0000      -0.624009       -16.9802
  57   2.0000      -0.611698       -16.6451
  58   2.0000      -0.610666       -16.6171
  59   2.0000      -0.608365       -16.5545
  60   2.0000      -0.595877       -16.2146
  61   2.0000      -0.586842       -15.9688
  62   2.0000      -0.575220       -15.6525
  63   2.0000      -0.568717       -15.4756
  64   2.0000      -0.562644       -15.3103
  65   2.0000      -0.555181       -15.1072
  66   2.0000      -0.552725       -15.0404
  67   2.0000      -0.548535       -14.9264
  68   2.0000      -0.539525       -14.6812
  69   2.0000      -0.534328       -14.5398
  70   2.0000      -0.527861       -14.3638
  71   2.0000      -0.521487       -14.1904
  72   2.0000      -0.516286       -14.0489
  73   2.0000      -0.508103       -13.8262
  74   2.0000      -0.490667       -13.3517
  75   2.0000      -0.480861       -13.0849
  76   2.0000      -0.463126       -12.6023
  77   2.0000      -0.451703       -12.2915
  78   2.0000      -0.441519       -12.0143
  79   2.0000      -0.421882       -11.4800
  80   2.0000      -0.417122       -11.3505
  81   2.0000      -0.403447       -10.9784
  82   0.0000      -0.200683        -5.4608
  83   0.0000      -0.165956        -4.5159
  84   0.0000      -0.141691        -3.8556
  85   0.0000      -0.098579        -2.6825
  86   0.0000      -0.076283        -2.0758

MULLIKEN ATOMIC CHARGES
-----------------------
   0 Ir:    0.621925
   1 C :   -0.208004
   2 C :   -0.295976
   3 C :   -0.230362
   4 C :   -0.244734
   5 C :   -0.167096
   6 N :   -0.430127
   7 C :   -0.116731
   8 C :   -0.695055
   9 H :    0.272795
  10 H :    0.226426
  11 H :    0.260493
  12 C :   -0.639615
  13 H :    0.280294
  14 H :    0.265009
  15 H :    0.230965
  16 H :    0.232452
  17 C :    0.067379
  18 C :   -0.217509
  19 H :    0.291419
  20 C :   -0.401535
  21 C :   -0.147429
  22 S :    0.292442
  23 C :   -0.427403
  24 H :    0.500309
  25 H :    0.264903
  26 H :    0.295802
  27 H :    0.293218
  28 H :    0.294473
  29 H :    0.307142
  30 O :   -0.487353
  31 O :   -0.541676
  32 C :    0.616657
  33 C :   -0.746128
  34 H :    0.269657
  35 H :    0.266441
  36 H :    0.253052
  37 H :    0.296762
  38 H :    0.296719
Sum of atomic charges:    1.0000000

LOEWDIN ATOMIC CHARGES
----------------------
   0 Ir:   -0.208381
   1 C :   -0.039083
   2 C :   -0.055646
   3 C :   -0.045771
   4 C :   -0.053921
   5 C :   -0.027094
   6 N :   -0.010497
   7 C :   -0.068212
   8 C :   -0.364885
   9 H :    0.157487
  10 H :    0.134051
  11 H :    0.146806
  12 C :   -0.343621
  13 H :    0.156031
  14 H :    0.153183
  15 H :    0.137332
  16 H :    0.134124
  17 C :    0.036951
  18 C :   -0.194163
  19 H :    0.162547
  20 C :   -0.188467
  21 C :   -0.146698
  22 S :    0.455551
  23 C :   -0.262112
  24 H :    0.287990
  25 H :    0.161130
  26 H :    0.167081
  27 H :    0.186262
  28 H :    0.186740
  29 H :    0.193991
  30 O :   -0.277904
  31 O :   -0.207151
  32 C :    0.156934
  33 C :   -0.376184
  34 H :    0.159818
  35 H :    0.167225
  36 H :    0.153159
  37 H :    0.188495
  38 H :    0.186904

  Mayer bond orders larger than 0.100000
B(  0-Ir,  1-C ) :   0.4227 B(  0-Ir,  2-C ) :   0.5552 B(  0-Ir,  3-C ) :   0.4628
B(  0-Ir,  4-C ) :   0.4547 B(  0-Ir,  5-C ) :   0.4038 B(  0-Ir,  6-N ) :   0.4669
B(  0-Ir, 20-C ) :   0.2169 B(  0-Ir, 31-O ) :   0.5854 B(  1-C ,  2-C ) :   1.1124
B(  1-C ,  4-C ) :   1.2448 B(  1-C , 27-H ) :   0.9025 B(  2-C ,  5-C ) :   1.1284
B(  2-C , 28-H ) :   0.9062 B(  3-C ,  4-C ) :   1.1040 B(  3-C ,  5-C ) :   1.2360
B(  3-C , 37-H ) :   0.9024 B(  4-C , 38-H ) :   0.8978 B(  5-C , 29-H ) :   0.8977
B(  6-N ,  7-C ) :   0.8911 B(  6-N , 17-C ) :   1.6932 B(  7-C ,  8-C ) :   0.9927
B(  7-C , 12-C ) :   0.9695 B(  7-C , 13-H ) :   0.8723 B(  8-C ,  9-H ) :   0.9033
B(  8-C , 10-H ) :   0.9123 B(  8-C , 11-H ) :   0.9081 B( 12-C , 14-H ) :   0.9062
B( 12-C , 15-H ) :   0.9153 B( 12-C , 16-H ) :   0.9109 B( 17-C , 18-C ) :   1.0539
B( 17-C , 19-H ) :   0.8738 B( 18-C , 20-C ) :   1.3087 B( 18-C , 22-S ) :   1.2099
B( 20-C , 21-C ) :   1.2706 B( 20-C , 24-H ) :   0.4841 B( 21-C , 23-C ) :   1.5445
B( 21-C , 25-H ) :   0.9047 B( 22-S , 23-C ) :   1.2040 B( 23-C , 26-H ) :   0.8929
B( 24-H , 30-O ) :   0.2277 B( 30-O , 32-C ) :   1.6897 B( 31-O , 32-C ) :   1.2750
B( 32-C , 33-C ) :   0.9475 B( 33-C , 34-H ) :   0.9050 B( 33-C , 35-H ) :   0.8985
B( 33-C , 36-H ) :   0.9094

Dispersion correction           -0.030813172
FINAL SINGLE POINT ENERGY     -1288.394508983660

DIPOLE MOMENT
-------------
                                X             Y             Z
Electronic contribution:     33.47298     -68.78999      76.40485
Nuclear contribution   :    -34.10662      67.55480     -76.56243
                        -----------------------------------------
Total Dipole Moment    :     -0.63364      -1.23520      -0.15758
                        -----------------------------------------
Magnitude (a.u.)       :      1.39716
Magnitude (Debye)      :      3.55129

Rotational constants in cm-1:     0.010675     0.009015     0.008214
Rotational constants in MHz :   320.026530   270.258654   246.245963

                             ****ORCA TERMINATED NORMALLY****
TOTAL RUN TIME: 0 days 1 hours 29 minutes 45 seconds 419 msec
