                         Program Version 5.0.3 -  RELEASE  -
|  1> ! Opt PBEh-3c
|  2> %geom Constraints
|  3> { B 0 20 2.3 C }
|  4> { B 24 30 1.4285714285714286 C }
|  5>     end
|  6> end
|  7> %output
|  8> xyzfile=True
|  9> end
| 10> %scf
| 11> maxiter 250
| 12> end
| 13> %output
| 14> Print[P_Hirshfeld] = 1
| 15> end
| 16> % maxcore
| 17> 4000
| 18> *xyz 1 1
| 19> Ir   0.60706605  -0.71426561   0.44379260
| 20> C    0.05941728  -2.80601166   0.35925941
| 21> C    0.09006714  -2.34544186   1.72299390
| 22> C    2.20805695  -2.11865127   0.83789483
| 23> C    1.34471797  -2.64827370  -0.19280223
| 24> C    1.44064085  -1.96523573   2.00905712
| 25> N   -1.04565704   0.15429215  -0.52454259
| 26> C   -2.31530561   0.45157208   0.15711015
| 27> C   -3.11378330   1.56496695  -0.50251734
| 28> H   -3.93979646   1.84116446   0.15145155
| 29> H   -3.55817297   1.26442588  -1.45257783
| 30> H   -2.51209634   2.46019435  -0.66167665
| 31> C   -3.13447954  -0.82708223   0.28858916
| 32> H   -2.02325341   0.78162258   1.15517325
| 33> H   -4.04591639  -0.62169792   0.84808101
| 34> H   -3.42368121  -1.21469063  -0.68910203
| 35> H   -2.59347099  -1.60577062   0.82406127
| 36> C   -0.86703152   0.38485280  -1.76931516
| 37> C    0.47447843   0.18062034  -2.25733495
| 38> H   -1.66139887   0.75040776  -2.41320017
| 39> C    1.56027406   0.36448206  -1.40463309
| 40> C    2.77109188  -0.00477606  -2.06070372
| 41> S    0.92092811  -0.40021579  -3.79158265
| 42> C    2.57666448  -0.42984862  -3.33772201
| 43> H    1.52849104   1.29245564  -0.64130304
| 44> H    3.75058201   0.09555360  -1.61618437
| 45> H    3.32117012  -0.73796446  -4.05614979
| 46> H   -0.80882581  -3.18112642  -0.16328849
| 47> H   -0.72447215  -2.37333643   2.43131480
| 48> H    1.79141621  -1.55436626   2.94496647
| 49> O    1.38169645   2.44093919   0.21966946
| 50> O    0.53434358   0.94261320   1.63531454
| 51> C    0.94284477   2.12338596   1.32633902
| 52> C    0.88607940   3.12615571   2.44389912
| 53> H    0.86440983   4.13957025   2.05263816
| 54> H    1.78329164   3.02407252   3.05752339
| 55> H    0.02954839   2.95717006   3.09294900
| 56> H    3.26018813  -1.89921745   0.73591785
| 57> H    1.63924681  -2.89335483  -1.20261993
| 58> *
| 59>
| 60>                          ****END OF INPUT****
 Total Charge           Charge          ....    1
 Multiplicity           Mult            ....    1
 Number of Electrons    NEL             ....  164
Dispersion correction           -0.030994809
FINAL SINGLE POINT ENERGY     -1288.400063837960
Dispersion correction            ... done
Dispersion correction           -0.031061646
FINAL SINGLE POINT ENERGY     -1288.397624359563
Dispersion correction            ... done
Dispersion correction           -0.030970947
FINAL SINGLE POINT ENERGY     -1288.400210337362
Dispersion correction            ... done
FINAL SINGLE POINT ENERGY     -1288.398781510167
FINAL SINGLE POINT ENERGY     -1288.400277029971
FINAL SINGLE POINT ENERGY     -1288.400309381162
FINAL SINGLE POINT ENERGY     -1288.400336428171
FINAL SINGLE POINT ENERGY     -1288.400359217206
FINAL SINGLE POINT ENERGY     -1288.400364538280
FINAL SINGLE POINT ENERGY     -1288.400369622618
FINAL SINGLE POINT ENERGY     -1288.400372994700
FINAL SINGLE POINT ENERGY     -1288.400376159664
FINAL SINGLE POINT ENERGY     -1288.400379637283
FINAL SINGLE POINT ENERGY     -1288.400380119912
Dispersion correction            ... done
Dispersion correction           -0.030827630
FINAL SINGLE POINT ENERGY     -1288.400379580716
Dispersion correction            ... done
Dispersion correction           -0.030823071
FINAL SINGLE POINT ENERGY     -1288.400379186553
Dispersion correction            ... done
                    ***********************HURRAY********************

CARTESIAN COORDINATES (ANGSTROEM)
---------------------------------
  Ir     0.616400   -0.718589    0.446612
  C      0.096658   -2.819575    0.341848
  C      0.039782   -2.359340    1.704834
  C      2.206092   -2.102996    0.947926
  C      1.412912   -2.648856   -0.128317
  C      1.361672   -1.957621    2.068934
  N     -1.043949    0.140461   -0.515482
  C     -2.311986    0.415884    0.178880
  C     -3.093055    1.576860   -0.418012
  H     -3.917178    1.827449    0.248492
  H     -3.537974    1.336229   -1.384494
  H     -2.477327    2.470050   -0.525816
  C     -3.148124   -0.857725    0.231143
  H     -2.021044    0.684237    1.195361
  H     -4.052365   -0.680802    0.811754
  H     -3.450001   -1.173571   -0.768296
  H     -2.611776   -1.678995    0.704156
  C     -0.881568    0.387787   -1.760377
  C      0.451198    0.193649   -2.269488
  H     -1.686541    0.759811   -2.387118
  C      1.536558    0.294334   -1.401981
  C      2.742970   -0.044627   -2.082774
  S      0.890805   -0.278563   -3.841008
  C      2.544155   -0.368706   -3.388976
  H      1.537023    1.245391   -0.637931
  H      3.723476    0.005582   -1.632117
  H      3.285629   -0.634108   -4.127243
  H     -0.731689   -3.211274   -0.230769
  H     -0.815258   -2.396902    2.363111
  H      1.647836   -1.537441    3.022727
  O      1.440461    2.412284    0.180514
  O      0.547328    0.960574    1.614567
  C      0.977019    2.125775    1.288578
  C      0.917506    3.159211    2.377031
  H      0.879877    4.160966    1.957680
  H      1.822988    3.086372    2.982552
  H      0.069426    2.997501    3.038484
  H      3.261755   -1.880596    0.914462
  H      1.769672   -2.890928   -1.118710

 Multiplicity           Mult            ....    1
 Number of Electrons    NEL             ....  164
 Basis Dimension        Dim             ....  358

ORBITAL ENERGIES
----------------

  NO   OCC          E(Eh)            E(eV)
   0   2.0000     -89.765341     -2442.6391
   1   2.0000     -19.625320      -534.0321
   2   2.0000     -19.597211      -533.2672
   3   2.0000     -14.838875      -403.7863
   4   2.0000     -10.683937      -290.7247
   5   2.0000     -10.659865      -290.0697
   6   2.0000     -10.631699      -289.3032
   7   2.0000     -10.631660      -289.3022
   8   2.0000     -10.631280      -289.2918
   9   2.0000     -10.627709      -289.1947
  10   2.0000     -10.625663      -289.1390
  11   2.0000     -10.623233      -289.0729
  12   2.0000     -10.614642      -288.8391
  13   2.0000     -10.611081      -288.7422
  14   2.0000     -10.587848      -288.1100
  15   2.0000     -10.585862      -288.0560
  16   2.0000     -10.555897      -287.2406
  17   2.0000     -10.551241      -287.1139
  18   2.0000     -10.535623      -286.6889
  19   2.0000      -8.404745      -228.7048
  20   2.0000      -6.294682      -171.2870
  21   2.0000      -6.291070      -171.1887
  22   2.0000      -6.289666      -171.1505
  23   2.0000      -4.025792      -109.5474
  24   2.0000      -2.344186       -63.7885
  25   2.0000      -2.310818       -62.8806
  26   2.0000      -2.309219       -62.8370
  27   2.0000      -1.309889       -35.6439
  28   2.0000      -1.213048       -33.0087
  29   2.0000      -1.210358       -32.9355
  30   2.0000      -1.168293       -31.7909
  31   2.0000      -1.128691       -30.7133
  32   2.0000      -1.026300       -27.9270
  33   2.0000      -0.982085       -26.7239
  34   2.0000      -0.973759       -26.4973
  35   2.0000      -0.968397       -26.3514
  36   2.0000      -0.960753       -26.1434
  37   2.0000      -0.929684       -25.2980
  38   2.0000      -0.901923       -24.5426
  39   2.0000      -0.874210       -23.7885
  40   2.0000      -0.799184       -21.7469
  41   2.0000      -0.784189       -21.3389
  42   2.0000      -0.783750       -21.3269
  43   2.0000      -0.782012       -21.2796
  44   2.0000      -0.768533       -20.9129
  45   2.0000      -0.755914       -20.5695
  46   2.0000      -0.743379       -20.2284
  47   2.0000      -0.723216       -19.6797
  48   2.0000      -0.691678       -18.8215
  49   2.0000      -0.677077       -18.4242
  50   2.0000      -0.664499       -18.0819
  51   2.0000      -0.650258       -17.6944
  52   2.0000      -0.647588       -17.6218
  53   2.0000      -0.637040       -17.3347
  54   2.0000      -0.635529       -17.2936
  55   2.0000      -0.630488       -17.1565
  56   2.0000      -0.622748       -16.9458
  57   2.0000      -0.612161       -16.6577
  58   2.0000      -0.604096       -16.4383
  59   2.0000      -0.603508       -16.4223
  60   2.0000      -0.599302       -16.3078
  61   2.0000      -0.591124       -16.0853
  62   2.0000      -0.579713       -15.7748
  63   2.0000      -0.571176       -15.5425
  64   2.0000      -0.563838       -15.3428
  65   2.0000      -0.558239       -15.1905
  66   2.0000      -0.551634       -15.0107
  67   2.0000      -0.548228       -14.9180
  68   2.0000      -0.540210       -14.6999
  69   2.0000      -0.536348       -14.5948
  70   2.0000      -0.528124       -14.3710
  71   2.0000      -0.519165       -14.1272
  72   2.0000      -0.514933       -14.0120
  73   2.0000      -0.501853       -13.6561
  74   2.0000      -0.489211       -13.3121
  75   2.0000      -0.480844       -13.0844
  76   2.0000      -0.473108       -12.8739
  77   2.0000      -0.445979       -12.1357
  78   2.0000      -0.443964       -12.0809
  79   2.0000      -0.422487       -11.4964
  80   2.0000      -0.417309       -11.3555
  81   2.0000      -0.400299       -10.8927
  82   0.0000      -0.204710        -5.5704
  83   0.0000      -0.152142        -4.1400
  84   0.0000      -0.141551        -3.8518
  85   0.0000      -0.093613        -2.5473
  86   0.0000      -0.075640        -2.0583

MULLIKEN ATOMIC CHARGES
-----------------------
   0 Ir:    0.608395
   1 C :   -0.219161
   2 C :   -0.278780
   3 C :   -0.249299
   4 C :   -0.238898
   5 C :   -0.161386
   6 N :   -0.427975
   7 C :   -0.127169
   8 C :   -0.685238
   9 H :    0.270369
  10 H :    0.224198
  11 H :    0.259451
  12 C :   -0.635097
  13 H :    0.282538
  14 H :    0.262382
  15 H :    0.231207
  16 H :    0.231916
  17 C :    0.071433
  18 C :   -0.155378
  19 H :    0.288891
  20 C :   -0.503815
  21 C :   -0.116729
  22 S :    0.323925
  23 C :   -0.431953
  24 H :    0.490082
  25 H :    0.266726
  26 H :    0.298347
  27 H :    0.288588
  28 H :    0.288446
  29 H :    0.304277
  30 O :   -0.477791
  31 O :   -0.532202
  32 C :    0.619798
  33 C :   -0.744498
  34 H :    0.269908
  35 H :    0.268064
  36 H :    0.254444
  37 H :    0.288523
  38 H :    0.293462
Sum of atomic charges:    1.0000000

LOEWDIN ATOMIC CHARGES
----------------------
   0 Ir:   -0.240087
   1 C :   -0.046305
   2 C :   -0.077504
   3 C :   -0.070784
   4 C :   -0.050941
   5 C :   -0.017513
   6 N :   -0.002773
   7 C :   -0.069928
   8 C :   -0.362978
   9 H :    0.156750
  10 H :    0.132888
  11 H :    0.146211
  12 C :   -0.343512
  13 H :    0.156473
  14 H :    0.152309
  15 H :    0.137264
  16 H :    0.133189
  17 C :    0.032744
  18 C :   -0.178899
  19 H :    0.161877
  20 C :   -0.207145
  21 C :   -0.127814
  22 S :    0.486379
  23 C :   -0.262210
  24 H :    0.312172
  25 H :    0.162854
  26 H :    0.168787
  27 H :    0.183667
  28 H :    0.183487
  29 H :    0.192148
  30 O :   -0.271847
  31 O :   -0.201642
  32 C :    0.155114
  33 C :   -0.374799
  34 H :    0.160335
  35 H :    0.168168
  36 H :    0.153771
  37 H :    0.184750
  38 H :    0.185344

  Mayer bond orders larger than 0.100000
B(  0-Ir,  1-C ) :   0.4195 B(  0-Ir,  2-C ) :   0.4899 B(  0-Ir,  3-C ) :   0.4626
B(  0-Ir,  4-C ) :   0.4433 B(  0-Ir,  5-C ) :   0.3974 B(  0-Ir,  6-N ) :   0.4629
B(  0-Ir, 20-C ) :   0.3344 B(  0-Ir, 31-O ) :   0.5640 B(  1-C ,  2-C ) :   1.1241
B(  1-C ,  4-C ) :   1.2430 B(  1-C , 27-H ) :   0.9051 B(  2-C ,  5-C ) :   1.1541
B(  2-C , 28-H ) :   0.9090 B(  3-C ,  4-C ) :   1.1126 B(  3-C ,  5-C ) :   1.2179
B(  3-C , 37-H ) :   0.9085 B(  4-C , 38-H ) :   0.9003 B(  5-C , 29-H ) :   0.8985
B(  6-N ,  7-C ) :   0.8922 B(  6-N , 17-C ) :   1.6738 B(  7-C ,  8-C ) :   0.9909
B(  7-C , 12-C ) :   0.9676 B(  7-C , 13-H ) :   0.8737 B(  8-C ,  9-H ) :   0.9042
B(  8-C , 10-H ) :   0.9132 B(  8-C , 11-H ) :   0.9094 B( 12-C , 14-H ) :   0.9069
B( 12-C , 15-H ) :   0.9156 B( 12-C , 16-H ) :   0.9123 B( 17-C , 18-C ) :   1.0790
B( 17-C , 19-H ) :   0.8755 B( 18-C , 20-C ) :   1.2625 B( 18-C , 22-S ) :   1.2453
B( 20-C , 21-C ) :   1.2650 B( 20-C , 24-H ) :   0.4364 B( 21-C , 23-C ) :   1.5506
B( 21-C , 25-H ) :   0.9039 B( 22-S , 23-C ) :   1.2055 B( 23-C , 26-H ) :   0.8914
B( 24-H , 30-O ) :   0.2706 B( 30-O , 32-C ) :   1.6621 B( 31-O , 32-C ) :   1.3014
B( 32-C , 33-C ) :   0.9457 B( 33-C , 34-H ) :   0.9043 B( 33-C , 35-H ) :   0.8977
B( 33-C , 36-H ) :   0.9092

Dispersion correction           -0.030820711
FINAL SINGLE POINT ENERGY     -1288.400379425671

DIPOLE MOMENT
-------------
                                X             Y             Z
Electronic contribution:     38.02939     -69.07596      73.00476
Nuclear contribution   :    -38.65827      68.04877     -73.35058
                        -----------------------------------------
Total Dipole Moment    :     -0.62888      -1.02719      -0.34582
                        -----------------------------------------
Magnitude (a.u.)       :      1.25307
Magnitude (Debye)      :      3.18506

Rotational constants in cm-1:     0.010594     0.009066     0.008201
Rotational constants in MHz :   317.609482   271.806387   245.863378

                             ****ORCA TERMINATED NORMALLY****
TOTAL RUN TIME: 0 days 2 hours 6 minutes 39 seconds 205 msec
