                         Program Version 5.0.3 -  RELEASE  -
|  1> ! Opt PBEh-3c
|  2> %geom Constraints
|  3> { B 0 20 2.1714285714285713 C }
|  4> { B 24 30 1.4428571428571428 C }
|  5>     end
|  6> end
|  7> %output
|  8> xyzfile=True
|  9> end
| 10> %scf
| 11> maxiter 250
| 12> end
| 13> %output
| 14> Print[P_Hirshfeld] = 1
| 15> end
| 16> % maxcore
| 17> 4000
| 18> *xyz 1 1
| 19> Ir   0.62582995  -0.71377095   0.42696479
| 20> C    0.10650217  -2.82134324   0.34146180
| 21> C    0.04221924  -2.36061881   1.70256295
| 22> C    2.21141905  -2.09666174   0.95232497
| 23> C    1.42565063  -2.65179677  -0.12344963
| 24> C    1.35769525  -1.94791828   2.06811013
| 25> N   -1.04649787   0.13934807  -0.52081192
| 26> C   -2.31005151   0.40883549   0.18284989
| 27> C   -3.09349622   1.57735945  -0.39639101
| 28> H   -3.91449423   1.81961983   0.27696457
| 29> H   -3.54272002   1.34855326  -1.36374568
| 30> H   -2.47818846   2.47180882  -0.49596127
| 31> C   -3.14759439  -0.86442205   0.22453970
| 32> H   -2.01336315   0.66507994   1.20075770
| 33> H   -4.04840209  -0.69333493   0.81222556
| 34> H   -3.45538543  -1.16768469  -0.77698625
| 35> H   -2.60951848  -1.69198002   0.68434688
| 36> C   -0.89050446   0.39883562  -1.76487163
| 37> C    0.43976509   0.20035301  -2.27337963
| 38> H   -1.69524700   0.78283187  -2.38414915
| 39> C    1.50732973   0.22510267  -1.37429470
| 40> C    2.72299184  -0.09295321  -2.05368278
| 41> S    0.90208760  -0.19218879  -3.85681908
| 42> C    2.54480751  -0.33783077  -3.37936338
| 43> H    1.53248520   1.20385711  -0.64661560
| 44> H    3.69548391  -0.08411651  -1.58334417
| 45> H    3.29616167  -0.57323181  -4.11775632
| 46> H   -0.71734196  -3.21867380  -0.23377269
| 47> H   -0.81605779  -2.39702491   2.35640204
| 48> H    1.63776334  -1.52124433   3.02083442
| 49> O    1.45329240   2.41377287   0.16152899
| 50> O    0.54972604   0.96932759   1.59527475
| 51> C    0.98278498   2.13204467   1.26809217
| 52> C    0.91844426   3.17052727   2.35192032
| 53> H    0.89103931   4.17101125   1.92883038
| 54> H    1.81678418   3.09395936   2.96742598
| 55> H    0.06231472   3.01597112   3.00468108
| 56> H    3.26804693  -1.87828475   0.92739898
| 57> H    1.78760810  -2.90392894  -1.10936307
| 58> *
| 59>
| 60>                          ****END OF INPUT****
 Total Charge           Charge          ....    1
 Multiplicity           Mult            ....    1
 Number of Electrons    NEL             ....  164
Dispersion correction           -0.031007107
FINAL SINGLE POINT ENERGY     -1288.399936695796
Dispersion correction            ... done
Dispersion correction           -0.030932061
FINAL SINGLE POINT ENERGY     -1288.399836984863
Dispersion correction            ... done
Dispersion correction           -0.030939300
FINAL SINGLE POINT ENERGY     -1288.399610004206
Dispersion correction            ... done
FINAL SINGLE POINT ENERGY     -1288.400227898526
FINAL SINGLE POINT ENERGY     -1288.400277263584
FINAL SINGLE POINT ENERGY     -1288.400314639939
FINAL SINGLE POINT ENERGY     -1288.400354883871
FINAL SINGLE POINT ENERGY     -1288.400364997377
FINAL SINGLE POINT ENERGY     -1288.400373272527
FINAL SINGLE POINT ENERGY     -1288.400383527570
FINAL SINGLE POINT ENERGY     -1288.400394955903
FINAL SINGLE POINT ENERGY     -1288.400402799527
FINAL SINGLE POINT ENERGY     -1288.400408957154
FINAL SINGLE POINT ENERGY     -1288.400413952702
Dispersion correction            ... done
Dispersion correction           -0.030799876
FINAL SINGLE POINT ENERGY     -1288.400415819867
Dispersion correction            ... done
Dispersion correction           -0.030794323
FINAL SINGLE POINT ENERGY     -1288.400415860430
Dispersion correction            ... done
                    ***********************HURRAY********************

CARTESIAN COORDINATES (ANGSTROEM)
---------------------------------
  Ir     0.621349   -0.715834    0.424247
  C      0.132766   -2.830934    0.331125
  C     -0.012786   -2.371704    1.687439
  C      2.191513   -2.073446    1.055986
  C      1.476298   -2.648437   -0.054987
  C      1.268789   -1.934301    2.121396
  N     -1.058360    0.132580   -0.515759
  C     -2.325423    0.370613    0.192478
  C     -3.117783    1.551174   -0.350169
  H     -3.942494    1.763229    0.328670
  H     -3.562607    1.350596   -1.325808
  H     -2.510569    2.454003   -0.418729
  C     -3.154796   -0.908965    0.186443
  H     -2.035230    0.596187    1.219543
  H     -4.056209   -0.767862    0.781274
  H     -3.461568   -1.174556   -0.826037
  H     -2.610647   -1.751119    0.610922
  C     -0.906779    0.430747   -1.752444
  C      0.416598    0.241968   -2.274170
  H     -1.714942    0.833049   -2.355190
  C      1.477579    0.156037   -1.370694
  C      2.688171   -0.134072   -2.073297
  S      0.878512   -0.012304   -3.885057
  C      2.512150   -0.246757   -3.417416
  H      1.582305    1.152377   -0.635080
  H      3.658047   -0.195696   -1.601448
  H      3.262118   -0.432565   -4.171155
  H     -0.649553   -3.246946   -0.287004
  H     -0.905034   -2.418487    2.293163
  H      1.486918   -1.496967    3.085513
  O      1.620985    2.357262    0.157759
  O      0.550652    0.997988    1.558771
  C      1.065044    2.125606    1.239374
  C      0.994860    3.198650    2.287957
  H      0.974701    4.184244    1.830133
  H      1.890287    3.142430    2.909593
  H      0.132951    3.069192    2.937801
  H      3.246211   -1.848570    1.094098
  H      1.895346   -2.899219   -1.018502

 Multiplicity           Mult            ....    1
 Number of Electrons    NEL             ....  164
 Basis Dimension        Dim             ....  358

ORBITAL ENERGIES
----------------

  NO   OCC          E(Eh)            E(eV)
   0   2.0000     -89.767136     -2442.6879
   1   2.0000     -19.627626      -534.0949
   2   2.0000     -19.605220      -533.4852
   3   2.0000     -14.837582      -403.7511
   4   2.0000     -10.687112      -290.8111
   5   2.0000     -10.657929      -290.0170
   6   2.0000     -10.631003      -289.2843
   7   2.0000     -10.628586      -289.2185
   8   2.0000     -10.627158      -289.1797
   9   2.0000     -10.625498      -289.1345
  10   2.0000     -10.619835      -288.9804
  11   2.0000     -10.617288      -288.9111
  12   2.0000     -10.613886      -288.8185
  13   2.0000     -10.611985      -288.7668
  14   2.0000     -10.590546      -288.1834
  15   2.0000     -10.589180      -288.1462
  16   2.0000     -10.554828      -287.2115
  17   2.0000     -10.551134      -287.1110
  18   2.0000     -10.538329      -286.7625
  19   2.0000      -8.406544      -228.7537
  20   2.0000      -6.296418      -171.3342
  21   2.0000      -6.292827      -171.2365
  22   2.0000      -6.291549      -171.2018
  23   2.0000      -4.023254      -109.4783
  24   2.0000      -2.340944       -63.7003
  25   2.0000      -2.308856       -62.8272
  26   2.0000      -2.306615       -62.7662
  27   2.0000      -1.313751       -35.7490
  28   2.0000      -1.215781       -33.0831
  29   2.0000      -1.209829       -32.9211
  30   2.0000      -1.164160       -31.6784
  31   2.0000      -1.130170       -30.7535
  32   2.0000      -1.026182       -27.9238
  33   2.0000      -0.977149       -26.5896
  34   2.0000      -0.971759       -26.4429
  35   2.0000      -0.969582       -26.3837
  36   2.0000      -0.961290       -26.1580
  37   2.0000      -0.932265       -25.3682
  38   2.0000      -0.901260       -24.5245
  39   2.0000      -0.874376       -23.7930
  40   2.0000      -0.800033       -21.7700
  41   2.0000      -0.783854       -21.3298
  42   2.0000      -0.780088       -21.2273
  43   2.0000      -0.779409       -21.2088
  44   2.0000      -0.764802       -20.8113
  45   2.0000      -0.756122       -20.5751
  46   2.0000      -0.743510       -20.2319
  47   2.0000      -0.723395       -19.6846
  48   2.0000      -0.690952       -18.8018
  49   2.0000      -0.680469       -18.5165
  50   2.0000      -0.664221       -18.0744
  51   2.0000      -0.652164       -17.7463
  52   2.0000      -0.647002       -17.6058
  53   2.0000      -0.635472       -17.2921
  54   2.0000      -0.633566       -17.2402
  55   2.0000      -0.629802       -17.1378
  56   2.0000      -0.622473       -16.9384
  57   2.0000      -0.612560       -16.6686
  58   2.0000      -0.601170       -16.3587
  59   2.0000      -0.600324       -16.3356
  60   2.0000      -0.599564       -16.3150
  61   2.0000      -0.592163       -16.1136
  62   2.0000      -0.580946       -15.8083
  63   2.0000      -0.571189       -15.5429
  64   2.0000      -0.563535       -15.3346
  65   2.0000      -0.561162       -15.2700
  66   2.0000      -0.551974       -15.0200
  67   2.0000      -0.547840       -14.9075
  68   2.0000      -0.541620       -14.7382
  69   2.0000      -0.536319       -14.5940
  70   2.0000      -0.528719       -14.3872
  71   2.0000      -0.518737       -14.1156
  72   2.0000      -0.514124       -13.9900
  73   2.0000      -0.499149       -13.5825
  74   2.0000      -0.490826       -13.3561
  75   2.0000      -0.483018       -13.1436
  76   2.0000      -0.478298       -13.0152
  77   2.0000      -0.446386       -12.1468
  78   2.0000      -0.444004       -12.0820
  79   2.0000      -0.421526       -11.4703
  80   2.0000      -0.416375       -11.3301
  81   2.0000      -0.397025       -10.8036
  82   0.0000      -0.207541        -5.6475
  83   0.0000      -0.143065        -3.8930
  84   0.0000      -0.140072        -3.8116
  85   0.0000      -0.090287        -2.4568
  86   0.0000      -0.075820        -2.0632

MULLIKEN ATOMIC CHARGES
-----------------------
   0 Ir:    0.605224
   1 C :   -0.229577
   2 C :   -0.267642
   3 C :   -0.261517
   4 C :   -0.231393
   5 C :   -0.156273
   6 N :   -0.429333
   7 C :   -0.127264
   8 C :   -0.683786
   9 H :    0.270141
  10 H :    0.224080
  11 H :    0.256835
  12 C :   -0.634460
  13 H :    0.282674
  14 H :    0.260810
  15 H :    0.231728
  16 H :    0.232952
  17 C :    0.070994
  18 C :   -0.133236
  19 H :    0.287586
  20 C :   -0.548957
  21 C :   -0.100487
  22 S :    0.338476
  23 C :   -0.431109
  24 H :    0.476828
  25 H :    0.268327
  26 H :    0.299048
  27 H :    0.286497
  28 H :    0.284737
  29 H :    0.301448
  30 O :   -0.472751
  31 O :   -0.524834
  32 C :    0.622842
  33 C :   -0.743750
  34 H :    0.270728
  35 H :    0.270397
  36 H :    0.256228
  37 H :    0.284842
  38 H :    0.292948
Sum of atomic charges:    1.0000000

LOEWDIN ATOMIC CHARGES
----------------------
   0 Ir:   -0.252157
   1 C :   -0.052401
   2 C :   -0.089506
   3 C :   -0.085441
   4 C :   -0.046289
   5 C :   -0.015300
   6 N :   -0.000497
   7 C :   -0.069877
   8 C :   -0.362647
   9 H :    0.156664
  10 H :    0.132772
  11 H :    0.144862
  12 C :   -0.343555
  13 H :    0.156487
  14 H :    0.151644
  15 H :    0.137505
  16 H :    0.133253
  17 C :    0.029411
  18 C :   -0.178289
  19 H :    0.161486
  20 C :   -0.215214
  21 C :   -0.121957
  22 S :    0.498013
  23 C :   -0.260490
  24 H :    0.331601
  25 H :    0.163432
  26 H :    0.169561
  27 H :    0.182614
  28 H :    0.181263
  29 H :    0.190371
  30 O :   -0.266229
  31 O :   -0.196505
  32 C :    0.156338
  33 C :   -0.373608
  34 H :    0.161531
  35 H :    0.169447
  36 H :    0.154169
  37 H :    0.183002
  38 H :    0.184535

  Mayer bond orders larger than 0.100000
B(  0-Ir,  1-C ) :   0.4258 B(  0-Ir,  2-C ) :   0.4441 B(  0-Ir,  3-C ) :   0.4650
B(  0-Ir,  4-C ) :   0.4322 B(  0-Ir,  5-C ) :   0.3864 B(  0-Ir,  6-N ) :   0.4627
B(  0-Ir, 20-C ) :   0.4180 B(  0-Ir, 31-O ) :   0.5489 B(  1-C ,  2-C ) :   1.1274
B(  1-C ,  4-C ) :   1.2376 B(  1-C , 27-H ) :   0.9068 B(  2-C ,  5-C ) :   1.1813
B(  2-C , 28-H ) :   0.9099 B(  3-C ,  4-C ) :   1.1236 B(  3-C ,  5-C ) :   1.1967
B(  3-C , 37-H ) :   0.9112 B(  4-C , 38-H ) :   0.8995 B(  5-C , 29-H ) :   0.8997
B(  6-N ,  7-C ) :   0.8942 B(  6-N , 17-C ) :   1.6593 B(  7-C ,  8-C ) :   0.9905
B(  7-C , 12-C ) :   0.9664 B(  7-C , 13-H ) :   0.8742 B(  8-C ,  9-H ) :   0.9044
B(  8-C , 10-H ) :   0.9131 B(  8-C , 11-H ) :   0.9107 B( 12-C , 14-H ) :   0.9073
B( 12-C , 15-H ) :   0.9154 B( 12-C , 16-H ) :   0.9120 B( 17-C , 18-C ) :   1.0969
B( 17-C , 19-H ) :   0.8760 B( 18-C , 20-C ) :   1.2350 B( 18-C , 22-S ) :   1.2541
B( 20-C , 21-C ) :   1.2582 B( 20-C , 24-H ) :   0.4105 B( 21-C , 23-C ) :   1.5529
B( 21-C , 25-H ) :   0.9024 B( 22-S , 23-C ) :   1.2076 B( 23-C , 26-H ) :   0.8910
B( 24-H , 30-O ) :   0.2929 B( 30-O , 32-C ) :   1.6390 B( 31-O , 32-C ) :   1.3233
B( 32-C , 33-C ) :   0.9441 B( 33-C , 34-H ) :   0.9031 B( 33-C , 35-H ) :   0.8964
B( 33-C , 36-H ) :   0.9089

Dispersion correction           -0.030794459
FINAL SINGLE POINT ENERGY     -1288.400415194638

DIPOLE MOMENT
-------------
                                X             Y             Z
Electronic contribution:     38.33129     -70.43075      71.13755
Nuclear contribution   :    -38.98097      69.61552     -71.52911
                        -----------------------------------------
Total Dipole Moment    :     -0.64968      -0.81523      -0.39156
                        -----------------------------------------
Magnitude (a.u.)       :      1.11355
Magnitude (Debye)      :      2.83043

Rotational constants in cm-1:     0.010529     0.009014     0.008229
Rotational constants in MHz :   315.666148   270.233753   246.705052

                             ****ORCA TERMINATED NORMALLY****
TOTAL RUN TIME: 0 days 2 hours 2 minutes 53 seconds 922 msec
