                         Program Version 5.0.3 -  RELEASE  -
|  1> ! Opt PBEh-3c
|  2> %geom Constraints
|  3> { B 0 20 2.342857142857143 C }
|  4> { B 24 30 1.3142857142857143 C }
|  5>     end
|  6> end
|  7> %output
|  8> xyzfile=True
|  9> end
| 10> %scf
| 11> maxiter 250
| 12> end
| 13> %output
| 14> Print[P_Hirshfeld] = 1
| 15> end
| 16> % maxcore
| 17> 4000
| 18> *xyz 1 1
| 19> Ir   0.59954439  -0.74024074   0.49610862
| 20> C    0.07113804  -2.83117905   0.38159004
| 21> C   -0.01669759  -2.36609810   1.74195158
| 22> C    2.17140984  -2.13149581   1.04067197
| 23> C    1.40054507  -2.66958309  -0.05502293
| 24> C    1.30049860  -1.97638577   2.13885410
| 25> N   -1.03678708   0.12055594  -0.50058027
| 26> C   -2.31854253   0.37551514   0.17919829
| 27> C   -3.09307446   1.55045146  -0.40048734
| 28> H   -3.92537003   1.78527483   0.26159182
| 29> H   -3.52600613   1.33309223  -1.37778434
| 30> H   -2.47669135   2.44606993  -0.48072695
| 31> C   -3.15569415  -0.89828574   0.18430195
| 32> H   -2.04865748   0.62118650   1.20726351
| 33> H   -4.07310782  -0.73589570   0.74849157
| 34> H   -3.43520414  -1.19007590  -0.82892273
| 35> H   -2.63056132  -1.73167746   0.64836555
| 36> C   -0.86908196   0.38514899  -1.74305825
| 37> C    0.45755142   0.22473518  -2.27174246
| 38> H   -1.68324133   0.75069680  -2.36222273
| 39> C    1.55934748   0.29021340  -1.42965746
| 40> C    2.75076584  -0.00471112  -2.14795158
| 41> S    0.86950596  -0.13818491  -3.88618966
| 42> C    2.52706944  -0.24605746  -3.47094635
| 43> H    1.58462183   1.25789955  -0.58392906
| 44> H    3.74051940   0.01764132  -1.71567265
| 45> H    3.25694704  -0.46112426  -4.23674266
| 46> H   -0.74442395  -3.21794864  -0.21222077
| 47> H   -0.88722748  -2.39867205   2.37995796
| 48> H    1.56651595  -1.55772320   3.09917011
| 49> O    1.54131037   2.34490052   0.17873406
| 50> O    0.54952488   0.97185437   1.62559435
| 51> C    1.02745903   2.10592053   1.28428680
| 52> C    0.97705995   3.18368028   2.32628961
| 53> H    0.92590122   4.16635726   1.86478409
| 54> H    1.89429942   3.14452241   2.91705107
| 55> H    0.14059481   3.04350217   3.00638519
| 56> H    3.22855524  -1.91404648   1.03154041
| 57> H    1.77905365  -2.91064332  -1.03758437
| 58> *
| 59>
| 60>                          ****END OF INPUT****
 Total Charge           Charge          ....    1
 Multiplicity           Mult            ....    1
 Number of Electrons    NEL             ....  164
Dispersion correction           -0.030627451
FINAL SINGLE POINT ENERGY     -1288.399687638439
Dispersion correction            ... done
Dispersion correction           -0.030585568
FINAL SINGLE POINT ENERGY     -1288.399860391083
Dispersion correction            ... done
Dispersion correction           -0.030541468
FINAL SINGLE POINT ENERGY     -1288.399977499834
Dispersion correction            ... done
FINAL SINGLE POINT ENERGY     -1288.400029957834
FINAL SINGLE POINT ENERGY     -1288.400070004267
FINAL SINGLE POINT ENERGY     -1288.400090396247
FINAL SINGLE POINT ENERGY     -1288.400099533786
FINAL SINGLE POINT ENERGY     -1288.400112870832
FINAL SINGLE POINT ENERGY     -1288.400118269351
FINAL SINGLE POINT ENERGY     -1288.400120209745
FINAL SINGLE POINT ENERGY     -1288.400124059596
FINAL SINGLE POINT ENERGY     -1288.400127607342
FINAL SINGLE POINT ENERGY     -1288.400130150494
FINAL SINGLE POINT ENERGY     -1288.400133881469
FINAL SINGLE POINT ENERGY     -1288.400137491300
Dispersion correction            ... done
Dispersion correction           -0.030412665
FINAL SINGLE POINT ENERGY     -1288.400141054099
Dispersion correction            ... done
Dispersion correction           -0.030412392
FINAL SINGLE POINT ENERGY     -1288.400143857121
Dispersion correction            ... done
                    ***********************HURRAY********************

CARTESIAN COORDINATES (ANGSTROEM)
---------------------------------
  Ir     0.594202   -0.739396    0.493858
  C      0.095817   -2.838532    0.380700
  C     -0.075577   -2.366836    1.731112
  C      2.147372   -2.103859    1.152279
  C      1.448772   -2.666915    0.024239
  C      1.206397   -1.949828    2.195803
  N     -1.050168    0.110713   -0.498489
  C     -2.337594    0.328844    0.183290
  C     -3.117461    1.522871   -0.349430
  H     -3.955574    1.721848    0.316814
  H     -3.542076    1.346539   -1.338578
  H     -2.506864    2.425287   -0.385547
  C     -3.166837   -0.948840    0.125102
  H     -2.077561    0.533104    1.222897
  H     -4.086377   -0.821777    0.695025
  H     -3.442517   -1.192029   -0.901918
  H     -2.636745   -1.801733    0.546144
  C     -0.886422    0.415781   -1.732819
  C      0.433399    0.268945   -2.275202
  H     -1.704522    0.799048   -2.335714
  C      1.531931    0.213897   -1.429908
  C      2.716529   -0.047644   -2.171115
  S      0.840790    0.052370   -3.916775
  C      2.490673   -0.146799   -3.512915
  H      1.645986    1.197573   -0.557739
  H      3.704695   -0.101348   -1.738013
  H      3.216955   -0.308666   -4.295011
  H     -0.676436   -3.246795   -0.254905
  H     -0.980182   -2.405462    2.319202
  H      1.409018   -1.515675    3.164773
  O      1.717639    2.276427    0.189447
  O      0.539940    1.005857    1.587419
  C      1.112288    2.095454    1.263915
  C      1.066430    3.208866    2.266630
  H      0.949437    4.167964    1.767138
  H      2.016219    3.239645    2.803439
  H      0.270484    3.064348    2.991660
  H      3.201917   -1.881434    1.206708
  H      1.885393   -2.912623   -0.932777

 Multiplicity           Mult            ....    1
 Number of Electrons    NEL             ....  164
 Basis Dimension        Dim             ....  358

ORBITAL ENERGIES
----------------

  NO   OCC          E(Eh)            E(eV)
   0   2.0000     -89.756748     -2442.4053
   1   2.0000     -19.636033      -534.3236
   2   2.0000     -19.618430      -533.8446
   3   2.0000     -14.832494      -403.6127
   4   2.0000     -10.697797      -291.1019
   5   2.0000     -10.654469      -289.9228
   6   2.0000     -10.630911      -289.2818
   7   2.0000     -10.628538      -289.2172
   8   2.0000     -10.627764      -289.1962
   9   2.0000     -10.623541      -289.0812
  10   2.0000     -10.619619      -288.9745
  11   2.0000     -10.619577      -288.9734
  12   2.0000     -10.612769      -288.7881
  13   2.0000     -10.605780      -288.5980
  14   2.0000     -10.583619      -287.9949
  15   2.0000     -10.581692      -287.9425
  16   2.0000     -10.553926      -287.1869
  17   2.0000     -10.550082      -287.0823
  18   2.0000     -10.544097      -286.9195
  19   2.0000      -8.396232      -228.4731
  20   2.0000      -6.286158      -171.0550
  21   2.0000      -6.282611      -170.9585
  22   2.0000      -6.281126      -170.9181
  23   2.0000      -4.024578      -109.5143
  24   2.0000      -2.342755       -63.7496
  25   2.0000      -2.309803       -62.8529
  26   2.0000      -2.307203       -62.7822
  27   2.0000      -1.326221       -36.0883
  28   2.0000      -1.228015       -33.4160
  29   2.0000      -1.204387       -32.7730
  30   2.0000      -1.166623       -31.7454
  31   2.0000      -1.121418       -30.5153
  32   2.0000      -1.021727       -27.8026
  33   2.0000      -0.980052       -26.6686
  34   2.0000      -0.972127       -26.4529
  35   2.0000      -0.961775       -26.1712
  36   2.0000      -0.955064       -25.9886
  37   2.0000      -0.939840       -25.5743
  38   2.0000      -0.899910       -24.4878
  39   2.0000      -0.869072       -23.6486
  40   2.0000      -0.795005       -21.6332
  41   2.0000      -0.782361       -21.2891
  42   2.0000      -0.781643       -21.2696
  43   2.0000      -0.777357       -21.1529
  44   2.0000      -0.766680       -20.8624
  45   2.0000      -0.764901       -20.8140
  46   2.0000      -0.740497       -20.1499
  47   2.0000      -0.722169       -19.6512
  48   2.0000      -0.690987       -18.8027
  49   2.0000      -0.680939       -18.5293
  50   2.0000      -0.661999       -18.0139
  51   2.0000      -0.659559       -17.9475
  52   2.0000      -0.648405       -17.6440
  53   2.0000      -0.639492       -17.4015
  54   2.0000      -0.635018       -17.2797
  55   2.0000      -0.632642       -17.2151
  56   2.0000      -0.621456       -16.9107
  57   2.0000      -0.607332       -16.5263
  58   2.0000      -0.602343       -16.3906
  59   2.0000      -0.601603       -16.3705
  60   2.0000      -0.595135       -16.1944
  61   2.0000      -0.588469       -16.0131
  62   2.0000      -0.575716       -15.6660
  63   2.0000      -0.567996       -15.4559
  64   2.0000      -0.562010       -15.2931
  65   2.0000      -0.560694       -15.2573
  66   2.0000      -0.555166       -15.1068
  67   2.0000      -0.546747       -14.8777
  68   2.0000      -0.540860       -14.7175
  69   2.0000      -0.533837       -14.5264
  70   2.0000      -0.527943       -14.3660
  71   2.0000      -0.517984       -14.0951
  72   2.0000      -0.513527       -13.9738
  73   2.0000      -0.503162       -13.6917
  74   2.0000      -0.497141       -13.5279
  75   2.0000      -0.479570       -13.0498
  76   2.0000      -0.472113       -12.8469
  77   2.0000      -0.447666       -12.1816
  78   2.0000      -0.446286       -12.1441
  79   2.0000      -0.418594       -11.3905
  80   2.0000      -0.415919       -11.3177
  81   2.0000      -0.398248       -10.8369
  82   0.0000      -0.198187        -5.3929
  83   0.0000      -0.149478        -4.0675
  84   0.0000      -0.141549        -3.8518
  85   0.0000      -0.084983        -2.3125
  86   0.0000      -0.071796        -1.9537

MULLIKEN ATOMIC CHARGES
-----------------------
   0 Ir:    0.604250
   1 C :   -0.228512
   2 C :   -0.280071
   3 C :   -0.254020
   4 C :   -0.229643
   5 C :   -0.161386
   6 N :   -0.440475
   7 C :   -0.126333
   8 C :   -0.681621
   9 H :    0.268723
  10 H :    0.224740
  11 H :    0.255001
  12 C :   -0.634028
  13 H :    0.278470
  14 H :    0.259879
  15 H :    0.232109
  16 H :    0.230729
  17 C :    0.070350
  18 C :   -0.156656
  19 H :    0.283973
  20 C :   -0.472364
  21 C :   -0.135445
  22 S :    0.325211
  23 C :   -0.424697
  24 H :    0.483511
  25 H :    0.262869
  26 H :    0.295878
  27 H :    0.288445
  28 H :    0.286454
  29 H :    0.301655
  30 O :   -0.492576
  31 O :   -0.516070
  32 C :    0.633516
  33 C :   -0.744946
  34 H :    0.273347
  35 H :    0.274794
  36 H :    0.260855
  37 H :    0.288178
  38 H :    0.295904
Sum of atomic charges:    1.0000000

LOEWDIN ATOMIC CHARGES
----------------------
   0 Ir:   -0.241300
   1 C :   -0.052281
   2 C :   -0.082830
   3 C :   -0.080473
   4 C :   -0.040093
   5 C :   -0.015894
   6 N :   -0.013403
   7 C :   -0.068947
   8 C :   -0.362228
   9 H :    0.155846
  10 H :    0.132797
  11 H :    0.143999
  12 C :   -0.344127
  13 H :    0.154174
  14 H :    0.151075
  15 H :    0.137697
  16 H :    0.132002
  17 C :    0.032649
  18 C :   -0.199244
  19 H :    0.159196
  20 C :   -0.214473
  21 C :   -0.138577
  22 S :    0.478883
  23 C :   -0.258804
  24 H :    0.340825
  25 H :    0.160000
  26 H :    0.167778
  27 H :    0.183764
  28 H :    0.182354
  29 H :    0.190645
  30 O :   -0.266197
  31 O :   -0.185171
  32 C :    0.168677
  33 C :   -0.371982
  34 H :    0.164937
  35 H :    0.171953
  36 H :    0.155397
  37 H :    0.184593
  38 H :    0.186787

  Mayer bond orders larger than 0.100000
B(  0-Ir,  1-C ) :   0.4306 B(  0-Ir,  2-C ) :   0.4838 B(  0-Ir,  3-C ) :   0.4625
B(  0-Ir,  4-C ) :   0.4439 B(  0-Ir,  5-C ) :   0.3993 B(  0-Ir,  6-N ) :   0.4683
B(  0-Ir, 20-C ) :   0.3649 B(  0-Ir, 31-O ) :   0.5320 B(  1-C ,  2-C ) :   1.1228
B(  1-C ,  4-C ) :   1.2334 B(  1-C , 27-H ) :   0.9059 B(  2-C ,  5-C ) :   1.1637
B(  2-C , 28-H ) :   0.9094 B(  3-C ,  4-C ) :   1.1217 B(  3-C ,  5-C ) :   1.2057
B(  3-C , 37-H ) :   0.9092 B(  4-C , 38-H ) :   0.8999 B(  5-C , 29-H ) :   0.8994
B(  6-N ,  7-C ) :   0.8939 B(  6-N , 17-C ) :   1.6538 B(  7-C ,  8-C ) :   0.9907
B(  7-C , 12-C ) :   0.9675 B(  7-C , 13-H ) :   0.8780 B(  8-C ,  9-H ) :   0.9048
B(  8-C , 10-H ) :   0.9131 B(  8-C , 11-H ) :   0.9117 B( 12-C , 14-H ) :   0.9076
B( 12-C , 15-H ) :   0.9155 B( 12-C , 16-H ) :   0.9130 B( 17-C , 18-C ) :   1.1034
B( 17-C , 19-H ) :   0.8762 B( 18-C , 20-C ) :   1.2747 B( 18-C , 22-S ) :   1.2179
B( 20-C , 21-C ) :   1.2956 B( 20-C , 24-H ) :   0.3632 B( 21-C , 23-C ) :   1.5344
B( 21-C , 25-H ) :   0.9049 B( 22-S , 23-C ) :   1.2229 B( 23-C , 26-H ) :   0.8917
B( 24-H , 30-O ) :   0.3222 B( 30-O , 32-C ) :   1.5727 B( 31-O , 32-C ) :   1.3654
B( 32-C , 33-C ) :   0.9479 B( 33-C , 34-H ) :   0.9000 B( 33-C , 35-H ) :   0.8936
B( 33-C , 36-H ) :   0.9082

Dispersion correction           -0.030412459
FINAL SINGLE POINT ENERGY     -1288.400145945098

DIPOLE MOMENT
-------------
                                X             Y             Z
Electronic contribution:     35.82125     -72.90105      78.07507
Nuclear contribution   :    -36.42987      72.22308     -78.17157
                        -----------------------------------------
Total Dipole Moment    :     -0.60862      -0.67797      -0.09649
                        -----------------------------------------
Magnitude (a.u.)       :      0.91618
Magnitude (Debye)      :      2.32873

Rotational constants in cm-1:     0.010536     0.008673     0.008101
Rotational constants in MHz :   315.857999   260.020884   242.870742

                             ****ORCA TERMINATED NORMALLY****
TOTAL RUN TIME: 0 days 2 hours 6 minutes 11 seconds 587 msec
