                         Program Version 5.0.3 -  RELEASE  -
|  1> ! Opt PBEh-3c
|  2> %geom Constraints
|  3> { B 0 20 2.428571428571429 C }
|  4> { B 24 30 1.4 C }
|  5>     end
|  6> end
|  7> %output
|  8> xyzfile=True
|  9> end
| 10> %scf
| 11> maxiter 250
| 12> end
| 13> %output
| 14> Print[P_Hirshfeld] = 1
| 15> end
| 16> % maxcore
| 17> 4000
| 18> *xyz 1 1
| 19> Ir   0.58761549  -0.72424668   0.46770629
| 20> C    0.03308453  -2.80600401   0.35694687
| 21> C    0.10071273  -2.35680054   1.72540217
| 22> C    2.19581287  -2.13636306   0.79322561
| 23> C    1.30388817  -2.64527089  -0.22439594
| 24> C    1.46448143  -1.99569754   1.98619993
| 25> N   -1.04433415   0.16067893  -0.51807274
| 26> C   -2.31800020   0.48026507   0.14627077
| 27> C   -3.12494068   1.55244126  -0.56844865
| 28> H   -3.95525263   1.85152607   0.06983373
| 29> H   -3.56403741   1.20303602  -1.50429441
| 30> H   -2.53257321   2.44574825  -0.76877839
| 31> C   -3.12772004  -0.79572314   0.34189949
| 32> H   -2.02977539   0.86324510   1.12664070
| 33> H   -4.04379125  -0.56703898   0.88443021
| 34> H   -3.40894810  -1.23733908  -0.61504111
| 35> H   -2.58581389  -1.54045555   0.92304822
| 36> C   -0.84659779   0.37213002  -1.76233583
| 37> C    0.50179125   0.16342749  -2.23836664
| 38> H   -1.63279366   0.72746192  -2.42230693
| 39> C    1.60083025   0.47009764  -1.44407213
| 40> C    2.80647562   0.07721944  -2.09295366
| 41> S    0.93265153  -0.54087705  -3.73120190
| 42> C    2.59798935  -0.47351149  -3.31889884
| 43> H    1.53145518   1.36370050  -0.64771955
| 44> H    3.79182421   0.24857090  -1.68446626
| 45> H    3.33671459  -0.82480633  -4.02342023
| 46> H   -0.85145182  -3.16770436  -0.14744147
| 47> H   -0.69584703  -2.38976588   2.45403922
| 48> H    1.84234107  -1.60202698   2.91886579
| 49> O    1.34016876   2.44054671   0.24894975
| 50> O    0.53413139   0.91946708   1.66685251
| 51> C    0.92393776   2.10922728   1.35894137
| 52> C    0.87376881   3.09955832   2.48772453
| 53> H    0.83535064   4.11629575   2.10643387
| 54> H    1.78141764   3.00179214   3.08662028
| 55> H    0.02947214   2.91579714   3.14875586
| 56> H    3.24314609  -1.90937705   0.66054178
| 57> H    1.57218570  -2.87003439  -1.24637422
| 58> *
| 59>
| 60>                          ****END OF INPUT****
 Total Charge           Charge          ....    1
 Multiplicity           Mult            ....    1
 Number of Electrons    NEL             ....  164
Dispersion correction           -0.030951814
FINAL SINGLE POINT ENERGY     -1288.397697877128
Dispersion correction            ... done
Dispersion correction           -0.031003955
FINAL SINGLE POINT ENERGY     -1288.395481229702
Dispersion correction            ... done
Dispersion correction           -0.030924972
FINAL SINGLE POINT ENERGY     -1288.397802937485
Dispersion correction            ... done
FINAL SINGLE POINT ENERGY     -1288.395948612936
FINAL SINGLE POINT ENERGY     -1288.397877294644
FINAL SINGLE POINT ENERGY     -1288.397903223395
FINAL SINGLE POINT ENERGY     -1288.397927585035
FINAL SINGLE POINT ENERGY     -1288.397943991267
FINAL SINGLE POINT ENERGY     -1288.397956078145
Dispersion correction            ... done
Dispersion correction           -0.030800888
FINAL SINGLE POINT ENERGY     -1288.397968156018
Dispersion correction            ... done
Dispersion correction           -0.030797108
FINAL SINGLE POINT ENERGY     -1288.397968837314
Dispersion correction            ... done
                    ***********************HURRAY********************

CARTESIAN COORDINATES (ANGSTROEM)
---------------------------------
  Ir     0.591772   -0.723673    0.470356
  C      0.038362   -2.808098    0.369463
  C      0.083232   -2.352613    1.735763
  C      2.193936   -2.134000    0.835191
  C      1.318707   -2.650530   -0.192678
  C      1.440907   -1.985698    2.014658
  N     -1.043557    0.151740   -0.517798
  C     -2.319130    0.455761    0.150920
  C     -3.119032    1.552863   -0.533787
  H     -3.948939    1.838243    0.111273
  H     -3.558315    1.232847   -1.479899
  H     -2.520673    2.447631   -0.707649
  C     -3.134728   -0.822641    0.303274
  H     -2.034609    0.807130    1.144045
  H     -4.052310   -0.608096    0.849117
  H     -3.413290   -1.233062   -0.668207
  H     -2.597190   -1.587270    0.862054
  C     -0.854312    0.374527   -1.762451
  C      0.489441    0.178549   -2.249716
  H     -1.647923    0.730463   -2.413032
  C      1.585396    0.418957   -1.428345
  C      2.790901    0.048476   -2.089760
  S      0.923030   -0.439851   -3.777579
  C      2.584754   -0.422180   -3.349660
  H      1.534950    1.330314   -0.627735
  H      3.775419    0.180064   -1.664877
  H      3.324439   -0.739837   -4.068986
  H     -0.836793   -3.174816   -0.147481
  H     -0.724990   -2.382198    2.451430
  H      1.802821   -1.584988    2.950686
  O      1.384662    2.424101    0.233103
  O      0.533670    0.934345    1.656665
  C      0.946333    2.111859    1.342633
  C      0.897218    3.119829    2.455057
  H      0.868727    4.131099    2.058640
  H      1.801168    3.024162    3.059852
  H      0.047859    2.951483    3.113513
  H      3.244293   -1.911519    0.720862
  H      1.603163   -2.884184   -1.208178

 Multiplicity           Mult            ....    1
 Number of Electrons    NEL             ....  164
 Basis Dimension        Dim             ....  358

ORBITAL ENERGIES
----------------

  NO   OCC          E(Eh)            E(eV)
   0   2.0000     -89.761655     -2442.5388
   1   2.0000     -19.625242      -534.0300
   2   2.0000     -19.593167      -533.1572
   3   2.0000     -14.839388      -403.8003
   4   2.0000     -10.683434      -290.7110
   5   2.0000     -10.660515      -290.0874
   6   2.0000     -10.635973      -289.4195
   7   2.0000     -10.633023      -289.3393
   8   2.0000     -10.630945      -289.2827
   9   2.0000     -10.629858      -289.2532
  10   2.0000     -10.629835      -289.2525
  11   2.0000     -10.629345      -289.2392
  12   2.0000     -10.615429      -288.8605
  13   2.0000     -10.609195      -288.6909
  14   2.0000     -10.583976      -288.0046
  15   2.0000     -10.581844      -287.9466
  16   2.0000     -10.556578      -287.2591
  17   2.0000     -10.551679      -287.1258
  18   2.0000     -10.534530      -286.6591
  19   2.0000      -8.401041      -228.6039
  20   2.0000      -6.291048      -171.1881
  21   2.0000      -6.287427      -171.0896
  22   2.0000      -6.285860      -171.0470
  23   2.0000      -4.028638      -109.6248
  24   2.0000      -2.347592       -63.8812
  25   2.0000      -2.313601       -62.9563
  26   2.0000      -2.311950       -62.9114
  27   2.0000      -1.308756       -35.6131
  28   2.0000      -1.212872       -33.0039
  29   2.0000      -1.210350       -32.9353
  30   2.0000      -1.172078       -31.8939
  31   2.0000      -1.125735       -30.6328
  32   2.0000      -1.026052       -27.9203
  33   2.0000      -0.986566       -26.8458
  34   2.0000      -0.977132       -26.5891
  35   2.0000      -0.965186       -26.2640
  36   2.0000      -0.958782       -26.0898
  37   2.0000      -0.928915       -25.2771
  38   2.0000      -0.902792       -24.5662
  39   2.0000      -0.873078       -23.7577
  40   2.0000      -0.797715       -21.7069
  41   2.0000      -0.787943       -21.4410
  42   2.0000      -0.786612       -21.4048
  43   2.0000      -0.780552       -21.2399
  44   2.0000      -0.771668       -20.9982
  45   2.0000      -0.756771       -20.5928
  46   2.0000      -0.743453       -20.2304
  47   2.0000      -0.722746       -19.6669
  48   2.0000      -0.693064       -18.8592
  49   2.0000      -0.675437       -18.3796
  50   2.0000      -0.664722       -18.0880
  51   2.0000      -0.650858       -17.7108
  52   2.0000      -0.648438       -17.6449
  53   2.0000      -0.639503       -17.4018
  54   2.0000      -0.637269       -17.3410
  55   2.0000      -0.631047       -17.1717
  56   2.0000      -0.623221       -16.9587
  57   2.0000      -0.611105       -16.6290
  58   2.0000      -0.607695       -16.5362
  59   2.0000      -0.606800       -16.5119
  60   2.0000      -0.597414       -16.2565
  61   2.0000      -0.588804       -16.0222
  62   2.0000      -0.577562       -15.7163
  63   2.0000      -0.569803       -15.5051
  64   2.0000      -0.563201       -15.3255
  65   2.0000      -0.556629       -15.1466
  66   2.0000      -0.552243       -15.0273
  67   2.0000      -0.548499       -14.9254
  68   2.0000      -0.539499       -14.6805
  69   2.0000      -0.535439       -14.5700
  70   2.0000      -0.528041       -14.3687
  71   2.0000      -0.520131       -14.1535
  72   2.0000      -0.515566       -14.0293
  73   2.0000      -0.505253       -13.7486
  74   2.0000      -0.490027       -13.3343
  75   2.0000      -0.480929       -13.0868
  76   2.0000      -0.467110       -12.7107
  77   2.0000      -0.448756       -12.2113
  78   2.0000      -0.442535       -12.0420
  79   2.0000      -0.422305       -11.4915
  80   2.0000      -0.417374       -11.3573
  81   2.0000      -0.402416       -10.9503
  82   0.0000      -0.201522        -5.4837
  83   0.0000      -0.160701        -4.3729
  84   0.0000      -0.141356        -3.8465
  85   0.0000      -0.095999        -2.6123
  86   0.0000      -0.075550        -2.0558

MULLIKEN ATOMIC CHARGES
-----------------------
   0 Ir:    0.613870
   1 C :   -0.210583
   2 C :   -0.289123
   3 C :   -0.236241
   4 C :   -0.245353
   5 C :   -0.165979
   6 N :   -0.429879
   7 C :   -0.120889
   8 C :   -0.691689
   9 H :    0.271863
  10 H :    0.225519
  11 H :    0.260049
  12 C :   -0.637614
  13 H :    0.281524
  14 H :    0.263889
  15 H :    0.230940
  16 H :    0.232002
  17 C :    0.070053
  18 C :   -0.184744
  19 H :    0.290396
  20 C :   -0.454335
  21 C :   -0.132879
  22 S :    0.307872
  23 C :   -0.430094
  24 H :    0.499631
  25 H :    0.265384
  26 H :    0.297092
  27 H :    0.291279
  28 H :    0.291838
  29 H :    0.305514
  30 O :   -0.483769
  31 O :   -0.537034
  32 C :    0.618785
  33 C :   -0.745266
  34 H :    0.269889
  35 H :    0.266878
  36 H :    0.253853
  37 H :    0.292694
  38 H :    0.294658
Sum of atomic charges:    1.0000000

LOEWDIN ATOMIC CHARGES
----------------------
   0 Ir:   -0.224778
   1 C :   -0.039981
   2 C :   -0.066531
   3 C :   -0.054519
   4 C :   -0.055585
   5 C :   -0.023784
   6 N :   -0.007000
   7 C :   -0.068984
   8 C :   -0.364290
   9 H :    0.157173
  10 H :    0.133528
  11 H :    0.146540
  12 C :   -0.343603
  13 H :    0.156373
  14 H :    0.152818
  15 H :    0.137251
  16 H :    0.133637
  17 C :    0.034686
  18 C :   -0.186129
  19 H :    0.162268
  20 C :   -0.198383
  21 C :   -0.137410
  22 S :    0.471180
  23 C :   -0.262456
  24 H :    0.299992
  25 H :    0.161796
  26 H :    0.167900
  27 H :    0.185043
  28 H :    0.185423
  29 H :    0.193038
  30 O :   -0.275696
  31 O :   -0.204464
  32 C :    0.156432
  33 C :   -0.375437
  34 H :    0.160051
  35 H :    0.167522
  36 H :    0.153610
  37 H :    0.186628
  38 H :    0.186146

  Mayer bond orders larger than 0.100000
B(  0-Ir,  1-C ) :   0.4201 B(  0-Ir,  2-C ) :   0.5257 B(  0-Ir,  3-C ) :   0.4603
B(  0-Ir,  4-C ) :   0.4518 B(  0-Ir,  5-C ) :   0.4024 B(  0-Ir,  6-N ) :   0.4652
B(  0-Ir, 20-C ) :   0.2712 B(  0-Ir, 31-O ) :   0.5739 B(  1-C ,  2-C ) :   1.1196
B(  1-C ,  4-C ) :   1.2430 B(  1-C , 27-H ) :   0.9033 B(  2-C ,  5-C ) :   1.1370
B(  2-C , 28-H ) :   0.9077 B(  3-C ,  4-C ) :   1.1073 B(  3-C ,  5-C ) :   1.2312
B(  3-C , 37-H ) :   0.9051 B(  4-C , 38-H ) :   0.9000 B(  5-C , 29-H ) :   0.8982
B(  6-N ,  7-C ) :   0.8919 B(  6-N , 17-C ) :   1.6834 B(  7-C ,  8-C ) :   0.9919
B(  7-C , 12-C ) :   0.9687 B(  7-C , 13-H ) :   0.8727 B(  8-C ,  9-H ) :   0.9037
B(  8-C , 10-H ) :   0.9126 B(  8-C , 11-H ) :   0.9086 B( 12-C , 14-H ) :   0.9065
B( 12-C , 15-H ) :   0.9155 B( 12-C , 16-H ) :   0.9117 B( 17-C , 18-C ) :   1.0652
B( 17-C , 19-H ) :   0.8744 B( 18-C , 20-C ) :   1.2885 B( 18-C , 22-S ) :   1.2279
B( 20-C , 21-C ) :   1.2692 B( 20-C , 24-H ) :   0.4529 B( 21-C , 23-C ) :   1.5465
B( 21-C , 25-H ) :   0.9046 B( 22-S , 23-C ) :   1.2057 B( 23-C , 26-H ) :   0.8921
B( 24-H , 30-O ) :   0.2531 B( 30-O , 32-C ) :   1.6732 B( 31-O , 32-C ) :   1.2892
B( 32-C , 33-C ) :   0.9469 B( 33-C , 34-H ) :   0.9046 B( 33-C , 35-H ) :   0.8982
B( 33-C , 36-H ) :   0.9092

Dispersion correction           -0.030794198
FINAL SINGLE POINT ENERGY     -1288.397970119934

DIPOLE MOMENT
-------------
                                X             Y             Z
Electronic contribution:     35.43628     -68.61711      74.78669
Nuclear contribution   :    -36.06013      67.47236     -75.04335
                        -----------------------------------------
Total Dipole Moment    :     -0.62386      -1.14475      -0.25667
                        -----------------------------------------
Magnitude (a.u.)       :      1.32873
Magnitude (Debye)      :      3.37737

Rotational constants in cm-1:     0.010636     0.009034     0.008213
Rotational constants in MHz :   318.857794   270.836438   246.224153

                             ****ORCA TERMINATED NORMALLY****
TOTAL RUN TIME: 0 days 1 hours 36 minutes 24 seconds 803 msec
