                         Program Version 5.0.3 -  RELEASE  -
|  1> ! Opt PBEh-3c
|  2> %geom Constraints
|  3> { B 0 20 2.6 C }
|  4> { B 24 30 1.3571428571428572 C }
|  5>     end
|  6> end
|  7> %output
|  8> xyzfile=True
|  9> end
| 10> %scf
| 11> maxiter 250
| 12> end
| 13> %output
| 14> Print[P_Hirshfeld] = 1
| 15> end
| 16> % maxcore
| 17> 4000
| 18> *xyz 1 1
| 19> Ir   0.56467039  -0.74045470   0.50390140
| 20> C    0.00808785  -2.81594070   0.36382747
| 21> C    0.08847416  -2.37855666   1.73705636
| 22> C    2.17552964  -2.15641281   0.79354190
| 23> C    1.27384678  -2.64859446  -0.22430921
| 24> C    1.45793106  -2.03019487   1.99473724
| 25> N   -1.04036295   0.16055188  -0.50599195
| 26> C   -2.32034642   0.49218595   0.14126259
| 27> C   -3.13076159   1.53606805  -0.61022140
| 28> H   -3.96747969   1.84698994   0.01379537
| 29> H   -3.56058820   1.15490211  -1.53792679
| 30> H   -2.54498474   2.42827428  -0.83371887
| 31> C   -3.12409527  -0.78137179   0.37280629
| 32> H   -2.04020327   0.90780780   1.11084838
| 33> H   -4.04625199  -0.54039396   0.89944034
| 34> H   -3.39473724  -1.25636087  -0.57116816
| 35> H   -2.58408968  -1.50316008   0.98405648
| 36> C   -0.82503484   0.36388155  -1.74865336
| 37> C    0.52686476   0.15861689  -2.22087729
| 38> H   -1.60627026   0.71348006  -2.41799294
| 39> C    1.63658103   0.54922129  -1.48299152
| 40> C    2.83349784   0.15474367  -2.14541734
| 41> S    0.93756864  -0.60826234  -3.69530045
| 42> C    2.60941317  -0.46718416  -3.33454537
| 43> H    1.54423065   1.41753536  -0.64699758
| 44> H    3.82460323   0.37472306  -1.77580215
| 45> H    3.34069323  -0.83492599  -4.03852696
| 46> H   -0.88194930  -3.16917443  -0.13679342
| 47> H   -0.70278956  -2.41739487   2.47148071
| 48> H    1.84508312  -1.65172372   2.92983002
| 49> O    1.33396402   2.42187359   0.26289746
| 50> O    0.53893411   0.90492857   1.69351541
| 51> C    0.92581042   2.09418411   1.37712371
| 52> C    0.88030837   3.08899373   2.50148377
| 53> H    0.83712698   4.10380314   2.11551384
| 54> H    1.79201445   2.99646618   3.09505263
| 55> H    0.04066396   2.90629802   3.16865628
| 56> H    3.22009409  -1.92232354   0.65004573
| 57> H    1.53332303  -2.85390927  -1.25289850
| 58> *
| 59>
| 60>                          ****END OF INPUT****
 Total Charge           Charge          ....    1
 Multiplicity           Mult            ....    1
 Number of Electrons    NEL             ....  164
Dispersion correction           -0.030803487
FINAL SINGLE POINT ENERGY     -1288.392163141308
Dispersion correction            ... done
Dispersion correction           -0.030793105
FINAL SINGLE POINT ENERGY     -1288.392183779693
Dispersion correction            ... done
Dispersion correction           -0.030785607
FINAL SINGLE POINT ENERGY     -1288.392189597809
Dispersion correction            ... done
Dispersion correction           -0.030777834
FINAL SINGLE POINT ENERGY     -1288.392193689174
Dispersion correction            ... done
Dispersion correction           -0.030773806
FINAL SINGLE POINT ENERGY     -1288.392196702611
Dispersion correction            ... done
                    ***********************HURRAY********************

CARTESIAN COORDINATES (ANGSTROEM)
---------------------------------
  Ir     0.563214   -0.742064    0.509778
  C      0.005935   -2.816751    0.369347
  C      0.082614   -2.379932    1.742726
  C      2.172675   -2.158572    0.805028
  C      1.273498   -2.649829   -0.215443
  C      1.451408   -2.031841    2.004058
  N     -1.039673    0.156542   -0.504532
  C     -2.321263    0.485254    0.141469
  C     -3.128650    1.534999   -0.605309
  H     -3.965542    1.844219    0.019339
  H     -3.558179    1.160120   -1.535694
  H     -2.540589    2.427081   -0.823169
  C     -3.127345   -0.788647    0.362993
  H     -2.043638    0.894693    1.114422
  H     -4.051025   -0.549732    0.887919
  H     -3.395267   -1.257881   -0.584626
  H     -2.590183   -1.514602    0.971783
  C     -0.825392    0.360124   -1.747688
  C      0.525622    0.160937   -2.222827
  H     -1.609195    0.706423   -2.415791
  C      1.635174    0.542830   -1.480184
  C      2.831748    0.156243   -2.147527
  S      0.935965   -0.587554   -3.706962
  C      2.607557   -0.450563   -3.344717
  H      1.543365    1.418955   -0.639030
  H      3.823182    0.371138   -1.775755
  H      3.338894   -0.809149   -4.053372
  H     -0.882766   -3.169484   -0.133995
  H     -0.710766   -2.418648    2.474842
  H      1.836129   -1.653763    2.940311
  O      1.342777    2.416639    0.258872
  O      0.539235    0.908265    1.693831
  C      0.931457    2.093494    1.374638
  C      0.890509    3.094165    2.493578
  H      0.844868    4.106979    2.102698
  H      1.805390    3.005398    3.082863
  H      0.054243    2.913997    3.165583
  H      3.217848   -1.925332    0.664696
  H      1.535537   -2.854961   -1.243410

 Multiplicity           Mult            ....    1
 Number of Electrons    NEL             ....  164
 Basis Dimension        Dim             ....  358

ORBITAL ENERGIES
----------------

  NO   OCC          E(Eh)            E(eV)
   0   2.0000     -89.755558     -2442.3729
   1   2.0000     -19.627340      -534.0871
   2   2.0000     -19.591783      -533.1195
   3   2.0000     -14.839337      -403.7989
   4   2.0000     -10.685293      -290.7616
   5   2.0000     -10.660448      -290.0855
   6   2.0000     -10.639164      -289.5064
   7   2.0000     -10.637445      -289.4596
   8   2.0000     -10.635551      -289.4081
   9   2.0000     -10.634557      -289.3810
  10   2.0000     -10.633326      -289.3475
  11   2.0000     -10.625265      -289.1282
  12   2.0000     -10.616373      -288.8862
  13   2.0000     -10.605617      -288.5935
  14   2.0000     -10.577777      -287.8360
  15   2.0000     -10.575346      -287.7698
  16   2.0000     -10.557306      -287.2789
  17   2.0000     -10.552076      -287.1366
  18   2.0000     -10.534840      -286.6676
  19   2.0000      -8.394900      -228.4369
  20   2.0000      -6.284995      -171.0234
  21   2.0000      -6.281381      -170.9251
  22   2.0000      -6.279585      -170.8762
  23   2.0000      -4.032159      -109.7206
  24   2.0000      -2.351795       -63.9956
  25   2.0000      -2.317174       -63.0535
  26   2.0000      -2.315272       -63.0018
  27   2.0000      -1.310004       -35.6470
  28   2.0000      -1.214479       -33.0476
  29   2.0000      -1.210462       -32.9383
  30   2.0000      -1.176222       -32.0066
  31   2.0000      -1.120127       -30.4802
  32   2.0000      -1.025230       -27.8979
  33   2.0000      -0.991112       -26.9695
  34   2.0000      -0.981113       -26.6974
  35   2.0000      -0.960758       -26.1435
  36   2.0000      -0.954129       -25.9632
  37   2.0000      -0.929723       -25.2990
  38   2.0000      -0.903462       -24.5845
  39   2.0000      -0.871032       -23.7020
  40   2.0000      -0.795749       -21.6534
  41   2.0000      -0.791801       -21.5460
  42   2.0000      -0.790044       -21.4982
  43   2.0000      -0.778934       -21.1959
  44   2.0000      -0.773192       -21.0396
  45   2.0000      -0.759521       -20.6676
  46   2.0000      -0.743440       -20.2300
  47   2.0000      -0.722342       -19.6559
  48   2.0000      -0.694411       -18.8959
  49   2.0000      -0.674068       -18.3423
  50   2.0000      -0.664502       -18.0820
  51   2.0000      -0.652602       -17.7582
  52   2.0000      -0.650142       -17.6913
  53   2.0000      -0.641785       -17.4639
  54   2.0000      -0.639397       -17.3989
  55   2.0000      -0.632594       -17.2138
  56   2.0000      -0.624038       -16.9809
  57   2.0000      -0.612081       -16.6556
  58   2.0000      -0.611260       -16.6332
  59   2.0000      -0.607711       -16.5367
  60   2.0000      -0.594943       -16.1892
  61   2.0000      -0.585679       -15.9371
  62   2.0000      -0.573776       -15.6132
  63   2.0000      -0.567517       -15.4429
  64   2.0000      -0.561858       -15.2889
  65   2.0000      -0.555427       -15.1139
  66   2.0000      -0.552733       -15.0406
  67   2.0000      -0.548496       -14.9253
  68   2.0000      -0.539800       -14.6887
  69   2.0000      -0.533819       -14.5260
  70   2.0000      -0.527285       -14.3482
  71   2.0000      -0.521642       -14.1946
  72   2.0000      -0.516453       -14.0534
  73   2.0000      -0.509025       -13.8513
  74   2.0000      -0.492040       -13.3891
  75   2.0000      -0.480529       -13.0759
  76   2.0000      -0.461763       -12.5652
  77   2.0000      -0.452995       -12.3266
  78   2.0000      -0.441784       -12.0216
  79   2.0000      -0.420686       -11.4474
  80   2.0000      -0.416643       -11.3374
  81   2.0000      -0.402864       -10.9625
  82   0.0000      -0.200817        -5.4645
  83   0.0000      -0.166414        -4.5284
  84   0.0000      -0.141639        -3.8542
  85   0.0000      -0.097487        -2.6527
  86   0.0000      -0.076188        -2.0732

MULLIKEN ATOMIC CHARGES
-----------------------
   0 Ir:    0.624334
   1 C :   -0.207762
   2 C :   -0.297442
   3 C :   -0.229057
   4 C :   -0.243779
   5 C :   -0.167881
   6 N :   -0.432334
   7 C :   -0.116384
   8 C :   -0.695013
   9 H :    0.272635
  10 H :    0.226721
  11 H :    0.260273
  12 C :   -0.639600
  13 H :    0.279440
  14 H :    0.265026
  15 H :    0.231082
  16 H :    0.232081
  17 C :    0.066990
  18 C :   -0.224430
  19 H :    0.290801
  20 C :   -0.387143
  21 C :   -0.153765
  22 S :    0.288206
  23 C :   -0.425383
  24 H :    0.501320
  25 H :    0.263657
  26 H :    0.294825
  27 H :    0.293701
  28 H :    0.295021
  29 H :    0.307209
  30 O :   -0.491663
  31 O :   -0.540836
  32 C :    0.618500
  33 C :   -0.746372
  34 H :    0.270267
  35 H :    0.267123
  36 H :    0.253873
  37 H :    0.297927
  38 H :    0.297833
Sum of atomic charges:    1.0000000

LOEWDIN ATOMIC CHARGES
----------------------
   0 Ir:   -0.203593
   1 C :   -0.039455
   2 C :   -0.053412
   3 C :   -0.044098
   4 C :   -0.052261
   5 C :   -0.028035
   6 N :   -0.013208
   7 C :   -0.068070
   8 C :   -0.364874
   9 H :    0.157378
  10 H :    0.134166
  11 H :    0.146711
  12 C :   -0.343698
  13 H :    0.155555
  14 H :    0.153143
  15 H :    0.137391
  16 H :    0.133975
  17 C :    0.037529
  18 C :   -0.198974
  19 H :    0.162184
  20 C :   -0.190095
  21 C :   -0.150452
  22 S :    0.450156
  23 C :   -0.261680
  24 H :    0.290630
  25 H :    0.160275
  26 H :    0.166602
  27 H :    0.186545
  28 H :    0.186968
  29 H :    0.194036
  30 O :   -0.278051
  31 O :   -0.205315
  32 C :    0.159778
  33 C :   -0.375806
  34 H :    0.160224
  35 H :    0.167694
  36 H :    0.153578
  37 H :    0.189038
  38 H :    0.187520

  Mayer bond orders larger than 0.100000
B(  0-Ir,  1-C ) :   0.4242 B(  0-Ir,  2-C ) :   0.5624 B(  0-Ir,  3-C ) :   0.4630
B(  0-Ir,  4-C ) :   0.4572 B(  0-Ir,  5-C ) :   0.4045 B(  0-Ir,  6-N ) :   0.4692
B(  0-Ir, 20-C ) :   0.2071 B(  0-Ir, 31-O ) :   0.5829 B(  1-C ,  2-C ) :   1.1107
B(  1-C ,  4-C ) :   1.2439 B(  1-C , 27-H ) :   0.9024 B(  2-C ,  5-C ) :   1.1264
B(  2-C , 28-H ) :   0.9058 B(  3-C ,  4-C ) :   1.1035 B(  3-C ,  5-C ) :   1.2370
B(  3-C , 37-H ) :   0.9018 B(  4-C , 38-H ) :   0.8973 B(  5-C , 29-H ) :   0.8977
B(  6-N ,  7-C ) :   0.8909 B(  6-N , 17-C ) :   1.6916 B(  7-C ,  8-C ) :   0.9928
B(  7-C , 12-C ) :   0.9696 B(  7-C , 13-H ) :   0.8730 B(  8-C ,  9-H ) :   0.9033
B(  8-C , 10-H ) :   0.9122 B(  8-C , 11-H ) :   0.9082 B( 12-C , 14-H ) :   0.9062
B( 12-C , 15-H ) :   0.9153 B( 12-C , 16-H ) :   0.9110 B( 17-C , 18-C ) :   1.0557
B( 17-C , 19-H ) :   0.8738 B( 18-C , 20-C ) :   1.3133 B( 18-C , 22-S ) :   1.2023
B( 20-C , 21-C ) :   1.2740 B( 20-C , 24-H ) :   0.4814 B( 21-C , 23-C ) :   1.5431
B( 21-C , 25-H ) :   0.9050 B( 22-S , 23-C ) :   1.2048 B( 23-C , 26-H ) :   0.8933
B( 24-H , 30-O ) :   0.2260 B( 30-O , 32-C ) :   1.6798 B( 31-O , 32-C ) :   1.2810
B( 32-C , 33-C ) :   0.9482 B( 33-C , 34-H ) :   0.9046 B( 33-C , 35-H ) :   0.8980
B( 33-C , 36-H ) :   0.9092

Dispersion correction           -0.030771257
FINAL SINGLE POINT ENERGY     -1288.392199287723

DIPOLE MOMENT
-------------
                                X             Y             Z
Electronic contribution:     32.53321     -69.37175      78.13663
Nuclear contribution   :    -33.17012      68.15624     -78.21960
                        -----------------------------------------
Total Dipole Moment    :     -0.63691      -1.21551      -0.08297
                        -----------------------------------------
Magnitude (a.u.)       :      1.37477
Magnitude (Debye)      :      3.49439

Rotational constants in cm-1:     0.010641     0.008968     0.008194
Rotational constants in MHz :   319.008351   268.844272   245.638791

                             ****ORCA TERMINATED NORMALLY****
TOTAL RUN TIME: 0 days 0 hours 42 minutes 54 seconds 941 msec
