                         Program Version 5.0.3 -  RELEASE  -
|  1> ! Opt PBEh-3c
|  2> %geom Constraints
|  3> { B 0 20 2.1285714285714286 C }
|  4> { B 24 30 1.3 C }
|  5>     end
|  6> end
|  7> %output
|  8> xyzfile=True
|  9> end
| 10> %scf
| 11> maxiter 250
| 12> end
| 13> %output
| 14> Print[P_Hirshfeld] = 1
| 15> end
| 16> % maxcore
| 17> 4000
| 18> %pal nprocs 2
| 19> end
| 20> *xyz 1 1
| 21> Ir   0.60588372  -0.74388675   0.44339776
| 22> C    0.13166353  -2.85134024   0.36423488
| 23> C   -0.11383866  -2.39127859   1.70704700
| 24> C    2.12895405  -2.07604142   1.23132671
| 25> C    1.50525780  -2.67098476   0.08275545
| 26> C    1.12119377  -1.93534808   2.22556254
| 27> N   -1.06851111   0.10210939  -0.50533365
| 28> C   -2.34863070   0.28572618   0.19669127
| 29> C   -3.13806538   1.49967133  -0.27292073
| 30> H   -3.97395765   1.65979577   0.40620923
| 31> H   -3.56568989   1.37014155  -1.26801064
| 32> H   -2.53267629   2.40636256  -0.26660138
| 33> C   -3.17363227  -0.99154618   0.08707820
| 34> H   -2.07986663   0.44329438   1.24235584
| 35> H   -4.08574331  -0.89779061   0.67518534
| 36> H   -3.46172276  -1.18500951  -0.94701592
| 37> H   -2.63313277  -1.86161215   0.45638439
| 38> C   -0.91519195   0.46614636  -1.72604073
| 39> C    0.39959535   0.31184554  -2.26951946
| 40> H   -1.72958146   0.89412011  -2.30205236
| 41> C    1.44733965   0.05829576  -1.39060254
| 42> C    2.65357561  -0.15580916  -2.11879084
| 43> S    0.87388752   0.32368649  -3.90280197
| 44> C    2.48840900  -0.03438196  -3.46734286
| 45> H    1.66032067   1.17395098  -0.60945588
| 46> H    3.61591934  -0.33635281  -1.66208519
| 47> H    3.24324488  -0.12078306  -4.23419918
| 48> H   -0.59506185  -3.28880616  -0.30459548
| 49> H   -1.04876612  -2.43624067   2.24435997
| 50> H    1.26230491  -1.48536587   3.19819392
| 51> O    1.77745590   2.27428081   0.09969892
| 52> O    0.57774411   1.03822994   1.50849944
| 53> C    1.16436660   2.10945052   1.18104227
| 54> C    1.14465741   3.24222777   2.16169760
| 55> H    1.01969919   4.19253508   1.64730608
| 56> H    2.10575459   3.28007609   2.67738827
| 57> H    0.36274116   3.11275115   2.90424734
| 58> H    3.17767774  -1.85281109   1.35159853
| 59> H    1.99579220  -2.93011869  -0.84415212
| 60> *
| 61>
| 62>                          ****END OF INPUT****
 Total Charge           Charge          ....    1
 Multiplicity           Mult            ....    1
 Number of Electrons    NEL             ....  164
Dispersion correction           -0.030624900
FINAL SINGLE POINT ENERGY     -1288.406589943594
Dispersion correction            ... done
Dispersion correction           -0.030591204
FINAL SINGLE POINT ENERGY     -1288.406834644014
Dispersion correction            ... done
Dispersion correction           -0.030577756
FINAL SINGLE POINT ENERGY     -1288.406932089298
Dispersion correction            ... done
FINAL SINGLE POINT ENERGY     -1288.406990974133
FINAL SINGLE POINT ENERGY     -1288.407044456512
FINAL SINGLE POINT ENERGY     -1288.407073525856
FINAL SINGLE POINT ENERGY     -1288.407090328810
FINAL SINGLE POINT ENERGY     -1288.407098277405
FINAL SINGLE POINT ENERGY     -1288.407104941844
FINAL SINGLE POINT ENERGY     -1288.407108702301
FINAL SINGLE POINT ENERGY     -1288.407111180635
FINAL SINGLE POINT ENERGY     -1288.407112222696
FINAL SINGLE POINT ENERGY     -1288.407112803508
Dispersion correction            ... done
Dispersion correction           -0.030542729
FINAL SINGLE POINT ENERGY     -1288.407113433370
Dispersion correction            ... done
Dispersion correction           -0.030543283
FINAL SINGLE POINT ENERGY     -1288.407114530853
Dispersion correction            ... done
                    ***********************HURRAY********************

CARTESIAN COORDINATES (ANGSTROEM)
---------------------------------
  Ir     0.606844   -0.749229    0.429922
  C      0.146732   -2.857682    0.357988
  C     -0.130926   -2.407743    1.698651
  C      2.116956   -2.065266    1.269158
  C      1.527767   -2.670385    0.110734
  C      1.082313   -1.937328    2.242790
  N     -1.075753    0.095240   -0.505272
  C     -2.354286    0.266933    0.201922
  C     -3.141824    1.491865   -0.241388
  H     -3.977668    1.638565    0.440803
  H     -3.569208    1.385065   -1.239284
  H     -2.534660    2.397016   -0.215245
  C     -3.181300   -1.006668    0.067841
  H     -2.083919    0.402914    1.250255
  H     -4.090127   -0.925991    0.662950
  H     -3.474958   -1.176183   -0.968877
  H     -2.638875   -1.885354    0.413284
  C     -0.925571    0.475801   -1.721654
  C      0.387836    0.321331   -2.265999
  H     -1.739584    0.914635   -2.289748
  C      1.419248    0.012183   -1.384209
  C      2.632959   -0.182584   -2.107085
  S      0.884213    0.404253   -3.890630
  C      2.487249    0.005145   -3.450734
  H      1.664651    1.198689   -0.645123
  H      3.586642   -0.400300   -1.648278
  H      3.251668   -0.056129   -4.210510
  H     -0.558933   -3.306999   -0.325322
  H     -1.078699   -2.458109    2.212287
  H      1.196365   -1.485973    3.218254
  O      1.786931    2.286150    0.056643
  O      0.599987    1.050421    1.477863
  C      1.182943    2.117915    1.147387
  C      1.180983    3.253509    2.124207
  H      1.051404    4.203290    1.609993
  H      2.149308    3.289440    2.626425
  H      0.409061    3.127148    2.877581
  H      3.161260   -1.837639    1.416482
  H      2.042345   -2.928758   -0.803323

 Multiplicity           Mult            ....    1
 Number of Electrons    NEL             ....  164
 Basis Dimension        Dim             ....  358

ORBITAL ENERGIES
----------------

  NO   OCC          E(Eh)            E(eV)
   0   2.0000     -89.759098     -2442.4692
   1   2.0000     -19.642987      -534.5128
   2   2.0000     -19.640722      -534.4512
   3   2.0000     -14.829409      -403.5287
   4   2.0000     -10.707755      -291.3728
   5   2.0000     -10.651405      -289.8395
   6   2.0000     -10.623222      -289.0726
   7   2.0000     -10.622148      -289.0433
   8   2.0000     -10.619661      -288.9757
   9   2.0000     -10.618622      -288.9474
  10   2.0000     -10.612997      -288.7943
  11   2.0000     -10.611199      -288.7454
  12   2.0000     -10.609230      -288.6918
  13   2.0000     -10.607636      -288.6484
  14   2.0000     -10.589004      -288.1415
  15   2.0000     -10.585640      -288.0499
  16   2.0000     -10.551561      -287.1226
  17   2.0000     -10.551045      -287.1085
  18   2.0000     -10.549464      -287.0655
  19   2.0000      -8.398469      -228.5340
  20   2.0000      -6.288363      -171.1150
  21   2.0000      -6.284861      -171.0198
  22   2.0000      -6.283392      -170.9798
  23   2.0000      -4.017889      -109.3323
  24   2.0000      -2.334603       -63.5278
  25   2.0000      -2.304345       -62.7044
  26   2.0000      -2.300540       -62.6009
  27   2.0000      -1.337639       -36.3990
  28   2.0000      -1.239262       -33.7220
  29   2.0000      -1.202762       -32.7288
  30   2.0000      -1.157763       -31.5043
  31   2.0000      -1.123597       -30.5746
  32   2.0000      -1.021565       -27.7982
  33   2.0000      -0.970758       -26.4157
  34   2.0000      -0.965141       -26.2628
  35   2.0000      -0.963492       -26.2180
  36   2.0000      -0.955963       -26.0131
  37   2.0000      -0.946961       -25.7681
  38   2.0000      -0.898594       -24.4520
  39   2.0000      -0.868576       -23.6352
  40   2.0000      -0.794833       -21.6285
  41   2.0000      -0.779050       -21.1990
  42   2.0000      -0.775339       -21.0980
  43   2.0000      -0.773830       -21.0570
  44   2.0000      -0.769128       -20.9290
  45   2.0000      -0.758903       -20.6508
  46   2.0000      -0.740375       -20.1466
  47   2.0000      -0.721579       -19.6352
  48   2.0000      -0.698105       -18.9964
  49   2.0000      -0.683159       -18.5897
  50   2.0000      -0.668229       -18.1834
  51   2.0000      -0.663533       -18.0556
  52   2.0000      -0.652236       -17.7482
  53   2.0000      -0.637436       -17.3455
  54   2.0000      -0.629177       -17.1208
  55   2.0000      -0.625475       -17.0200
  56   2.0000      -0.619848       -16.8669
  57   2.0000      -0.607720       -16.5369
  58   2.0000      -0.597168       -16.2498
  59   2.0000      -0.594864       -16.1871
  60   2.0000      -0.593953       -16.1623
  61   2.0000      -0.589397       -16.0383
  62   2.0000      -0.576689       -15.6925
  63   2.0000      -0.574477       -15.6323
  64   2.0000      -0.561204       -15.2711
  65   2.0000      -0.559794       -15.2328
  66   2.0000      -0.559501       -15.2248
  67   2.0000      -0.544328       -14.8119
  68   2.0000      -0.542342       -14.7579
  69   2.0000      -0.535562       -14.5734
  70   2.0000      -0.528428       -14.3793
  71   2.0000      -0.517639       -14.0857
  72   2.0000      -0.512367       -13.9422
  73   2.0000      -0.505787       -13.7632
  74   2.0000      -0.500057       -13.6072
  75   2.0000      -0.486266       -13.2320
  76   2.0000      -0.476161       -12.9570
  77   2.0000      -0.452219       -12.3055
  78   2.0000      -0.443617       -12.0714
  79   2.0000      -0.414810       -11.2876
  80   2.0000      -0.414564       -11.2809
  81   2.0000      -0.392830       -10.6894
  82   0.0000      -0.197236        -5.3671
  83   0.0000      -0.142542        -3.8788
  84   0.0000      -0.127246        -3.4625
  85   0.0000      -0.083650        -2.2762
  86   0.0000      -0.077500        -2.1089

MULLIKEN ATOMIC CHARGES
-----------------------
   0 Ir:    0.604608
   1 C :   -0.256391
   2 C :   -0.255258
   3 C :   -0.276585
   4 C :   -0.217081
   5 C :   -0.153606
   6 N :   -0.439602
   7 C :   -0.125467
   8 C :   -0.678783
   9 H :    0.267943
  10 H :    0.224612
  11 H :    0.251479
  12 C :   -0.632539
  13 H :    0.274734
  14 H :    0.256953
  15 H :    0.232916
  16 H :    0.233364
  17 C :    0.069002
  18 C :   -0.126854
  19 H :    0.282609
  20 C :   -0.539006
  21 C :   -0.114531
  22 S :    0.338271
  23 C :   -0.423108
  24 H :    0.480172
  25 H :    0.264718
  26 H :    0.296634
  27 H :    0.284451
  28 H :    0.280165
  29 H :    0.294780
  30 O :   -0.492087
  31 O :   -0.493602
  32 C :    0.637705
  33 C :   -0.744015
  34 H :    0.275843
  35 H :    0.278810
  36 H :    0.265959
  37 H :    0.280256
  38 H :    0.292529
Sum of atomic charges:    1.0000000

LOEWDIN ATOMIC CHARGES
----------------------
   0 Ir:   -0.264483
   1 C :   -0.063047
   2 C :   -0.097420
   3 C :   -0.101319
   4 C :   -0.036509
   5 C :   -0.019706
   6 N :   -0.009835
   7 C :   -0.069033
   8 C :   -0.361750
   9 H :    0.155483
  10 H :    0.132719
  11 H :    0.142273
  12 C :   -0.344222
  13 H :    0.152277
  14 H :    0.149844
  15 H :    0.138139
  16 H :    0.133003
  17 C :    0.029924
  18 C :   -0.203208
  19 H :    0.158833
  20 C :   -0.215123
  21 C :   -0.137545
  22 S :    0.489798
  23 C :   -0.255949
  24 H :    0.374546
  25 H :    0.160692
  26 H :    0.168654
  27 H :    0.181778
  28 H :    0.178444
  29 H :    0.186317
  30 O :   -0.253463
  31 O :   -0.167308
  32 C :    0.173039
  33 C :   -0.370358
  34 H :    0.166686
  35 H :    0.174183
  36 H :    0.158258
  37 H :    0.180855
  38 H :    0.184534

  Mayer bond orders larger than 0.100000
B(  0-Ir,  1-C ) :   0.4611 B(  0-Ir,  2-C ) :   0.3899 B(  0-Ir,  3-C ) :   0.4725
B(  0-Ir,  4-C ) :   0.4253 B(  0-Ir,  5-C ) :   0.3636 B(  0-Ir,  6-N ) :   0.4663
B(  0-Ir, 20-C ) :   0.5203 B(  0-Ir, 31-O ) :   0.4947 B(  1-C ,  2-C ) :   1.1259
B(  1-C ,  4-C ) :   1.2131 B(  1-C , 27-H ) :   0.9092 B(  2-C ,  5-C ) :   1.2343
B(  2-C , 28-H ) :   0.9103 B(  3-C ,  4-C ) :   1.1491 B(  3-C ,  5-C ) :   1.1613
B(  3-C , 37-H ) :   0.9141 B(  4-C , 38-H ) :   0.9000 B(  5-C , 29-H ) :   0.9024
B(  6-N ,  7-C ) :   0.8970 B(  6-N , 17-C ) :   1.6411 B(  7-C ,  8-C ) :   0.9901
B(  7-C , 12-C ) :   0.9677 B(  7-C , 13-H ) :   0.8798 B(  8-C ,  9-H ) :   0.9052
B(  8-C , 10-H ) :   0.9131 B(  8-C , 11-H ) :   0.9133 B( 12-C , 14-H ) :   0.9082
B( 12-C , 15-H ) :   0.9153 B( 12-C , 16-H ) :   0.9123 B( 17-C , 18-C ) :   1.1224
B( 17-C , 19-H ) :   0.8769 B( 18-C , 20-C ) :   1.2394 B( 18-C , 22-S ) :   1.2205
B( 20-C , 21-C ) :   1.2831 B( 20-C , 24-H ) :   0.2740 B( 21-C , 23-C ) :   1.5278
B( 21-C , 25-H ) :   0.9032 B( 22-S , 23-C ) :   1.2300 B( 23-C , 26-H ) :   0.8918
B( 24-H , 30-O ) :   0.4006 B( 30-O , 32-C ) :   1.4975 B( 31-O , 32-C ) :   1.4306
B( 32-C , 33-C ) :   0.9465 B( 33-C , 34-H ) :   0.8978 B( 33-C , 35-H ) :   0.8908
B( 33-C , 36-H ) :   0.9069

Dispersion correction           -0.030543297
FINAL SINGLE POINT ENERGY     -1288.407115648960

DIPOLE MOMENT
-------------
                                X             Y             Z
Electronic contribution:     36.93120     -75.89206      72.08716
Nuclear contribution   :    -37.46560      75.66860     -72.17308
                        -----------------------------------------
Total Dipole Moment    :     -0.53439      -0.22345      -0.08592
                        -----------------------------------------
Magnitude (a.u.)       :      0.58557
Magnitude (Debye)      :      1.48839

Rotational constants in cm-1:     0.010579     0.008715     0.008171
Rotational constants in MHz :   317.160635   261.283250   244.967769

                             ****ORCA TERMINATED NORMALLY****
TOTAL RUN TIME: 0 days 4 hours 24 minutes 54 seconds 887 msec
