                         Program Version 5.0.3 -  RELEASE  -
|  1> ! Opt PBEh-3c
|  2> %geom Constraints
|  3> { B 0 20 2.1285714285714286 C }
|  4> { B 24 30 1.4142857142857144 C }
|  5>     end
|  6> end
|  7> %output
|  8> xyzfile=True
|  9> end
| 10> %scf
| 11> maxiter 250
| 12> end
| 13> %output
| 14> Print[P_Hirshfeld] = 1
| 15> end
| 16> % maxcore
| 17> 4000
| 18> *xyz 1 1
| 19> Ir   0.61528624  -0.71645686   0.42652815
| 20> C    0.12270986  -2.82985291   0.34560206
| 21> C   -0.02456317  -2.36430767   1.69952676
| 22> C    2.18182418  -2.07341396   1.07032280
| 23> C    1.46771115  -2.65202243  -0.03921099
| 24> C    1.25700045  -1.92682919   2.13320036
| 25> N   -1.06262564   0.13148325  -0.51731543
| 26> C   -2.33366235   0.35718149   0.18792430
| 27> C   -3.13453802   1.53280620  -0.35314339
| 28> H   -3.96244962   1.73583852   0.32447627
| 29> H   -3.57546967   1.33129428  -1.33038409
| 30> H   -2.53486154   2.44097390  -0.41757142
| 31> C   -3.15366486  -0.92833597   0.17455577
| 32> H   -2.04877490   0.58206995   1.21669364
| 33> H   -4.05999725  -0.79484360   0.76371168
| 34> H   -3.45198163  -1.19426319  -0.84034770
| 35> H   -2.60690059  -1.76766140   0.60101603
| 36> C   -0.90728403   0.44660444  -1.74952081
| 37> C    0.41603677   0.26462676  -2.27212099
| 38> H   -1.71464520   0.85550092  -2.34877640
| 39> C    1.47484003   0.14738100  -1.37070683
| 40> C    2.68304932  -0.13696041  -2.07889350
| 41> S    0.87821921   0.05032176  -3.88936974
| 42> C    2.50800705  -0.21188576  -3.42626625
| 43> H    1.60559511   1.14442886  -0.62095109
| 44> H    3.65176061  -0.22082323  -1.60805950
| 45> H    3.25739792  -0.38512752  -4.18356653
| 46> H   -0.65868720  -3.24801615  -0.27222175
| 47> H   -0.91803965  -2.40604215   2.30375996
| 48> H    1.47457013  -1.48496553   3.09538288
| 49> O    1.68278013   2.33163019   0.16987873
| 50> O    0.54156564   1.00844547   1.54855096
| 51> C    1.09240528   2.11996366   1.23881010
| 52> C    1.02402097   3.20283113   2.27664875
| 53> H    1.01131709   4.18382729   1.80845476
| 54> H    1.91773235   3.14872368   2.90085707
| 55> H    0.15891364   3.08478135   2.92406964
| 56> H    3.23691732  -1.85061102   1.10975346
| 57> H    1.88785492  -2.90910514  -1.00055755
| 58> *
| 59>
| 60>                          ****END OF INPUT****
 Total Charge           Charge          ....    1
 Multiplicity           Mult            ....    1
 Number of Electrons    NEL             ....  164
Dispersion correction           -0.030864476
FINAL SINGLE POINT ENERGY     -1288.400274084041
Dispersion correction            ... done
Dispersion correction           -0.030817105
FINAL SINGLE POINT ENERGY     -1288.400325793265
Dispersion correction            ... done
Dispersion correction           -0.030820103
FINAL SINGLE POINT ENERGY     -1288.399493474127
Dispersion correction            ... done
FINAL SINGLE POINT ENERGY     -1288.400606215306
FINAL SINGLE POINT ENERGY     -1288.400637793369
FINAL SINGLE POINT ENERGY     -1288.400666076205
FINAL SINGLE POINT ENERGY     -1288.400694201388
FINAL SINGLE POINT ENERGY     -1288.400702130420
FINAL SINGLE POINT ENERGY     -1288.400704072124
FINAL SINGLE POINT ENERGY     -1288.400702343120
FINAL SINGLE POINT ENERGY     -1288.400701055422
FINAL SINGLE POINT ENERGY     -1288.400699539900
FINAL SINGLE POINT ENERGY     -1288.400700819935
FINAL SINGLE POINT ENERGY     -1288.400705436118
Dispersion correction            ... done
Dispersion correction           -0.030737227
FINAL SINGLE POINT ENERGY     -1288.400711372959
Dispersion correction            ... done
Dispersion correction           -0.030738626
FINAL SINGLE POINT ENERGY     -1288.400716387496
Dispersion correction            ... done
                    ***********************HURRAY********************

CARTESIAN COORDINATES (ANGSTROEM)
---------------------------------
  Ir     0.616978   -0.724237    0.419807
  C      0.140714   -2.840880    0.335838
  C     -0.057912   -2.384232    1.686813
  C      2.166341   -2.067805    1.135069
  C      1.500196   -2.656006    0.004140
  C      1.197633   -1.932395    2.164645
  N     -1.066231    0.124759   -0.512553
  C     -2.336804    0.333002    0.198168
  C     -3.133603    1.527490   -0.306673
  H     -3.962384    1.710860    0.375333
  H     -3.572417    1.359139   -1.291097
  H     -2.530821    2.435274   -0.340654
  C     -3.160330   -0.949233    0.143714
  H     -2.053248    0.525954    1.233833
  H     -4.065143   -0.834382    0.739157
  H     -3.461089   -1.179876   -0.879075
  H     -2.614107   -1.804129    0.538857
  C     -0.914899    0.465647   -1.739163
  C      0.404016    0.286577   -2.268427
  H     -1.723328    0.890453   -2.325467
  C      1.448450    0.090499   -1.362236
  C      2.659642   -0.171347   -2.076375
  S      0.882020    0.175945   -3.890844
  C      2.499543   -0.150578   -3.427769
  H      1.620414    1.128100   -0.633261
  H      3.621293   -0.307210   -1.602981
  H      3.255470   -0.288114   -4.185920
  H     -0.611630   -3.271042   -0.309061
  H     -0.972697   -2.433033    2.257503
  H      1.374372   -1.487646    3.133852
  O      1.720936    2.312374    0.133287
  O      0.560073    1.019627    1.523876
  C      1.121287    2.118594    1.204528
  C      1.061294    3.223850    2.218525
  H      0.958698    4.188248    1.726462
  H      2.000012    3.243448    2.774793
  H      0.250787    3.076735    2.926922
  H      3.218442   -1.843112    1.217651
  H      1.957402   -2.912127   -0.940474

 Multiplicity           Mult            ....    1
 Number of Electrons    NEL             ....  164
 Basis Dimension        Dim             ....  358

ORBITAL ENERGIES
----------------

  NO   OCC          E(Eh)            E(eV)
   0   2.0000     -89.765898     -2442.6543
   1   2.0000     -19.631702      -534.2058
   2   2.0000     -19.614245      -533.7307
   3   2.0000     -14.835665      -403.6990
   4   2.0000     -10.692269      -290.9514
   5   2.0000     -10.655949      -289.9631
   6   2.0000     -10.628111      -289.2056
   7   2.0000     -10.626646      -289.1657
   8   2.0000     -10.624527      -289.1081
   9   2.0000     -10.623942      -289.0921
  10   2.0000     -10.616732      -288.8960
  11   2.0000     -10.613964      -288.8206
  12   2.0000     -10.613232      -288.8007
  13   2.0000     -10.611182      -288.7449
  14   2.0000     -10.590303      -288.1768
  15   2.0000     -10.589583      -288.1572
  16   2.0000     -10.553918      -287.1867
  17   2.0000     -10.550824      -287.1025
  18   2.0000     -10.541710      -286.8545
  19   2.0000      -8.405284      -228.7194
  20   2.0000      -6.295151      -171.2998
  21   2.0000      -6.291582      -171.2027
  22   2.0000      -6.290291      -171.1675
  23   2.0000      -4.021583      -109.4328
  24   2.0000      -2.338858       -63.6436
  25   2.0000      -2.307599       -62.7930
  26   2.0000      -2.304761       -62.7157
  27   2.0000      -1.319744       -35.9120
  28   2.0000      -1.221276       -33.2326
  29   2.0000      -1.208273       -32.8788
  30   2.0000      -1.161623       -31.6094
  31   2.0000      -1.129096       -30.7243
  32   2.0000      -1.025240       -27.8982
  33   2.0000      -0.974361       -26.5137
  34   2.0000      -0.970946       -26.4208
  35   2.0000      -0.967548       -26.3283
  36   2.0000      -0.960034       -26.1239
  37   2.0000      -0.936146       -25.4738
  38   2.0000      -0.900664       -24.5083
  39   2.0000      -0.873222       -23.7616
  40   2.0000      -0.799158       -21.7462
  41   2.0000      -0.783048       -21.3078
  42   2.0000      -0.777753       -21.1637
  43   2.0000      -0.777224       -21.1493
  44   2.0000      -0.762552       -20.7501
  45   2.0000      -0.757951       -20.6249
  46   2.0000      -0.743194       -20.2233
  47   2.0000      -0.722422       -19.6581
  48   2.0000      -0.691635       -18.8203
  49   2.0000      -0.683571       -18.6009
  50   2.0000      -0.663724       -18.0608
  51   2.0000      -0.656185       -17.8557
  52   2.0000      -0.647153       -17.6099
  53   2.0000      -0.636918       -17.3314
  54   2.0000      -0.631939       -17.1959
  55   2.0000      -0.628422       -17.1002
  56   2.0000      -0.622055       -16.9270
  57   2.0000      -0.611597       -16.6424
  58   2.0000      -0.600748       -16.3472
  59   2.0000      -0.598189       -16.2776
  60   2.0000      -0.597325       -16.2540
  61   2.0000      -0.591775       -16.1030
  62   2.0000      -0.580108       -15.7855
  63   2.0000      -0.568865       -15.4796
  64   2.0000      -0.564636       -15.3645
  65   2.0000      -0.562701       -15.3119
  66   2.0000      -0.553285       -15.0557
  67   2.0000      -0.547123       -14.8880
  68   2.0000      -0.542104       -14.7514
  69   2.0000      -0.535654       -14.5759
  70   2.0000      -0.529283       -14.4025
  71   2.0000      -0.518371       -14.1056
  72   2.0000      -0.513356       -13.9691
  73   2.0000      -0.499083       -13.5807
  74   2.0000      -0.493124       -13.4186
  75   2.0000      -0.485804       -13.2194
  76   2.0000      -0.478028       -13.0078
  77   2.0000      -0.448891       -12.2149
  78   2.0000      -0.443899       -12.0791
  79   2.0000      -0.419807       -11.4235
  80   2.0000      -0.415769       -11.3136
  81   2.0000      -0.395226       -10.7546
  82   0.0000      -0.206486        -5.6188
  83   0.0000      -0.143196        -3.8966
  84   0.0000      -0.134129        -3.6498
  85   0.0000      -0.088134        -2.3982
  86   0.0000      -0.075007        -2.0410

MULLIKEN ATOMIC CHARGES
-----------------------
   0 Ir:    0.605858
   1 C :   -0.238529
   2 C :   -0.262272
   3 C :   -0.267785
   4 C :   -0.226637
   5 C :   -0.153700
   6 N :   -0.431507
   7 C :   -0.126481
   8 C :   -0.682844
   9 H :    0.269829
  10 H :    0.224223
  11 H :    0.254918
  12 C :   -0.634056
  13 H :    0.281142
  14 H :    0.259621
  15 H :    0.232321
  16 H :    0.233403
  17 C :    0.069694
  18 C :   -0.125161
  19 H :    0.286312
  20 C :   -0.562537
  21 C :   -0.097536
  22 S :    0.342551
  23 C :   -0.428804
  24 H :    0.472175
  25 H :    0.268035
  26 H :    0.298624
  27 H :    0.285508
  28 H :    0.282711
  29 H :    0.299190
  30 O :   -0.475269
  31 O :   -0.516315
  32 C :    0.627596
  33 C :   -0.743944
  34 H :    0.271603
  35 H :    0.273546
  36 H :    0.258898
  37 H :    0.282945
  38 H :    0.292673
Sum of atomic charges:    1.0000000

LOEWDIN ATOMIC CHARGES
----------------------
   0 Ir:   -0.256523
   1 C :   -0.056621
   2 C :   -0.094681
   3 C :   -0.092805
   4 C :   -0.043016
   5 C :   -0.015846
   6 N :   -0.001377
   7 C :   -0.069544
   8 C :   -0.362402
   9 H :    0.156448
  10 H :    0.132770
  11 H :    0.143924
  12 C :   -0.343659
  13 H :    0.155669
  14 H :    0.151089
  15 H :    0.137815
  16 H :    0.133228
  17 C :    0.028369
  18 C :   -0.183374
  19 H :    0.160870
  20 C :   -0.218987
  21 C :   -0.123357
  22 S :    0.499593
  23 C :   -0.259001
  24 H :    0.347206
  25 H :    0.162934
  26 H :    0.169566
  27 H :    0.182151
  28 H :    0.180003
  29 H :    0.188947
  30 O :   -0.263694
  31 O :   -0.188683
  32 C :    0.160181
  33 C :   -0.372635
  34 H :    0.163535
  35 H :    0.171029
  36 H :    0.154478
  37 H :    0.182125
  38 H :    0.184276

  Mayer bond orders larger than 0.100000
B(  0-Ir,  1-C ) :   0.4361 B(  0-Ir,  2-C ) :   0.4194 B(  0-Ir,  3-C ) :   0.4668
B(  0-Ir,  4-C ) :   0.4272 B(  0-Ir,  5-C ) :   0.3764 B(  0-Ir,  6-N ) :   0.4637
B(  0-Ir, 20-C ) :   0.4638 B(  0-Ir, 31-O ) :   0.5340 B(  1-C ,  2-C ) :   1.1272
B(  1-C ,  4-C ) :   1.2303 B(  1-C , 27-H ) :   0.9079 B(  2-C ,  5-C ) :   1.2018
B(  2-C , 28-H ) :   0.9102 B(  3-C ,  4-C ) :   1.1327 B(  3-C ,  5-C ) :   1.1826
B(  3-C , 37-H ) :   0.9125 B(  4-C , 38-H ) :   0.8995 B(  5-C , 29-H ) :   0.9007
B(  6-N ,  7-C ) :   0.8953 B(  6-N , 17-C ) :   1.6516 B(  7-C ,  8-C ) :   0.9905
B(  7-C , 12-C ) :   0.9663 B(  7-C , 13-H ) :   0.8754 B(  8-C ,  9-H ) :   0.9046
B(  8-C , 10-H ) :   0.9130 B(  8-C , 11-H ) :   0.9116 B( 12-C , 14-H ) :   0.9076
B( 12-C , 15-H ) :   0.9153 B( 12-C , 16-H ) :   0.9118 B( 17-C , 18-C ) :   1.1071
B( 17-C , 19-H ) :   0.8762 B( 18-C , 20-C ) :   1.2261 B( 18-C , 22-S ) :   1.2498
B( 20-C , 21-C ) :   1.2601 B( 20-C , 24-H ) :   0.3777 B( 21-C , 23-C ) :   1.5490
B( 21-C , 25-H ) :   0.9020 B( 22-S , 23-C ) :   1.2123 B( 23-C , 26-H ) :   0.8912
B( 24-H , 30-O ) :   0.3180 B( 30-O , 32-C ) :   1.6018 B( 31-O , 32-C ) :   1.3526
B( 32-C , 33-C ) :   0.9439 B( 33-C , 34-H ) :   0.9013 B( 33-C , 35-H ) :   0.8947
B( 33-C , 36-H ) :   0.9087

Dispersion correction           -0.030741273
FINAL SINGLE POINT ENERGY     -1288.400718412620

DIPOLE MOMENT
-------------
                                X             Y             Z
Electronic contribution:     37.79383     -72.33501      70.77043
Nuclear contribution   :    -38.43132      71.71505     -71.11198
                        -----------------------------------------
Total Dipole Moment    :     -0.63750      -0.61996      -0.34155
                        -----------------------------------------
Magnitude (a.u.)       :      0.95258
Magnitude (Debye)      :      2.42126

Rotational constants in cm-1:     0.010524     0.008935     0.008233
Rotational constants in MHz :   315.499910   267.861185   246.820310

                             ****ORCA TERMINATED NORMALLY****
TOTAL RUN TIME: 0 days 2 hours 5 minutes 36 seconds 237 msec
