                         Program Version 5.0.3 -  RELEASE  -
|  1> ! Opt PBEh-3c
|  2> %geom Constraints
|  3> { B 0 20 2.257142857142857 C }
|  4> { B 24 30 1.457142857142857 C }
|  5>     end
|  6> end
|  7> %output
|  8> xyzfile=True
|  9> end
| 10> %scf
| 11> maxiter 250
| 12> end
| 13> %output
| 14> Print[P_Hirshfeld] = 1
| 15> end
| 16> % maxcore
| 17> 4000
| 18> *xyz 1 1
| 19> Ir   0.61508327  -0.70971426   0.42962605
| 20> C    0.07035469  -2.80543840   0.35290807
| 21> C    0.09601986  -2.34356918   1.71566479
| 22> C    2.21599014  -2.11131611   0.83519181
| 23> C    1.35723734  -2.64699291  -0.19592183
| 24> C    1.44319890  -1.95644476   2.00349323
| 25> N   -1.04612279   0.15635649  -0.52808632
| 26> C   -2.31205354   0.45272530   0.16013130
| 27> C   -3.10989680   1.57237688  -0.48957258
| 28> H   -3.93344836   1.84595820   0.16857385
| 29> H   -3.55751261   1.27901116  -1.44034618
| 30> H   -2.50645640   2.46718934  -0.64429538
| 31> C   -3.13333328  -0.82525070   0.28588035
| 32> H   -2.01516555   0.77502479   1.15921431
| 33> H   -4.04108679  -0.62242245   0.85224042
| 34> H   -3.42884398  -1.20437598  -0.69323362
| 35> H   -2.59055060  -1.60927072   0.81169358
| 36> C   -0.87252616   0.38923700  -1.77309767
| 37> C    0.46793515   0.17878433  -2.26055939
| 38> H   -1.66658875   0.75980830  -2.41426477
| 39> C    1.54800170   0.33788188  -1.39306578
| 40> C    2.76188049  -0.03111897  -2.04633490
| 41> S    0.92119471  -0.38859306  -3.79538297
| 42> C    2.57393065  -0.43801357  -3.32963839
| 43> H    1.52453885   1.27400060  -0.65258498
| 44> H    3.73864228   0.05667579  -1.59325386
| 45> H    3.32101807  -0.74286318  -4.04674016
| 46> H   -0.79520932  -3.18443965  -0.17128233
| 47> H   -0.72070362  -2.37095088   2.42138511
| 48> H    1.78978063  -1.54121050   2.93905169
| 49> O    1.37157643   2.45371728   0.21342489
| 50> O    0.53557448   0.94522834   1.62484891
| 51> C    0.93686115   2.12992207   1.31890842
| 52> C    0.87528152   3.12740284   2.44152383
| 53> H    0.85392142   4.14266799   2.05511232
| 54> H    1.77014400   3.02297874   3.05812779
| 55> H    0.01650792   2.95466836   3.08669349
| 56> H    3.26879777  -1.89322764   0.73807761
| 57> H    1.65539718  -2.89721278  -1.20337061
| 58> *
| 59>
| 60>                          ****END OF INPUT****
 Total Charge           Charge          ....    1
 Multiplicity           Mult            ....    1
 Number of Electrons    NEL             ....  164
Dispersion correction           -0.031054756
FINAL SINGLE POINT ENERGY     -1288.400223914224
Dispersion correction            ... done
Dispersion correction           -0.030981924
FINAL SINGLE POINT ENERGY     -1288.400175425488
Dispersion correction            ... done
Dispersion correction           -0.030994010
FINAL SINGLE POINT ENERGY     -1288.399854296940
Dispersion correction            ... done
FINAL SINGLE POINT ENERGY     -1288.400477262716
FINAL SINGLE POINT ENERGY     -1288.400505436175
FINAL SINGLE POINT ENERGY     -1288.400531019227
FINAL SINGLE POINT ENERGY     -1288.400556854461
FINAL SINGLE POINT ENERGY     -1288.400564312999
FINAL SINGLE POINT ENERGY     -1288.400572499122
FINAL SINGLE POINT ENERGY     -1288.400581154018
FINAL SINGLE POINT ENERGY     -1288.400591276330
FINAL SINGLE POINT ENERGY     -1288.400594969689
FINAL SINGLE POINT ENERGY     -1288.400601080074
FINAL SINGLE POINT ENERGY     -1288.400604984791
FINAL SINGLE POINT ENERGY     -1288.400606829495
Dispersion correction            ... done
Dispersion correction           -0.030882661
FINAL SINGLE POINT ENERGY     -1288.400605954163
Dispersion correction            ... done
Dispersion correction           -0.030882951
FINAL SINGLE POINT ENERGY     -1288.400604307327
Dispersion correction            ... done
                    ***********************HURRAY********************

CARTESIAN COORDINATES (ANGSTROEM)
---------------------------------
  Ir     0.623080   -0.714519    0.432248
  C      0.109546   -2.819976    0.330403
  C      0.045557   -2.362031    1.693466
  C      2.213641   -2.094098    0.944225
  C      1.427494   -2.645367   -0.134009
  C      1.362448   -1.951964    2.061652
  N     -1.045562    0.142894   -0.518618
  C     -2.309300    0.419363    0.182302
  C     -3.090687    1.583426   -0.408060
  H     -3.912173    1.832879    0.262112
  H     -3.539161    1.346620   -1.373845
  H     -2.473981    2.476070   -0.514835
  C     -3.147222   -0.853145    0.234802
  H     -2.012637    0.684145    1.198002
  H     -4.046743   -0.677185    0.822968
  H     -3.457004   -1.163935   -0.763785
  H     -2.608524   -1.677383    0.699942
  C     -0.887511    0.391933   -1.763722
  C      0.444603    0.190350   -2.270998
  H     -1.691412    0.769239   -2.388409
  C      1.522966    0.268496   -1.389448
  C      2.733447   -0.070312   -2.066208
  S      0.893375   -0.270226   -3.841065
  C      2.543064   -0.378487   -3.376841
  H      1.531483    1.227986   -0.651170
  H      3.710516   -0.031309   -1.607037
  H      3.288028   -0.641211   -4.112519
  H     -0.714710   -3.215580   -0.245420
  H     -0.812221   -2.402272    2.347909
  H      1.642633   -1.529437    3.016187
  O      1.429393    2.425367    0.172918
  O      0.549134    0.962681    1.603600
  C      0.971305    2.132212    1.280304
  C      0.907802    3.160183    2.374304
  H      0.866438    4.163746    1.959660
  H      1.813391    3.087700    2.979662
  H      0.060264    2.992423    3.034997
  H      3.269334   -1.871201    0.917284
  H      1.789274   -2.888887   -1.122218

 Multiplicity           Mult            ....    1
 Number of Electrons    NEL             ....  164
 Basis Dimension        Dim             ....  358

ORBITAL ENERGIES
----------------

  NO   OCC          E(Eh)            E(eV)
   0   2.0000     -89.767593     -2442.7004
   1   2.0000     -19.623952      -533.9949
   2   2.0000     -19.595594      -533.2232
   3   2.0000     -14.839607      -403.8062
   4   2.0000     -10.682217      -290.6779
   5   2.0000     -10.660357      -290.0831
   6   2.0000     -10.633963      -289.3649
   7   2.0000     -10.630938      -289.2825
   8   2.0000     -10.630675      -289.2754
   9   2.0000     -10.627097      -289.1780
  10   2.0000     -10.624468      -289.1065
  11   2.0000     -10.622150      -289.0434
  12   2.0000     -10.614668      -288.8398
  13   2.0000     -10.612423      -288.7787
  14   2.0000     -10.589871      -288.1650
  15   2.0000     -10.587499      -288.1005
  16   2.0000     -10.555892      -287.2404
  17   2.0000     -10.551306      -287.1156
  18   2.0000     -10.534778      -286.6659
  19   2.0000      -8.406986      -228.7657
  20   2.0000      -6.296904      -171.3475
  21   2.0000      -6.293286      -171.2490
  22   2.0000      -6.291939      -171.2124
  23   2.0000      -4.025213      -109.5316
  24   2.0000      -2.343458       -63.7687
  25   2.0000      -2.310321       -62.8670
  26   2.0000      -2.308773       -62.8249
  27   2.0000      -1.307966       -35.5916
  28   2.0000      -1.212733       -33.0001
  29   2.0000      -1.209599       -32.9149
  30   2.0000      -1.167450       -31.7679
  31   2.0000      -1.130560       -30.7641
  32   2.0000      -1.027064       -27.9478
  33   2.0000      -0.981084       -26.6967
  34   2.0000      -0.973238       -26.4832
  35   2.0000      -0.970333       -26.4041
  36   2.0000      -0.962039       -26.1784
  37   2.0000      -0.928454       -25.2645
  38   2.0000      -0.902002       -24.5447
  39   2.0000      -0.875200       -23.8154
  40   2.0000      -0.800212       -21.7749
  41   2.0000      -0.784388       -21.3443
  42   2.0000      -0.783357       -21.3162
  43   2.0000      -0.782016       -21.2797
  44   2.0000      -0.767848       -20.8942
  45   2.0000      -0.755159       -20.5489
  46   2.0000      -0.743518       -20.2322
  47   2.0000      -0.723762       -19.6946
  48   2.0000      -0.691664       -18.8211
  49   2.0000      -0.676512       -18.4088
  50   2.0000      -0.664930       -18.0937
  51   2.0000      -0.649710       -17.6795
  52   2.0000      -0.646970       -17.6050
  53   2.0000      -0.636575       -17.3221
  54   2.0000      -0.634562       -17.2673
  55   2.0000      -0.629473       -17.1288
  56   2.0000      -0.622760       -16.9461
  57   2.0000      -0.613220       -16.6866
  58   2.0000      -0.603347       -16.4179
  59   2.0000      -0.602854       -16.4045
  60   2.0000      -0.600504       -16.3406
  61   2.0000      -0.591932       -16.1073
  62   2.0000      -0.581005       -15.8100
  63   2.0000      -0.572705       -15.5841
  64   2.0000      -0.564269       -15.3545
  65   2.0000      -0.557625       -15.1738
  66   2.0000      -0.551512       -15.0074
  67   2.0000      -0.548235       -14.9182
  68   2.0000      -0.540504       -14.7079
  69   2.0000      -0.536659       -14.6032
  70   2.0000      -0.528141       -14.3714
  71   2.0000      -0.519129       -14.1262
  72   2.0000      -0.515007       -14.0141
  73   2.0000      -0.500853       -13.6289
  74   2.0000      -0.488103       -13.2820
  75   2.0000      -0.481290       -13.0966
  76   2.0000      -0.475153       -12.9296
  77   2.0000      -0.445260       -12.1161
  78   2.0000      -0.443579       -12.0704
  79   2.0000      -0.423423       -11.5219
  80   2.0000      -0.416841       -11.3428
  81   2.0000      -0.399609       -10.8739
  82   0.0000      -0.206695        -5.6245
  83   0.0000      -0.149771        -4.0755
  84   0.0000      -0.141691        -3.8556
  85   0.0000      -0.094245        -2.5645
  86   0.0000      -0.076619        -2.0849

MULLIKEN ATOMIC CHARGES
-----------------------
   0 Ir:    0.606944
   1 C :   -0.220296
   2 C :   -0.275269
   3 C :   -0.251966
   4 C :   -0.238427
   5 C :   -0.160254
   6 N :   -0.426005
   7 C :   -0.127747
   8 C :   -0.685020
   9 H :    0.270446
  10 H :    0.223921
  11 H :    0.259708
  12 C :   -0.634956
  13 H :    0.283305
  14 H :    0.262335
  15 H :    0.231143
  16 H :    0.232362
  17 C :    0.072095
  18 C :   -0.148367
  19 H :    0.289379
  20 C :   -0.520738
  21 C :   -0.108998
  22 S :    0.327830
  23 C :   -0.433178
  24 H :    0.487347
  25 H :    0.267993
  26 H :    0.299079
  27 H :    0.287999
  28 H :    0.287775
  29 H :    0.304014
  30 O :   -0.474076
  31 O :   -0.532833
  32 C :    0.617597
  33 C :   -0.744182
  34 H :    0.269407
  35 H :    0.267595
  36 H :    0.253763
  37 H :    0.287451
  38 H :    0.292826
Sum of atomic charges:    1.0000000

LOEWDIN ATOMIC CHARGES
----------------------
   0 Ir:   -0.244316
   1 C :   -0.047046
   2 C :   -0.079738
   3 C :   -0.073464
   4 C :   -0.051415
   5 C :   -0.016862
   6 N :   -0.000127
   7 C :   -0.070145
   8 C :   -0.362927
   9 H :    0.156837
  10 H :    0.132792
  11 H :    0.146328
  12 C :   -0.343426
  13 H :    0.156875
  14 H :    0.152334
  15 H :    0.137223
  16 H :    0.133404
  17 C :    0.031937
  18 C :   -0.174346
  19 H :    0.162246
  20 C :   -0.207943
  21 C :   -0.123955
  22 S :    0.491327
  23 C :   -0.262531
  24 H :    0.311671
  25 H :    0.163592
  26 H :    0.169209
  27 H :    0.183350
  28 H :    0.183094
  29 H :    0.191975
  30 O :   -0.271075
  31 O :   -0.202875
  32 C :    0.152770
  33 C :   -0.375073
  34 H :    0.159999
  35 H :    0.167827
  36 H :    0.153409
  37 H :    0.184227
  38 H :    0.184838

  Mayer bond orders larger than 0.100000
B(  0-Ir,  1-C ) :   0.4190 B(  0-Ir,  2-C ) :   0.4782 B(  0-Ir,  3-C ) :   0.4635
B(  0-Ir,  4-C ) :   0.4405 B(  0-Ir,  5-C ) :   0.3952 B(  0-Ir,  6-N ) :   0.4615
B(  0-Ir, 20-C ) :   0.3522 B(  0-Ir, 31-O ) :   0.5651 B(  1-C ,  2-C ) :   1.1257
B(  1-C ,  4-C ) :   1.2433 B(  1-C , 27-H ) :   0.9055 B(  2-C ,  5-C ) :   1.1592
B(  2-C , 28-H ) :   0.9092 B(  3-C ,  4-C ) :   1.1136 B(  3-C ,  5-C ) :   1.2145
B(  3-C , 37-H ) :   0.9092 B(  4-C , 38-H ) :   0.9001 B(  5-C , 29-H ) :   0.8986
B(  6-N ,  7-C ) :   0.8924 B(  6-N , 17-C ) :   1.6734 B(  7-C ,  8-C ) :   0.9908
B(  7-C , 12-C ) :   0.9673 B(  7-C , 13-H ) :   0.8731 B(  8-C ,  9-H ) :   0.9042
B(  8-C , 10-H ) :   0.9132 B(  8-C , 11-H ) :   0.9093 B( 12-C , 14-H ) :   0.9069
B( 12-C , 15-H ) :   0.9156 B( 12-C , 16-H ) :   0.9122 B( 17-C , 18-C ) :   1.0793
B( 17-C , 19-H ) :   0.8755 B( 18-C , 20-C ) :   1.2526 B( 18-C , 22-S ) :   1.2535
B( 20-C , 21-C ) :   1.2577 B( 20-C , 24-H ) :   0.4442 B( 21-C , 23-C ) :   1.5541
B( 21-C , 25-H ) :   0.9033 B( 22-S , 23-C ) :   1.2029 B( 23-C , 26-H ) :   0.8912
B( 24-H , 30-O ) :   0.2675 B( 30-O , 32-C ) :   1.6715 B( 31-O , 32-C ) :   1.2970
B( 32-C , 33-C ) :   0.9449 B( 33-C , 34-H ) :   0.9046 B( 33-C , 35-H ) :   0.8980
B( 33-C , 36-H ) :   0.9094

Dispersion correction           -0.030883125
FINAL SINGLE POINT ENERGY     -1288.400603268103

DIPOLE MOMENT
-------------
                                X             Y             Z
Electronic contribution:     38.69876     -68.76173      71.61673
Nuclear contribution   :    -39.32918      67.72555     -72.02473
                        -----------------------------------------
Total Dipole Moment    :     -0.63042      -1.03618      -0.40800
                        -----------------------------------------
Magnitude (a.u.)       :      1.27967
Magnitude (Debye)      :      3.25267

Rotational constants in cm-1:     0.010604     0.009117     0.008217
Rotational constants in MHz :   317.900149   273.326564   246.324710

                             ****ORCA TERMINATED NORMALLY****
TOTAL RUN TIME: 0 days 2 hours 8 minutes 56 seconds 949 msec
