                         Program Version 5.0.3 -  RELEASE  -
|  1> ! Opt PBEh-3c
|  2> %geom Constraints
|  3> { B 0 20 2.342857142857143 C }
|  4> { B 24 30 1.4 C }
|  5>     end
|  6> end
|  7> %output
|  8> xyzfile=True
|  9> end
| 10> %scf
| 11> maxiter 250
| 12> end
| 13> %output
| 14> Print[P_Hirshfeld] = 1
| 15> end
| 16> % maxcore
| 17> 4000
| 18> *xyz 1 1
| 19> Ir   0.59877282  -0.71981799   0.45965007
| 20> C    0.04809100  -2.80776872   0.36746011
| 21> C    0.08178094  -2.34856703   1.73215702
| 22> C    2.19906988  -2.12714337   0.84547000
| 23> C    1.33266861  -2.65083655  -0.18593319
| 24> C    1.43513978  -1.97500271   2.01828917
| 25> N   -1.04439571   0.15122432  -0.52071270
| 26> C   -2.31789813   0.44904921   0.15434196
| 27> C   -3.11642715   1.55728658  -0.51395234
| 28> H   -3.94478065   1.83568473   0.13612368
| 29> H   -3.55768706   1.25086164  -1.46359786
| 30> H   -2.51605473   2.45278861  -0.67654203
| 31> C   -3.13567403  -0.83000384   0.28980826
| 32> H   -2.03095225   0.78556208   1.15181722
| 33> H   -4.05094242  -0.62228897   0.84216138
| 34> H   -3.41827747  -1.22489992  -0.68691159
| 35> H   -2.59718155  -1.60415041   0.83431259
| 36> C   -0.86103160   0.38023426  -1.76528622
| 37> C    0.48091501   0.18333766  -2.25507137
| 38> H   -1.65627154   0.74083496  -2.41109962
| 39> C    1.57216585   0.38703817  -1.41625187
| 40> C    2.77973016   0.02098240  -2.07761588
| 41> S    0.92025802  -0.40242378  -3.79196518
| 42> C    2.57873040  -0.41497313  -3.35057290
| 43> H    1.53354501   1.30845465  -0.62968716
| 44> H    3.76201061   0.13126625  -1.64167377
| 45> H    3.32055335  -0.72241850  -4.07209668
| 46> H   -0.82199646  -3.17914851  -0.15467678
| 47> H   -0.73169505  -2.37672635   2.44178677
| 48> H    1.78871492  -1.56841599   2.95500199
| 49> O    1.39339376   2.42699017   0.22438545
| 50> O    0.53378765   0.94059542   1.64556323
| 51> C    0.94983921   2.11678483   1.33245966
| 52> C    0.89802669   3.12623046   2.44361206
| 53> H    0.87481945   4.13724235   2.04622154
| 54> H    1.79830080   3.02805262   3.05342519
| 55> H    0.04451495   2.96108063   3.09750161
| 56> H    3.25075692  -1.90674963   0.74042165
| 57> H    1.62505007  -2.89105655  -1.19758342
| 58> *
| 59>
| 60>                          ****END OF INPUT****
 Total Charge           Charge          ....    1
 Multiplicity           Mult            ....    1
 Number of Electrons    NEL             ....  164
Dispersion correction           -0.030927040
FINAL SINGLE POINT ENERGY     -1288.399357911210
Dispersion correction            ... done
Dispersion correction           -0.031008957
FINAL SINGLE POINT ENERGY     -1288.396443923679
Dispersion correction            ... done
Dispersion correction           -0.030911056
FINAL SINGLE POINT ENERGY     -1288.399488780225
Dispersion correction            ... done
FINAL SINGLE POINT ENERGY     -1288.397740664473
FINAL SINGLE POINT ENERGY     -1288.399563104251
FINAL SINGLE POINT ENERGY     -1288.399596264586
FINAL SINGLE POINT ENERGY     -1288.399622450572
FINAL SINGLE POINT ENERGY     -1288.399648791224
FINAL SINGLE POINT ENERGY     -1288.399652867093
FINAL SINGLE POINT ENERGY     -1288.399656453954
FINAL SINGLE POINT ENERGY     -1288.399658482467
FINAL SINGLE POINT ENERGY     -1288.399661781192
FINAL SINGLE POINT ENERGY     -1288.399665235361
FINAL SINGLE POINT ENERGY     -1288.399665909141
Dispersion correction            ... done
Dispersion correction           -0.030751097
FINAL SINGLE POINT ENERGY     -1288.399665338671
Dispersion correction            ... done
Dispersion correction           -0.030747351
FINAL SINGLE POINT ENERGY     -1288.399664793093
Dispersion correction            ... done
                    ***********************HURRAY********************

CARTESIAN COORDINATES (ANGSTROEM)
---------------------------------
  Ir     0.608990   -0.723703    0.462600
  C      0.086324   -2.820857    0.351611
  C      0.029773   -2.359897    1.714841
  C      2.197382   -2.110969    0.960451
  C      1.402923   -2.651860   -0.117647
  C      1.354069   -1.964651    2.081191
  N     -1.042486    0.136748   -0.511513
  C     -2.314784    0.410797    0.176510
  C     -3.094541    1.570365   -0.424988
  H     -3.921306    1.821402    0.238080
  H     -3.535792    1.328141   -1.392745
  H     -2.479120    2.463855   -0.531997
  C     -3.150132   -0.863366    0.225900
  H     -2.029768    0.680848    1.194274
  H     -4.058469   -0.686309    0.800069
  H     -3.445080   -1.181430   -0.774920
  H     -2.616458   -1.683369    0.704086
  C     -0.876399    0.382756   -1.756340
  C      0.456341    0.196769   -2.268484
  H     -1.683072    0.749207   -2.384427
  C      1.548781    0.315745   -1.414983
  C      2.750825   -0.019685   -2.102358
  S      0.886357   -0.278747   -3.844106
  C      2.543163   -0.352794   -3.405608
  H      1.544839    1.260215   -0.625048
  H      3.734885    0.039593   -1.660644
  H      3.280818   -0.616811   -4.148223
  H     -0.742846   -3.209335   -0.221994
  H     -0.825489   -2.396704    2.372973
  H      1.641156   -1.547234    3.035918
  O      1.457388    2.397620    0.186532
  O      0.545956    0.960003    1.623576
  C      0.985851    2.119538    1.294716
  C      0.930754    3.159882    2.376127
  H      0.891671    4.158897    1.950336
  H      1.839032    3.091236    2.977979
  H      0.085395    3.002413    3.041943
  H      3.253009   -1.888379    0.925984
  H      1.759435   -2.890741   -1.108934

 Multiplicity           Mult            ....    1
 Number of Electrons    NEL             ....  164
 Basis Dimension        Dim             ....  358

ORBITAL ENERGIES
----------------

  NO   OCC          E(Eh)            E(eV)
   0   2.0000     -89.762956     -2442.5742
   1   2.0000     -19.626872      -534.0743
   2   2.0000     -19.599200      -533.3213
   3   2.0000     -14.838008      -403.7627
   4   2.0000     -10.685914      -290.7785
   5   2.0000     -10.659237      -290.0526
   6   2.0000     -10.632215      -289.3173
   7   2.0000     -10.631889      -289.3084
   8   2.0000     -10.629200      -289.2352
   9   2.0000     -10.628409      -289.2137
  10   2.0000     -10.626841      -289.1710
  11   2.0000     -10.624153      -289.0979
  12   2.0000     -10.614559      -288.8368
  13   2.0000     -10.609638      -288.7029
  14   2.0000     -10.585717      -288.0520
  15   2.0000     -10.584114      -288.0084
  16   2.0000     -10.555842      -287.2391
  17   2.0000     -10.551131      -287.1109
  18   2.0000     -10.536616      -286.7159
  19   2.0000      -8.402373      -228.6402
  20   2.0000      -6.292325      -171.2229
  21   2.0000      -6.288722      -171.1248
  22   2.0000      -6.287264      -171.0851
  23   2.0000      -4.026368      -109.5630
  24   2.0000      -2.344910       -63.8083
  25   2.0000      -2.311364       -62.8954
  26   2.0000      -2.309634       -62.8483
  27   2.0000      -1.312069       -35.7032
  28   2.0000      -1.214781       -33.0559
  29   2.0000      -1.209823       -32.9210
  30   2.0000      -1.169095       -31.8127
  31   2.0000      -1.126654       -30.6578
  32   2.0000      -1.025445       -27.9038
  33   2.0000      -0.983028       -26.7496
  34   2.0000      -0.974386       -26.5144
  35   2.0000      -0.966328       -26.2951
  36   2.0000      -0.959244       -26.1024
  37   2.0000      -0.931081       -25.3360
  38   2.0000      -0.901777       -24.5386
  39   2.0000      -0.873125       -23.7589
  40   2.0000      -0.798130       -21.7182
  41   2.0000      -0.784896       -21.3581
  42   2.0000      -0.784031       -21.3346
  43   2.0000      -0.781030       -21.2529
  44   2.0000      -0.769148       -20.9296
  45   2.0000      -0.757146       -20.6030
  46   2.0000      -0.742987       -20.2177
  47   2.0000      -0.722782       -19.6679
  48   2.0000      -0.691643       -18.8206
  49   2.0000      -0.677547       -18.4370
  50   2.0000      -0.663989       -18.0681
  51   2.0000      -0.651219       -17.7206
  52   2.0000      -0.647915       -17.6307
  53   2.0000      -0.637548       -17.3486
  54   2.0000      -0.636498       -17.3200
  55   2.0000      -0.631526       -17.1847
  56   2.0000      -0.622715       -16.9449
  57   2.0000      -0.611082       -16.6284
  58   2.0000      -0.604809       -16.4577
  59   2.0000      -0.604147       -16.4397
  60   2.0000      -0.598075       -16.2745
  61   2.0000      -0.590204       -16.0603
  62   2.0000      -0.578341       -15.7374
  63   2.0000      -0.569605       -15.4997
  64   2.0000      -0.563313       -15.3285
  65   2.0000      -0.558886       -15.2081
  66   2.0000      -0.551832       -15.0161
  67   2.0000      -0.548214       -14.9177
  68   2.0000      -0.540113       -14.6972
  69   2.0000      -0.535759       -14.5788
  70   2.0000      -0.528107       -14.3705
  71   2.0000      -0.519181       -14.1276
  72   2.0000      -0.514847       -14.0097
  73   2.0000      -0.502899       -13.6846
  74   2.0000      -0.490496       -13.3471
  75   2.0000      -0.480578       -13.0772
  76   2.0000      -0.470889       -12.8135
  77   2.0000      -0.446783       -12.1576
  78   2.0000      -0.444257       -12.0889
  79   2.0000      -0.421467       -11.4687
  80   2.0000      -0.417651       -11.3649
  81   2.0000      -0.400712       -10.9039
  82   0.0000      -0.202921        -5.5218
  83   0.0000      -0.154358        -4.2003
  84   0.0000      -0.141401        -3.8477
  85   0.0000      -0.092689        -2.5222
  86   0.0000      -0.074733        -2.0336

MULLIKEN ATOMIC CHARGES
-----------------------
   0 Ir:    0.610096
   1 C :   -0.218503
   2 C :   -0.282099
   3 C :   -0.247138
   4 C :   -0.238670
   5 C :   -0.162377
   6 N :   -0.430330
   7 C :   -0.126728
   8 C :   -0.685252
   9 H :    0.270218
  10 H :    0.224458
  11 H :    0.259119
  12 C :   -0.635147
  13 H :    0.281730
  14 H :    0.262342
  15 H :    0.231292
  16 H :    0.231447
  17 C :    0.070861
  18 C :   -0.162522
  19 H :    0.288254
  20 C :   -0.486677
  21 C :   -0.124496
  22 S :    0.320339
  23 C :   -0.430476
  24 H :    0.492208
  25 H :    0.265461
  26 H :    0.297579
  27 H :    0.289157
  28 H :    0.289023
  29 H :    0.304465
  30 O :   -0.481696
  31 O :   -0.531428
  32 C :    0.622060
  33 C :   -0.744793
  34 H :    0.270438
  35 H :    0.268714
  36 H :    0.255216
  37 H :    0.289579
  38 H :    0.294274
Sum of atomic charges:    1.0000000

LOEWDIN ATOMIC CHARGES
----------------------
   0 Ir:   -0.235656
   1 C :   -0.046088
   2 C :   -0.075350
   3 C :   -0.068693
   4 C :   -0.049792
   5 C :   -0.018086
   6 N :   -0.005657
   7 C :   -0.069716
   8 C :   -0.362991
   9 H :    0.156631
  10 H :    0.132965
  11 H :    0.146056
  12 C :   -0.343610
  13 H :    0.156043
  14 H :    0.152251
  15 H :    0.137311
  16 H :    0.132950
  17 C :    0.033480
  18 C :   -0.183877
  19 H :    0.161452
  20 C :   -0.206754
  21 C :   -0.131840
  22 S :    0.481481
  23 C :   -0.261789
  24 H :    0.313392
  25 H :    0.162079
  26 H :    0.168358
  27 H :    0.183988
  28 H :    0.183804
  29 H :    0.192275
  30 O :   -0.272372
  31 O :   -0.200129
  32 C :    0.157693
  33 C :   -0.374474
  34 H :    0.160769
  35 H :    0.168620
  36 H :    0.154102
  37 H :    0.185266
  38 H :    0.185909

  Mayer bond orders larger than 0.100000
B(  0-Ir,  1-C ) :   0.4206 B(  0-Ir,  2-C ) :   0.5008 B(  0-Ir,  3-C ) :   0.4619
B(  0-Ir,  4-C ) :   0.4459 B(  0-Ir,  5-C ) :   0.3993 B(  0-Ir,  6-N ) :   0.4645
B(  0-Ir, 20-C ) :   0.3193 B(  0-Ir, 31-O ) :   0.5620 B(  1-C ,  2-C ) :   1.1222
B(  1-C ,  4-C ) :   1.2424 B(  1-C , 27-H ) :   0.9048 B(  2-C ,  5-C ) :   1.1498
B(  2-C , 28-H ) :   0.9087 B(  3-C ,  4-C ) :   1.1119 B(  3-C ,  5-C ) :   1.2206
B(  3-C , 37-H ) :   0.9079 B(  4-C , 38-H ) :   0.9002 B(  5-C , 29-H ) :   0.8984
B(  6-N ,  7-C ) :   0.8921 B(  6-N , 17-C ) :   1.6731 B(  7-C ,  8-C ) :   0.9910
B(  7-C , 12-C ) :   0.9678 B(  7-C , 13-H ) :   0.8744 B(  8-C ,  9-H ) :   0.9043
B(  8-C , 10-H ) :   0.9131 B(  8-C , 11-H ) :   0.9095 B( 12-C , 14-H ) :   0.9070
B( 12-C , 15-H ) :   0.9156 B( 12-C , 16-H ) :   0.9124 B( 17-C , 18-C ) :   1.0799
B( 17-C , 19-H ) :   0.8754 B( 18-C , 20-C ) :   1.2717 B( 18-C , 22-S ) :   1.2369
B( 20-C , 21-C ) :   1.2721 B( 20-C , 24-H ) :   0.4286 B( 21-C , 23-C ) :   1.5470
B( 21-C , 25-H ) :   0.9045 B( 22-S , 23-C ) :   1.2082 B( 23-C , 26-H ) :   0.8917
B( 24-H , 30-O ) :   0.2736 B( 30-O , 32-C ) :   1.6516 B( 31-O , 32-C ) :   1.3068
B( 32-C , 33-C ) :   0.9466 B( 33-C , 34-H ) :   0.9039 B( 33-C , 35-H ) :   0.8972
B( 33-C , 36-H ) :   0.9090

Dispersion correction           -0.030745528
FINAL SINGLE POINT ENERGY     -1288.399665124486

DIPOLE MOMENT
-------------
                                X             Y             Z
Electronic contribution:     37.29750     -69.53184      74.57836
Nuclear contribution   :    -37.92414      68.52000     -74.85740
                        -----------------------------------------
Total Dipole Moment    :     -0.62664      -1.01184      -0.27903
                        -----------------------------------------
Magnitude (a.u.)       :      1.22244
Magnitude (Debye)      :      3.10719

Rotational constants in cm-1:     0.010580     0.009006     0.008180
Rotational constants in MHz :   317.176232   269.995528   245.238210

                             ****ORCA TERMINATED NORMALLY****
TOTAL RUN TIME: 0 days 2 hours 8 minutes 21 seconds 629 msec
