                         Program Version 5.0.3 -  RELEASE  -
|  1> ! Opt PBEh-3c
|  2> %geom Constraints
|  3> { B 0 20 2.6 C }
|  4> { B 24 30 1.3285714285714287 C }
|  5>     end
|  6> end
|  7> %output
|  8> xyzfile=True
|  9> end
| 10> %scf
| 11> maxiter 250
| 12> end
| 13> %output
| 14> Print[P_Hirshfeld] = 1
| 15> end
| 16> % maxcore
| 17> 4000
| 18> *xyz 1 1
| 19> Ir   0.56173292  -0.74392142   0.51744615
| 20> C    0.00428842  -2.81804945   0.37663673
| 21> C    0.07421963  -2.38097908   1.75004331
| 22> C    2.16936956  -2.16076896   0.82266209
| 23> C    1.27488529  -2.65173001  -0.20206466
| 24> C    1.44173835  -2.03291023   2.01781358
| 25> N   -1.03873070   0.15129793  -0.50270817
| 26> C   -2.32236467   0.47565480   0.14205160
| 27> C   -3.12537192   1.53440458  -0.59700164
| 28> H   -3.96241416   1.84077822   0.02887691
| 29> H   -3.55459428   1.16930177  -1.53138154
| 30> H   -2.53397429   2.42634454  -0.80612604
| 31> C   -3.13169516  -0.79880389   0.34824067
| 32> H   -2.04802250   0.87533085   1.11998089
| 33> H   -4.05734078  -0.56330230   0.87127570
| 34> H   -3.39607264  -1.25880961  -0.60487880
| 35> H   -2.59836382  -1.53134788   0.95248106
| 36> C   -0.82637910   0.35542834  -1.74659950
| 37> C    0.52307413   0.16393991  -2.22633982
| 38> H   -1.61376537   0.69758142  -2.41268183
| 39> C    1.63309688   0.53286139  -1.47805000
| 40> C    2.82881798   0.15692817  -2.15220190
| 41> S    0.93218418  -0.55834605  -3.72392763
| 42> C    2.60357434  -0.42828192  -3.36033647
| 43> H    1.54409393   1.41562996  -0.62890146
| 44> H    3.82083620   0.36418421  -1.77763979
| 45> H    3.33448874  -0.77446243  -4.07558681
| 46> H   -0.88183620  -3.17079404  -0.13122638
| 47> H   -0.72289334  -2.41920811   2.47809066
| 48> H    1.82191910  -1.65471874   2.95587550
| 49> O    1.35818696   2.40960789   0.25467750
| 50> O    0.53936077   0.91338792   1.69392386
| 51> C    0.94010331   2.09329180   1.37132462
| 52> C    0.90322553   3.10142325   2.48334275
| 53> H    0.85327155   4.11154152   2.08601933
| 54> H    1.82216883   3.01881468   3.06721902
| 55> H    0.07140027   2.92368204   3.16134619
| 56> H    3.21548659  -1.92861635   0.68779586
| 57> H    1.54166550  -2.85717473  -1.22873142
| 58> *
| 59>
| 60>                          ****END OF INPUT****
 Total Charge           Charge          ....    1
 Multiplicity           Mult            ....    1
 Number of Electrons    NEL             ....  164
Dispersion correction           -0.030727743
FINAL SINGLE POINT ENERGY     -1288.390939587730
Dispersion correction            ... done
Dispersion correction           -0.030719430
FINAL SINGLE POINT ENERGY     -1288.390965518982
Dispersion correction            ... done
Dispersion correction           -0.030712740
FINAL SINGLE POINT ENERGY     -1288.390971426892
Dispersion correction            ... done
FINAL SINGLE POINT ENERGY     -1288.390976305347
FINAL SINGLE POINT ENERGY     -1288.390980340160
FINAL SINGLE POINT ENERGY     -1288.390987766147
FINAL SINGLE POINT ENERGY     -1288.390992929991
Dispersion correction            ... done
Dispersion correction           -0.030664609
FINAL SINGLE POINT ENERGY     -1288.391000903881
Dispersion correction            ... done
Dispersion correction           -0.030658669
FINAL SINGLE POINT ENERGY     -1288.391005227431
Dispersion correction            ... done
                    ***********************HURRAY********************

CARTESIAN COORDINATES (ANGSTROEM)
---------------------------------
  Ir     0.561234   -0.745821    0.530131
  C      0.006309   -2.820688    0.387488
  C      0.057597   -2.380472    1.760492
  C      2.165521   -2.161670    0.861018
  C      1.284558   -2.655015   -0.174261
  C      1.421212   -2.031246    2.045703
  N     -1.035791    0.142844   -0.498578
  C     -2.322574    0.458435    0.145534
  C     -3.115625    1.538020   -0.574371
  H     -3.952710    1.837764    0.054715
  H     -3.544369    1.195617   -1.517449
  H     -2.516407    2.429155   -0.763334
  C     -3.139084   -0.816694    0.316987
  H     -2.053766    0.834720    1.134157
  H     -4.067163   -0.589665    0.839547
  H     -3.399033   -1.253297   -0.648281
  H     -2.612319   -1.565618    0.906711
  C     -0.828717    0.347903   -1.744063
  C      0.516793    0.167524   -2.234382
  H     -1.622950    0.684000   -2.405163
  C      1.629865    0.511251   -1.479297
  C      2.822361    0.153936   -2.167288
  S      0.920290   -0.506927   -3.755784
  C      2.591904   -0.392295   -3.393372
  H      1.549989    1.397065   -0.613771
  H      3.816153    0.347088   -1.789916
  H      3.320081   -0.717085   -4.121341
  H     -0.872296   -3.175625   -0.131759
  H     -0.749382   -2.417362    2.477637
  H      1.788424   -1.650938    2.988083
  O      1.387299    2.394557    0.248576
  O      0.539022    0.921746    1.694611
  C      0.954686    2.093253    1.365213
  C      0.919686    3.114276    2.464907
  H      0.856592    4.119080    2.055856
  H      1.846512    3.047904    3.038326
  H      0.097051    2.937060    3.153827
  H      3.213698   -1.931106    0.740542
  H      1.564719   -2.862485   -1.196912

 Multiplicity           Mult            ....    1
 Number of Electrons    NEL             ....  164
 Basis Dimension        Dim             ....  358

ORBITAL ENERGIES
----------------

  NO   OCC          E(Eh)            E(eV)
   0   2.0000     -89.753732     -2442.3232
   1   2.0000     -19.629676      -534.1506
   2   2.0000     -19.596679      -533.2527
   3   2.0000     -14.837554      -403.7504
   4   2.0000     -10.688559      -290.8505
   5   2.0000     -10.658950      -290.0448
   6   2.0000     -10.638461      -289.4872
   7   2.0000     -10.636779      -289.4415
   8   2.0000     -10.635378      -289.4033
   9   2.0000     -10.633844      -289.3616
  10   2.0000     -10.633151      -289.3428
  11   2.0000     -10.622140      -289.0431
  12   2.0000     -10.615727      -288.8686
  13   2.0000     -10.604265      -288.5567
  14   2.0000     -10.576295      -287.7956
  15   2.0000     -10.574033      -287.7341
  16   2.0000     -10.556865      -287.2669
  17   2.0000     -10.551540      -287.1220
  18   2.0000     -10.536724      -286.7188
  19   2.0000      -8.393127      -228.3886
  20   2.0000      -6.283194      -170.9744
  21   2.0000      -6.279601      -170.8766
  22   2.0000      -6.277839      -170.8287
  23   2.0000      -4.031668      -109.7073
  24   2.0000      -2.351304       -63.9822
  25   2.0000      -2.316707       -63.0408
  26   2.0000      -2.314627       -62.9842
  27   2.0000      -1.313857       -35.7519
  28   2.0000      -1.217925       -33.1414
  29   2.0000      -1.208723       -32.8910
  30   2.0000      -1.175775       -31.9945
  31   2.0000      -1.118332       -30.4314
  32   2.0000      -1.023889       -27.8614
  33   2.0000      -0.990618       -26.9561
  34   2.0000      -0.980625       -26.6842
  35   2.0000      -0.959373       -26.1059
  36   2.0000      -0.952441       -25.9172
  37   2.0000      -0.932018       -25.3615
  38   2.0000      -0.902721       -24.5643
  39   2.0000      -0.869795       -23.6683
  40   2.0000      -0.795026       -21.6337
  41   2.0000      -0.791262       -21.5313
  42   2.0000      -0.789622       -21.4867
  43   2.0000      -0.778139       -21.1742
  44   2.0000      -0.772370       -21.0172
  45   2.0000      -0.761698       -20.7268
  46   2.0000      -0.742294       -20.1989
  47   2.0000      -0.722510       -19.6605
  48   2.0000      -0.693338       -18.8667
  49   2.0000      -0.674598       -18.3568
  50   2.0000      -0.663544       -18.0559
  51   2.0000      -0.653427       -17.7807
  52   2.0000      -0.649988       -17.6871
  53   2.0000      -0.641834       -17.4652
  54   2.0000      -0.640094       -17.4178
  55   2.0000      -0.634153       -17.2562
  56   2.0000      -0.623622       -16.9696
  57   2.0000      -0.611476       -16.6391
  58   2.0000      -0.610842       -16.6219
  59   2.0000      -0.606950       -16.5160
  60   2.0000      -0.594318       -16.1722
  61   2.0000      -0.585083       -15.9209
  62   2.0000      -0.572886       -15.5890
  63   2.0000      -0.566723       -15.4213
  64   2.0000      -0.560973       -15.2649
  65   2.0000      -0.556104       -15.1324
  66   2.0000      -0.552789       -15.0421
  67   2.0000      -0.548424       -14.9234
  68   2.0000      -0.539897       -14.6913
  69   2.0000      -0.533378       -14.5139
  70   2.0000      -0.526904       -14.3378
  71   2.0000      -0.520975       -14.1765
  72   2.0000      -0.516376       -14.0513
  73   2.0000      -0.509091       -13.8531
  74   2.0000      -0.493530       -13.4296
  75   2.0000      -0.480155       -13.0657
  76   2.0000      -0.461289       -12.5523
  77   2.0000      -0.453032       -12.3276
  78   2.0000      -0.442667       -12.0456
  79   2.0000      -0.419289       -11.4094
  80   2.0000      -0.416319       -11.3286
  81   2.0000      -0.401629       -10.9289
  82   0.0000      -0.200620        -5.4592
  83   0.0000      -0.166036        -4.5181
  84   0.0000      -0.141261        -3.8439
  85   0.0000      -0.093997        -2.5578
  86   0.0000      -0.075521        -2.0550

MULLIKEN ATOMIC CHARGES
-----------------------
   0 Ir:    0.623143
   1 C :   -0.208808
   2 C :   -0.297008
   3 C :   -0.229879
   4 C :   -0.242358
   5 C :   -0.168738
   6 N :   -0.437097
   7 C :   -0.118886
   8 C :   -0.692572
   9 H :    0.271633
  10 H :    0.226524
  11 H :    0.259903
  12 C :   -0.638130
  13 H :    0.278869
  14 H :    0.264352
  15 H :    0.231161
  16 H :    0.230853
  17 C :    0.067845
  18 C :   -0.217972
  19 H :    0.288935
  20 C :   -0.389725
  21 C :   -0.156997
  22 S :    0.291626
  23 C :   -0.424130
  24 H :    0.501992
  25 H :    0.261994
  26 H :    0.294279
  27 H :    0.293559
  28 H :    0.294649
  29 H :    0.306700
  30 O :   -0.495015
  31 O :   -0.537778
  32 C :    0.622432
  33 C :   -0.746380
  34 H :    0.270991
  35 H :    0.268609
  36 H :    0.255382
  37 H :    0.297629
  38 H :    0.298410
Sum of atomic charges:    1.0000000

LOEWDIN ATOMIC CHARGES
----------------------
   0 Ir:   -0.204471
   1 C :   -0.040506
   2 C :   -0.055075
   3 C :   -0.045939
   4 C :   -0.050342
   5 C :   -0.027654
   6 N :   -0.016442
   7 C :   -0.068275
   8 C :   -0.364460
   9 H :    0.156935
  10 H :    0.133924
  11 H :    0.146517
  12 C :   -0.343844
  13 H :    0.155013
  14 H :    0.152868
  15 H :    0.137386
  16 H :    0.133239
  17 C :    0.037383
  18 C :   -0.202978
  19 H :    0.161308
  20 C :   -0.195913
  21 C :   -0.151586
  22 S :    0.451313
  23 C :   -0.260976
  24 H :    0.299182
  25 H :    0.159424
  26 H :    0.166384
  27 H :    0.186398
  28 H :    0.186731
  29 H :    0.193727
  30 O :   -0.276700
  31 O :   -0.201813
  32 C :    0.163290
  33 C :   -0.374972
  34 H :    0.161061
  35 H :    0.168709
  36 H :    0.154054
  37 H :    0.188919
  38 H :    0.188178

  Mayer bond orders larger than 0.100000
B(  0-Ir,  1-C ) :   0.4250 B(  0-Ir,  2-C ) :   0.5614 B(  0-Ir,  3-C ) :   0.4613
B(  0-Ir,  4-C ) :   0.4592 B(  0-Ir,  5-C ) :   0.4049 B(  0-Ir,  6-N ) :   0.4722
B(  0-Ir, 20-C ) :   0.2182 B(  0-Ir, 31-O ) :   0.5744 B(  1-C ,  2-C ) :   1.1111
B(  1-C ,  4-C ) :   1.2421 B(  1-C , 27-H ) :   0.9024 B(  2-C ,  5-C ) :   1.1263
B(  2-C , 28-H ) :   0.9060 B(  3-C ,  4-C ) :   1.1042 B(  3-C ,  5-C ) :   1.2374
B(  3-C , 37-H ) :   0.9023 B(  4-C , 38-H ) :   0.8982 B(  5-C , 29-H ) :   0.8978
B(  6-N ,  7-C ) :   0.8911 B(  6-N , 17-C ) :   1.6816 B(  7-C ,  8-C ) :   0.9926
B(  7-C , 12-C ) :   0.9693 B(  7-C , 13-H ) :   0.8744 B(  8-C ,  9-H ) :   0.9036
B(  8-C , 10-H ) :   0.9124 B(  8-C , 11-H ) :   0.9086 B( 12-C , 14-H ) :   0.9064
B( 12-C , 15-H ) :   0.9154 B( 12-C , 16-H ) :   0.9118 B( 17-C , 18-C ) :   1.0672
B( 17-C , 19-H ) :   0.8742 B( 18-C , 20-C ) :   1.3123 B( 18-C , 22-S ) :   1.1995
B( 20-C , 21-C ) :   1.2825 B( 20-C , 24-H ) :   0.4593 B( 21-C , 23-C ) :   1.5389
B( 21-C , 25-H ) :   0.9056 B( 22-S , 23-C ) :   1.2092 B( 23-C , 26-H ) :   0.8932
B( 24-H , 30-O ) :   0.2394 B( 30-O , 32-C ) :   1.6585 B( 31-O , 32-C ) :   1.2956
B( 32-C , 33-C ) :   0.9490 B( 33-C , 34-H ) :   0.9038 B( 33-C , 35-H ) :   0.8969
B( 33-C , 36-H ) :   0.9089

Dispersion correction           -0.030655626
FINAL SINGLE POINT ENERGY     -1288.391007426123

DIPOLE MOMENT
-------------
                                X             Y             Z
Electronic contribution:     32.40479     -70.17522      80.44284
Nuclear contribution   :    -33.03213      69.02302     -80.47305
                        -----------------------------------------
Total Dipole Moment    :     -0.62734      -1.15220      -0.03020
                        -----------------------------------------
Magnitude (a.u.)       :      1.31226
Magnitude (Debye)      :      3.33549

Rotational constants in cm-1:     0.010585     0.008875     0.008137
Rotational constants in MHz :   317.316757   266.067322   243.936457

                             ****ORCA TERMINATED NORMALLY****
TOTAL RUN TIME: 0 days 1 hours 8 minutes 13 seconds 202 msec
