                         Program Version 5.0.3 -  RELEASE  -
|  1> ! Opt PBEh-3c
|  2> %geom Constraints
|  3> { B 0 20 2.342857142857143 C }
|  4> { B 24 30 1.457142857142857 C }
|  5>     end
|  6> end
|  7> %output
|  8> xyzfile=True
|  9> end
| 10> %scf
| 11> maxiter 250
| 12> end
| 13> %output
| 14> Print[P_Hirshfeld] = 1
| 15> end
| 16> % maxcore
| 17> 4000
| 18> *xyz 1 1
| 19> Ir   0.60555647  -0.71148930   0.43538450
| 20> C    0.05776033  -2.80072615   0.34317343
| 21> C    0.11684582  -2.34447003   1.70870010
| 22> C    2.21537131  -2.11689247   0.78286599
| 23> C    1.33098193  -2.64003752  -0.23375738
| 24> C    1.47518019  -1.97032393   1.97098061
| 25> N   -1.04729149   0.16570838  -0.52551267
| 26> C   -2.31410743   0.48111415   0.15223119
| 27> C   -3.11756708   1.57107488  -0.53893714
| 28> H   -3.94326598   1.86382481   0.10820700
| 29> H   -3.56277967   1.24113166  -1.47893084
| 30> H   -2.51970711   2.46367214  -0.72544956
| 31> C   -3.12842011  -0.79507225   0.32780005
| 32> H   -2.01736066   0.84298384   1.13784387
| 33> H   -4.03765096  -0.57424946   0.88487541
| 34> H   -3.42130555  -1.21411519  -0.63573494
| 35> H   -2.58299120  -1.55476386   0.88584562
| 36> C   -0.86069522   0.37973534  -1.77054033
| 37> C    0.48626076   0.15759684  -2.24467390
| 38> H   -1.64653328   0.74304822  -2.42623446
| 39> C    1.57830311   0.42502006  -1.42304038
| 40> C    2.78838966   0.02347643  -2.06189276
| 41> S    0.92700365  -0.53852066  -3.73361399
| 42> C    2.58861547  -0.50631260  -3.29734761
| 43> H    1.52530853   1.33187865  -0.66884218
| 44> H    3.76987140   0.17455492  -1.63652151
| 45> H    3.33058574  -0.86012502  -3.99710146
| 46> H   -0.82211643  -3.17144131  -0.16281314
| 47> H   -0.68298337  -2.37516204   2.43365669
| 48> H    1.84584225  -1.56548361   2.90178497
| 49> O    1.32537446   2.46948978   0.24273301
| 50> O    0.53422215   0.92626171   1.64445748
| 51> C    0.91383164   2.12374864   1.34789468
| 52> C    0.85135741   3.09987959   2.48955490
| 53> H    0.81574416   4.12134729   2.12088050
| 54> H    1.75230925   2.99488230   3.09718184
| 55> H    0.00019996   2.90755707   3.13943463
| 56> H    3.26396722  -1.89228535   0.65737839
| 57> H    1.60526269  -2.87732603  -1.25118057
| 58> *
| 59>
| 60>                          ****END OF INPUT****
 Total Charge           Charge          ....    1
 Multiplicity           Mult            ....    1
 Number of Electrons    NEL             ....  164
Dispersion correction           -0.031067141
FINAL SINGLE POINT ENERGY     -1288.399934967429
Dispersion correction            ... done
Dispersion correction           -0.031102652
FINAL SINGLE POINT ENERGY     -1288.398444463722
Dispersion correction            ... done
Dispersion correction           -0.031031125
FINAL SINGLE POINT ENERGY     -1288.400057407172
Dispersion correction            ... done
FINAL SINGLE POINT ENERGY     -1288.398698656961
FINAL SINGLE POINT ENERGY     -1288.400128272271
FINAL SINGLE POINT ENERGY     -1288.400141813457
FINAL SINGLE POINT ENERGY     -1288.400175507509
FINAL SINGLE POINT ENERGY     -1288.400189279051
FINAL SINGLE POINT ENERGY     -1288.400199998917
Dispersion correction            ... done
Dispersion correction           -0.030924773
FINAL SINGLE POINT ENERGY     -1288.400211001155
Dispersion correction            ... done
Dispersion correction           -0.030923146
FINAL SINGLE POINT ENERGY     -1288.400211241478
Dispersion correction            ... done
                    ***********************HURRAY********************

CARTESIAN COORDINATES (ANGSTROEM)
---------------------------------
  Ir     0.608817   -0.711908    0.437664
  C      0.061966   -2.803926    0.352705
  C      0.100317   -2.344661    1.716844
  C      2.212724   -2.115833    0.819863
  C      1.343867   -2.644942   -0.206565
  C      1.452461   -1.964335    1.995776
  N     -1.046501    0.158073   -0.525535
  C     -2.314443    0.460407    0.156549
  C     -3.113687    1.569202   -0.509613
  H     -3.939066    1.849666    0.143345
  H     -3.559014    1.262407   -1.457266
  H     -2.512270    2.463478   -0.675134
  C     -3.133002   -0.817452    0.298623
  H     -2.019928    0.797245    1.151603
  H     -4.042886   -0.608364    0.859224
  H     -3.424807   -1.211535   -0.675700
  H     -2.590364   -1.592409    0.837927
  C     -0.867051    0.383623   -1.770635
  C      0.475902    0.172742   -2.254308
  H     -1.658950    0.749210   -2.417533
  C      1.562005    0.375463   -1.405713
  C      2.773559   -0.003422   -2.055785
  S      0.922652   -0.439369   -3.775975
  C      2.579429   -0.455606   -3.323066
  H      1.525515    1.299622   -0.650854
  H      3.752908    0.109053   -1.613863
  H      3.323951   -0.776664   -4.035782
  H     -0.809305   -3.178620   -0.165096
  H     -0.710143   -2.373497    2.429811
  H      1.808456   -1.554303    2.930065
  O      1.362398    2.452870    0.224748
  O      0.534366    0.938809    1.635487
  C      0.932756    2.125419    1.330909
  C      0.873304    3.119199    2.456762
  H      0.847980    4.135489    2.073262
  H      1.770943    3.015385    3.069462
  H      0.017650    2.942732    3.105076
  H      3.263996   -1.895165    0.711721
  H      1.632867   -2.888896   -1.218263

 Multiplicity           Mult            ....    1
 Number of Electrons    NEL             ....  164
 Basis Dimension        Dim             ....  358

ORBITAL ENERGIES
----------------

  NO   OCC          E(Eh)            E(eV)
   0   2.0000     -89.766443     -2442.6691
   1   2.0000     -19.622105      -533.9446
   2   2.0000     -19.589464      -533.0564
   3   2.0000     -14.840915      -403.8418
   4   2.0000     -10.679550      -290.6053
   5   2.0000     -10.661792      -290.1221
   6   2.0000     -10.634976      -289.3924
   7   2.0000     -10.634778      -289.3870
   8   2.0000     -10.631985      -289.3110
   9   2.0000     -10.628492      -289.2160
  10   2.0000     -10.628325      -289.2114
  11   2.0000     -10.627367      -289.1854
  12   2.0000     -10.615479      -288.8619
  13   2.0000     -10.612095      -288.7698
  14   2.0000     -10.588347      -288.1236
  15   2.0000     -10.585796      -288.0542
  16   2.0000     -10.556653      -287.2611
  17   2.0000     -10.551813      -287.1294
  18   2.0000     -10.532596      -286.6065
  19   2.0000      -8.405813      -228.7338
  20   2.0000      -6.295789      -171.3171
  21   2.0000      -6.292149      -171.2181
  22   2.0000      -6.290690      -171.1784
  23   2.0000      -4.027346      -109.5897
  24   2.0000      -2.345981       -63.8374
  25   2.0000      -2.312293       -62.9207
  26   2.0000      -2.310980       -62.8850
  27   2.0000      -1.304536       -35.4982
  28   2.0000      -1.213694       -33.0263
  29   2.0000      -1.207177       -32.8490
  30   2.0000      -1.170434       -31.8491
  31   2.0000      -1.129971       -30.7481
  32   2.0000      -1.027649       -27.9638
  33   2.0000      -0.984678       -26.7945
  34   2.0000      -0.975732       -26.5510
  35   2.0000      -0.969219       -26.3738
  36   2.0000      -0.962030       -26.1782
  37   2.0000      -0.926186       -25.2028
  38   2.0000      -0.902986       -24.5715
  39   2.0000      -0.875229       -23.8162
  40   2.0000      -0.799706       -21.7611
  41   2.0000      -0.786465       -21.4008
  42   2.0000      -0.785673       -21.3793
  43   2.0000      -0.782852       -21.3025
  44   2.0000      -0.770545       -20.9676
  45   2.0000      -0.755060       -20.5462
  46   2.0000      -0.743698       -20.2371
  47   2.0000      -0.723720       -19.6934
  48   2.0000      -0.693028       -18.8583
  49   2.0000      -0.674159       -18.3448
  50   2.0000      -0.665516       -18.1096
  51   2.0000      -0.650360       -17.6972
  52   2.0000      -0.646650       -17.5962
  53   2.0000      -0.638639       -17.3783
  54   2.0000      -0.635336       -17.2884
  55   2.0000      -0.628597       -17.1050
  56   2.0000      -0.623075       -16.9547
  57   2.0000      -0.613116       -16.6837
  58   2.0000      -0.606216       -16.4960
  59   2.0000      -0.605585       -16.4788
  60   2.0000      -0.599692       -16.3184
  61   2.0000      -0.590805       -16.0766
  62   2.0000      -0.580585       -15.7985
  63   2.0000      -0.573026       -15.5928
  64   2.0000      -0.564367       -15.3572
  65   2.0000      -0.555398       -15.1131
  66   2.0000      -0.552128       -15.0242
  67   2.0000      -0.548432       -14.9236
  68   2.0000      -0.539812       -14.6890
  69   2.0000      -0.536364       -14.5952
  70   2.0000      -0.527936       -14.3659
  71   2.0000      -0.519978       -14.1493
  72   2.0000      -0.515659       -14.0318
  73   2.0000      -0.503033       -13.6882
  74   2.0000      -0.487766       -13.2728
  75   2.0000      -0.481401       -13.0996
  76   2.0000      -0.471128       -12.8201
  77   2.0000      -0.446566       -12.1517
  78   2.0000      -0.442017       -12.0279
  79   2.0000      -0.424304       -11.5459
  80   2.0000      -0.416849       -11.3430
  81   2.0000      -0.401941       -10.9374
  82   0.0000      -0.204307        -5.5595
  83   0.0000      -0.156891        -4.2692
  84   0.0000      -0.141647        -3.8544
  85   0.0000      -0.097827        -2.6620
  86   0.0000      -0.076944        -2.0937

MULLIKEN ATOMIC CHARGES
-----------------------
   0 Ir:    0.609225
   1 C :   -0.211755
   2 C :   -0.283237
   3 C :   -0.240267
   4 C :   -0.246341
   5 C :   -0.164149
   6 N :   -0.424946
   7 C :   -0.122737
   8 C :   -0.690686
   9 H :    0.271959
  10 H :    0.224777
  11 H :    0.260709
  12 C :   -0.637138
  13 H :    0.283153
  14 H :    0.263848
  15 H :    0.230776
  16 H :    0.232649
  17 C :    0.071742
  18 C :   -0.169396
  19 H :    0.291460
  20 C :   -0.487747
  21 C :   -0.117573
  22 S :    0.315324
  23 C :   -0.433282
  24 H :    0.495910
  25 H :    0.267977
  26 H :    0.298700
  27 H :    0.290058
  28 H :    0.290634
  29 H :    0.305231
  30 O :   -0.476325
  31 O :   -0.538275
  32 C :    0.614324
  33 C :   -0.744611
  34 H :    0.268883
  35 H :    0.265586
  36 H :    0.252346
  37 H :    0.290309
  38 H :    0.292888
Sum of atomic charges:    1.0000000

LOEWDIN ATOMIC CHARGES
----------------------
   0 Ir:   -0.234746
   1 C :   -0.040559
   2 C :   -0.071159
   3 C :   -0.059446
   4 C :   -0.057757
   5 C :   -0.021676
   6 N :   -0.001215
   7 C :   -0.069477
   8 C :   -0.364058
   9 H :    0.157340
  10 H :    0.133261
  11 H :    0.146863
  12 C :   -0.343407
  13 H :    0.157201
  14 H :    0.152886
  15 H :    0.137147
  16 H :    0.133924
  17 C :    0.033352
  18 C :   -0.175677
  19 H :    0.163012
  20 C :   -0.198949
  21 C :   -0.129024
  22 S :    0.481376
  23 C :   -0.263466
  24 H :    0.297245
  25 H :    0.163370
  26 H :    0.168779
  27 H :    0.184340
  28 H :    0.184816
  29 H :    0.192835
  30 O :   -0.274488
  31 O :   -0.207274
  32 C :    0.151412
  33 C :   -0.376082
  34 H :    0.159283
  35 H :    0.166610
  36 H :    0.152915
  37 H :    0.185470
  38 H :    0.185021

  Mayer bond orders larger than 0.100000
B(  0-Ir,  1-C ) :   0.4172 B(  0-Ir,  2-C ) :   0.5050 B(  0-Ir,  3-C ) :   0.4612
B(  0-Ir,  4-C ) :   0.4474 B(  0-Ir,  5-C ) :   0.4000 B(  0-Ir,  6-N ) :   0.4613
B(  0-Ir, 20-C ) :   0.2997 B(  0-Ir, 31-O ) :   0.5768 B(  1-C ,  2-C ) :   1.1238
B(  1-C ,  4-C ) :   1.2441 B(  1-C , 27-H ) :   0.9039 B(  2-C ,  5-C ) :   1.1441
B(  2-C , 28-H ) :   0.9084 B(  3-C ,  4-C ) :   1.1082 B(  3-C ,  5-C ) :   1.2271
B(  3-C , 37-H ) :   0.9064 B(  4-C , 38-H ) :   0.9005 B(  5-C , 29-H ) :   0.8983
B(  6-N ,  7-C ) :   0.8921 B(  6-N , 17-C ) :   1.6851 B(  7-C ,  8-C ) :   0.9915
B(  7-C , 12-C ) :   0.9682 B(  7-C , 13-H ) :   0.8716 B(  8-C ,  9-H ) :   0.9037
B(  8-C , 10-H ) :   0.9128 B(  8-C , 11-H ) :   0.9084 B( 12-C , 14-H ) :   0.9066
B( 12-C , 15-H ) :   0.9155 B( 12-C , 16-H ) :   0.9117 B( 17-C , 18-C ) :   1.0629
B( 17-C , 19-H ) :   0.8745 B( 18-C , 20-C ) :   1.2723 B( 18-C , 22-S ) :   1.2450
B( 20-C , 21-C ) :   1.2566 B( 20-C , 24-H ) :   0.4662 B( 21-C , 23-C ) :   1.5528
B( 21-C , 25-H ) :   0.9036 B( 22-S , 23-C ) :   1.2011 B( 23-C , 26-H ) :   0.8915
B( 24-H , 30-O ) :   0.2498 B( 30-O , 32-C ) :   1.6924 B( 31-O , 32-C ) :   1.2798
B( 32-C , 33-C ) :   0.9453 B( 33-C , 34-H ) :   0.9053 B( 33-C , 35-H ) :   0.8992
B( 33-C , 36-H ) :   0.9097

Dispersion correction           -0.030921729
FINAL SINGLE POINT ENERGY     -1288.400211764115

DIPOLE MOMENT
-------------
                                X             Y             Z
Electronic contribution:     37.16756     -67.57702      71.59386
Nuclear contribution   :    -37.79438      66.40155     -71.98260
                        -----------------------------------------
Total Dipole Moment    :     -0.62682      -1.17547      -0.38874
                        -----------------------------------------
Magnitude (a.u.)       :      1.38772
Magnitude (Debye)      :      3.52730

Rotational constants in cm-1:     0.010683     0.009131     0.008252
Rotational constants in MHz :   320.266974   273.726681   247.384693

                             ****ORCA TERMINATED NORMALLY****
TOTAL RUN TIME: 0 days 1 hours 36 minutes 5 seconds 605 msec
