                         Program Version 5.0.3 -  RELEASE  -
|  1> ! Opt PBEh-3c
|  2> %geom Constraints
|  3> { B 0 20 2.257142857142857 C }
|  4> { B 24 30 1.5 C }
|  5>     end
|  6> end
|  7> %output
|  8> xyzfile=True
|  9> end
| 10> %scf
| 11> maxiter 250
| 12> end
| 13> %output
| 14> Print[P_Hirshfeld] = 1
| 15> end
| 16> % maxcore
| 17> 4000
| 18> *xyz 1 1
| 19> Ir   0.61883833  -0.70571148   0.41850781
| 20> C    0.07569259  -2.80186947   0.34167961
| 21> C    0.11420647  -2.34193332   1.70501466
| 22> C    2.22476705  -2.10609778   0.80442445
| 23> C    1.35689159  -2.64145092  -0.21938996
| 24> C    1.46387050  -1.95412776   1.98067859
| 25> N   -1.04674753   0.16290821  -0.52970729
| 26> C   -2.30940158   0.46876751   0.15948701
| 27> C   -3.10742930   1.58189638  -0.50066984
| 28> H   -3.92967610   1.86313422   0.15589348
| 29> H   -3.55690556   1.27896498  -1.44760863
| 30> H   -2.50352813   2.47461414  -0.66553014
| 31> C   -3.13078448  -0.80724152   0.30247883
| 32> H   -2.00794201   0.80165884   1.15369778
| 33> H   -4.03555639  -0.59759966   0.87104747
| 34> H   -3.43123734  -1.19642527  -0.67116660
| 35> H   -2.58583254  -1.58586598   0.83417556
| 36> C   -0.87218495   0.38612301  -1.77544774
| 37> C    0.47045816   0.16318050  -2.25576234
| 38> H   -1.66190782   0.75669396  -2.42195896
| 39> C    1.55195940   0.35610968  -1.39582977
| 40> C    2.76668753  -0.02946690  -2.03948640
| 41> S    0.92278674  -0.46008312  -3.76832918
| 42> C    2.57802527  -0.48514110  -3.30537972
| 43> H    1.52047506   1.28646944  -0.67113066
| 44> H    3.74359680   0.08042454  -1.59157249
| 45> H    3.32443018  -0.81291440  -4.01300465
| 46> H   -0.79488918  -3.18040848  -0.17449040
| 47> H   -0.69575676  -2.37049013   2.41846550
| 48> H    1.81906807  -1.53970694   2.91333935
| 49> O    1.33333459   2.47652888   0.22259019
| 50> O    0.53602748   0.93788321   1.62484338
| 51> C    0.91639616   2.13369063   1.32701956
| 52> C    0.84971664   3.11416011   2.46506030
| 53> H    0.81652276   4.13451678   2.09313711
| 54> H    1.74791852   3.01009144   3.07684439
| 55> H   -0.00455536   2.92438121   3.11156240
| 56> H    3.27619584  -1.88605050   0.69709371
| 57> H    1.64583933  -2.89042299  -1.22983629
| 58> *
| 59>
| 60>                          ****END OF INPUT****
 Total Charge           Charge          ....    1
 Multiplicity           Mult            ....    1
 Number of Electrons    NEL             ....  164
Dispersion correction           -0.031108791
FINAL SINGLE POINT ENERGY     -1288.400307149349
Dispersion correction            ... done
Dispersion correction           -0.031054876
FINAL SINGLE POINT ENERGY     -1288.400385911844
Dispersion correction            ... done
Dispersion correction           -0.031099380
FINAL SINGLE POINT ENERGY     -1288.399762656979
Dispersion correction            ... done
FINAL SINGLE POINT ENERGY     -1288.400528177195
FINAL SINGLE POINT ENERGY     -1288.400539374084
FINAL SINGLE POINT ENERGY     -1288.400555156645
FINAL SINGLE POINT ENERGY     -1288.400569209665
FINAL SINGLE POINT ENERGY     -1288.400571277784
FINAL SINGLE POINT ENERGY     -1288.400577782214
FINAL SINGLE POINT ENERGY     -1288.400585618017
Dispersion correction            ... done
Dispersion correction           -0.030982477
FINAL SINGLE POINT ENERGY     -1288.400590851403
Dispersion correction            ... done
Dispersion correction           -0.030981452
FINAL SINGLE POINT ENERGY     -1288.400594303760
Dispersion correction            ... done
                    ***********************HURRAY********************

CARTESIAN COORDINATES (ANGSTROEM)
---------------------------------
  Ir     0.624187   -0.705529    0.417608
  C      0.089584   -2.807769    0.341246
  C      0.093831   -2.345216    1.703591
  C      2.224768   -2.099724    0.851758
  C      1.383754   -2.644246   -0.188895
  C      1.432492   -1.947368    2.008568
  N     -1.045671    0.156108   -0.528776
  C     -2.307395    0.449691    0.167686
  C     -3.099468    1.585031   -0.461797
  H     -3.919984    1.853165    0.202322
  H     -3.550498    1.309559   -1.416229
  H     -2.490086    2.477961   -0.603310
  C     -3.135498   -0.825779    0.273862
  H     -2.005677    0.753217    1.171067
  H     -4.037901   -0.629559    0.850993
  H     -3.440177   -1.183332   -0.710537
  H     -2.592760   -1.623475    0.778848
  C     -0.879784    0.391326   -1.774533
  C      0.458020    0.175364   -2.265407
  H     -1.675456    0.766975   -2.410534
  C      1.533829    0.303602   -1.384862
  C      2.749208   -0.061527   -2.040559
  S      0.914430   -0.369081   -3.805334
  C      2.564703   -0.442678   -3.331705
  H      1.522065    1.248412   -0.665547
  H      3.724315    0.010442   -1.581213
  H      3.312889   -0.740558   -4.050555
  H     -0.765743   -3.194461   -0.193990
  H     -0.732666   -2.375491    2.397637
  H      1.762598   -1.527037    2.947849
  O      1.366248    2.461926    0.202269
  O      0.539260    0.949032    1.614079
  C      0.934186    2.136226    1.307283
  C      0.865450    3.133153    2.430524
  H      0.835385    4.148285    2.044268
  H      1.761987    3.036177    3.045859
  H      0.008873    2.953495    3.076706
  H      3.278658   -1.880426    0.771568
  H      1.697415   -2.896704   -1.191068

 Multiplicity           Mult            ....    1
 Number of Electrons    NEL             ....  164
 Basis Dimension        Dim             ....  358

ORBITAL ENERGIES
----------------

  NO   OCC          E(Eh)            E(eV)
   0   2.0000     -89.769929     -2442.7639
   1   2.0000     -19.620805      -533.9092
   2   2.0000     -19.589205      -533.0494
   3   2.0000     -14.841422      -403.8556
   4   2.0000     -10.677954      -290.5619
   5   2.0000     -10.661934      -290.1260
   6   2.0000     -10.637657      -289.4654
   7   2.0000     -10.632807      -289.3334
   8   2.0000     -10.630780      -289.2782
   9   2.0000     -10.626854      -289.1714
  10   2.0000     -10.625446      -289.1331
  11   2.0000     -10.624420      -289.1052
  12   2.0000     -10.615198      -288.8542
  13   2.0000     -10.614017      -288.8221
  14   2.0000     -10.591646      -288.2133
  15   2.0000     -10.588739      -288.1342
  16   2.0000     -10.556417      -287.2547
  17   2.0000     -10.551681      -287.1259
  18   2.0000     -10.532085      -286.5926
  19   2.0000      -8.409297      -228.8286
  20   2.0000      -6.299227      -171.4107
  21   2.0000      -6.295586      -171.3116
  22   2.0000      -6.294247      -171.2752
  23   2.0000      -4.025765      -109.5466
  24   2.0000      -2.344066       -63.7853
  25   2.0000      -2.310852       -62.8815
  26   2.0000      -2.309575       -62.8467
  27   2.0000      -1.302977       -35.4558
  28   2.0000      -1.214312       -33.0431
  29   2.0000      -1.205471       -32.8025
  30   2.0000      -1.168339       -31.7921
  31   2.0000      -1.132737       -30.8233
  32   2.0000      -1.028433       -27.9851
  33   2.0000      -0.982183       -26.7266
  34   2.0000      -0.974310       -26.5123
  35   2.0000      -0.972155       -26.4537
  36   2.0000      -0.963780       -26.2258
  37   2.0000      -0.925155       -25.1748
  38   2.0000      -0.902742       -24.5648
  39   2.0000      -0.876559       -23.8524
  40   2.0000      -0.801323       -21.8051
  41   2.0000      -0.785946       -21.3867
  42   2.0000      -0.784423       -21.3452
  43   2.0000      -0.782723       -21.2990
  44   2.0000      -0.768768       -20.9192
  45   2.0000      -0.754859       -20.5408
  46   2.0000      -0.743081       -20.2202
  47   2.0000      -0.724639       -19.7184
  48   2.0000      -0.692516       -18.8443
  49   2.0000      -0.673700       -18.3323
  50   2.0000      -0.665801       -18.1174
  51   2.0000      -0.649913       -17.6850
  52   2.0000      -0.645293       -17.5593
  53   2.0000      -0.637373       -17.3438
  54   2.0000      -0.633889       -17.2490
  55   2.0000      -0.627401       -17.0724
  56   2.0000      -0.622808       -16.9475
  57   2.0000      -0.614575       -16.7234
  58   2.0000      -0.604300       -16.4438
  59   2.0000      -0.603883       -16.4325
  60   2.0000      -0.601532       -16.3685
  61   2.0000      -0.592374       -16.1193
  62   2.0000      -0.582621       -15.8539
  63   2.0000      -0.575152       -15.6507
  64   2.0000      -0.564925       -15.3724
  65   2.0000      -0.555189       -15.1075
  66   2.0000      -0.551877       -15.0173
  67   2.0000      -0.548430       -14.9235
  68   2.0000      -0.540867       -14.7177
  69   2.0000      -0.536360       -14.5951
  70   2.0000      -0.527896       -14.3648
  71   2.0000      -0.519589       -14.1387
  72   2.0000      -0.515559       -14.0291
  73   2.0000      -0.500862       -13.6292
  74   2.0000      -0.486648       -13.2424
  75   2.0000      -0.481737       -13.1087
  76   2.0000      -0.475039       -12.9265
  77   2.0000      -0.444571       -12.0974
  78   2.0000      -0.442112       -12.0305
  79   2.0000      -0.425259       -11.5719
  80   2.0000      -0.416227       -11.3261
  81   2.0000      -0.400183       -10.8895
  82   0.0000      -0.207840        -5.6556
  83   0.0000      -0.151650        -4.1266
  84   0.0000      -0.141874        -3.8606
  85   0.0000      -0.097301        -2.6477
  86   0.0000      -0.078054        -2.1239

MULLIKEN ATOMIC CHARGES
-----------------------
   0 Ir:    0.605307
   1 C :   -0.214696
   2 C :   -0.276352
   3 C :   -0.246643
   4 C :   -0.244835
   5 C :   -0.161757
   6 N :   -0.422959
   7 C :   -0.125676
   8 C :   -0.688308
   9 H :    0.271489
  10 H :    0.224041
  11 H :    0.260922
  12 C :   -0.636022
  13 H :    0.284343
  14 H :    0.263320
  15 H :    0.230788
  16 H :    0.232878
  17 C :    0.072983
  18 C :   -0.151647
  19 H :    0.291320
  20 C :   -0.520766
  21 C :   -0.104809
  22 S :    0.325341
  23 C :   -0.434930
  24 H :    0.489445
  25 H :    0.269511
  26 H :    0.299824
  27 H :    0.288597
  28 H :    0.288958
  29 H :    0.304607
  30 O :   -0.470627
  31 O :   -0.537305
  32 C :    0.612330
  33 C :   -0.744031
  34 H :    0.268387
  35 H :    0.265448
  36 H :    0.251822
  37 H :    0.287895
  38 H :    0.291807
Sum of atomic charges:    1.0000000

LOEWDIN ATOMIC CHARGES
----------------------
   0 Ir:   -0.244271
   1 C :   -0.042697
   2 C :   -0.077292
   3 C :   -0.066947
   4 C :   -0.057627
   5 C :   -0.019124
   6 N :    0.002639
   7 C :   -0.070045
   8 C :   -0.363557
   9 H :    0.157262
  10 H :    0.132939
  11 H :    0.146946
  12 C :   -0.343291
  13 H :    0.157655
  14 H :    0.152743
  15 H :    0.137098
  16 H :    0.133912
  17 C :    0.031766
  18 C :   -0.168798
  19 H :    0.163202
  20 C :   -0.203166
  21 C :   -0.121819
  22 S :    0.491933
  23 C :   -0.263595
  24 H :    0.301070
  25 H :    0.164389
  26 H :    0.169497
  27 H :    0.183533
  28 H :    0.183849
  29 H :    0.192383
  30 O :   -0.271991
  31 O :   -0.207588
  32 C :    0.148518
  33 C :   -0.376157
  34 H :    0.159000
  35 H :    0.166445
  36 H :    0.152622
  37 H :    0.184286
  38 H :    0.184280

  Mayer bond orders larger than 0.100000
B(  0-Ir,  1-C ) :   0.4149 B(  0-Ir,  2-C ) :   0.4811 B(  0-Ir,  3-C ) :   0.4619
B(  0-Ir,  4-C ) :   0.4421 B(  0-Ir,  5-C ) :   0.3965 B(  0-Ir,  6-N ) :   0.4600
B(  0-Ir, 20-C ) :   0.3403 B(  0-Ir, 31-O ) :   0.5748 B(  1-C ,  2-C ) :   1.1278
B(  1-C ,  4-C ) :   1.2448 B(  1-C , 27-H ) :   0.9047 B(  2-C ,  5-C ) :   1.1535
B(  2-C , 28-H ) :   0.9090 B(  3-C ,  4-C ) :   1.1104 B(  3-C ,  5-C ) :   1.2208
B(  3-C , 37-H ) :   0.9082 B(  4-C , 38-H ) :   0.9008 B(  5-C , 29-H ) :   0.8985
B(  6-N ,  7-C ) :   0.8922 B(  6-N , 17-C ) :   1.6798 B(  7-C ,  8-C ) :   0.9910
B(  7-C , 12-C ) :   0.9675 B(  7-C , 13-H ) :   0.8713 B(  8-C ,  9-H ) :   0.9039
B(  8-C , 10-H ) :   0.9131 B(  8-C , 11-H ) :   0.9085 B( 12-C , 14-H ) :   0.9067
B( 12-C , 15-H ) :   0.9156 B( 12-C , 16-H ) :   0.9119 B( 17-C , 18-C ) :   1.0694
B( 17-C , 19-H ) :   0.8750 B( 18-C , 20-C ) :   1.2528 B( 18-C , 22-S ) :   1.2594
B( 20-C , 21-C ) :   1.2481 B( 20-C , 24-H ) :   0.4701 B( 21-C , 23-C ) :   1.5578
B( 21-C , 25-H ) :   0.9027 B( 22-S , 23-C ) :   1.1986 B( 23-C , 26-H ) :   0.8911
B( 24-H , 30-O ) :   0.2506 B( 30-O , 32-C ) :   1.6994 B( 31-O , 32-C ) :   1.2788
B( 32-C , 33-C ) :   0.9441 B( 33-C , 34-H ) :   0.9055 B( 33-C , 35-H ) :   0.8994
B( 33-C , 36-H ) :   0.9099

Dispersion correction           -0.030980049
FINAL SINGLE POINT ENERGY     -1288.400597105875

DIPOLE MOMENT
-------------
                                X             Y             Z
Electronic contribution:     38.75579     -67.41579      69.86555
Nuclear contribution   :    -39.38320      66.26605     -70.34831
                        -----------------------------------------
Total Dipole Moment    :     -0.62741      -1.14974      -0.48277
                        -----------------------------------------
Magnitude (a.u.)       :      1.39593
Magnitude (Debye)      :      3.54816

Rotational constants in cm-1:     0.010681     0.009181     0.008247
Rotational constants in MHz :   320.218295   275.233447   247.238250

                             ****ORCA TERMINATED NORMALLY****
TOTAL RUN TIME: 0 days 1 hours 43 minutes 41 seconds 701 msec
