                         Program Version 5.0.3 -  RELEASE  -
|  1> ! Opt PBEh-3c
|  2> %geom Constraints
|  3> { B 0 20 2.5571428571428574 C }
|  4> { B 24 30 1.3 C }
|  5>     end
|  6> end
|  7> %output
|  8> xyzfile=True
|  9> end
| 10> %scf
| 11> maxiter 250
| 12> end
| 13> %output
| 14> Print[P_Hirshfeld] = 1
| 15> end
| 16> % maxcore
| 17> 4000
| 18> *xyz 1 1
| 19> Ir   0.56010222  -0.74953433   0.53546343
| 20> C    0.00212736  -2.82347288   0.39938735
| 21> C    0.04703897  -2.37881623   1.77087700
| 22> C    2.16037102  -2.16690694   0.88119602
| 23> C    1.28376167  -2.66228033  -0.15668122
| 24> C    1.40962245  -2.03032198   2.06125554
| 25> N   -1.03434403   0.13755248  -0.49881077
| 26> C   -2.32290487   0.44846457   0.14454990
| 27> C   -3.11465695   1.53327099  -0.56911340
| 28> H   -3.95265429   1.82885239   0.06073945
| 29> H   -3.54214042   1.19743761  -1.51510055
| 30> H   -2.51500370   2.42552932  -0.75117914
| 31> C   -3.14073963  -0.82724939   0.30539826
| 32> H   -2.05683126   0.81801770   1.13648705
| 33> H   -4.06992061  -0.60322683   0.82732406
| 34> H   -3.39865606  -1.25707007  -0.66344733
| 35> H   -2.61592703  -1.58061874   0.89108055
| 36> C   -0.82789804   0.34814686  -1.74392403
| 37> C    0.51593328   0.17548764  -2.23905784
| 38> H   -1.62442064   0.68462011  -2.40210204
| 39> C    1.63037798   0.49976514  -1.47793187
| 40> C    2.82093433   0.15449635  -2.17493118
| 41> S    0.91564871  -0.46398256  -3.77679653
| 42> C    2.58765454  -0.36192228  -3.41366821
| 43> H    1.55515085   1.39489704  -0.60391135
| 44> H    3.81592520   0.33548247  -1.79467477
| 45> H    3.31438173  -0.67157320  -4.14964454
| 46> H   -0.87418827  -3.17912901  -0.12320867
| 47> H   -0.76359095  -2.41192757   2.48403993
| 48> H    1.77249422  -1.64662211   3.00395678
| 49> O    1.40495544   2.38728512   0.24458978
| 50> O    0.53976319   0.92539597   1.69199135
| 51> C    0.96424322   2.09124776   1.36141624
| 52> C    0.93265989   3.11902621   2.45448872
| 53> H    0.87257927   4.12164419   2.03971626
| 54> H    1.85955799   3.05320499   3.02787791
| 55> H    0.10956628   2.94798950   3.14438760
| 56> H    3.20973795  -1.93938309   0.76566779
| 57> H    1.56865901  -2.87458686  -1.17696741
| 58> *
| 59>
| 60>                          ****END OF INPUT****
 Total Charge           Charge          ....    1
 Multiplicity           Mult            ....    1
 Number of Electrons    NEL             ....  164
Dispersion correction           -0.030665864
FINAL SINGLE POINT ENERGY     -1288.391224983741
Dispersion correction            ... done
Dispersion correction           -0.030629438
FINAL SINGLE POINT ENERGY     -1288.391383012497
Dispersion correction            ... done
Dispersion correction           -0.030606775
FINAL SINGLE POINT ENERGY     -1288.391448820376
Dispersion correction            ... done
FINAL SINGLE POINT ENERGY     -1288.391475794268
FINAL SINGLE POINT ENERGY     -1288.391492757874
FINAL SINGLE POINT ENERGY     -1288.391505418829
FINAL SINGLE POINT ENERGY     -1288.391514914169
FINAL SINGLE POINT ENERGY     -1288.391526561694
FINAL SINGLE POINT ENERGY     -1288.391538411122
FINAL SINGLE POINT ENERGY     -1288.391550271032
FINAL SINGLE POINT ENERGY     -1288.391557921953
Dispersion correction            ... done
Dispersion correction           -0.030459375
FINAL SINGLE POINT ENERGY     -1288.391560512138
Dispersion correction            ... done
Dispersion correction           -0.030455510
FINAL SINGLE POINT ENERGY     -1288.391561072995
Dispersion correction            ... done
                    ***********************HURRAY********************

CARTESIAN COORDINATES (ANGSTROEM)
---------------------------------
  Ir     0.569843   -0.751200    0.541637
  C      0.021569   -2.830017    0.414101
  C      0.003125   -2.368896    1.780008
  C      2.156223   -2.160658    0.983076
  C      1.327686   -2.673388   -0.084804
  C      1.348632   -2.009315    2.124462
  N     -1.030130    0.120784   -0.495366
  C     -2.321327    0.404095    0.157257
  C     -3.097022    1.539368   -0.493898
  H     -3.934929    1.807761    0.148155
  H     -3.523205    1.264381   -1.459689
  H     -2.484793    2.432402   -0.621168
  C     -3.152364   -0.871427    0.230495
  H     -2.061791    0.708814    1.172430
  H     -4.080027   -0.676274    0.766728
  H     -3.413315   -1.231046   -0.765769
  H     -2.633470   -1.668910    0.760158
  C     -0.840036    0.351118   -1.740973
  C      0.493095    0.197812   -2.261544
  H     -1.650228    0.689735   -2.381142
  C      1.614156    0.421957   -1.476306
  C      2.796791    0.114391   -2.201083
  S      0.878817   -0.304519   -3.851724
  C      2.550762   -0.277287   -3.483579
  H      1.582300    1.332054   -0.576589
  H      3.795729    0.234578   -1.807532
  H      3.270746   -0.533221   -4.246278
  H     -0.827680   -3.198125   -0.143281
  H     -0.837979   -2.396938    2.457053
  H      1.666189   -1.609323    3.076851
  O      1.498871    2.350628    0.226870
  O      0.540046    0.948313    1.672474
  C      1.006462    2.091962    1.335144
  C      0.965191    3.150020    2.397625
  H      0.915449    4.141279    1.954862
  H      1.885039    3.096670    2.983430
  H      0.132155    3.000760    3.080258
  H      3.210815   -1.938974    0.916420
  H      1.657973   -2.900173   -1.088028

 Multiplicity           Mult            ....    1
 Number of Electrons    NEL             ....  164
 Basis Dimension        Dim             ....  358

ORBITAL ENERGIES
----------------

  NO   OCC          E(Eh)            E(eV)
   0   2.0000     -89.752229     -2442.2823
   1   2.0000     -19.633159      -534.2454
   2   2.0000     -19.605767      -533.5000
   3   2.0000     -14.834625      -403.6707
   4   2.0000     -10.693526      -290.9856
   5   2.0000     -10.656524      -289.9788
   6   2.0000     -10.636002      -289.4203
   7   2.0000     -10.634775      -289.3869
   8   2.0000     -10.633483      -289.3518
   9   2.0000     -10.632038      -289.3125
  10   2.0000     -10.630184      -289.2620
  11   2.0000     -10.618406      -288.9415
  12   2.0000     -10.614483      -288.8348
  13   2.0000     -10.603043      -288.5235
  14   2.0000     -10.575790      -287.7819
  15   2.0000     -10.574915      -287.7581
  16   2.0000     -10.555836      -287.2389
  17   2.0000     -10.550727      -287.0999
  18   2.0000     -10.540051      -286.8094
  19   2.0000      -8.391692      -228.3495
  20   2.0000      -6.281710      -170.9340
  21   2.0000      -6.278151      -170.8372
  22   2.0000      -6.276451      -170.7909
  23   2.0000      -4.029844      -109.6576
  24   2.0000      -2.349203       -63.9251
  25   2.0000      -2.314911       -62.9919
  26   2.0000      -2.312584       -62.9286
  27   2.0000      -1.320037       -35.9200
  28   2.0000      -1.223502       -33.2932
  29   2.0000      -1.205707       -32.8090
  30   2.0000      -1.173639       -31.9363
  31   2.0000      -1.116967       -30.3942
  32   2.0000      -1.021985       -27.8096
  33   2.0000      -0.988217       -26.8908
  34   2.0000      -0.978542       -26.6275
  35   2.0000      -0.958213       -26.0743
  36   2.0000      -0.951380       -25.8884
  37   2.0000      -0.935658       -25.4605
  38   2.0000      -0.901418       -24.5288
  39   2.0000      -0.868309       -23.6279
  40   2.0000      -0.794150       -21.6099
  41   2.0000      -0.789126       -21.4732
  42   2.0000      -0.787739       -21.4355
  43   2.0000      -0.776516       -21.1301
  44   2.0000      -0.771121       -20.9833
  45   2.0000      -0.764512       -20.8034
  46   2.0000      -0.740841       -20.1593
  47   2.0000      -0.722481       -19.6597
  48   2.0000      -0.691555       -18.8182
  49   2.0000      -0.675870       -18.3913
  50   2.0000      -0.662215       -18.0198
  51   2.0000      -0.655832       -17.8461
  52   2.0000      -0.648885       -17.6571
  53   2.0000      -0.640880       -17.4392
  54   2.0000      -0.640805       -17.4372
  55   2.0000      -0.635155       -17.2835
  56   2.0000      -0.622676       -16.9439
  57   2.0000      -0.609347       -16.5812
  58   2.0000      -0.608839       -16.5674
  59   2.0000      -0.605845       -16.4859
  60   2.0000      -0.593627       -16.1534
  61   2.0000      -0.584998       -15.9186
  62   2.0000      -0.572639       -15.5823
  63   2.0000      -0.566304       -15.4099
  64   2.0000      -0.560060       -15.2400
  65   2.0000      -0.557792       -15.1783
  66   2.0000      -0.553551       -15.0629
  67   2.0000      -0.548049       -14.9132
  68   2.0000      -0.539966       -14.6932
  69   2.0000      -0.532889       -14.5006
  70   2.0000      -0.526972       -14.3396
  71   2.0000      -0.519766       -14.1436
  72   2.0000      -0.515499       -14.0274
  73   2.0000      -0.507897       -13.8206
  74   2.0000      -0.495754       -13.4902
  75   2.0000      -0.479961       -13.0604
  76   2.0000      -0.462289       -12.5795
  77   2.0000      -0.450941       -12.2707
  78   2.0000      -0.444501       -12.0955
  79   2.0000      -0.418193       -11.3796
  80   2.0000      -0.415687       -11.3114
  81   2.0000      -0.399962       -10.8835
  82   0.0000      -0.199110        -5.4180
  83   0.0000      -0.163585        -4.4514
  84   0.0000      -0.141144        -3.8407
  85   0.0000      -0.088412        -2.4058
  86   0.0000      -0.073858        -2.0098

MULLIKEN ATOMIC CHARGES
-----------------------
   0 Ir:    0.617840
   1 C :   -0.213282
   2 C :   -0.294909
   3 C :   -0.234788
   4 C :   -0.239408
   5 C :   -0.167992
   6 N :   -0.442714
   7 C :   -0.123323
   8 C :   -0.687554
   9 H :    0.269965
  10 H :    0.225996
  11 H :    0.258423
  12 C :   -0.635775
  13 H :    0.278212
  14 H :    0.262628
  15 H :    0.231677
  16 H :    0.229226
  17 C :    0.069531
  18 C :   -0.199430
  19 H :    0.285898
  20 C :   -0.403505
  21 C :   -0.157566
  22 S :    0.302133
  23 C :   -0.422707
  24 H :    0.497170
  25 H :    0.260407
  26 H :    0.293988
  27 H :    0.292445
  28 H :    0.292744
  29 H :    0.305553
  30 O :   -0.497737
  31 O :   -0.530524
  32 C :    0.628350
  33 C :   -0.745960
  34 H :    0.272453
  35 H :    0.270907
  36 H :    0.257642
  37 H :    0.295529
  38 H :    0.298457
Sum of atomic charges:    1.0000000

LOEWDIN ATOMIC CHARGES
----------------------
   0 Ir:   -0.212356
   1 C :   -0.043412
   2 C :   -0.062526
   3 C :   -0.054738
   4 C :   -0.046987
   5 C :   -0.023825
   6 N :   -0.019512
   7 C :   -0.068606
   8 C :   -0.363486
   9 H :    0.156242
  10 H :    0.133500
  11 H :    0.145745
  12 C :   -0.344029
  13 H :    0.154314
  14 H :    0.152180
  15 H :    0.137544
  16 H :    0.132028
  17 C :    0.036378
  18 C :   -0.206040
  19 H :    0.159873
  20 C :   -0.204706
  21 C :   -0.150091
  22 S :    0.457932
  23 C :   -0.259507
  24 H :    0.314603
  25 H :    0.158658
  26 H :    0.166421
  27 H :    0.185714
  28 H :    0.185727
  29 H :    0.192971
  30 O :   -0.273061
  31 O :   -0.195142
  32 C :    0.167650
  33 C :   -0.373533
  34 H :    0.162331
  35 H :    0.170134
  36 H :    0.155092
  37 H :    0.187958
  38 H :    0.188563

  Mayer bond orders larger than 0.100000
B(  0-Ir,  1-C ) :   0.4256 B(  0-Ir,  2-C ) :   0.5483 B(  0-Ir,  3-C ) :   0.4584
B(  0-Ir,  4-C ) :   0.4590 B(  0-Ir,  5-C ) :   0.4053 B(  0-Ir,  6-N ) :   0.4743
B(  0-Ir, 20-C ) :   0.2562 B(  0-Ir, 31-O ) :   0.5571 B(  1-C ,  2-C ) :   1.1138
B(  1-C ,  4-C ) :   1.2396 B(  1-C , 27-H ) :   0.9031 B(  2-C ,  5-C ) :   1.1305
B(  2-C , 28-H ) :   0.9069 B(  3-C ,  4-C ) :   1.1071 B(  3-C ,  5-C ) :   1.2341
B(  3-C , 37-H ) :   0.9042 B(  4-C , 38-H ) :   0.8999 B(  5-C , 29-H ) :   0.8980
B(  6-N ,  7-C ) :   0.8917 B(  6-N , 17-C ) :   1.6662 B(  7-C ,  8-C ) :   0.9919
B(  7-C , 12-C ) :   0.9688 B(  7-C , 13-H ) :   0.8765 B(  8-C ,  9-H ) :   0.9042
B(  8-C , 10-H ) :   0.9127 B(  8-C , 11-H ) :   0.9097 B( 12-C , 14-H ) :   0.9069
B( 12-C , 15-H ) :   0.9156 B( 12-C , 16-H ) :   0.9128 B( 17-C , 18-C ) :   1.0854
B( 17-C , 19-H ) :   0.8752 B( 18-C , 20-C ) :   1.3065 B( 18-C , 22-S ) :   1.1997
B( 20-C , 21-C ) :   1.2953 B( 20-C , 24-H ) :   0.4193 B( 21-C , 23-C ) :   1.5339
B( 21-C , 25-H ) :   0.9063 B( 22-S , 23-C ) :   1.2167 B( 23-C , 26-H ) :   0.8929
B( 24-H , 30-O ) :   0.2707 B( 30-O , 32-C ) :   1.6221 B( 31-O , 32-C ) :   1.3228
B( 32-C , 33-C ) :   0.9496 B( 33-C , 34-H ) :   0.9026 B( 33-C , 35-H ) :   0.8955
B( 33-C , 36-H ) :   0.9083

Dispersion correction           -0.030452358
FINAL SINGLE POINT ENERGY     -1288.391561305978

DIPOLE MOMENT
-------------
                                X             Y             Z
Electronic contribution:     33.37936     -71.89459      82.26930
Nuclear contribution   :    -33.99756      70.89068     -82.24869
                        -----------------------------------------
Total Dipole Moment    :     -0.61820      -1.00391       0.02061
                        -----------------------------------------
Magnitude (a.u.)       :      1.17916
Magnitude (Debye)      :      2.99719

Rotational constants in cm-1:     0.010542     0.008711     0.008046
Rotational constants in MHz :   316.036023   261.147066   241.212262

                             ****ORCA TERMINATED NORMALLY****
TOTAL RUN TIME: 0 days 1 hours 42 minutes 28 seconds 989 msec
