                         Program Version 5.0.3 -  RELEASE  -
|  1> ! Opt PBEh-3c
|  2> %geom Constraints
|  3> { B 0 20 2.2142857142857144 C }
|  4> { B 24 30 1.4 C }
|  5>     end
|  6> end
|  7> %output
|  8> xyzfile=True
|  9> end
| 10> %scf
| 11> maxiter 250
| 12> end
| 13> %output
| 14> Print[P_Hirshfeld] = 1
| 15> end
| 16> % maxcore
| 17> 4000
| 18> *xyz 1 1
| 19> Ir   0.61770649  -0.72077017   0.44514693
| 20> C    0.09353229  -2.82280273   0.35533291
| 21> C    0.02403969  -2.35895722   1.71566647
| 22> C    2.19853562  -2.10644176   0.97679452
| 23> C    1.41551224  -2.65749392  -0.10320879
| 24> C    1.34084140  -1.95335246   2.08813715
| 25> N   -1.04542869   0.13385205  -0.51602665
| 26> C   -2.31481284   0.39631330   0.18097071
| 27> C   -3.09853076   1.56502622  -0.39799653
| 28> H   -3.92339059   1.80276983   0.27224646
| 29> H   -3.54257981   1.33877188  -1.36832131
| 30> H   -2.48521988   2.46148396  -0.49161546
| 31> C   -3.14986192  -0.87879751   0.21169418
| 32> H   -2.02632975   0.64987487   1.20195828
| 33> H   -4.05634719  -0.71184016   0.79185784
| 34> H   -3.44813135  -1.17957146  -0.79346933
| 35> H   -2.61440650  -1.70690004   0.67344949
| 36> C   -0.88552217   0.39878655  -1.75871167
| 37> C    0.44428351   0.21208456  -2.27241196
| 38> H   -1.69256554   0.77952336  -2.37724490
| 39> C    1.51988277   0.24021425  -1.38714150
| 40> C    2.72964056  -0.06970056  -2.07627694
| 41> S    0.89525338  -0.16305702  -3.86603984
| 42> C    2.54115052  -0.30423671  -3.40347842
| 43> H    1.54657988   1.21570194  -0.62350006
| 44> H    3.70606691  -0.06275810  -1.61416613
| 45> H    3.28779550  -0.53058588  -4.14946590
| 46> H   -0.72881501  -3.21722547  -0.22400152
| 47> H   -0.83723711  -2.39234926   2.36578900
| 48> H    1.61825067  -1.52758819   3.04206068
| 49> O    1.49397104   2.38738449   0.16681406
| 50> O    0.54832550   0.97193022   1.60196157
| 51> C    1.00293186   2.12322084   1.27150413
| 52> C    0.94234941   3.17598991   2.34043066
| 53> H    0.91837302   4.17079992   1.90381799
| 54> H    1.84114051   3.10509150   2.95595861
| 55> H    0.08587159   3.03266574   2.99505762
| 56> H    3.25554507  -1.88945273   0.95531759
| 57> H    1.78096969  -2.90841404  -1.08814994
| 58> *
| 59>
| 60>                          ****END OF INPUT****
 Total Charge           Charge          ....    1
 Multiplicity           Mult            ....    1
 Number of Electrons    NEL             ....  164
Dispersion correction           -0.030909000
FINAL SINGLE POINT ENERGY     -1288.400880860350
Dispersion correction            ... done
Dispersion correction           -0.030836770
FINAL SINGLE POINT ENERGY     -1288.400692466075
Dispersion correction            ... done
Dispersion correction           -0.030845180
FINAL SINGLE POINT ENERGY     -1288.400363662774
Dispersion correction            ... done
FINAL SINGLE POINT ENERGY     -1288.401148282821
FINAL SINGLE POINT ENERGY     -1288.401226175757
FINAL SINGLE POINT ENERGY     -1288.401255220114
FINAL SINGLE POINT ENERGY     -1288.401303966744
FINAL SINGLE POINT ENERGY     -1288.401329226338
FINAL SINGLE POINT ENERGY     -1288.401340861218
FINAL SINGLE POINT ENERGY     -1288.401350382579
FINAL SINGLE POINT ENERGY     -1288.401358799348
FINAL SINGLE POINT ENERGY     -1288.401361274808
FINAL SINGLE POINT ENERGY     -1288.401362018127
FINAL SINGLE POINT ENERGY     -1288.401365171709
FINAL SINGLE POINT ENERGY     -1288.401368523837
Dispersion correction            ... done
Dispersion correction           -0.030683126
FINAL SINGLE POINT ENERGY     -1288.401370544847
Dispersion correction            ... done
Dispersion correction           -0.030683337
FINAL SINGLE POINT ENERGY     -1288.401371550965
Dispersion correction            ... done
                    ***********************HURRAY********************

CARTESIAN COORDINATES (ANGSTROEM)
---------------------------------
  Ir     0.609499   -0.720450    0.441712
  C      0.112254   -2.829616    0.355514
  C     -0.030905   -2.361378    1.709146
  C      2.175685   -2.081188    1.076533
  C      1.456378   -2.654760   -0.032870
  C      1.255259   -1.930927    2.141182
  N     -1.060498    0.127410   -0.514678
  C     -2.335343    0.353945    0.184414
  C     -3.132954    1.529718   -0.361292
  H     -3.963076    1.734819    0.313025
  H     -3.570641    1.327550   -1.339832
  H     -2.531924    2.437042   -0.424920
  C     -3.156314   -0.930798    0.168938
  H     -2.055682    0.580175    1.214335
  H     -4.065966   -0.795620    0.752583
  H     -3.449006   -1.198456   -0.847163
  H     -2.612787   -1.769794    0.600213
  C     -0.902028    0.437287   -1.747722
  C      0.421809    0.263333   -2.272719
  H     -1.711274    0.838583   -2.349896
  C      1.490320    0.171330   -1.383650
  C      2.694092   -0.110729   -2.096155
  S      0.872244    0.034664   -3.893616
  C      2.507735   -0.204552   -3.441648
  H      1.611067    1.160305   -0.602920
  H      3.667499   -0.180716   -1.632884
  H      3.252451   -0.380268   -4.203008
  H     -0.672415   -3.243436   -0.261109
  H     -0.922750   -2.401384    2.316001
  H      1.476949   -1.491119    3.103374
  O      1.687295    2.318821    0.179405
  O      0.537409    1.006415    1.560701
  C      1.093610    2.113410    1.249382
  C      1.031410    3.201155    2.281716
  H      1.009522    4.179590    1.808406
  H      1.932349    3.154863    2.896143
  H      0.173764    3.082674    2.938775
  H      3.231064   -1.858897    1.111488
  H      1.873271   -2.909814   -0.996162

 Multiplicity           Mult            ....    1
 Number of Electrons    NEL             ....  164
 Basis Dimension        Dim             ....  358

ORBITAL ENERGIES
----------------

  NO   OCC          E(Eh)            E(eV)
   0   2.0000     -89.763981     -2442.6021
   1   2.0000     -19.630249      -534.1662
   2   2.0000     -19.609784      -533.6094
   3   2.0000     -14.835959      -403.7070
   4   2.0000     -10.690604      -290.9061
   5   2.0000     -10.656729      -289.9843
   6   2.0000     -10.629111      -289.2328
   7   2.0000     -10.627576      -289.1911
   8   2.0000     -10.627391      -289.1860
   9   2.0000     -10.625756      -289.1415
  10   2.0000     -10.620363      -288.9948
  11   2.0000     -10.617929      -288.9285
  12   2.0000     -10.613480      -288.8075
  13   2.0000     -10.610073      -288.7148
  14   2.0000     -10.588108      -288.1171
  15   2.0000     -10.587547      -288.1018
  16   2.0000     -10.554461      -287.2015
  17   2.0000     -10.550868      -287.1037
  18   2.0000     -10.540329      -286.8169
  19   2.0000      -8.403417      -228.6686
  20   2.0000      -6.293304      -171.2495
  21   2.0000      -6.289728      -171.1522
  22   2.0000      -6.288393      -171.1159
  23   2.0000      -4.023475      -109.4843
  24   2.0000      -2.341269       -63.7092
  25   2.0000      -2.308866       -62.8274
  26   2.0000      -2.306649       -62.7671
  27   2.0000      -1.317891       -35.8616
  28   2.0000      -1.219536       -33.1853
  29   2.0000      -1.208210       -32.8771
  30   2.0000      -1.164615       -31.6908
  31   2.0000      -1.127612       -30.6839
  32   2.0000      -1.024806       -27.8864
  33   2.0000      -0.977753       -26.6060
  34   2.0000      -0.970663       -26.4131
  35   2.0000      -0.968066       -26.3424
  36   2.0000      -0.959518       -26.1098
  37   2.0000      -0.934940       -25.4410
  38   2.0000      -0.900896       -24.5146
  39   2.0000      -0.872689       -23.7471
  40   2.0000      -0.798376       -21.7249
  41   2.0000      -0.782101       -21.2821
  42   2.0000      -0.780417       -21.2362
  43   2.0000      -0.779760       -21.2184
  44   2.0000      -0.765142       -20.8206
  45   2.0000      -0.758280       -20.6339
  46   2.0000      -0.742663       -20.2089
  47   2.0000      -0.722623       -19.6636
  48   2.0000      -0.691074       -18.8051
  49   2.0000      -0.681530       -18.5454
  50   2.0000      -0.663444       -18.0532
  51   2.0000      -0.654621       -17.8131
  52   2.0000      -0.647159       -17.6101
  53   2.0000      -0.636993       -17.3335
  54   2.0000      -0.633809       -17.2468
  55   2.0000      -0.630806       -17.1651
  56   2.0000      -0.622031       -16.9263
  57   2.0000      -0.610793       -16.6205
  58   2.0000      -0.600713       -16.3462
  59   2.0000      -0.600095       -16.3294
  60   2.0000      -0.599097       -16.3023
  61   2.0000      -0.591041       -16.0830
  62   2.0000      -0.579443       -15.7675
  63   2.0000      -0.568791       -15.4776
  64   2.0000      -0.563076       -15.3221
  65   2.0000      -0.562406       -15.3038
  66   2.0000      -0.552741       -15.0408
  67   2.0000      -0.547599       -14.9009
  68   2.0000      -0.541628       -14.7385
  69   2.0000      -0.535454       -14.5704
  70   2.0000      -0.528464       -14.3802
  71   2.0000      -0.518470       -14.1083
  72   2.0000      -0.513715       -13.9789
  73   2.0000      -0.499937       -13.6040
  74   2.0000      -0.493342       -13.4245
  75   2.0000      -0.480705       -13.0806
  76   2.0000      -0.478089       -13.0095
  77   2.0000      -0.446890       -12.1605
  78   2.0000      -0.444951       -12.1077
  79   2.0000      -0.419705       -11.4207
  80   2.0000      -0.417093       -11.3497
  81   2.0000      -0.397726       -10.8227
  82   0.0000      -0.204410        -5.5623
  83   0.0000      -0.143197        -3.8966
  84   0.0000      -0.141378        -3.8471
  85   0.0000      -0.088609        -2.4112
  86   0.0000      -0.073773        -2.0075

MULLIKEN ATOMIC CHARGES
-----------------------
   0 Ir:    0.604110
   1 C :   -0.228444
   2 C :   -0.271238
   3 C :   -0.258337
   4 C :   -0.232312
   5 C :   -0.157867
   6 N :   -0.432503
   7 C :   -0.125721
   8 C :   -0.684475
   9 H :    0.270058
  10 H :    0.224469
  11 H :    0.255931
  12 C :   -0.634739
  13 H :    0.281685
  14 H :    0.260519
  15 H :    0.231969
  16 H :    0.232380
  17 C :    0.070233
  18 C :   -0.139226
  19 H :    0.286730
  20 C :   -0.529218
  21 C :   -0.109235
  22 S :    0.335101
  23 C :   -0.429264
  24 H :    0.478251
  25 H :    0.266480
  26 H :    0.298096
  27 H :    0.287140
  28 H :    0.285119
  29 H :    0.301147
  30 O :   -0.478388
  31 O :   -0.521725
  32 C :    0.626730
  33 C :   -0.744082
  34 H :    0.271755
  35 H :    0.271710
  36 H :    0.257928
  37 H :    0.285639
  38 H :    0.293592
Sum of atomic charges:    1.0000000

LOEWDIN ATOMIC CHARGES
----------------------
   0 Ir:   -0.249968
   1 C :   -0.051292
   2 C :   -0.088976
   3 C :   -0.083474
   4 C :   -0.045683
   5 C :   -0.015575
   6 N :   -0.004072
   7 C :   -0.069431
   8 C :   -0.362768
   9 H :    0.156520
  10 H :    0.132877
  11 H :    0.144415
  12 C :   -0.343709
  13 H :    0.155984
  14 H :    0.151444
  15 H :    0.137637
  16 H :    0.132895
  17 C :    0.029972
  18 C :   -0.184761
  19 H :    0.160865
  20 C :   -0.215437
  21 C :   -0.126453
  22 S :    0.492813
  23 C :   -0.260020
  24 H :    0.335924
  25 H :    0.162338
  26 H :    0.169052
  27 H :    0.182927
  28 H :    0.181543
  29 H :    0.190280
  30 O :   -0.266300
  31 O :   -0.193069
  32 C :    0.160306
  33 C :   -0.372959
  34 H :    0.162646
  35 H :    0.170290
  36 H :    0.154711
  37 H :    0.183368
  38 H :    0.185141

  Mayer bond orders larger than 0.100000
B(  0-Ir,  1-C ) :   0.4269 B(  0-Ir,  2-C ) :   0.4545 B(  0-Ir,  3-C ) :   0.4636
B(  0-Ir,  4-C ) :   0.4368 B(  0-Ir,  5-C ) :   0.3908 B(  0-Ir,  6-N ) :   0.4641
B(  0-Ir, 20-C ) :   0.4032 B(  0-Ir, 31-O ) :   0.5426 B(  1-C ,  2-C ) :   1.1270
B(  1-C ,  4-C ) :   1.2358 B(  1-C , 27-H ) :   0.9064 B(  2-C ,  5-C ) :   1.1757
B(  2-C , 28-H ) :   0.9099 B(  3-C ,  4-C ) :   1.1229 B(  3-C ,  5-C ) :   1.1999
B(  3-C , 37-H ) :   0.9106 B(  4-C , 38-H ) :   0.9000 B(  5-C , 29-H ) :   0.8998
B(  6-N ,  7-C ) :   0.8944 B(  6-N , 17-C ) :   1.6581 B(  7-C ,  8-C ) :   0.9907
B(  7-C , 12-C ) :   0.9666 B(  7-C , 13-H ) :   0.8750 B(  8-C ,  9-H ) :   0.9045
B(  8-C , 10-H ) :   0.9130 B(  8-C , 11-H ) :   0.9111 B( 12-C , 14-H ) :   0.9075
B( 12-C , 15-H ) :   0.9154 B( 12-C , 16-H ) :   0.9121 B( 17-C , 18-C ) :   1.0983
B( 17-C , 19-H ) :   0.8759 B( 18-C , 20-C ) :   1.2474 B( 18-C , 22-S ) :   1.2437
B( 20-C , 21-C ) :   1.2695 B( 20-C , 24-H ) :   0.3923 B( 21-C , 23-C ) :   1.5470
B( 21-C , 25-H ) :   0.9032 B( 22-S , 23-C ) :   1.2129 B( 23-C , 26-H ) :   0.8912
B( 24-H , 30-O ) :   0.3046 B( 30-O , 32-C ) :   1.6160 B( 31-O , 32-C ) :   1.3378
B( 32-C , 33-C ) :   0.9452 B( 33-C , 34-H ) :   0.9021 B( 33-C , 35-H ) :   0.8955
B( 33-C , 36-H ) :   0.9086

Dispersion correction           -0.030684864
FINAL SINGLE POINT ENERGY     -1288.401371993369

DIPOLE MOMENT
-------------
                                X             Y             Z
Electronic contribution:     37.12821     -71.15156      72.85285
Nuclear contribution   :    -37.76921      70.39850     -73.15773
                        -----------------------------------------
Total Dipole Moment    :     -0.64100      -0.75307      -0.30488
                        -----------------------------------------
Magnitude (a.u.)       :      1.03487
Magnitude (Debye)      :      2.63042

Rotational constants in cm-1:     0.010526     0.008900     0.008210
Rotational constants in MHz :   315.554826   266.801999   246.142358

                             ****ORCA TERMINATED NORMALLY****
TOTAL RUN TIME: 0 days 2 hours 9 minutes 48 seconds 359 msec
