                         Program Version 5.0.3 -  RELEASE  -
|  1> ! Opt PBEh-3c
|  2> %geom Constraints
|  3> { B 0 20 2.5571428571428574 C }
|  4> { B 24 30 1.4857142857142858 C }
|  5>     end
|  6> end
|  7> %output
|  8> xyzfile=True
|  9> end
| 10> %scf
| 11> maxiter 250
| 12> end
| 13> %output
| 14> Print[P_Hirshfeld] = 1
| 15> end
| 16> % maxcore
| 17> 4000
| 18> %pal nprocs 2
| 19> end
| 20> *xyz 1 1
| 21> Ir   0.58127022  -0.72844282   0.47086482
| 22> C    0.03328717  -2.80987120   0.32994191
| 23> C    0.12225722  -2.36865279   1.70260242
| 24> C    2.20015296  -2.13837558   0.74355575
| 25> C    1.29358007  -2.63848607  -0.26611939
| 26> C    1.49212580  -2.01538874   1.95052150
| 27> N   -1.03750421   0.18293623  -0.51225760
| 28> C   -2.30714981   0.53113388   0.14443891
| 29> C   -3.12421679   1.56049530  -0.61862125
| 30> H   -3.95587925   1.88199254   0.00675108
| 31> H   -3.56149961   1.16197250  -1.53561408
| 32> H   -2.54112751   2.44921255  -0.86226438
| 33> C   -3.10732788  -0.73767610   0.41084104
| 34> H   -2.01256348   0.96462984   1.10169806
| 35> H   -4.01976961  -0.48662739   0.94947070
| 36> H   -3.39506562  -1.22756418  -0.52039568
| 37> H   -2.55751361  -1.45018685   1.02433374
| 38> C   -0.82197069   0.38217829  -1.75318122
| 39> C    0.53119254   0.13744493  -2.21459207
| 40> H   -1.59156608   0.74914022  -2.42646712
| 41> C    1.64852013   0.57070281  -1.51236442
| 42> C    2.84276305   0.12703087  -2.14917174
| 43> S    0.93374971  -0.73853610  -3.62757506
| 44> C    2.60967727  -0.58056549  -3.28603374
| 45> H    1.55972520   1.41598901  -0.73319531
| 46> H    3.83499086   0.37153039  -1.79907502
| 47> H    3.33513993  -1.00433067  -3.96390215
| 48> H   -0.85884917  -3.16923644  -0.16242641
| 49> H   -0.66338006  -2.40813802   2.44314221
| 50> H    1.88383953  -1.63255189   2.88197198
| 51> O    1.22897682   2.46781482   0.28379435
| 52> O    0.54583460   0.88099415   1.69653385
| 53> C    0.86940280   2.10064290   1.39453708
| 54> C    0.80175325   3.05683398   2.55359597
| 55> H    0.72262559   4.08097735   2.19914457
| 56> H    1.72019555   2.97570190   3.13819176
| 57> H   -0.02599310   2.82881450   3.22203568
| 58> H    3.24242750  -1.89924635   0.59189796
| 59> H    1.54725870  -2.84510226  -1.29586867
| 60> *
| 61>
| 62>                          ****END OF INPUT****
 Total Charge           Charge          ....    1
 Multiplicity           Mult            ....    1
 Number of Electrons    NEL             ....  164
Dispersion correction           -0.031049888
FINAL SINGLE POINT ENERGY     -1288.397993224069
Dispersion correction            ... done
Dispersion correction           -0.031010177
FINAL SINGLE POINT ENERGY     -1288.397348447414
Dispersion correction            ... done
Dispersion correction           -0.030965434
FINAL SINGLE POINT ENERGY     -1288.398076031043
Dispersion correction            ... done
FINAL SINGLE POINT ENERGY     -1288.397867005885
FINAL SINGLE POINT ENERGY     -1288.398097507585
Dispersion correction            ... done
Dispersion correction           -0.030948299
FINAL SINGLE POINT ENERGY     -1288.398099581124
Dispersion correction            ... done
Dispersion correction           -0.030958754
FINAL SINGLE POINT ENERGY     -1288.398106167041
Dispersion correction            ... done
                    ***********************HURRAY********************

CARTESIAN COORDINATES (ANGSTROEM)
---------------------------------
  Ir     0.585082   -0.725459    0.457638
  C      0.031579   -2.806209    0.330402
  C      0.123756   -2.361065    1.701039
  C      2.200657   -2.138155    0.736331
  C      1.291524   -2.640682   -0.269579
  C      1.494112   -2.007784    1.943801
  N     -1.040878    0.182574   -0.517177
  C     -2.309359    0.527001    0.143292
  C     -3.131513    1.554673   -0.616693
  H     -3.963366    1.872196    0.010427
  H     -3.568461    1.155387   -1.533507
  H     -2.552247    2.445972   -0.860073
  C     -3.106386   -0.743583    0.411423
  H     -2.012754    0.960029    1.100148
  H     -4.017621   -0.494429    0.952961
  H     -3.396125   -1.233876   -0.518959
  H     -2.552854   -1.454694    1.023061
  C     -0.827252    0.386264   -1.757835
  C      0.526577    0.143788   -2.216875
  H     -1.596766    0.754829   -2.430180
  C      1.638944    0.551874   -1.490894
  C      2.836884    0.111156   -2.124168
  S      0.937443   -0.708368   -3.640450
  C      2.611099   -0.570455   -3.277931
  H      1.553967    1.408399   -0.713785
  H      3.827088    0.340659   -1.758382
  H      3.340573   -0.985401   -3.956957
  H     -0.862210   -3.165299   -0.159211
  H     -0.660060   -2.397252    2.443555
  H      1.888272   -1.620978    2.872568
  O      1.256402    2.471658    0.280339
  O      0.541814    0.888288    1.681363
  C      0.880563    2.104182    1.386826
  C      0.809094    3.059637    2.546032
  H      0.744379    4.085147    2.192644
  H      1.719638    2.968193    3.141354
  H     -0.028896    2.838540    3.203969
  H      3.243569   -1.903423    0.582608
  H      1.543102   -2.854144   -1.298382

 Multiplicity           Mult            ....    1
 Number of Electrons    NEL             ....  164
 Basis Dimension        Dim             ....  358

ORBITAL ENERGIES
----------------

  NO   OCC          E(Eh)            E(eV)
   0   2.0000     -89.762070     -2442.5501
   1   2.0000     -19.620348      -533.8968
   2   2.0000     -19.579859      -532.7950
   3   2.0000     -14.842989      -403.8983
   4   2.0000     -10.675569      -290.4970
   5   2.0000     -10.663901      -290.1795
   6   2.0000     -10.639496      -289.5154
   7   2.0000     -10.637355      -289.4571
   8   2.0000     -10.635531      -289.4075
   9   2.0000     -10.634342      -289.3752
  10   2.0000     -10.634233      -289.3722
  11   2.0000     -10.633043      -289.3398
  12   2.0000     -10.617268      -288.9105
  13   2.0000     -10.610612      -288.7294
  14   2.0000     -10.584079      -288.0074
  15   2.0000     -10.583390      -287.9887
  16   2.0000     -10.558030      -287.2986
  17   2.0000     -10.552778      -287.1557
  18   2.0000     -10.529664      -286.5267
  19   2.0000      -8.401326      -228.6117
  20   2.0000      -6.291458      -171.1993
  21   2.0000      -6.287801      -171.0998
  22   2.0000      -6.285976      -171.0501
  23   2.0000      -4.032261      -109.7234
  24   2.0000      -2.351652       -63.9917
  25   2.0000      -2.317225       -63.0549
  26   2.0000      -2.315819       -63.0167
  27   2.0000      -1.298951       -35.3463
  28   2.0000      -1.215462       -33.0744
  29   2.0000      -1.203086       -32.7376
  30   2.0000      -1.176008       -32.0008
  31   2.0000      -1.127088       -30.6696
  32   2.0000      -1.028309       -27.9817
  33   2.0000      -0.991022       -26.9671
  34   2.0000      -0.981043       -26.6955
  35   2.0000      -0.965979       -26.2856
  36   2.0000      -0.960709       -26.1422
  37   2.0000      -0.922846       -25.1119
  38   2.0000      -0.904570       -24.6146
  39   2.0000      -0.874792       -23.8043
  40   2.0000      -0.798208       -21.7203
  41   2.0000      -0.791944       -21.5499
  42   2.0000      -0.790063       -21.4987
  43   2.0000      -0.781863       -21.2756
  44   2.0000      -0.775029       -21.0896
  45   2.0000      -0.754910       -20.5421
  46   2.0000      -0.744322       -20.2540
  47   2.0000      -0.722814       -19.6688
  48   2.0000      -0.695763       -18.9327
  49   2.0000      -0.671124       -18.2622
  50   2.0000      -0.665152       -18.0997
  51   2.0000      -0.652752       -17.7623
  52   2.0000      -0.648657       -17.6508
  53   2.0000      -0.641574       -17.4581
  54   2.0000      -0.635296       -17.2873
  55   2.0000      -0.626685       -17.0530
  56   2.0000      -0.624238       -16.9864
  57   2.0000      -0.613013       -16.6809
  58   2.0000      -0.611262       -16.6333
  59   2.0000      -0.609809       -16.5937
  60   2.0000      -0.597541       -16.2599
  61   2.0000      -0.588842       -16.0232
  62   2.0000      -0.578048       -15.7295
  63   2.0000      -0.572856       -15.5882
  64   2.0000      -0.564543       -15.3620
  65   2.0000      -0.554095       -15.0777
  66   2.0000      -0.551830       -15.0161
  67   2.0000      -0.548661       -14.9298
  68   2.0000      -0.539016       -14.6674
  69   2.0000      -0.535072       -14.5600
  70   2.0000      -0.528352       -14.3772
  71   2.0000      -0.522612       -14.2210
  72   2.0000      -0.516497       -14.0546
  73   2.0000      -0.507566       -13.8116
  74   2.0000      -0.487538       -13.2666
  75   2.0000      -0.481428       -13.1003
  76   2.0000      -0.465019       -12.6538
  77   2.0000      -0.450277       -12.2526
  78   2.0000      -0.439682       -11.9644
  79   2.0000      -0.424805       -11.5595
  80   2.0000      -0.417211       -11.3529
  81   2.0000      -0.405304       -11.0289
  82   0.0000      -0.200919        -5.4673
  83   0.0000      -0.167252        -4.5512
  84   0.0000      -0.142426        -3.8756
  85   0.0000      -0.104964        -2.8562
  86   0.0000      -0.077817        -2.1175

MULLIKEN ATOMIC CHARGES
-----------------------
   0 Ir:    0.622900
   1 C :   -0.207797
   2 C :   -0.297333
   3 C :   -0.230993
   4 C :   -0.245521
   5 C :   -0.163641
   6 N :   -0.421777
   7 C :   -0.115598
   8 C :   -0.696827
   9 H :    0.273945
  10 H :    0.226192
  11 H :    0.261626
  12 C :   -0.640814
  13 H :    0.281868
  14 H :    0.265920
  15 H :    0.230930
  16 H :    0.233670
  17 C :    0.067343
  18 C :   -0.231094
  19 H :    0.294169
  20 C :   -0.388803
  21 C :   -0.141116
  22 S :    0.290181
  23 C :   -0.429327
  24 H :    0.488421
  25 H :    0.269053
  26 H :    0.297567
  27 H :    0.293082
  28 H :    0.294988
  29 H :    0.308658
  30 O :   -0.476002
  31 O :   -0.548617
  32 C :    0.607408
  33 C :   -0.746164
  34 H :    0.267622
  35 H :    0.263961
  36 H :    0.249666
  37 H :    0.296769
  38 H :    0.295487
Sum of atomic charges:    1.0000000

LOEWDIN ATOMIC CHARGES
----------------------
   0 Ir:   -0.208272
   1 C :   -0.039169
   2 C :   -0.052870
   3 C :   -0.045934
   4 C :   -0.055745
   5 C :   -0.025509
   6 N :   -0.004350
   7 C :   -0.068012
   8 C :   -0.365101
   9 H :    0.158090
  10 H :    0.134169
  11 H :    0.147423
  12 C :   -0.343264
  13 H :    0.157154
  14 H :    0.153600
  15 H :    0.137345
  16 H :    0.134848
  17 C :    0.037281
  18 C :   -0.186618
  19 H :    0.163971
  20 C :   -0.172977
  21 C :   -0.143889
  22 S :    0.456767
  23 C :   -0.262730
  24 H :    0.266967
  25 H :    0.163211
  26 H :    0.167887
  27 H :    0.186325
  28 H :    0.187043
  29 H :    0.194784
  30 O :   -0.276579
  31 O :   -0.214848
  32 C :    0.148058
  33 C :   -0.378213
  34 H :    0.158387
  35 H :    0.165439
  36 H :    0.151357
  37 H :    0.188448
  38 H :    0.185528

  Mayer bond orders larger than 0.100000
B(  0-Ir,  1-C ) :   0.4189 B(  0-Ir,  2-C ) :   0.5581 B(  0-Ir,  3-C ) :   0.4660
B(  0-Ir,  4-C ) :   0.4488 B(  0-Ir,  5-C ) :   0.4023 B(  0-Ir,  6-N ) :   0.4612
B(  0-Ir, 20-C ) :   0.2002 B(  0-Ir, 31-O ) :   0.6043 B(  1-C ,  2-C ) :   1.1111
B(  1-C ,  4-C ) :   1.2507 B(  1-C , 27-H ) :   0.9029 B(  2-C ,  5-C ) :   1.1289
B(  2-C , 28-H ) :   0.9059 B(  3-C ,  4-C ) :   1.1021 B(  3-C ,  5-C ) :   1.2357
B(  3-C , 37-H ) :   0.9021 B(  4-C , 38-H ) :   0.8964 B(  5-C , 29-H ) :   0.8969
B(  6-N ,  7-C ) :   0.8902 B(  6-N , 17-C ) :   1.7084 B(  7-C ,  8-C ) :   0.9929
B(  7-C , 12-C ) :   0.9698 B(  7-C , 13-H ) :   0.8702 B(  8-C ,  9-H ) :   0.9030
B(  8-C , 10-H ) :   0.9121 B(  8-C , 11-H ) :   0.9073 B( 12-C , 14-H ) :   0.9060
B( 12-C , 15-H ) :   0.9151 B( 12-C , 16-H ) :   0.9102 B( 17-C , 18-C ) :   1.0367
B( 17-C , 19-H ) :   0.8734 B( 18-C , 20-C ) :   1.3145 B( 18-C , 22-S ) :   1.2152
B( 20-C , 21-C ) :   1.2575 B( 20-C , 24-H ) :   0.5415 B( 21-C , 23-C ) :   1.5495
B( 21-C , 25-H ) :   0.9033 B( 22-S , 23-C ) :   1.1992 B( 23-C , 26-H ) :   0.8925
B( 24-H , 30-O ) :   0.2011 B( 30-O , 32-C ) :   1.7415 B( 31-O , 32-C ) :   1.2425
B( 32-C , 33-C ) :   0.9453 B( 33-C , 34-H ) :   0.9064 B( 33-C , 35-H ) :   0.9003
B( 33-C , 36-H ) :   0.9105

Dispersion correction           -0.030968537
FINAL SINGLE POINT ENERGY     -1288.398106436319

DIPOLE MOMENT
-------------
                                X             Y             Z
Electronic contribution:     34.77648     -67.20986      72.56448
Nuclear contribution   :    -35.41285      65.84179     -72.84915
                        -----------------------------------------
Total Dipole Moment    :     -0.63637      -1.36807      -0.28467
                        -----------------------------------------
Magnitude (a.u.)       :      1.53546
Magnitude (Debye)      :      3.90282

Rotational constants in cm-1:     0.010840     0.009113     0.008263
Rotational constants in MHz :   324.963600   273.189877   247.708777

                             ****ORCA TERMINATED NORMALLY****
TOTAL RUN TIME: 0 days 1 hours 38 minutes 44 seconds 647 msec
