                         Program Version 5.0.3 -  RELEASE  -
|  1> ! Opt PBEh-3c
|  2> %geom Constraints
|  3> { B 0 20 2.1714285714285713 C }
|  4> { B 24 30 1.342857142857143 C }
|  5>     end
|  6> end
|  7> %output
|  8> xyzfile=True
|  9> end
| 10> %scf
| 11> maxiter 250
| 12> end
| 13> %output
| 14> Print[P_Hirshfeld] = 1
| 15> end
| 16> % maxcore
| 17> 4000
| 18> *xyz 1 1
| 19> Ir   0.60591921  -0.73150809   0.45216896
| 20> C    0.11922361  -2.83945274   0.35893370
| 21> C   -0.07623299  -2.37367686   1.70753064
| 22> C    2.15190071  -2.08258090   1.15737136
| 23> C    1.47880899  -2.66246047   0.02504822
| 24> C    1.18747798  -1.93537852   2.18615713
| 25> N   -1.06185124   0.11560042  -0.50695855
| 26> C   -2.34133996   0.32154576   0.19057372
| 27> C   -3.13247871   1.51763362  -0.31998262
| 28> H   -3.96664663   1.70173737   0.35528235
| 29> H   -3.56337805   1.35136898  -1.30820637
| 30> H   -2.52810292   2.42453892  -0.34820722
| 31> C   -3.16538575  -0.95952095   0.12525191
| 32> H   -2.07028111   0.51371913   1.22971874
| 33> H   -4.07795713  -0.84437666   0.70874548
| 34> H   -3.45296941  -1.18974140  -0.90144051
| 35> H   -2.62565151  -1.81540930   0.52725913
| 36> C   -0.90482275   0.44865872  -1.73504075
| 37> C    0.41417758   0.28749206  -2.27105647
| 38> H   -1.71791077   0.85861093  -2.32611834
| 39> C    1.48002372   0.12956343  -1.39107773
| 40> C    2.68048973  -0.12272558  -2.11678394
| 41> S    0.86538823   0.16309210  -3.90517010
| 42> C    2.49481543  -0.12478650  -3.46706987
| 43> H    1.63722846   1.15044491  -0.58706626
| 44> H    3.65235918  -0.23818893  -1.65935753
| 45> H    3.23964938  -0.26120341  -4.23637184
| 46> H   -0.63762438  -3.26135196  -0.28618069
| 47> H   -0.99029460  -2.41624335   2.28009523
| 48> H    1.36914161  -1.49247519   3.15533000
| 49> O    1.74588489   2.28002449   0.15729956
| 50> O    0.55061148   1.01930255   1.54699472
| 51> C    1.13159727   2.10478105   1.22733163
| 52> C    1.08379650   3.22228682   2.22640569
| 53> H    0.95606127   4.17804717   1.72295619
| 54> H    2.03687247   3.26359973   2.75636858
| 55> H    0.29311429   3.07544736   2.95659200
| 56> H    3.20495754  -1.86052281   1.23499890
| 57> H    1.93279841  -2.91670187  -0.92158502
| 58> *
| 59>
| 60>                          ****END OF INPUT****
 Total Charge           Charge          ....    1
 Multiplicity           Mult            ....    1
 Number of Electrons    NEL             ....  164
Dispersion correction           -0.030698673
FINAL SINGLE POINT ENERGY     -1288.403334168302
Dispersion correction            ... done
Dispersion correction           -0.030656106
FINAL SINGLE POINT ENERGY     -1288.403583080418
Dispersion correction            ... done
Dispersion correction           -0.030635944
FINAL SINGLE POINT ENERGY     -1288.403666375808
Dispersion correction            ... done
FINAL SINGLE POINT ENERGY     -1288.403711376844
FINAL SINGLE POINT ENERGY     -1288.403743911573
FINAL SINGLE POINT ENERGY     -1288.403756769306
FINAL SINGLE POINT ENERGY     -1288.403761385738
FINAL SINGLE POINT ENERGY     -1288.403763127918
FINAL SINGLE POINT ENERGY     -1288.403765737052
FINAL SINGLE POINT ENERGY     -1288.403768888656
FINAL SINGLE POINT ENERGY     -1288.403774062961
FINAL SINGLE POINT ENERGY     -1288.403779556832
Dispersion correction            ... done
Dispersion correction           -0.030577046
FINAL SINGLE POINT ENERGY     -1288.403784127712
Dispersion correction            ... done
Dispersion correction           -0.030578960
FINAL SINGLE POINT ENERGY     -1288.403787155986
Dispersion correction            ... done
                    ***********************HURRAY********************

CARTESIAN COORDINATES (ANGSTROEM)
---------------------------------
  Ir     0.606401   -0.733516    0.440456
  C      0.138622   -2.844869    0.352277
  C     -0.099057   -2.385585    1.696643
  C      2.139828   -2.066067    1.207542
  C      1.508344   -2.658895    0.060965
  C      1.140223   -1.929708    2.208773
  N     -1.070223    0.108195   -0.507645
  C     -2.348784    0.299223    0.195073
  C     -3.139355    1.507348   -0.287193
  H     -3.974131    1.675222    0.391451
  H     -3.568915    1.365600   -1.279802
  H     -2.534216    2.414170   -0.292744
  C     -3.173220   -0.979820    0.101212
  H     -2.077400    0.468058    1.238243
  H     -4.083589   -0.880035    0.690973
  H     -3.464399   -1.184403   -0.929881
  H     -2.631187   -1.845503    0.478499
  C     -0.917751    0.459183   -1.731752
  C      0.398622    0.300809   -2.271418
  H     -1.732143    0.879367   -2.313530
  C      1.450410    0.081742   -1.386592
  C      2.656372   -0.149585   -2.111461
  S      0.867904    0.257416   -3.904166
  C      2.486960   -0.077340   -3.462122
  H      1.638829    1.150209   -0.601642
  H      3.621109   -0.304758   -1.650535
  H      3.239751   -0.184998   -4.228250
  H     -0.592535   -3.281169   -0.312484
  H     -1.029677   -2.434741    2.241109
  H      1.287209   -1.482001    3.181593
  O      1.772989    2.273510    0.121865
  O      0.564359    1.035085    1.519097
  C      1.157416    2.108796    1.197121
  C      1.132102    3.234067    2.187451
  H      1.010301    4.187962    1.678997
  H      2.090492    3.268225    2.708306
  H      0.346284    3.100288    2.925208
  H      3.188670   -1.839039    1.319581
  H      1.992757   -2.913255   -0.870477

 Multiplicity           Mult            ....    1
 Number of Electrons    NEL             ....  164
 Basis Dimension        Dim             ....  358

ORBITAL ENERGIES
----------------

  NO   OCC          E(Eh)            E(eV)
   0   2.0000     -89.760888     -2442.5179
   1   2.0000     -19.637498      -534.3635
   2   2.0000     -19.626023      -534.0512
   3   2.0000     -14.832225      -403.6054
   4   2.0000     -10.699880      -291.1585
   5   2.0000     -10.653568      -289.8983
   6   2.0000     -10.626571      -289.1637
   7   2.0000     -10.624529      -289.1081
   8   2.0000     -10.623195      -289.0718
   9   2.0000     -10.621909      -289.0368
  10   2.0000     -10.616716      -288.8955
  11   2.0000     -10.613087      -288.7968
  12   2.0000     -10.612215      -288.7731
  13   2.0000     -10.608350      -288.6679
  14   2.0000     -10.588372      -288.1242
  15   2.0000     -10.586304      -288.0680
  16   2.0000     -10.552898      -287.1590
  17   2.0000     -10.550012      -287.0804
  18   2.0000     -10.546302      -286.9795
  19   2.0000      -8.400285      -228.5834
  20   2.0000      -6.290178      -171.1645
  21   2.0000      -6.286641      -171.0682
  22   2.0000      -6.285231      -171.0298
  23   2.0000      -4.021073      -109.4190
  24   2.0000      -2.338284       -63.6279
  25   2.0000      -2.306967       -62.7758
  26   2.0000      -2.303888       -62.6920
  27   2.0000      -1.328961       -36.1629
  28   2.0000      -1.230027       -33.4707
  29   2.0000      -1.205029       -32.7905
  30   2.0000      -1.161322       -31.6012
  31   2.0000      -1.125024       -30.6135
  32   2.0000      -1.022820       -27.8323
  33   2.0000      -0.974088       -26.5063
  34   2.0000      -0.967631       -26.3306
  35   2.0000      -0.965807       -26.2809
  36   2.0000      -0.957244       -26.0479
  37   2.0000      -0.941846       -25.6289
  38   2.0000      -0.899547       -24.4779
  39   2.0000      -0.870333       -23.6830
  40   2.0000      -0.796393       -21.6710
  41   2.0000      -0.780274       -21.2323
  42   2.0000      -0.777398       -21.1541
  43   2.0000      -0.776928       -21.1413
  44   2.0000      -0.764059       -20.7911
  45   2.0000      -0.761826       -20.7303
  46   2.0000      -0.741188       -20.1688
  47   2.0000      -0.721672       -19.6377
  48   2.0000      -0.693709       -18.8768
  49   2.0000      -0.683659       -18.6033
  50   2.0000      -0.662652       -18.0317
  51   2.0000      -0.662225       -18.0201
  52   2.0000      -0.649235       -17.6666
  53   2.0000      -0.638286       -17.3686
  54   2.0000      -0.631356       -17.1801
  55   2.0000      -0.628608       -17.1053
  56   2.0000      -0.621275       -16.9058
  57   2.0000      -0.608843       -16.5675
  58   2.0000      -0.597916       -16.2701
  59   2.0000      -0.597752       -16.2657
  60   2.0000      -0.596955       -16.2440
  61   2.0000      -0.590353       -16.0643
  62   2.0000      -0.577584       -15.7168
  63   2.0000      -0.569731       -15.5032
  64   2.0000      -0.563975       -15.3465
  65   2.0000      -0.561215       -15.2714
  66   2.0000      -0.556217       -15.1354
  67   2.0000      -0.545855       -14.8535
  68   2.0000      -0.541977       -14.7479
  69   2.0000      -0.534932       -14.5562
  70   2.0000      -0.528868       -14.3912
  71   2.0000      -0.517696       -14.0872
  72   2.0000      -0.512755       -13.9528
  73   2.0000      -0.502083       -13.6624
  74   2.0000      -0.496705       -13.5160
  75   2.0000      -0.483691       -13.1619
  76   2.0000      -0.478072       -13.0090
  77   2.0000      -0.450468       -12.2579
  78   2.0000      -0.444663       -12.0999
  79   2.0000      -0.416563       -11.3353
  80   2.0000      -0.416514       -11.3339
  81   2.0000      -0.395118       -10.7517
  82   0.0000      -0.200736        -5.4623
  83   0.0000      -0.142852        -3.8872
  84   0.0000      -0.134628        -3.6634
  85   0.0000      -0.085014        -2.3134
  86   0.0000      -0.073242        -1.9930

MULLIKEN ATOMIC CHARGES
-----------------------
   0 Ir:    0.603134
   1 C :   -0.243334
   2 C :   -0.263255
   3 C :   -0.268979
   4 C :   -0.222882
   5 C :   -0.154489
   6 N :   -0.437014
   7 C :   -0.126070
   8 C :   -0.680567
   9 H :    0.268702
  10 H :    0.224376
  11 H :    0.253551
  12 C :   -0.633357
  13 H :    0.277964
  14 H :    0.258480
  15 H :    0.232567
  16 H :    0.232651
  17 C :    0.069036
  18 C :   -0.129825
  19 H :    0.284019
  20 C :   -0.535353
  21 C :   -0.112003
  22 S :    0.337660
  23 C :   -0.426021
  24 H :    0.475321
  25 H :    0.265397
  26 H :    0.297123
  27 H :    0.285761
  28 H :    0.282436
  29 H :    0.298081
  30 O :   -0.484957
  31 O :   -0.506701
  32 C :    0.633707
  33 C :   -0.744322
  34 H :    0.273915
  35 H :    0.276151
  36 H :    0.262552
  37 H :    0.283000
  38 H :    0.293543
Sum of atomic charges:    1.0000000

LOEWDIN ATOMIC CHARGES
----------------------
   0 Ir:   -0.257793
   1 C :   -0.058580
   2 C :   -0.093987
   3 C :   -0.094879
   4 C :   -0.038637
   5 C :   -0.016326
   6 N :   -0.007603
   7 C :   -0.069127
   8 C :   -0.361979
   9 H :    0.155880
  10 H :    0.132686
  11 H :    0.143264
  12 C :   -0.344041
  13 H :    0.153935
  14 H :    0.150532
  15 H :    0.137931
  16 H :    0.132735
  17 C :    0.030018
  18 C :   -0.194771
  19 H :    0.159563
  20 C :   -0.217444
  21 C :   -0.131524
  22 S :    0.491338
  23 C :   -0.257478
  24 H :    0.358080
  25 H :    0.161348
  26 H :    0.168781
  27 H :    0.182416
  28 H :    0.179871
  29 H :    0.188333
  30 O :   -0.260595
  31 O :   -0.179371
  32 C :    0.167299
  33 C :   -0.371384
  34 H :    0.165531
  35 H :    0.172564
  36 H :    0.156226
  37 H :    0.182176
  38 H :    0.185009

  Mayer bond orders larger than 0.100000
B(  0-Ir,  1-C ) :   0.4437 B(  0-Ir,  2-C ) :   0.4219 B(  0-Ir,  3-C ) :   0.4679
B(  0-Ir,  4-C ) :   0.4296 B(  0-Ir,  5-C ) :   0.3783 B(  0-Ir,  6-N ) :   0.4659
B(  0-Ir, 20-C ) :   0.4617 B(  0-Ir, 31-O ) :   0.5177 B(  1-C ,  2-C ) :   1.1262
B(  1-C ,  4-C ) :   1.2242 B(  1-C , 27-H ) :   0.9081 B(  2-C ,  5-C ) :   1.2050
B(  2-C , 28-H ) :   0.9101 B(  3-C ,  4-C ) :   1.1374 B(  3-C ,  5-C ) :   1.1781
B(  3-C , 37-H ) :   0.9126 B(  4-C , 38-H ) :   0.8997 B(  5-C , 29-H ) :   0.9011
B(  6-N ,  7-C ) :   0.8957 B(  6-N , 17-C ) :   1.6468 B(  7-C ,  8-C ) :   0.9903
B(  7-C , 12-C ) :   0.9670 B(  7-C , 13-H ) :   0.8780 B(  8-C ,  9-H ) :   0.9049
B(  8-C , 10-H ) :   0.9131 B(  8-C , 11-H ) :   0.9123 B( 12-C , 14-H ) :   0.9079
B( 12-C , 15-H ) :   0.9153 B( 12-C , 16-H ) :   0.9124 B( 17-C , 18-C ) :   1.1143
B( 17-C , 19-H ) :   0.8766 B( 18-C , 20-C ) :   1.2416 B( 18-C , 22-S ) :   1.2309
B( 20-C , 21-C ) :   1.2808 B( 20-C , 24-H ) :   0.3320 B( 21-C , 23-C ) :   1.5378
B( 21-C , 25-H ) :   0.9032 B( 22-S , 23-C ) :   1.2220 B( 23-C , 26-H ) :   0.8915
B( 24-H , 30-O ) :   0.3516 B( 30-O , 32-C ) :   1.5515 B( 31-O , 32-C ) :   1.3876
B( 32-C , 33-C ) :   0.9457 B( 33-C , 34-H ) :   0.8993 B( 33-C , 35-H ) :   0.8929
B( 33-C , 36-H ) :   0.9079

Dispersion correction           -0.030582198
FINAL SINGLE POINT ENERGY     -1288.403789638462

DIPOLE MOMENT
-------------
                                X             Y             Z
Electronic contribution:     36.89046     -73.60034      72.97836
Nuclear contribution   :    -37.48257      73.13383     -73.15391
                        -----------------------------------------
Total Dipole Moment    :     -0.59211      -0.46650      -0.17555
                        -----------------------------------------
Magnitude (a.u.)       :      0.77397
Magnitude (Debye)      :      1.96728

Rotational constants in cm-1:     0.010545     0.008769     0.008191
Rotational constants in MHz :   316.141807   262.886465   245.571591

                             ****ORCA TERMINATED NORMALLY****
TOTAL RUN TIME: 0 days 1 hours 57 minutes 10 seconds 429 msec
