                         Program Version 5.0.3 -  RELEASE  -
|  1> ! Opt PBEh-3c
|  2> %geom Constraints
|  3> { B 0 20 2.0 C }
|  4> { B 24 30 1.3714285714285714 C }
|  5>     end
|  6> end
|  7> %output
|  8> xyzfile=True
|  9> end
| 10> %scf
| 11> maxiter 250
| 12> end
| 13> %output
| 14> Print[P_Hirshfeld] = 1
| 15> end
| 16> % maxcore
| 17> 4000
| 18> *xyz 1 1
| 19> Ir   0.61907424  -0.73718800   0.39713185
| 20> C    0.17160677  -2.85706996   0.32134659
| 21> C   -0.09541126  -2.42413648   1.67002285
| 22> C    2.14240677  -2.05253231   1.21864775
| 23> C    1.54817331  -2.65791272   0.06293144
| 24> C    1.11609784  -1.94644205   2.20546676
| 25> N   -1.07819091   0.11021800  -0.50874957
| 26> C   -2.34482515   0.29552558   0.21379436
| 27> C   -3.13462471   1.51662348  -0.23509523
| 28> H   -3.96320822   1.67241802   0.45388581
| 29> H   -3.57244686   1.39858402  -1.22723033
| 30> H   -2.52594421   2.42109422  -0.22532854
| 31> C   -3.17558994  -0.97858782   0.10586756
| 32> H   -2.05777389   0.44204518   1.25621259
| 33> H   -4.07422210  -0.88950152   0.71499330
| 34> H   -3.48668059  -1.15808785  -0.92404220
| 35> H   -2.62859498  -1.85410653   0.45192388
| 36> C   -0.93409841   0.48511890  -1.72733267
| 37> C    0.38130611   0.30720818  -2.25996213
| 38> H   -1.74234265   0.93243413  -2.29629442
| 39> C    1.39373477   0.00242296  -1.34244911
| 40> C    2.62004720  -0.21766758  -2.05168697
| 41> S    0.90340940   0.34984376  -3.87112196
| 42> C    2.49859540  -0.05805293  -3.39794658
| 43> H    1.61822220   1.15250579  -0.70306495
| 44> H    3.56538066  -0.42573107  -1.57134731
| 45> H    3.27388195  -0.13867547  -4.14471188
| 46> H   -0.53678447  -3.30957883  -0.35698874
| 47> H   -1.03834989  -2.48512097   2.19127419
| 48> H    1.23576706  -1.50149506   3.18314654
| 49> O    1.72811764   2.32098610   0.03367166
| 50> O    0.60540571   1.03983306   1.46729959
| 51> C    1.15426113   2.13068211   1.12734044
| 52> C    1.12965440   3.25027324   2.12577212
| 53> H    1.01828421   4.20950720   1.62569399
| 54> H    2.08345025   3.27066226   2.65590308
| 55> H    0.33804270   3.11460924   2.85720834
| 56> H    3.18660182  -1.82090932   1.36058400
| 57> H    2.05693675  -2.91060895  -0.85602589
| 58> *
| 59>
| 60>                          ****END OF INPUT****
 Total Charge           Charge          ....    1
 Multiplicity           Mult            ....    1
 Number of Electrons    NEL             ....  164
Dispersion correction           -0.030872735
FINAL SINGLE POINT ENERGY     -1288.398598612788
Dispersion correction            ... done
Dispersion correction           -0.030829796
FINAL SINGLE POINT ENERGY     -1288.398592799833
Dispersion correction            ... done
Dispersion correction           -0.030858153
FINAL SINGLE POINT ENERGY     -1288.397462141982
Dispersion correction            ... done
FINAL SINGLE POINT ENERGY     -1288.398922679826
FINAL SINGLE POINT ENERGY     -1288.398970612797
FINAL SINGLE POINT ENERGY     -1288.399017740299
FINAL SINGLE POINT ENERGY     -1288.399101052017
FINAL SINGLE POINT ENERGY     -1288.399120568763
FINAL SINGLE POINT ENERGY     -1288.399128713273
FINAL SINGLE POINT ENERGY     -1288.399133525171
FINAL SINGLE POINT ENERGY     -1288.399136129735
FINAL SINGLE POINT ENERGY     -1288.399138763042
FINAL SINGLE POINT ENERGY     -1288.399141225802
FINAL SINGLE POINT ENERGY     -1288.399145772532
Dispersion correction            ... done
Dispersion correction           -0.030783367
FINAL SINGLE POINT ENERGY     -1288.399149785958
Dispersion correction            ... done
Dispersion correction           -0.030783745
FINAL SINGLE POINT ENERGY     -1288.399152623488
Dispersion correction            ... done
                    ***********************HURRAY********************

CARTESIAN COORDINATES (ANGSTROEM)
---------------------------------
  Ir     0.618857   -0.743388    0.383849
  C      0.191808   -2.865127    0.314078
  C     -0.115173   -2.447161    1.660459
  C      2.125931   -2.039292    1.267674
  C      1.576249   -2.655517    0.099251
  C      1.068311   -1.954193    2.229588
  N     -1.086632    0.101964   -0.505342
  C     -2.351994    0.271623    0.222646
  C     -3.135639    1.509318   -0.189661
  H     -3.964782    1.647792    0.502345
  H     -3.572061    1.424583   -1.185819
  H     -2.522316    2.409845   -0.151000
  C     -3.187803   -0.995484    0.077914
  H     -2.064208    0.386597    1.268851
  H     -4.082529   -0.924415    0.695144
  H     -3.505602   -1.139431   -0.955524
  H     -2.640808   -1.883815    0.389959
  C     -0.946011    0.495035   -1.719024
  C      0.368066    0.318551   -2.252608
  H     -1.754276    0.952695   -2.279453
  C      1.363786   -0.040487   -1.334002
  C      2.598235   -0.239026   -2.038989
  S      0.913402    0.435204   -3.852873
  C      2.496390   -0.012041   -3.377711
  H      1.619309    1.175025   -0.754748
  H      3.535007   -0.482533   -1.558443
  H      3.281681   -0.065284   -4.116459
  H     -0.489270   -3.332505   -0.381838
  H     -1.073665   -2.516614    2.151388
  H      1.154375   -1.511145    3.211513
  O      1.733212    2.330758   -0.025281
  O      0.634314    1.052471    1.431316
  C      1.176061    2.139414    1.081100
  C      1.172995    3.263934    2.073620
  H      1.067043    4.222721    1.571701
  H      2.131470    3.275279    2.595670
  H      0.386696    3.138208    2.812500
  H      3.163349   -1.799408    1.442026
  H      2.115594   -2.904962   -0.803080

 Multiplicity           Mult            ....    1
 Number of Electrons    NEL             ....  164
 Basis Dimension        Dim             ....  358

ORBITAL ENERGIES
----------------

  NO   OCC          E(Eh)            E(eV)
   0   2.0000     -89.765337     -2442.6390
   1   2.0000     -19.638796      -534.3988
   2   2.0000     -19.633806      -534.2630
   3   2.0000     -14.832600      -403.6156
   4   2.0000     -10.702577      -291.2319
   5   2.0000     -10.653276      -289.8904
   6   2.0000     -10.625668      -289.1391
   7   2.0000     -10.620018      -288.9854
   8   2.0000     -10.619351      -288.9672
   9   2.0000     -10.616757      -288.8966
  10   2.0000     -10.612331      -288.7762
  11   2.0000     -10.611821      -288.7623
  12   2.0000     -10.609946      -288.7113
  13   2.0000     -10.606438      -288.6158
  14   2.0000     -10.592666      -288.2411
  15   2.0000     -10.591529      -288.2102
  16   2.0000     -10.552281      -287.1422
  17   2.0000     -10.550311      -287.0886
  18   2.0000     -10.547994      -287.0255
  19   2.0000      -8.404665      -228.7026
  20   2.0000      -6.294533      -171.2830
  21   2.0000      -6.291027      -171.1875
  22   2.0000      -6.289621      -171.1493
  23   2.0000      -4.016336      -109.2901
  24   2.0000      -2.332715       -63.4764
  25   2.0000      -2.304112       -62.6981
  26   2.0000      -2.299682       -62.5775
  27   2.0000      -1.330723       -36.2108
  28   2.0000      -1.232722       -33.5441
  29   2.0000      -1.206604       -32.8334
  30   2.0000      -1.154491       -31.4153
  31   2.0000      -1.129251       -30.7285
  32   2.0000      -1.024797       -27.8861
  33   2.0000      -0.971883       -26.4463
  34   2.0000      -0.968170       -26.3452
  35   2.0000      -0.961699       -26.1692
  36   2.0000      -0.957335       -26.0504
  37   2.0000      -0.943295       -25.6683
  38   2.0000      -0.899545       -24.4779
  39   2.0000      -0.872290       -23.7362
  40   2.0000      -0.798613       -21.7314
  41   2.0000      -0.783047       -21.3078
  42   2.0000      -0.772325       -21.0160
  43   2.0000      -0.771219       -20.9859
  44   2.0000      -0.763164       -20.7668
  45   2.0000      -0.756133       -20.5754
  46   2.0000      -0.742571       -20.2064
  47   2.0000      -0.720680       -19.6107
  48   2.0000      -0.701222       -19.0812
  49   2.0000      -0.684733       -18.6325
  50   2.0000      -0.665627       -18.1126
  51   2.0000      -0.663026       -18.0418
  52   2.0000      -0.650514       -17.7014
  53   2.0000      -0.638335       -17.3700
  54   2.0000      -0.628560       -17.1040
  55   2.0000      -0.622438       -16.9374
  56   2.0000      -0.619737       -16.8639
  57   2.0000      -0.611726       -16.6459
  58   2.0000      -0.601446       -16.3662
  59   2.0000      -0.594349       -16.1731
  60   2.0000      -0.591485       -16.0951
  61   2.0000      -0.589933       -16.0529
  62   2.0000      -0.579205       -15.7610
  63   2.0000      -0.571778       -15.5589
  64   2.0000      -0.565761       -15.3951
  65   2.0000      -0.562281       -15.3004
  66   2.0000      -0.557134       -15.1604
  67   2.0000      -0.545428       -14.8419
  68   2.0000      -0.542217       -14.7545
  69   2.0000      -0.535102       -14.5609
  70   2.0000      -0.532164       -14.4809
  71   2.0000      -0.518284       -14.1032
  72   2.0000      -0.512496       -13.9457
  73   2.0000      -0.503555       -13.7024
  74   2.0000      -0.499553       -13.5935
  75   2.0000      -0.491460       -13.3733
  76   2.0000      -0.473941       -12.8966
  77   2.0000      -0.453856       -12.3500
  78   2.0000      -0.441752       -12.0207
  79   2.0000      -0.418785       -11.3957
  80   2.0000      -0.412182       -11.2160
  81   2.0000      -0.390764       -10.6332
  82   0.0000      -0.203742        -5.5441
  83   0.0000      -0.143665        -3.9093
  84   0.0000      -0.118467        -3.2237
  85   0.0000      -0.087090        -2.3698
  86   0.0000      -0.076408        -2.0792

MULLIKEN ATOMIC CHARGES
-----------------------
   0 Ir:    0.618134
   1 C :   -0.268533
   2 C :   -0.242964
   3 C :   -0.286493
   4 C :   -0.212552
   5 C :   -0.149139
   6 N :   -0.433954
   7 C :   -0.127617
   8 C :   -0.677468
   9 H :    0.268396
  10 H :    0.224120
  11 H :    0.252236
  12 C :   -0.632113
  13 H :    0.276129
  14 H :    0.257272
  15 H :    0.232990
  16 H :    0.235202
  17 C :    0.071451
  18 C :   -0.119670
  19 H :    0.284540
  20 C :   -0.591554
  21 C :   -0.091246
  22 S :    0.347368
  23 C :   -0.422683
  24 H :    0.473030
  25 H :    0.268754
  26 H :    0.298691
  27 H :    0.282285
  28 H :    0.277969
  29 H :    0.292779
  30 O :   -0.480376
  31 O :   -0.497928
  32 C :    0.633705
  33 C :   -0.743456
  34 H :    0.273856
  35 H :    0.277031
  36 H :    0.263634
  37 H :    0.277737
  38 H :    0.290434
Sum of atomic charges:    1.0000000

LOEWDIN ATOMIC CHARGES
----------------------
   0 Ir:   -0.263440
   1 C :   -0.069536
   2 C :   -0.098891
   3 C :   -0.106557
   4 C :   -0.038788
   5 C :   -0.024645
   6 N :   -0.001916
   7 C :   -0.069473
   8 C :   -0.361388
   9 H :    0.155854
  10 H :    0.132680
  11 H :    0.142679
  12 C :   -0.343920
  13 H :    0.153083
  14 H :    0.150118
  15 H :    0.138206
  16 H :    0.133990
  17 C :    0.027407
  18 C :   -0.194640
  19 H :    0.160211
  20 C :   -0.212967
  21 C :   -0.129722
  22 S :    0.501219
  23 C :   -0.255151
  24 H :    0.375570
  25 H :    0.163116
  26 H :    0.170029
  27 H :    0.180600
  28 H :    0.176721
  29 H :    0.184747
  30 O :   -0.256320
  31 O :   -0.172324
  32 C :    0.166877
  33 C :   -0.371122
  34 H :    0.164656
  35 H :    0.173200
  36 H :    0.157428
  37 H :    0.179583
  38 H :    0.182825

  Mayer bond orders larger than 0.100000
B(  0-Ir,  1-C ) :   0.4718 B(  0-Ir,  2-C ) :   0.3457 B(  0-Ir,  3-C ) :   0.4779
B(  0-Ir,  4-C ) :   0.4104 B(  0-Ir,  5-C ) :   0.3297 B(  0-Ir,  6-N ) :   0.4648
B(  0-Ir, 20-C ) :   0.5966 B(  0-Ir, 31-O ) :   0.5022 B(  1-C ,  2-C ) :   1.1211
B(  1-C ,  4-C ) :   1.2101 B(  1-C , 27-H ) :   0.9109 B(  2-C ,  5-C ) :   1.2763
B(  2-C , 28-H ) :   0.9101 B(  3-C ,  4-C ) :   1.1588 B(  3-C ,  5-C ) :   1.1442
B(  3-C , 37-H ) :   0.9158 B(  4-C , 38-H ) :   0.8996 B(  5-C , 29-H ) :   0.9033
B(  6-N ,  7-C ) :   0.8966 B(  6-N , 17-C ) :   1.6401 B(  7-C ,  8-C ) :   0.9898
B(  7-C , 12-C ) :   0.9671 B(  7-C , 13-H ) :   0.8789 B(  8-C ,  9-H ) :   0.9051
B(  8-C , 10-H ) :   0.9133 B(  8-C , 11-H ) :   0.9130 B( 12-C , 14-H ) :   0.9080
B( 12-C , 15-H ) :   0.9151 B( 12-C , 16-H ) :   0.9118 B( 17-C , 18-C ) :   1.1232
B( 17-C , 19-H ) :   0.8768 B( 18-C , 20-C ) :   1.2070 B( 18-C , 22-S ) :   1.2371
B( 20-C , 21-C ) :   1.2459 B( 20-C , 24-H ) :   0.2990 B( 21-C , 23-C ) :   1.5363
B( 21-C , 25-H ) :   0.9014 B( 22-S , 23-C ) :   1.2215 B( 23-C , 26-H ) :   0.8916
B( 24-H , 30-O ) :   0.3822 B( 30-O , 32-C ) :   1.5316 B( 31-O , 32-C ) :   1.4088
B( 32-C , 33-C ) :   0.9441 B( 33-C , 34-H ) :   0.8997 B( 33-C , 35-H ) :   0.8921
B( 33-C , 36-H ) :   0.9072

Dispersion correction           -0.030785327
FINAL SINGLE POINT ENERGY     -1288.399153355570

DIPOLE MOMENT
-------------
                                X             Y             Z
Electronic contribution:     37.99082     -75.61201      67.45436
Nuclear contribution   :    -38.55901      75.36927     -67.70709
                        -----------------------------------------
Total Dipole Moment    :     -0.56819      -0.24274      -0.25273
                        -----------------------------------------
Magnitude (a.u.)       :      0.66756
Magnitude (Debye)      :      1.69680

Rotational constants in cm-1:     0.010586     0.008926     0.008262
Rotational constants in MHz :   317.353851   267.588131   247.697752

                             ****ORCA TERMINATED NORMALLY****
TOTAL RUN TIME: 0 days 2 hours 12 minutes 51 seconds 916 msec
