                         Program Version 5.0.3 -  RELEASE  -
|  1> ! Opt PBEh-3c
|  2> %geom Constraints
|  3> { B 0 20 2.1714285714285713 C }
|  4> { B 24 30 1.457142857142857 C }
|  5>     end
|  6> end
|  7> %output
|  8> xyzfile=True
|  9> end
| 10> %scf
| 11> maxiter 250
| 12> end
| 13> %output
| 14> Print[P_Hirshfeld] = 1
| 15> end
| 16> % maxcore
| 17> 4000
| 18> *xyz 1 1
| 19> Ir   0.62675421  -0.71136279   0.42263050
| 20> C    0.10407115  -2.81875493   0.34132958
| 21> C    0.05498194  -2.35748447   1.70271279
| 22> C    2.21591945  -2.09658946   0.92919703
| 23> C    1.41787527  -2.65047461  -0.13854192
| 24> C    1.37539565  -1.94670485   2.05430225
| 25> N   -1.04611226   0.14307731  -0.52359620
| 26> C   -2.30842547   0.41804263   0.17991734
| 27> C   -3.09362735   1.58047347  -0.40869076
| 28> H   -3.91380393   1.82822709   0.26367711
| 29> H   -3.54420377   1.34242565  -1.37320712
| 30> H   -2.47919400   2.47450228  -0.51713811
| 31> C   -3.14454704  -0.85560928   0.23547958
| 32> H   -2.00941824   0.68349876   1.19478319
| 33> H   -4.04482699  -0.67898728   0.82230013
| 34> H   -3.45313061  -1.16972419  -0.76244067
| 35> H   -2.60520979  -1.67753373   0.70384199
| 36> C   -0.88894487   0.39775582  -1.76818386
| 37> C    0.44274074   0.19481077  -2.27290504
| 38> H   -1.69179802   0.78092850  -2.39037950
| 39> C    1.51013209   0.23581699  -1.37335259
| 40> C    2.72687330  -0.09132781  -2.04725224
| 41> S    0.90625469  -0.22538641  -3.84838452
| 42> C    2.54962221  -0.36022431  -3.36804277
| 43> H    1.52784911   1.20912242  -0.65272192
| 44> H    3.69907142  -0.07193610  -1.57661760
| 45> H    3.30133894  -0.60741308  -4.10220772
| 46> H   -0.72684475  -3.21433981  -0.22489456
| 47> H   -0.79643605  -2.39231287   2.36556028
| 48> H    1.66649459  -1.52065114   3.00396387
| 49> O    1.43017791   2.42658711   0.16785234
| 50> O    0.54746527   0.96519026   1.59781721
| 51> C    0.97008801   2.13415455   1.27468622
| 52> C    0.90450897   3.16294909   2.36804770
| 53> H    0.87791028   4.16714006   1.95386138
| 54> H    1.80155144   3.08038985   2.98468550
| 55> H    0.04735724   3.00309388   3.01832589
| 56> H    3.27227869  -1.87843221   0.89230991
| 57> H    1.76918061  -2.90374719  -1.12798458
| 58> *
| 59>
| 60>                          ****END OF INPUT****
 Total Charge           Charge          ....    1
 Multiplicity           Mult            ....    1
 Number of Electrons    NEL             ....  164
Dispersion correction           -0.031036946
FINAL SINGLE POINT ENERGY     -1288.399675442899
Dispersion correction            ... done
Dispersion correction           -0.030960503
FINAL SINGLE POINT ENERGY     -1288.399599637760
Dispersion correction            ... done
Dispersion correction           -0.030966442
FINAL SINGLE POINT ENERGY     -1288.399416216648
Dispersion correction            ... done
FINAL SINGLE POINT ENERGY     -1288.399964541923
FINAL SINGLE POINT ENERGY     -1288.400006634992
FINAL SINGLE POINT ENERGY     -1288.400045753331
FINAL SINGLE POINT ENERGY     -1288.400075457824
FINAL SINGLE POINT ENERGY     -1288.400085428893
FINAL SINGLE POINT ENERGY     -1288.400093043107
FINAL SINGLE POINT ENERGY     -1288.400103872742
FINAL SINGLE POINT ENERGY     -1288.400114292339
FINAL SINGLE POINT ENERGY     -1288.400124191093
FINAL SINGLE POINT ENERGY     -1288.400130674706
FINAL SINGLE POINT ENERGY     -1288.400139254399
FINAL SINGLE POINT ENERGY     -1288.400144949007
Dispersion correction            ... done
Dispersion correction           -0.030854749
FINAL SINGLE POINT ENERGY     -1288.400146515058
Dispersion correction            ... done
Dispersion correction           -0.030856432
FINAL SINGLE POINT ENERGY     -1288.400145467330
Dispersion correction            ... done
                    ***********************HURRAY********************

CARTESIAN COORDINATES (ANGSTROEM)
---------------------------------
  Ir     0.629440   -0.717541    0.421136
  C      0.140354   -2.832309    0.317235
  C      0.002633   -2.379584    1.676546
  C      2.203194   -2.078759    1.034729
  C      1.481350   -2.647669   -0.075583
  C      1.287210   -1.945145    2.106168
  N     -1.051877    0.132552   -0.514533
  C     -2.313638    0.385636    0.197976
  C     -3.093776    1.574213   -0.344719
  H     -3.914367    1.797229    0.335686
  H     -3.542974    1.377530   -1.319094
  H     -2.475917    2.469566   -0.416184
  C     -3.155855   -0.885416    0.198768
  H     -2.016677    0.610318    1.223179
  H     -4.051394   -0.734416    0.799931
  H     -3.472540   -1.149152   -0.811139
  H     -2.616671   -1.732290    0.620501
  C     -0.904443    0.412450   -1.755748
  C      0.419988    0.215364   -2.274870
  H     -1.712582    0.808608   -2.362603
  C      1.482355    0.168217   -1.368577
  C      2.696557   -0.128640   -2.063132
  S      0.883868   -0.086587   -3.876046
  C      2.521370   -0.287615   -3.402086
  H      1.551131    1.168241   -0.654403
  H      3.667013   -0.164230   -1.589774
  H      3.272585   -0.489095   -4.150543
  H     -0.645869   -3.244548   -0.298506
  H     -0.886784   -2.428160    2.286359
  H      1.511066   -1.513457    3.071494
  O      1.526165    2.392027    0.136159
  O      0.561611    0.985528    1.567680
  C      1.023597    2.133763    1.236156
  C      0.956128    3.192853    2.299485
  H      0.910094    4.183731    1.855436
  H      1.863946    3.143340    2.903619
  H      0.109812    3.040278    2.964891
  H      3.258155   -1.854319    1.067864
  H      1.895113   -2.893321   -1.042719

 Multiplicity           Mult            ....    1
 Number of Electrons    NEL             ....  164
 Basis Dimension        Dim             ....  358

ORBITAL ENERGIES
----------------

  NO   OCC          E(Eh)            E(eV)
   0   2.0000     -89.768304     -2442.7197
   1   2.0000     -19.626199      -534.0560
   2   2.0000     -19.602390      -533.4081
   3   2.0000     -14.838464      -403.7751
   4   2.0000     -10.685323      -290.7624
   5   2.0000     -10.658821      -290.0413
   6   2.0000     -10.632822      -289.3338
   7   2.0000     -10.628700      -289.2216
   8   2.0000     -10.627455      -289.1877
   9   2.0000     -10.625664      -289.1390
  10   2.0000     -10.620415      -288.9962
  11   2.0000     -10.617657      -288.9211
  12   2.0000     -10.614126      -288.8251
  13   2.0000     -10.612679      -288.7857
  14   2.0000     -10.591221      -288.2018
  15   2.0000     -10.589198      -288.1467
  16   2.0000     -10.555118      -287.2194
  17   2.0000     -10.551151      -287.1114
  18   2.0000     -10.537173      -286.7311
  19   2.0000      -8.407700      -228.7852
  20   2.0000      -6.297575      -171.3657
  21   2.0000      -6.293976      -171.2678
  22   2.0000      -6.292709      -171.2333
  23   2.0000      -4.023374      -109.4816
  24   2.0000      -2.341143       -63.7057
  25   2.0000      -2.308953       -62.8298
  26   2.0000      -2.306810       -62.7715
  27   2.0000      -1.311616       -35.6909
  28   2.0000      -1.214037       -33.0356
  29   2.0000      -1.210496       -32.9393
  30   2.0000      -1.164443       -31.6861
  31   2.0000      -1.131038       -30.7771
  32   2.0000      -1.026763       -27.9396
  33   2.0000      -0.977486       -26.5987
  34   2.0000      -0.972451       -26.4617
  35   2.0000      -0.969949       -26.3936
  36   2.0000      -0.961953       -26.1761
  37   2.0000      -0.930892       -25.3308
  38   2.0000      -0.901383       -24.5279
  39   2.0000      -0.875101       -23.8127
  40   2.0000      -0.800633       -21.7863
  41   2.0000      -0.784482       -21.3468
  42   2.0000      -0.780397       -21.2357
  43   2.0000      -0.779673       -21.2160
  44   2.0000      -0.765118       -20.8199
  45   2.0000      -0.755513       -20.5586
  46   2.0000      -0.743637       -20.2354
  47   2.0000      -0.723694       -19.6927
  48   2.0000      -0.691000       -18.8031
  49   2.0000      -0.679490       -18.4899
  50   2.0000      -0.664586       -18.0843
  51   2.0000      -0.650962       -17.7136
  52   2.0000      -0.646934       -17.6040
  53   2.0000      -0.635128       -17.2827
  54   2.0000      -0.633514       -17.2388
  55   2.0000      -0.629449       -17.1282
  56   2.0000      -0.622669       -16.9437
  57   2.0000      -0.613309       -16.6890
  58   2.0000      -0.601698       -16.3730
  59   2.0000      -0.600616       -16.3436
  60   2.0000      -0.599857       -16.3229
  61   2.0000      -0.592551       -16.1241
  62   2.0000      -0.581319       -15.8185
  63   2.0000      -0.572153       -15.5691
  64   2.0000      -0.564022       -15.3478
  65   2.0000      -0.560086       -15.2407
  66   2.0000      -0.551629       -15.0106
  67   2.0000      -0.547925       -14.9098
  68   2.0000      -0.541248       -14.7281
  69   2.0000      -0.536714       -14.6047
  70   2.0000      -0.528737       -14.3877
  71   2.0000      -0.518771       -14.1165
  72   2.0000      -0.514458       -13.9991
  73   2.0000      -0.499330       -13.5875
  74   2.0000      -0.489141       -13.3102
  75   2.0000      -0.483195       -13.1484
  76   2.0000      -0.478035       -13.0080
  77   2.0000      -0.446207       -12.1419
  78   2.0000      -0.443607       -12.0711
  79   2.0000      -0.422479       -11.4962
  80   2.0000      -0.416214       -11.3258
  81   2.0000      -0.397029       -10.8037
  82   0.0000      -0.208512        -5.6739
  83   0.0000      -0.143166        -3.8958
  84   0.0000      -0.140776        -3.8307
  85   0.0000      -0.091387        -2.4868
  86   0.0000      -0.076671        -2.0863

MULLIKEN ATOMIC CHARGES
-----------------------
   0 Ir:    0.606853
   1 C :   -0.228983
   2 C :   -0.266992
   3 C :   -0.261555
   4 C :   -0.231742
   5 C :   -0.156705
   6 N :   -0.427490
   7 C :   -0.128898
   8 C :   -0.682628
   9 H :    0.269862
  10 H :    0.223765
  11 H :    0.257884
  12 C :   -0.634112
  13 H :    0.282920
  14 H :    0.261103
  15 H :    0.231467
  16 H :    0.232976
  17 C :    0.071824
  18 C :   -0.132892
  19 H :    0.288042
  20 C :   -0.551327
  21 C :   -0.099439
  22 S :    0.337791
  23 C :   -0.432252
  24 H :    0.478035
  25 H :    0.268811
  26 H :    0.299340
  27 H :    0.286349
  28 H :    0.285026
  29 H :    0.302012
  30 O :   -0.471682
  31 O :   -0.526872
  32 C :    0.620631
  33 C :   -0.743734
  34 H :    0.270054
  35 H :    0.269675
  36 H :    0.255353
  37 H :    0.284855
  38 H :    0.292674
Sum of atomic charges:    1.0000000

LOEWDIN ATOMIC CHARGES
----------------------
   0 Ir:   -0.251926
   1 C :   -0.052325
   2 C :   -0.087822
   3 C :   -0.084607
   4 C :   -0.046888
   5 C :   -0.015317
   6 N :    0.000854
   7 C :   -0.070232
   8 C :   -0.362447
   9 H :    0.156620
  10 H :    0.132655
  11 H :    0.145386
  12 C :   -0.343516
  13 H :    0.156557
  14 H :    0.151831
  15 H :    0.137365
  16 H :    0.133385
  17 C :    0.030053
  18 C :   -0.174939
  19 H :    0.161791
  20 C :   -0.214632
  21 C :   -0.120673
  22 S :    0.498636
  23 C :   -0.261072
  24 H :    0.326862
  25 H :    0.163823
  26 H :    0.169637
  27 H :    0.182574
  28 H :    0.181445
  29 H :    0.190689
  30 O :   -0.267166
  31 O :   -0.198251
  32 C :    0.154503
  33 C :   -0.374075
  34 H :    0.160851
  35 H :    0.169014
  36 H :    0.153927
  37 H :    0.183049
  38 H :    0.184382

  Mayer bond orders larger than 0.100000
B(  0-Ir,  1-C ) :   0.4251 B(  0-Ir,  2-C ) :   0.4464 B(  0-Ir,  3-C ) :   0.4654
B(  0-Ir,  4-C ) :   0.4321 B(  0-Ir,  5-C ) :   0.3866 B(  0-Ir,  6-N ) :   0.4620
B(  0-Ir, 20-C ) :   0.4119 B(  0-Ir, 31-O ) :   0.5529 B(  1-C ,  2-C ) :   1.1271
B(  1-C ,  4-C ) :   1.2388 B(  1-C , 27-H ) :   0.9069 B(  2-C ,  5-C ) :   1.1795
B(  2-C , 28-H ) :   0.9098 B(  3-C ,  4-C ) :   1.1223 B(  3-C ,  5-C ) :   1.1985
B(  3-C , 37-H ) :   0.9113 B(  4-C , 38-H ) :   0.8994 B(  5-C , 29-H ) :   0.8995
B(  6-N ,  7-C ) :   0.8935 B(  6-N , 17-C ) :   1.6621 B(  7-C ,  8-C ) :   0.9903
B(  7-C , 12-C ) :   0.9666 B(  7-C , 13-H ) :   0.8741 B(  8-C ,  9-H ) :   0.9044
B(  8-C , 10-H ) :   0.9133 B(  8-C , 11-H ) :   0.9103 B( 12-C , 14-H ) :   0.9072
B( 12-C , 15-H ) :   0.9155 B( 12-C , 16-H ) :   0.9122 B( 17-C , 18-C ) :   1.0939
B( 17-C , 19-H ) :   0.8761 B( 18-C , 20-C ) :   1.2324 B( 18-C , 22-S ) :   1.2580
B( 20-C , 21-C ) :   1.2548 B( 20-C , 24-H ) :   0.4226 B( 21-C , 23-C ) :   1.5556
B( 21-C , 25-H ) :   0.9023 B( 22-S , 23-C ) :   1.2044 B( 23-C , 26-H ) :   0.8910
B( 24-H , 30-O ) :   0.2849 B( 30-O , 32-C ) :   1.6501 B( 31-O , 32-C ) :   1.3154
B( 32-C , 33-C ) :   0.9440 B( 33-C , 34-H ) :   0.9037 B( 33-C , 35-H ) :   0.8968
B( 33-C , 36-H ) :   0.9090

Dispersion correction           -0.030858906
FINAL SINGLE POINT ENERGY     -1288.400143876872

DIPOLE MOMENT
-------------
                                X             Y             Z
Electronic contribution:     39.25262     -70.08980      70.83326
Nuclear contribution   :    -39.89170      69.21773     -71.25389
                        -----------------------------------------
Total Dipole Moment    :     -0.63909      -0.87206      -0.42063
                        -----------------------------------------
Magnitude (a.u.)       :      1.16011
Magnitude (Debye)      :      2.94877

Rotational constants in cm-1:     0.010546     0.009093     0.008219
Rotational constants in MHz :   316.152504   272.605390   246.413320

                             ****ORCA TERMINATED NORMALLY****
TOTAL RUN TIME: 0 days 2 hours 11 minutes 33 seconds 160 msec
