                         Program Version 5.0.3 -  RELEASE  -
|  1> ! Opt PBEh-3c
|  2> %geom Constraints
|  3> { B 0 20 2.6 C }
|  4> { B 24 30 1.3142857142857143 C }
|  5>     end
|  6> end
|  7> %output
|  8> xyzfile=True
|  9> end
| 10> %scf
| 11> maxiter 250
| 12> end
| 13> %output
| 14> Print[P_Hirshfeld] = 1
| 15> end
| 16> % maxcore
| 17> 4000
| 18> *xyz 1 1
| 19> Ir   0.56123367  -0.74582072   0.53013097
| 20> C    0.00630947  -2.82068758   0.38748778
| 21> C    0.05759698  -2.38047197   1.76049168
| 22> C    2.16552138  -2.16166974   0.86101829
| 23> C    1.28455807  -2.65501534  -0.17426127
| 24> C    1.42121223  -2.03124568   2.04570310
| 25> N   -1.03579088   0.14284363  -0.49857778
| 26> C   -2.32257426   0.45843542   0.14553396
| 27> C   -3.11562544   1.53802022  -0.57437140
| 28> H   -3.95271009   1.83776372   0.05471509
| 29> H   -3.54436876   1.19561733  -1.51744925
| 30> H   -2.51640703   2.42915499  -0.76333411
| 31> C   -3.13908435  -0.81669428   0.31698691
| 32> H   -2.05376621   0.83472050   1.13415741
| 33> H   -4.06716289  -0.58966530   0.83954670
| 34> H   -3.39903278  -1.25329679  -0.64828125
| 35> H   -2.61231932  -1.56561846   0.90671062
| 36> C   -0.82871692   0.34790300  -1.74406345
| 37> C    0.51679327   0.16752441  -2.23438166
| 38> H   -1.62294993   0.68400014  -2.40516287
| 39> C    1.62986500   0.51125059  -1.47929651
| 40> C    2.82236054   0.15393598  -2.16728772
| 41> S    0.92029027  -0.50692679  -3.75578379
| 42> C    2.59190419  -0.39229479  -3.39337194
| 43> H    1.54998900   1.39706499  -0.61377120
| 44> H    3.81615257   0.34708839  -1.78991607
| 45> H    3.32008136  -0.71708521  -4.12134099
| 46> H   -0.87229570  -3.17562490  -0.13175901
| 47> H   -0.74938203  -2.41736208   2.47763721
| 48> H    1.78842386  -1.65093848   2.98808260
| 49> O    1.38729888   2.39455712   0.24857640
| 50> O    0.53902218   0.92174582   1.69461111
| 51> C    0.95468575   2.09325259   1.36521338
| 52> C    0.91968619   3.11427577   2.46490696
| 53> H    0.85659215   4.11907972   2.05585646
| 54> H    1.84651170   3.04790434   3.03832610
| 55> H    0.09705053   2.93706003   3.15382745
| 56> H    3.21369790  -1.93110581   0.74054211
| 57> H    1.56471947  -2.86248475  -1.19691190
| 58> *
| 59>
| 60>                          ****END OF INPUT****
 Total Charge           Charge          ....    1
 Multiplicity           Mult            ....    1
 Number of Electrons    NEL             ....  164
Dispersion correction           -0.030653259
FINAL SINGLE POINT ENERGY     -1288.390390808627
Dispersion correction            ... done
Dispersion correction           -0.030642851
FINAL SINGLE POINT ENERGY     -1288.390416274216
Dispersion correction            ... done
Dispersion correction           -0.030635948
FINAL SINGLE POINT ENERGY     -1288.390423857367
Dispersion correction            ... done
FINAL SINGLE POINT ENERGY     -1288.390426667096
Dispersion correction            ... done
Dispersion correction           -0.030613194
FINAL SINGLE POINT ENERGY     -1288.390429373400
Dispersion correction            ... done
Dispersion correction           -0.030603353
FINAL SINGLE POINT ENERGY     -1288.390431806309
Dispersion correction            ... done
                    ***********************HURRAY********************

CARTESIAN COORDINATES (ANGSTROEM)
---------------------------------
  Ir     0.560102   -0.749534    0.535463
  C      0.002127   -2.823473    0.399387
  C      0.047039   -2.378816    1.770877
  C      2.160371   -2.166907    0.881196
  C      1.283762   -2.662280   -0.156681
  C      1.409622   -2.030322    2.061256
  N     -1.034344    0.137552   -0.498811
  C     -2.322905    0.448465    0.144550
  C     -3.114657    1.533271   -0.569113
  H     -3.952654    1.828852    0.060739
  H     -3.542140    1.197438   -1.515101
  H     -2.515004    2.425529   -0.751179
  C     -3.140740   -0.827249    0.305398
  H     -2.056831    0.818018    1.136487
  H     -4.069921   -0.603227    0.827324
  H     -3.398656   -1.257070   -0.663447
  H     -2.615927   -1.580619    0.891081
  C     -0.827898    0.348147   -1.743924
  C      0.515933    0.175488   -2.239058
  H     -1.624421    0.684620   -2.402102
  C      1.630378    0.499765   -1.477932
  C      2.820934    0.154496   -2.174931
  S      0.915649   -0.463983   -3.776797
  C      2.587655   -0.361922   -3.413668
  H      1.555151    1.394897   -0.603911
  H      3.815925    0.335482   -1.794675
  H      3.314382   -0.671573   -4.149645
  H     -0.874188   -3.179129   -0.123209
  H     -0.763591   -2.411928    2.484040
  H      1.772494   -1.646622    3.003957
  O      1.404955    2.387285    0.244590
  O      0.539763    0.925396    1.691991
  C      0.964243    2.091248    1.361416
  C      0.932660    3.119026    2.454489
  H      0.872579    4.121644    2.039716
  H      1.859558    3.053205    3.027878
  H      0.109566    2.947990    3.144388
  H      3.209738   -1.939383    0.765668
  H      1.568659   -2.874587   -1.176967

 Multiplicity           Mult            ....    1
 Number of Electrons    NEL             ....  164
 Basis Dimension        Dim             ....  358

ORBITAL ENERGIES
----------------

  NO   OCC          E(Eh)            E(eV)
   0   2.0000     -89.752798     -2442.2978
   1   2.0000     -19.630950      -534.1853
   2   2.0000     -19.599165      -533.3204
   3   2.0000     -14.836792      -403.7296
   4   2.0000     -10.690244      -290.8963
   5   2.0000     -10.658229      -290.0252
   6   2.0000     -10.638159      -289.4790
   7   2.0000     -10.636328      -289.4292
   8   2.0000     -10.635222      -289.3991
   9   2.0000     -10.633486      -289.3519
  10   2.0000     -10.632886      -289.3355
  11   2.0000     -10.620792      -289.0064
  12   2.0000     -10.615483      -288.8620
  13   2.0000     -10.603544      -288.5371
  14   2.0000     -10.575569      -287.7759
  15   2.0000     -10.573350      -287.7155
  16   2.0000     -10.556632      -287.2605
  17   2.0000     -10.551377      -287.1176
  18   2.0000     -10.537683      -286.7449
  19   2.0000      -8.392210      -228.3637
  20   2.0000      -6.282268      -170.9492
  21   2.0000      -6.278685      -170.8517
  22   2.0000      -6.276930      -170.8039
  23   2.0000      -4.031397      -109.6999
  24   2.0000      -2.351009       -63.9742
  25   2.0000      -2.316458       -63.0340
  26   2.0000      -2.314272       -62.9746
  27   2.0000      -1.315818       -35.8052
  28   2.0000      -1.219868       -33.1943
  29   2.0000      -1.207880       -32.8681
  30   2.0000      -1.175491       -31.9867
  31   2.0000      -1.117368       -30.4051
  32   2.0000      -1.023323       -27.8460
  33   2.0000      -0.990282       -26.9469
  34   2.0000      -0.980359       -26.6769
  35   2.0000      -0.958704       -26.0877
  36   2.0000      -0.951594       -25.8942
  37   2.0000      -0.933129       -25.3917
  38   2.0000      -0.902461       -24.5572
  39   2.0000      -0.869162       -23.6511
  40   2.0000      -0.794635       -21.6231
  41   2.0000      -0.790945       -21.5227
  42   2.0000      -0.789371       -21.4799
  43   2.0000      -0.777723       -21.1629
  44   2.0000      -0.771876       -21.0038
  45   2.0000      -0.762913       -20.7599
  46   2.0000      -0.741896       -20.1880
  47   2.0000      -0.722570       -19.6621
  48   2.0000      -0.693041       -18.8586
  49   2.0000      -0.674830       -18.3631
  50   2.0000      -0.663217       -18.0470
  51   2.0000      -0.654098       -17.7989
  52   2.0000      -0.649744       -17.6804
  53   2.0000      -0.641902       -17.4670
  54   2.0000      -0.640394       -17.4260
  55   2.0000      -0.634831       -17.2746
  56   2.0000      -0.623372       -16.9628
  57   2.0000      -0.611144       -16.6301
  58   2.0000      -0.610543       -16.6137
  59   2.0000      -0.606461       -16.5026
  60   2.0000      -0.593914       -16.1612
  61   2.0000      -0.584667       -15.9096
  62   2.0000      -0.572508       -15.5787
  63   2.0000      -0.566346       -15.4111
  64   2.0000      -0.560444       -15.2505
  65   2.0000      -0.556421       -15.1410
  66   2.0000      -0.552995       -15.0478
  67   2.0000      -0.548361       -14.9217
  68   2.0000      -0.539921       -14.6920
  69   2.0000      -0.533228       -14.5099
  70   2.0000      -0.526681       -14.3317
  71   2.0000      -0.520698       -14.1689
  72   2.0000      -0.516273       -14.0485
  73   2.0000      -0.509032       -13.8515
  74   2.0000      -0.494357       -13.4521
  75   2.0000      -0.480043       -13.0626
  76   2.0000      -0.461234       -12.5508
  77   2.0000      -0.452859       -12.3229
  78   2.0000      -0.443162       -12.0590
  79   2.0000      -0.418672       -11.3926
  80   2.0000      -0.415826       -11.3152
  81   2.0000      -0.401098       -10.9144
  82   0.0000      -0.200380        -5.4526
  83   0.0000      -0.165579        -4.5056
  84   0.0000      -0.141240        -3.8433
  85   0.0000      -0.092484        -2.5166
  86   0.0000      -0.075211        -2.0466

MULLIKEN ATOMIC CHARGES
-----------------------
   0 Ir:    0.622518
   1 C :   -0.209428
   2 C :   -0.296661
   3 C :   -0.229954
   4 C :   -0.242266
   5 C :   -0.169157
   6 N :   -0.438905
   7 C :   -0.118982
   8 C :   -0.692302
   9 H :    0.271395
  10 H :    0.226619
  11 H :    0.259553
  12 C :   -0.637892
  13 H :    0.278431
  14 H :    0.264033
  15 H :    0.231317
  16 H :    0.230504
  17 C :    0.068516
  18 C :   -0.214445
  19 H :    0.288314
  20 C :   -0.391650
  21 C :   -0.158253
  22 S :    0.292664
  23 C :   -0.423334
  24 H :    0.502345
  25 H :    0.261221
  26 H :    0.293922
  27 H :    0.293528
  28 H :    0.294418
  29 H :    0.306407
  30 O :   -0.497192
  31 O :   -0.535676
  32 C :    0.623975
  33 C :   -0.746248
  34 H :    0.271537
  35 H :    0.269164
  36 H :    0.255998
  37 H :    0.297457
  38 H :    0.298509
Sum of atomic charges:    1.0000000

LOEWDIN ATOMIC CHARGES
----------------------
   0 Ir:   -0.205104
   1 C :   -0.040639
   2 C :   -0.056205
   3 C :   -0.046551
   4 C :   -0.050085
   5 C :   -0.027518
   6 N :   -0.017735
   7 C :   -0.068256
   8 C :   -0.364426
   9 H :    0.156803
  10 H :    0.133924
  11 H :    0.146324
  12 C :   -0.343910
  13 H :    0.154749
  14 H :    0.152729
  15 H :    0.137454
  16 H :    0.133009
  17 C :    0.037134
  18 C :   -0.204324
  19 H :    0.160970
  20 C :   -0.199200
  21 C :   -0.152005
  22 S :    0.451414
  23 C :   -0.260578
  24 H :    0.303458
  25 H :    0.158984
  26 H :    0.166244
  27 H :    0.186342
  28 H :    0.186610
  29 H :    0.193543
  30 O :   -0.276270
  31 O :   -0.199443
  32 C :    0.164995
  33 C :   -0.374552
  34 H :    0.161427
  35 H :    0.169075
  36 H :    0.154372
  37 H :    0.188848
  38 H :    0.188392

  Mayer bond orders larger than 0.100000
B(  0-Ir,  1-C ) :   0.4260 B(  0-Ir,  2-C ) :   0.5598 B(  0-Ir,  3-C ) :   0.4604
B(  0-Ir,  4-C ) :   0.4602 B(  0-Ir,  5-C ) :   0.4052 B(  0-Ir,  6-N ) :   0.4731
B(  0-Ir, 20-C ) :   0.2248 B(  0-Ir, 31-O ) :   0.5693 B(  1-C ,  2-C ) :   1.1115
B(  1-C ,  4-C ) :   1.2408 B(  1-C , 27-H ) :   0.9024 B(  2-C ,  5-C ) :   1.1265
B(  2-C , 28-H ) :   0.9061 B(  3-C ,  4-C ) :   1.1048 B(  3-C ,  5-C ) :   1.2371
B(  3-C , 37-H ) :   0.9025 B(  4-C , 38-H ) :   0.8987 B(  5-C , 29-H ) :   0.8979
B(  6-N ,  7-C ) :   0.8914 B(  6-N , 17-C ) :   1.6781 B(  7-C ,  8-C ) :   0.9925
B(  7-C , 12-C ) :   0.9693 B(  7-C , 13-H ) :   0.8748 B(  8-C ,  9-H ) :   0.9037
B(  8-C , 10-H ) :   0.9124 B(  8-C , 11-H ) :   0.9088 B( 12-C , 14-H ) :   0.9065
B( 12-C , 15-H ) :   0.9154 B( 12-C , 16-H ) :   0.9119 B( 17-C , 18-C ) :   1.0707
B( 17-C , 19-H ) :   0.8743 B( 18-C , 20-C ) :   1.3118 B( 18-C , 22-S ) :   1.1983
B( 20-C , 21-C ) :   1.2852 B( 20-C , 24-H ) :   0.4490 B( 21-C , 23-C ) :   1.5382
B( 21-C , 25-H ) :   0.9059 B( 22-S , 23-C ) :   1.2105 B( 23-C , 26-H ) :   0.8932
B( 24-H , 30-O ) :   0.2464 B( 30-O , 32-C ) :   1.6469 B( 31-O , 32-C ) :   1.3042
B( 32-C , 33-C ) :   0.9493 B( 33-C , 34-H ) :   0.9035 B( 33-C , 35-H ) :   0.8965
B( 33-C , 36-H ) :   0.9087

Dispersion correction           -0.030598173
FINAL SINGLE POINT ENERGY     -1288.390434580940

DIPOLE MOMENT
-------------
                                X             Y             Z
Electronic contribution:     32.30427     -70.78870      81.12297
Nuclear contribution   :    -32.92861      69.67166     -81.12429
                        -----------------------------------------
Total Dipole Moment    :     -0.62434      -1.11704      -0.00132
                        -----------------------------------------
Magnitude (a.u.)       :      1.27968
Magnitude (Debye)      :      3.25268

Rotational constants in cm-1:     0.010564     0.008832     0.008111
Rotational constants in MHz :   316.705108   264.780269   243.166464

                             ****ORCA TERMINATED NORMALLY****
TOTAL RUN TIME: 0 days 0 hours 54 minutes 44 seconds 289 msec
