                         Program Version 5.0.3 -  RELEASE  -
|  1> ! Opt PBEh-3c
|  2> %geom Constraints
|  3> { B 0 20 2.085714285714286 C }
|  4> { B 24 30 1.3 C }
|  5>     end
|  6> end
|  7> %output
|  8> xyzfile=True
|  9> end
| 10> %scf
| 11> maxiter 250
| 12> end
| 13> %output
| 14> Print[P_Hirshfeld] = 1
| 15> end
| 16> % maxcore
| 17> 4000
| 18> %pal nprocs 2
| 19> end
| 20> *xyz 1 1
| 21> Ir   0.60800269  -0.74572184   0.42945556
| 22> C    0.14499020  -2.85532301   0.35506025
| 23> C   -0.12115701  -2.40455856   1.69754979
| 24> C    2.12401619  -2.06668685   1.25041325
| 25> C    1.52321835  -2.66870795   0.09543314
| 26> C    1.09873519  -1.93747365   2.23230556
| 27> N   -1.07431653   0.09923001  -0.50606029
| 28> C   -2.35182171   0.27620715   0.20156412
| 29> C   -3.14060222   1.49697013  -0.25090054
| 30> H   -3.97559003   1.64888183   0.43119846
| 31> H   -3.56934529   1.38133179  -1.24723164
| 32> H   -2.53406232   2.40274675  -0.23318043
| 33> C   -3.17836645  -0.99890232   0.07877124
| 34> H   -2.07979760   0.42055858   1.24832913
| 35> H   -4.08695735  -0.91312922   0.67350813
| 36> H   -3.47244975  -1.17753441  -0.95629312
| 37> H   -2.63569475  -1.87429277   0.43201825
| 38> C   -0.92389025   0.47423983  -1.72397093
| 39> C    0.39039155   0.31688176  -2.26609684
| 40> H   -1.73720003   0.91094016  -2.29467149
| 41> C    1.42357938   0.02417713  -1.37966209
| 42> C    2.63711722  -0.17968119  -2.10159515
| 43> S    0.88459915   0.37401388  -3.89152009
| 44> C    2.48972421  -0.01467859  -3.44744729
| 45> H    1.65613717   1.18518113  -0.64107450
| 46> H    3.59197975  -0.38557359  -1.63979418
| 47> H    3.25323844  -0.08582293  -4.20725390
| 48> H   -0.56775332  -3.30127334  -0.32310766
| 49> H   -1.06425543  -2.45469150   2.21976468
| 50> H    1.22203854  -1.48726693   3.20719528
| 51> O    1.77718162   2.28601372   0.06664209
| 52> O    0.59326011   1.04576169   1.48580274
| 53> C    1.17398297   2.11674894   1.15505036
| 54> C    1.16485305   3.24991280   2.13531438
| 55> H    1.03745845   4.20073814   1.62254983
| 56> H    2.13013915   3.28543733   2.64334247
| 57> H    0.38877848   3.12127590   2.88408951
| 58> H    3.16979696  -1.84012577   1.38865528
| 59> H    2.02941112  -2.92661430  -0.82341333
| 60> *
| 61>
| 62>                          ****END OF INPUT****
 Total Charge           Charge          ....    1
 Multiplicity           Mult            ....    1
 Number of Electrons    NEL             ....  164
Dispersion correction           -0.030664208
FINAL SINGLE POINT ENERGY     -1288.406819305853
Dispersion correction            ... done
Dispersion correction           -0.030632845
FINAL SINGLE POINT ENERGY     -1288.407061915094
Dispersion correction            ... done
Dispersion correction           -0.030622556
FINAL SINGLE POINT ENERGY     -1288.407158925679
Dispersion correction            ... done
FINAL SINGLE POINT ENERGY     -1288.407224298873
FINAL SINGLE POINT ENERGY     -1288.407282224019
FINAL SINGLE POINT ENERGY     -1288.407317925732
FINAL SINGLE POINT ENERGY     -1288.407340575194
FINAL SINGLE POINT ENERGY     -1288.407352362240
FINAL SINGLE POINT ENERGY     -1288.407360969616
FINAL SINGLE POINT ENERGY     -1288.407365045481
FINAL SINGLE POINT ENERGY     -1288.407367126493
FINAL SINGLE POINT ENERGY     -1288.407367932534
FINAL SINGLE POINT ENERGY     -1288.407368470292
Dispersion correction            ... done
Dispersion correction           -0.030592066
FINAL SINGLE POINT ENERGY     -1288.407369580358
Dispersion correction            ... done
Dispersion correction           -0.030592254
FINAL SINGLE POINT ENERGY     -1288.407371837054
Dispersion correction            ... done
                    ***********************HURRAY********************

CARTESIAN COORDINATES (ANGSTROEM)
---------------------------------
  Ir     0.607844   -0.751419    0.414676
  C      0.164241   -2.862372    0.347730
  C     -0.141406   -2.423171    1.686790
  C      2.108178   -2.051696    1.296978
  C      1.550458   -2.666062    0.130444
  C      1.051355   -1.939230    2.253439
  N     -1.083217    0.092371   -0.504753
  C     -2.359573    0.253683    0.207938
  C     -3.146322    1.486933   -0.212702
  H     -3.981824    1.621981    0.472307
  H     -3.574105    1.398764   -1.212266
  H     -2.538146    2.390778   -0.170405
  C     -3.187923   -1.016860    0.054064
  H     -2.086576    0.371470    1.257830
  H     -4.092719   -0.948170    0.656784
  H     -3.488526   -1.165328   -0.983880
  H     -2.642932   -1.902439    0.377269
  C     -0.935588    0.487502   -1.716995
  C      0.377215    0.330402   -2.260341
  H     -1.748322    0.936614   -2.278597
  C      1.393374   -0.022121   -1.374534
  C      2.613715   -0.207316   -2.091956
  S      0.893319    0.460281   -3.875233
  C      2.485652    0.026640   -3.430271
  H      1.668474    1.212650   -0.684500
  H      3.559418   -0.453329   -1.630801
  H      3.258256   -0.019714   -4.182790
  H     -0.522038   -3.323433   -0.347334
  H     -1.099865   -2.480068    2.179416
  H      1.141508   -1.488116    3.231415
  O      1.795929    2.298076    0.019493
  O      0.618911    1.060195    1.448731
  C      1.199232    2.126064    1.116007
  C      1.208213    3.261784    2.092535
  H      1.078387    4.212375    1.579928
  H      2.179954    3.293805    2.588429
  H      0.440941    3.137337    2.850932
  H      3.147571   -1.817434    1.466959
  H      2.086309   -2.922235   -0.771997

 Multiplicity           Mult            ....    1
 Number of Electrons    NEL             ....  164
 Basis Dimension        Dim             ....  358

ORBITAL ENERGIES
----------------

  NO   OCC          E(Eh)            E(eV)
   0   2.0000     -89.759602     -2442.4829
   1   2.0000     -19.644441      -534.5524
   2   2.0000     -19.644050      -534.5418
   3   2.0000     -14.828903      -403.5150
   4   2.0000     -10.709422      -291.4182
   5   2.0000     -10.650991      -289.8282
   6   2.0000     -10.621224      -289.0182
   7   2.0000     -10.621055      -289.0136
   8   2.0000     -10.618709      -288.9498
   9   2.0000     -10.617764      -288.9240
  10   2.0000     -10.611419      -288.7514
  11   2.0000     -10.611027      -288.7407
  12   2.0000     -10.608321      -288.6671
  13   2.0000     -10.607462      -288.6437
  14   2.0000     -10.590171      -288.1732
  15   2.0000     -10.586576      -288.0754
  16   2.0000     -10.552043      -287.1357
  17   2.0000     -10.551209      -287.1130
  18   2.0000     -10.549387      -287.0634
  19   2.0000      -8.398961      -228.5473
  20   2.0000      -6.288851      -171.1283
  21   2.0000      -6.285364      -171.0335
  22   2.0000      -6.283876      -170.9930
  23   2.0000      -4.016510      -109.2948
  24   2.0000      -2.332972       -63.4834
  25   2.0000      -2.303381       -62.6782
  26   2.0000      -2.299325       -62.5678
  27   2.0000      -1.339212       -36.4418
  28   2.0000      -1.241112       -33.7724
  29   2.0000      -1.202708       -32.7274
  30   2.0000      -1.155942       -31.4548
  31   2.0000      -1.124240       -30.5921
  32   2.0000      -1.021750       -27.8032
  33   2.0000      -0.969361       -26.3777
  34   2.0000      -0.965753       -26.2795
  35   2.0000      -0.961831       -26.1728
  36   2.0000      -0.955989       -26.0138
  37   2.0000      -0.948006       -25.7966
  38   2.0000      -0.898392       -24.4465
  39   2.0000      -0.868669       -23.6377
  40   2.0000      -0.794980       -21.6325
  41   2.0000      -0.779486       -21.2109
  42   2.0000      -0.774647       -21.0792
  43   2.0000      -0.772368       -21.0172
  44   2.0000      -0.769225       -20.9317
  45   2.0000      -0.757348       -20.6085
  46   2.0000      -0.740465       -20.1491
  47   2.0000      -0.721569       -19.6349
  48   2.0000      -0.700341       -19.0572
  49   2.0000      -0.683078       -18.5875
  50   2.0000      -0.669630       -18.2216
  51   2.0000      -0.664043       -18.0695
  52   2.0000      -0.652920       -17.7669
  53   2.0000      -0.637188       -17.3388
  54   2.0000      -0.628431       -17.1005
  55   2.0000      -0.623690       -16.9715
  56   2.0000      -0.619303       -16.8521
  57   2.0000      -0.608129       -16.5480
  58   2.0000      -0.597758       -16.2658
  59   2.0000      -0.593753       -16.1568
  60   2.0000      -0.592521       -16.1233
  61   2.0000      -0.589262       -16.0346
  62   2.0000      -0.577030       -15.7018
  63   2.0000      -0.575518       -15.6606
  64   2.0000      -0.561258       -15.2726
  65   2.0000      -0.560540       -15.2531
  66   2.0000      -0.559350       -15.2207
  67   2.0000      -0.544021       -14.8036
  68   2.0000      -0.542621       -14.7655
  69   2.0000      -0.535945       -14.5838
  70   2.0000      -0.528770       -14.3886
  71   2.0000      -0.517964       -14.0945
  72   2.0000      -0.512463       -13.9448
  73   2.0000      -0.506488       -13.7822
  74   2.0000      -0.501637       -13.6502
  75   2.0000      -0.488017       -13.2796
  76   2.0000      -0.474987       -12.9250
  77   2.0000      -0.453040       -12.3278
  78   2.0000      -0.442897       -12.0518
  79   2.0000      -0.414834       -11.2882
  80   2.0000      -0.413720       -11.2579
  81   2.0000      -0.391722       -10.6593
  82   0.0000      -0.196964        -5.3597
  83   0.0000      -0.142738        -3.8841
  84   0.0000      -0.122714        -3.3392
  85   0.0000      -0.084093        -2.2883
  86   0.0000      -0.078689        -2.1412

MULLIKEN ATOMIC CHARGES
-----------------------
   0 Ir:    0.606085
   1 C :   -0.264660
   2 C :   -0.249239
   3 C :   -0.281195
   4 C :   -0.213363
   5 C :   -0.152493
   6 N :   -0.439626
   7 C :   -0.125564
   8 C :   -0.677723
   9 H :    0.267735
  10 H :    0.224517
  11 H :    0.250961
  12 C :   -0.632127
  13 H :    0.273707
  14 H :    0.256421
  15 H :    0.233084
  16 H :    0.233917
  17 C :    0.069989
  18 C :   -0.127292
  19 H :    0.282495
  20 C :   -0.545672
  21 C :   -0.111709
  22 S :    0.339615
  23 C :   -0.421827
  24 H :    0.480744
  25 H :    0.265260
  26 H :    0.296931
  27 H :    0.283594
  28 H :    0.279058
  29 H :    0.293182
  30 O :   -0.492097
  31 O :   -0.489798
  32 C :    0.638103
  33 C :   -0.743861
  34 H :    0.276170
  35 H :    0.279339
  36 H :    0.266698
  37 H :    0.278935
  38 H :    0.291706
Sum of atomic charges:    1.0000000

LOEWDIN ATOMIC CHARGES
----------------------
   0 Ir:   -0.266599
   1 C :   -0.066575
   2 C :   -0.097657
   3 C :   -0.104421
   4 C :   -0.035833
   5 C :   -0.022556
   6 N :   -0.009304
   7 C :   -0.069045
   8 C :   -0.361549
   9 H :    0.155411
  10 H :    0.132695
  11 H :    0.142035
  12 C :   -0.344272
  13 H :    0.151783
  14 H :    0.149636
  15 H :    0.138235
  16 H :    0.133260
  17 C :    0.029566
  18 C :   -0.205378
  19 H :    0.158854
  20 C :   -0.211192
  21 C :   -0.138871
  22 S :    0.491022
  23 C :   -0.255121
  24 H :    0.379866
  25 H :    0.160969
  26 H :    0.168901
  27 H :    0.181365
  28 H :    0.177613
  29 H :    0.185257
  30 O :   -0.251597
  31 O :   -0.164155
  32 C :    0.173713
  33 C :   -0.370246
  34 H :    0.166820
  35 H :    0.174495
  36 H :    0.158711
  37 H :    0.180172
  38 H :    0.183992

  Mayer bond orders larger than 0.100000
B(  0-Ir,  1-C ) :   0.4706 B(  0-Ir,  2-C ) :   0.3693 B(  0-Ir,  3-C ) :   0.4760
B(  0-Ir,  4-C ) :   0.4201 B(  0-Ir,  5-C ) :   0.3501 B(  0-Ir,  6-N ) :   0.4663
B(  0-Ir, 20-C ) :   0.5558 B(  0-Ir, 31-O ) :   0.4884 B(  1-C ,  2-C ) :   1.1240
B(  1-C ,  4-C ) :   1.2082 B(  1-C , 27-H ) :   0.9100 B(  2-C ,  5-C ) :   1.2551
B(  2-C , 28-H ) :   0.9101 B(  3-C ,  4-C ) :   1.1561 B(  3-C ,  5-C ) :   1.1508
B(  3-C , 37-H ) :   0.9149 B(  4-C , 38-H ) :   0.9000 B(  5-C , 29-H ) :   0.9031
B(  6-N ,  7-C ) :   0.8974 B(  6-N , 17-C ) :   1.6390 B(  7-C ,  8-C ) :   0.9900
B(  7-C , 12-C ) :   0.9679 B(  7-C , 13-H ) :   0.8803 B(  8-C ,  9-H ) :   0.9053
B(  8-C , 10-H ) :   0.9132 B(  8-C , 11-H ) :   0.9136 B( 12-C , 14-H ) :   0.9083
B( 12-C , 15-H ) :   0.9152 B( 12-C , 16-H ) :   0.9123 B( 17-C , 18-C ) :   1.1252
B( 17-C , 19-H ) :   0.8770 B( 18-C , 20-C ) :   1.2352 B( 18-C , 22-S ) :   1.2189
B( 20-C , 21-C ) :   1.2762 B( 20-C , 24-H ) :   0.2568 B( 21-C , 23-C ) :   1.5246
B( 21-C , 25-H ) :   0.9029 B( 22-S , 23-C ) :   1.2320 B( 23-C , 26-H ) :   0.8919
B( 24-H , 30-O ) :   0.4162 B( 30-O , 32-C ) :   1.4855 B( 31-O , 32-C ) :   1.4416
B( 32-C , 33-C ) :   0.9462 B( 33-C , 34-H ) :   0.8976 B( 33-C , 35-H ) :   0.8904
B( 33-C , 36-H ) :   0.9067

Dispersion correction           -0.030592083
FINAL SINGLE POINT ENERGY     -1288.407374234573

DIPOLE MOMENT
-------------
                                X             Y             Z
Electronic contribution:     37.00829     -76.45253      70.60584
Nuclear contribution   :    -37.52843      76.30631     -70.68893
                        -----------------------------------------
Total Dipole Moment    :     -0.52014      -0.14621      -0.08309
                        -----------------------------------------
Magnitude (a.u.)       :      0.54665
Magnitude (Debye)      :      1.38948

Rotational constants in cm-1:     0.010592     0.008734     0.008193
Rotational constants in MHz :   317.543084   261.839519   245.610337

                             ****ORCA TERMINATED NORMALLY****
TOTAL RUN TIME: 0 days 3 hours 15 minutes 56 seconds 434 msec
