                         Program Version 5.0.3 -  RELEASE  -
|  1> ! Opt PBEh-3c
|  2> %geom Constraints
|  3> { B 0 20 2.1714285714285713 C }
|  4> { B 24 30 1.3857142857142857 C }
|  5>     end
|  6> end
|  7> %output
|  8> xyzfile=True
|  9> end
| 10> %scf
| 11> maxiter 250
| 12> end
| 13> %output
| 14> Print[P_Hirshfeld] = 1
| 15> end
| 16> % maxcore
| 17> 4000
| 18> *xyz 1 1
| 19> Ir   0.60949886  -0.72044997   0.44171151
| 20> C    0.11225410  -2.82961595   0.35551357
| 21> C   -0.03090536  -2.36137795   1.70914620
| 22> C    2.17568455  -2.08118776   1.07653312
| 23> C    1.45637847  -2.65475954  -0.03287013
| 24> C    1.25525871  -1.93092650   2.14118224
| 25> N   -1.06049763   0.12741007  -0.51467784
| 26> C   -2.33534348   0.35394506   0.18441437
| 27> C   -3.13295364   1.52971775  -0.36129199
| 28> H   -3.96307624   1.73481859   0.31302486
| 29> H   -3.57064143   1.32754960  -1.33983240
| 30> H   -2.53192430   2.43704225  -0.42491981
| 31> C   -3.15631426  -0.93079803   0.16893804
| 32> H   -2.05568173   0.58017538   1.21433452
| 33> H   -4.06596601  -0.79561974   0.75258277
| 34> H   -3.44900551  -1.19845571  -0.84716274
| 35> H   -2.61278692  -1.76979378   0.60021307
| 36> C   -0.90202825   0.43728683  -1.74772223
| 37> C    0.42180852   0.26333343  -2.27271917
| 38> H   -1.71127365   0.83858274  -2.34989625
| 39> C    1.49032041   0.17133004  -1.38364958
| 40> C    2.69409171  -0.11072889  -2.09615537
| 41> S    0.87224435   0.03466447  -3.89361648
| 42> C    2.50773508  -0.20455208  -3.44164806
| 43> H    1.61106730   1.16030536  -0.60291992
| 44> H    3.66749863  -0.18071558  -1.63288370
| 45> H    3.25245096  -0.38026779  -4.20300799
| 46> H   -0.67241534  -3.24343649  -0.26110862
| 47> H   -0.92275048  -2.40138392   2.31600102
| 48> H    1.47694869  -1.49111910   3.10337435
| 49> O    1.68729501   2.31882062   0.17940465
| 50> O    0.53740889   1.00641549   1.56070097
| 51> C    1.09360991   2.11340961   1.24938179
| 52> C    1.03140983   3.20115503   2.28171630
| 53> H    1.00952208   4.17959045   1.80840570
| 54> H    1.93234908   3.15486268   2.89614287
| 55> H    0.17376423   3.08267400   2.93877459
| 56> H    3.23106383  -1.85889711   1.11148810
| 57> H    1.87327106  -2.90981356  -0.99616233
| 58> *
| 59>
| 60>                          ****END OF INPUT****
 Total Charge           Charge          ....    1
 Multiplicity           Mult            ....    1
 Number of Electrons    NEL             ....  164
Dispersion correction           -0.030797252
FINAL SINGLE POINT ENERGY     -1288.401526678730
Dispersion correction            ... done
Dispersion correction           -0.030752204
FINAL SINGLE POINT ENERGY     -1288.401575904314
Dispersion correction            ... done
Dispersion correction           -0.030761184
FINAL SINGLE POINT ENERGY     -1288.400617401040
Dispersion correction            ... done
FINAL SINGLE POINT ENERGY     -1288.401850941927
FINAL SINGLE POINT ENERGY     -1288.401886677153
FINAL SINGLE POINT ENERGY     -1288.401916741663
FINAL SINGLE POINT ENERGY     -1288.401954822551
FINAL SINGLE POINT ENERGY     -1288.401961041328
FINAL SINGLE POINT ENERGY     -1288.401963377180
FINAL SINGLE POINT ENERGY     -1288.401961834539
FINAL SINGLE POINT ENERGY     -1288.401962271937
FINAL SINGLE POINT ENERGY     -1288.401963408103
FINAL SINGLE POINT ENERGY     -1288.401965758637
FINAL SINGLE POINT ENERGY     -1288.401970376338
Dispersion correction            ... done
Dispersion correction           -0.030665836
FINAL SINGLE POINT ENERGY     -1288.401975861157
Dispersion correction            ... done
Dispersion correction           -0.030667435
FINAL SINGLE POINT ENERGY     -1288.401980249232
Dispersion correction            ... done
                    ***********************HURRAY********************

CARTESIAN COORDINATES (ANGSTROEM)
---------------------------------
  Ir     0.611857   -0.727649    0.435695
  C      0.129406   -2.839852    0.347518
  C     -0.065937   -2.377984    1.697274
  C      2.159855   -2.075612    1.143677
  C      1.488497   -2.659445    0.012856
  C      1.194678   -1.933396    2.173864
  N     -1.063762    0.120744   -0.509796
  C     -2.338778    0.327864    0.194404
  C     -3.132862    1.522968   -0.313539
  H     -3.964289    1.706849    0.365129
  H     -3.567802    1.355370   -1.299789
  H     -2.529285    2.430307   -0.344957
  C     -3.162397   -0.953920    0.134912
  H     -2.061406    0.520639    1.231766
  H     -4.071140   -0.838867    0.724331
  H     -3.456507   -1.184770   -0.889775
  H     -2.619261   -1.809052    0.533863
  C     -0.909527    0.457717   -1.737078
  C      0.409627    0.287435   -2.269461
  H     -1.720209    0.875085   -2.325944
  C      1.464984    0.111351   -1.376309
  C      2.670581   -0.147317   -2.095957
  S      0.873806    0.166915   -3.897630
  C      2.497429   -0.140163   -3.446893
  H      1.630324    1.139460   -0.609451
  H      3.637456   -0.272459   -1.630435
  H      3.247612   -0.278634   -4.210578
  H     -0.626257   -3.265485   -0.296528
  H     -0.979561   -2.423554    2.270194
  H      1.375268   -1.489340    3.142698
  O      1.732523    2.296342    0.146448
  O      0.554536    1.018878    1.536107
  C      1.125177    2.111487    1.216792
  C      1.070012    3.222899    2.223303
  H      0.957604    4.183267    1.725310
  H      2.014516    3.251887    2.769245
  H      0.267184    3.076788    2.940453
  H      3.212589   -1.852418    1.222254
  H      1.942829   -2.915144   -0.933232

 Multiplicity           Mult            ....    1
 Number of Electrons    NEL             ....  164
 Basis Dimension        Dim             ....  358

ORBITAL ENERGIES
----------------

  NO   OCC          E(Eh)            E(eV)
   0   2.0000     -89.763625     -2442.5924
   1   2.0000     -19.633213      -534.2469
   2   2.0000     -19.616496      -533.7920
   3   2.0000     -14.834622      -403.6706
   4   2.0000     -10.694195      -291.0038
   5   2.0000     -10.655384      -289.9477
   6   2.0000     -10.627479      -289.1884
   7   2.0000     -10.625752      -289.1414
   8   2.0000     -10.625198      -289.1263
   9   2.0000     -10.624603      -289.1102
  10   2.0000     -10.617853      -288.9265
  11   2.0000     -10.614883      -288.8457
  12   2.0000     -10.612986      -288.7940
  13   2.0000     -10.609854      -288.7088
  14   2.0000     -10.588703      -288.1332
  15   2.0000     -10.588099      -288.1168
  16   2.0000     -10.553771      -287.1827
  17   2.0000     -10.550588      -287.0961
  18   2.0000     -10.542747      -286.8827
  19   2.0000      -8.403034      -228.6582
  20   2.0000      -6.292914      -171.2389
  21   2.0000      -6.289352      -171.1420
  22   2.0000      -6.288015      -171.1056
  23   2.0000      -4.022054      -109.4457
  24   2.0000      -2.339473       -63.6603
  25   2.0000      -2.307790       -62.7982
  26   2.0000      -2.305094       -62.7248
  27   2.0000      -1.322120       -35.9767
  28   2.0000      -1.223520       -33.2937
  29   2.0000      -1.207142       -32.8480
  30   2.0000      -1.162501       -31.6333
  31   2.0000      -1.127267       -30.6745
  32   2.0000      -1.024266       -27.8717
  33   2.0000      -0.975324       -26.5399
  34   2.0000      -0.969256       -26.3748
  35   2.0000      -0.967628       -26.3305
  36   2.0000      -0.958943       -26.0942
  37   2.0000      -0.937627       -25.5141
  38   2.0000      -0.900378       -24.5005
  39   2.0000      -0.872088       -23.7307
  40   2.0000      -0.797981       -21.7142
  41   2.0000      -0.781766       -21.2729
  42   2.0000      -0.778415       -21.1817
  43   2.0000      -0.778022       -21.1710
  44   2.0000      -0.763299       -20.7704
  45   2.0000      -0.759708       -20.6727
  46   2.0000      -0.742349       -20.2003
  47   2.0000      -0.722133       -19.6502
  48   2.0000      -0.691810       -18.8251
  49   2.0000      -0.683371       -18.5955
  50   2.0000      -0.663179       -18.0460
  51   2.0000      -0.657605       -17.8944
  52   2.0000      -0.647504       -17.6195
  53   2.0000      -0.637652       -17.3514
  54   2.0000      -0.632310       -17.2060
  55   2.0000      -0.629388       -17.1265
  56   2.0000      -0.621794       -16.9199
  57   2.0000      -0.610349       -16.6084
  58   2.0000      -0.599352       -16.3092
  59   2.0000      -0.598812       -16.2945
  60   2.0000      -0.598025       -16.2731
  61   2.0000      -0.591129       -16.0854
  62   2.0000      -0.579054       -15.7568
  63   2.0000      -0.567783       -15.4502
  64   2.0000      -0.565033       -15.3753
  65   2.0000      -0.562192       -15.2980
  66   2.0000      -0.553929       -15.0732
  67   2.0000      -0.546894       -14.8817
  68   2.0000      -0.541932       -14.7467
  69   2.0000      -0.535201       -14.5636
  70   2.0000      -0.528872       -14.3913
  71   2.0000      -0.518133       -14.0991
  72   2.0000      -0.513225       -13.9656
  73   2.0000      -0.500012       -13.6060
  74   2.0000      -0.494376       -13.4526
  75   2.0000      -0.483104       -13.1459
  76   2.0000      -0.478448       -13.0192
  77   2.0000      -0.448906       -12.2154
  78   2.0000      -0.444555       -12.0970
  79   2.0000      -0.418606       -11.3909
  80   2.0000      -0.416558       -11.3351
  81   2.0000      -0.396057       -10.7773
  82   0.0000      -0.204027        -5.5519
  83   0.0000      -0.142812        -3.8861
  84   0.0000      -0.136874        -3.7245
  85   0.0000      -0.087123        -2.3708
  86   0.0000      -0.073621        -2.0033

MULLIKEN ATOMIC CHARGES
-----------------------
   0 Ir:    0.604343
   1 C :   -0.236506
   2 C :   -0.265886
   3 C :   -0.264991
   4 C :   -0.227271
   5 C :   -0.155296
   6 N :   -0.433759
   7 C :   -0.126184
   8 C :   -0.682536
   9 H :    0.269534
  10 H :    0.224341
  11 H :    0.254703
  12 C :   -0.634053
  13 H :    0.280355
  14 H :    0.259528
  15 H :    0.232306
  16 H :    0.232814
  17 C :    0.069624
  18 C :   -0.130716
  19 H :    0.285634
  20 C :   -0.543155
  21 C :   -0.105924
  22 S :    0.338983
  23 C :   -0.427958
  24 H :    0.474121
  25 H :    0.266652
  26 H :    0.297966
  27 H :    0.286100
  28 H :    0.283341
  29 H :    0.299553
  30 O :   -0.479600
  31 O :   -0.514913
  32 C :    0.629759
  33 C :   -0.744205
  34 H :    0.272192
  35 H :    0.274196
  36 H :    0.259763
  37 H :    0.283866
  38 H :    0.293280
Sum of atomic charges:    1.0000000

LOEWDIN ATOMIC CHARGES
----------------------
   0 Ir:   -0.254737
   1 C :   -0.055582
   2 C :   -0.092927
   3 C :   -0.090690
   4 C :   -0.042207
   5 C :   -0.015600
   6 N :   -0.004281
   7 C :   -0.069359
   8 C :   -0.362354
   9 H :    0.156283
  10 H :    0.132764
  11 H :    0.143820
  12 C :   -0.343796
  13 H :    0.155223
  14 H :    0.151014
  15 H :    0.137803
  16 H :    0.132929
  17 C :    0.029385
  18 C :   -0.187477
  19 H :    0.160403
  20 C :   -0.218129
  21 C :   -0.126847
  22 S :    0.495027
  23 C :   -0.258892
  24 H :    0.347556
  25 H :    0.162184
  26 H :    0.169150
  27 H :    0.182475
  28 H :    0.180448
  29 H :    0.189235
  30 O :   -0.264037
  31 O :   -0.186788
  32 C :    0.162588
  33 C :   -0.372334
  34 H :    0.164139
  35 H :    0.171414
  36 H :    0.154822
  37 H :    0.182570
  38 H :    0.184807

  Mayer bond orders larger than 0.100000
B(  0-Ir,  1-C ) :   0.4350 B(  0-Ir,  2-C ) :   0.4327 B(  0-Ir,  3-C ) :   0.4659
B(  0-Ir,  4-C ) :   0.4310 B(  0-Ir,  5-C ) :   0.3825 B(  0-Ir,  6-N ) :   0.4646
B(  0-Ir, 20-C ) :   0.4421 B(  0-Ir, 31-O ) :   0.5316 B(  1-C ,  2-C ) :   1.1268
B(  1-C ,  4-C ) :   1.2305 B(  1-C , 27-H ) :   0.9074 B(  2-C ,  5-C ) :   1.1934
B(  2-C , 28-H ) :   0.9102 B(  3-C ,  4-C ) :   1.1309 B(  3-C ,  5-C ) :   1.1871
B(  3-C , 37-H ) :   0.9119 B(  4-C , 38-H ) :   0.8998 B(  5-C , 29-H ) :   0.9005
B(  6-N ,  7-C ) :   0.8952 B(  6-N , 17-C ) :   1.6518 B(  7-C ,  8-C ) :   0.9905
B(  7-C , 12-C ) :   0.9666 B(  7-C , 13-H ) :   0.8762 B(  8-C ,  9-H ) :   0.9046
B(  8-C , 10-H ) :   0.9130 B(  8-C , 11-H ) :   0.9117 B( 12-C , 14-H ) :   0.9077
B( 12-C , 15-H ) :   0.9154 B( 12-C , 16-H ) :   0.9121 B( 17-C , 18-C ) :   1.1071
B( 17-C , 19-H ) :   0.8762 B( 18-C , 20-C ) :   1.2378 B( 18-C , 22-S ) :   1.2419
B( 20-C , 21-C ) :   1.2704 B( 20-C , 24-H ) :   0.3688 B( 21-C , 23-C ) :   1.5447
B( 21-C , 25-H ) :   0.9028 B( 22-S , 23-C ) :   1.2159 B( 23-C , 26-H ) :   0.8913
B( 24-H , 30-O ) :   0.3236 B( 30-O , 32-C ) :   1.5891 B( 31-O , 32-C ) :   1.3598
B( 32-C , 33-C ) :   0.9448 B( 33-C , 34-H ) :   0.9007 B( 33-C , 35-H ) :   0.8943
B( 33-C , 36-H ) :   0.9085

Dispersion correction           -0.030669662
FINAL SINGLE POINT ENERGY     -1288.401981993398

DIPOLE MOMENT
-------------
                                X             Y             Z
Electronic contribution:     37.33488     -72.56277      72.34184
Nuclear contribution   :    -37.96192      71.95418     -72.62218
                        -----------------------------------------
Total Dipole Moment    :     -0.62705      -0.60860      -0.28034
                        -----------------------------------------
Magnitude (a.u.)       :      0.91770
Magnitude (Debye)      :      2.33260

Rotational constants in cm-1:     0.010530     0.008868     0.008207
Rotational constants in MHz :   315.670160   265.846146   246.036673

                             ****ORCA TERMINATED NORMALLY****
TOTAL RUN TIME: 0 days 2 hours 6 minutes 10 seconds 573 msec
