                         Program Version 5.0.3 -  RELEASE  -
|  1> ! Opt PBEh-3c
|  2> %geom Constraints
|  3> { B 0 20 2.2142857142857144 C }
|  4> { B 24 30 1.4428571428571428 C }
|  5>     end
|  6> end
|  7> %output
|  8> xyzfile=True
|  9> end
| 10> %scf
| 11> maxiter 250
| 12> end
| 13> %output
| 14> Print[P_Hirshfeld] = 1
| 15> end
| 16> % maxcore
| 17> 4000
| 18> *xyz 1 1
| 19> Ir   0.62308026  -0.71451926   0.43224838
| 20> C    0.10954607  -2.81997629   0.33040256
| 21> C    0.04555715  -2.36203061   1.69346642
| 22> C    2.21364145  -2.09409765   0.94422507
| 23> C    1.42749425  -2.64536711  -0.13400853
| 24> C    1.36244836  -1.95196442   2.06165159
| 25> N   -1.04556213   0.14289384  -0.51861812
| 26> C   -2.30929988   0.41936286   0.18230183
| 27> C   -3.09068698   1.58342639  -0.40805983
| 28> H   -3.91217257   1.83287937   0.26211250
| 29> H   -3.53916108   1.34662029  -1.37384467
| 30> H   -2.47398130   2.47606972  -0.51483492
| 31> C   -3.14722173  -0.85314523   0.23480170
| 32> H   -2.01263653   0.68414482   1.19800178
| 33> H   -4.04674334  -0.67718451   0.82296785
| 34> H   -3.45700401  -1.16393479  -0.76378540
| 35> H   -2.60852373  -1.67738327   0.69994183
| 36> C   -0.88751096   0.39193290  -1.76372158
| 37> C    0.44460262   0.19035031  -2.27099808
| 38> H   -1.69141240   0.76923906  -2.38840905
| 39> C    1.52296641   0.26849625  -1.38944842
| 40> C    2.73344715  -0.07031196  -2.06620765
| 41> S    0.89337500  -0.27022607  -3.84106497
| 42> C    2.54306383  -0.37848676  -3.37684089
| 43> H    1.53148323   1.22798622  -0.65117008
| 44> H    3.71051586  -0.03130871  -1.60703747
| 45> H    3.28802832  -0.64121075  -4.11251886
| 46> H   -0.71471027  -3.21558037  -0.24542007
| 47> H   -0.81222062  -2.40227188   2.34790871
| 48> H    1.64263297  -1.52943709   3.01618747
| 49> O    1.42939274   2.42536724   0.17291823
| 50> O    0.54913433   0.96268130   1.60360007
| 51> C    0.97130483   2.13221197   1.28030430
| 52> C    0.90780171   3.16018300   2.37430446
| 53> H    0.86643754   4.16374635   1.95965961
| 54> H    1.81339120   3.08769995   2.97966206
| 55> H    0.06026369   2.99242251   3.03499658
| 56> H    3.26933444  -1.87120092   0.91728368
| 57> H    1.78927417  -2.88888671  -1.12221797
| 58> *
| 59>
| 60>                          ****END OF INPUT****
 Total Charge           Charge          ....    1
 Multiplicity           Mult            ....    1
 Number of Electrons    NEL             ....  164
Dispersion correction           -0.030999655
FINAL SINGLE POINT ENERGY     -1288.400264449174
Dispersion correction            ... done
Dispersion correction           -0.030923015
FINAL SINGLE POINT ENERGY     -1288.400171000207
Dispersion correction            ... done
Dispersion correction           -0.030932787
FINAL SINGLE POINT ENERGY     -1288.399904536595
Dispersion correction            ... done
FINAL SINGLE POINT ENERGY     -1288.400535679194
FINAL SINGLE POINT ENERGY     -1288.400576694700
FINAL SINGLE POINT ENERGY     -1288.400603405401
FINAL SINGLE POINT ENERGY     -1288.400632489404
FINAL SINGLE POINT ENERGY     -1288.400640608969
FINAL SINGLE POINT ENERGY     -1288.400647082780
FINAL SINGLE POINT ENERGY     -1288.400652558771
Dispersion correction            ... done
Dispersion correction           -0.030864961
FINAL SINGLE POINT ENERGY     -1288.400657902326
Dispersion correction            ... done
Dispersion correction           -0.030861790
FINAL SINGLE POINT ENERGY     -1288.400661253650
Dispersion correction            ... done
                    ***********************HURRAY********************

CARTESIAN COORDINATES (ANGSTROEM)
---------------------------------
  Ir     0.624816   -0.716406    0.431116
  C      0.108691   -2.823960    0.342061
  C      0.028393   -2.363422    1.702576
  C      2.206116   -2.096861    0.977004
  C      1.433417   -2.653551   -0.106935
  C      1.338487   -1.948741    2.082686
  N     -1.047005    0.135815   -0.518019
  C     -2.312013    0.399002    0.185653
  C     -3.094620    1.572903   -0.384221
  H     -3.916654    1.808980    0.290048
  H     -3.542288    1.353019   -1.354345
  H     -2.479209    2.468225   -0.474862
  C     -3.150135   -0.874266    0.213403
  H     -2.017898    0.646291    1.206526
  H     -4.051827   -0.709192    0.801494
  H     -3.456526   -1.167021   -0.791682
  H     -2.613026   -1.706962    0.664961
  C     -0.891905    0.401632   -1.761153
  C      0.436827    0.207634   -2.273630
  H     -1.698327    0.787388   -2.377176
  C      1.504718    0.213570   -1.375532
  C      2.718857   -0.095300   -2.061047
  S      0.897388   -0.154383   -3.865338
  C      2.539322   -0.313389   -3.391576
  H      1.539619    1.198062   -0.640144
  H      3.691719   -0.098875   -1.591413
  H      3.289947   -0.536325   -4.134560
  H     -0.707566   -3.223246   -0.242522
  H     -0.837069   -2.400959    2.346789
  H      1.606895   -1.521064    3.038340
  O      1.480695    2.399909    0.156054
  O      0.552021    0.973930    1.591815
  C      0.997336    2.129704    1.261367
  C      0.933678    3.178286    2.335029
  H      0.905717    4.174733    1.902444
  H      1.833037    3.108102    2.949781
  H      0.078204    3.029473    2.989821
  H      3.262932   -1.878506    0.964770
  H      1.806607   -2.905039   -1.088842

 Multiplicity           Mult            ....    1
 Number of Electrons    NEL             ....  164
 Basis Dimension        Dim             ....  358

ORBITAL ENERGIES
----------------

  NO   OCC          E(Eh)            E(eV)
   0   2.0000     -89.767151     -2442.6884
   1   2.0000     -19.626100      -534.0533
   2   2.0000     -19.601178      -533.3752
   3   2.0000     -14.838544      -403.7773
   4   2.0000     -10.685148      -290.7577
   5   2.0000     -10.659112      -290.0492
   6   2.0000     -10.632162      -289.3158
   7   2.0000     -10.629469      -289.2426
   8   2.0000     -10.629454      -289.2422
   9   2.0000     -10.625791      -289.1425
  10   2.0000     -10.621812      -289.0342
  11   2.0000     -10.620078      -288.9870
  12   2.0000     -10.614252      -288.8285
  13   2.0000     -10.612053      -288.7686
  14   2.0000     -10.589949      -288.1672
  15   2.0000     -10.588052      -288.1155
  16   2.0000     -10.555335      -287.2253
  17   2.0000     -10.551158      -287.1116
  18   2.0000     -10.536864      -286.7226
  19   2.0000      -8.406549      -228.7538
  20   2.0000      -6.296443      -171.3349
  21   2.0000      -6.292844      -171.2370
  22   2.0000      -6.291527      -171.2011
  23   2.0000      -4.024112      -109.5017
  24   2.0000      -2.342090       -63.7315
  25   2.0000      -2.309439       -62.8430
  26   2.0000      -2.307571       -62.7922
  27   2.0000      -1.311509       -35.6880
  28   2.0000      -1.213925       -33.0326
  29   2.0000      -1.210419       -32.9372
  30   2.0000      -1.165760       -31.7219
  31   2.0000      -1.130095       -30.7515
  32   2.0000      -1.026531       -27.9333
  33   2.0000      -0.979092       -26.6424
  34   2.0000      -0.971965       -26.4485
  35   2.0000      -0.970020       -26.3956
  36   2.0000      -0.961573       -26.1657
  37   2.0000      -0.930771       -25.3276
  38   2.0000      -0.901546       -24.5323
  39   2.0000      -0.874668       -23.8009
  40   2.0000      -0.800053       -21.7706
  41   2.0000      -0.783918       -21.3315
  42   2.0000      -0.781730       -21.2720
  43   2.0000      -0.780677       -21.2433
  44   2.0000      -0.766269       -20.8512
  45   2.0000      -0.755828       -20.5671
  46   2.0000      -0.743391       -20.2287
  47   2.0000      -0.723493       -19.6872
  48   2.0000      -0.691261       -18.8102
  49   2.0000      -0.678903       -18.4739
  50   2.0000      -0.664567       -18.0838
  51   2.0000      -0.650857       -17.7107
  52   2.0000      -0.647218       -17.6117
  53   2.0000      -0.635598       -17.2955
  54   2.0000      -0.634364       -17.2619
  55   2.0000      -0.630169       -17.1478
  56   2.0000      -0.622613       -16.9422
  57   2.0000      -0.612787       -16.6748
  58   2.0000      -0.601825       -16.3765
  59   2.0000      -0.601422       -16.3655
  60   2.0000      -0.600353       -16.3364
  61   2.0000      -0.592005       -16.1093
  62   2.0000      -0.580685       -15.8013
  63   2.0000      -0.571766       -15.5585
  64   2.0000      -0.563902       -15.3446
  65   2.0000      -0.559647       -15.2288
  66   2.0000      -0.551667       -15.0116
  67   2.0000      -0.548117       -14.9150
  68   2.0000      -0.540875       -14.7179
  69   2.0000      -0.536648       -14.6029
  70   2.0000      -0.528475       -14.3805
  71   2.0000      -0.518839       -14.1183
  72   2.0000      -0.514593       -14.0028
  73   2.0000      -0.500266       -13.6129
  74   2.0000      -0.489177       -13.3112
  75   2.0000      -0.481653       -13.1064
  76   2.0000      -0.477283       -12.9875
  77   2.0000      -0.445929       -12.1344
  78   2.0000      -0.444161       -12.0862
  79   2.0000      -0.422300       -11.4914
  80   2.0000      -0.416671       -11.3382
  81   2.0000      -0.398113       -10.8332
  82   0.0000      -0.206884        -5.6296
  83   0.0000      -0.145681        -3.9642
  84   0.0000      -0.141666        -3.8549
  85   0.0000      -0.091903        -2.5008
  86   0.0000      -0.075974        -2.0674

MULLIKEN ATOMIC CHARGES
-----------------------
   0 Ir:    0.606832
   1 C :   -0.222388
   2 C :   -0.271938
   3 C :   -0.255096
   4 C :   -0.237544
   5 C :   -0.159347
   6 N :   -0.428170
   7 C :   -0.127802
   8 C :   -0.684192
   9 H :    0.270108
  10 H :    0.224059
  11 H :    0.258443
  12 C :   -0.634628
  13 H :    0.282820
  14 H :    0.261652
  15 H :    0.231255
  16 H :    0.232578
  17 C :    0.071693
  18 C :   -0.139342
  19 H :    0.288368
  20 C :   -0.535085
  21 C :   -0.105887
  22 S :    0.332843
  23 C :   -0.432421
  24 H :    0.482677
  25 H :    0.267576
  26 H :    0.298932
  27 H :    0.287270
  28 H :    0.286375
  29 H :    0.302676
  30 O :   -0.474392
  31 O :   -0.528061
  32 C :    0.620886
  33 C :   -0.743969
  34 H :    0.270183
  35 H :    0.268998
  36 H :    0.255290
  37 H :    0.286077
  38 H :    0.292671
Sum of atomic charges:    1.0000000

LOEWDIN ATOMIC CHARGES
----------------------
   0 Ir:   -0.248843
   1 C :   -0.047642
   2 C :   -0.085449
   3 C :   -0.077652
   4 C :   -0.051151
   5 C :   -0.016653
   6 N :   -0.000697
   7 C :   -0.070105
   8 C :   -0.362787
   9 H :    0.156671
  10 H :    0.132797
  11 H :    0.145668
  12 C :   -0.343536
  13 H :    0.156557
  14 H :    0.152021
  15 H :    0.137286
  16 H :    0.133357
  17 C :    0.031066
  18 C :   -0.176479
  19 H :    0.161819
  20 C :   -0.212158
  21 C :   -0.123139
  22 S :    0.494185
  23 C :   -0.261483
  24 H :    0.322462
  25 H :    0.163326
  26 H :    0.169295
  27 H :    0.182922
  28 H :    0.182341
  29 H :    0.191163
  30 O :   -0.268692
  31 O :   -0.198969
  32 C :    0.154980
  33 C :   -0.374197
  34 H :    0.160574
  35 H :    0.168682
  36 H :    0.154249
  37 H :    0.183548
  38 H :    0.184664

  Mayer bond orders larger than 0.100000
B(  0-Ir,  1-C ) :   0.4203 B(  0-Ir,  2-C ) :   0.4620 B(  0-Ir,  3-C ) :   0.4618
B(  0-Ir,  4-C ) :   0.4380 B(  0-Ir,  5-C ) :   0.3923 B(  0-Ir,  6-N ) :   0.4633
B(  0-Ir, 20-C ) :   0.3837 B(  0-Ir, 31-O ) :   0.5563 B(  1-C ,  2-C ) :   1.1284
B(  1-C ,  4-C ) :   1.2404 B(  1-C , 27-H ) :   0.9059 B(  2-C ,  5-C ) :   1.1665
B(  2-C , 28-H ) :   0.9098 B(  3-C ,  4-C ) :   1.1176 B(  3-C ,  5-C ) :   1.2094
B(  3-C , 37-H ) :   0.9101 B(  4-C , 38-H ) :   0.9003 B(  5-C , 29-H ) :   0.8992
B(  6-N ,  7-C ) :   0.8931 B(  6-N , 17-C ) :   1.6651 B(  7-C ,  8-C ) :   0.9906
B(  7-C , 12-C ) :   0.9670 B(  7-C , 13-H ) :   0.8737 B(  8-C ,  9-H ) :   0.9043
B(  8-C , 10-H ) :   0.9133 B(  8-C , 11-H ) :   0.9099 B( 12-C , 14-H ) :   0.9071
B( 12-C , 15-H ) :   0.9156 B( 12-C , 16-H ) :   0.9123 B( 17-C , 18-C ) :   1.0893
B( 17-C , 19-H ) :   0.8759 B( 18-C , 20-C ) :   1.2430 B( 18-C , 22-S ) :   1.2530
B( 20-C , 21-C ) :   1.2603 B( 20-C , 24-H ) :   0.4246 B( 21-C , 23-C ) :   1.5534
B( 21-C , 25-H ) :   0.9032 B( 22-S , 23-C ) :   1.2053 B( 23-C , 26-H ) :   0.8911
B( 24-H , 30-O ) :   0.2816 B( 30-O , 32-C ) :   1.6515 B( 31-O , 32-C ) :   1.3116
B( 32-C , 33-C ) :   0.9448 B( 33-C , 34-H ) :   0.9039 B( 33-C , 35-H ) :   0.8971
B( 33-C , 36-H ) :   0.9089

Dispersion correction           -0.030857681
FINAL SINGLE POINT ENERGY     -1288.400664419533

DIPOLE MOMENT
-------------
                                X             Y             Z
Electronic contribution:     38.77266     -69.57993      71.68650
Nuclear contribution   :    -39.39962      68.65759     -72.08030
                        -----------------------------------------
Total Dipole Moment    :     -0.62696      -0.92235      -0.39379
                        -----------------------------------------
Magnitude (a.u.)       :      1.18274
Magnitude (Debye)      :      3.00629

Rotational constants in cm-1:     0.010571     0.009089     0.008209
Rotational constants in MHz :   316.920821   272.486273   246.098005

                             ****ORCA TERMINATED NORMALLY****
TOTAL RUN TIME: 0 days 1 hours 33 minutes 39 seconds 147 msec
