                         Program Version 5.0.3 -  RELEASE  -
|  1> ! Opt PBEh-3c
|  2> %geom Constraints
|  3> { B 0 20 2.5142857142857142 C }
|  4> { B 24 30 1.3142857142857143 C }
|  5>     end
|  6> end
|  7> %output
|  8> xyzfile=True
|  9> end
| 10> %scf
| 11> maxiter 250
| 12> end
| 13> %output
| 14> Print[P_Hirshfeld] = 1
| 15> end
| 16> % maxcore
| 17> 4000
| 18> *xyz 1 1
| 19> Ir   0.57000097  -0.74363309   0.52453003
| 20> C    0.01631168  -2.82128695   0.39502741
| 21> C    0.04486881  -2.37027556   1.76453612
| 22> C    2.16815167  -2.15743467   0.89655089
| 23> C    1.30394800  -2.66104818  -0.14754082
| 24> C    1.40256414  -2.01596155   2.06718219
| 25> N   -1.03514449   0.13597644  -0.50023026
| 26> C   -2.32187446   0.43835259   0.15076340
| 27> C   -3.10743271   1.54385268  -0.53769819
| 28> H   -3.94314628   1.83119982   0.09895989
| 29> H   -3.53753132   1.23123018  -1.49036735
| 30> H   -2.50140308   2.43539747  -0.70080953
| 31> C   -3.14517409  -0.83753322   0.28076526
| 32> H   -2.05412274   0.78234101   1.15124330
| 33> H   -4.07175294  -0.62366043   0.81154753
| 34> H   -3.40787720  -1.24074563  -0.69817777
| 35> H   -2.62076024  -1.60821083   0.84382085
| 36> C   -0.83744395   0.35101211  -1.74605823
| 37> C    0.50397451   0.17841129  -2.24619900
| 38> H   -1.63774160   0.68956923  -2.39844518
| 39> C    1.61694381   0.46818339  -1.46905749
| 40> C    2.80883262   0.12432486  -2.16434445
| 41> S    0.90710332  -0.43230405  -3.79262735
| 42> C    2.57765488  -0.36063648  -3.41607878
| 43> H    1.55532675   1.36561889  -0.60289001
| 44> H    3.80294565   0.28471753  -1.77284334
| 45> H    3.30551850  -0.66222173  -4.15423270
| 46> H   -0.85294525  -3.18245340  -0.13550067
| 47> H   -0.77330955  -2.40204523   2.46900546
| 48> H    1.75360158  -1.62567158   3.01170251
| 49> O    1.41979243   2.38636982   0.23663367
| 50> O    0.53887716   0.93286527   1.68165325
| 51> C    0.96915419   2.09671808   1.35086909
| 52> C    0.93080941   3.12792679   2.44058102
| 53> H    0.87363498   4.12944191   2.02267509
| 54> H    1.85415853   3.06365721   3.01979862
| 55> H    0.10326957   2.95895646   3.12560654
| 56> H    3.21909695  -1.93172304   0.79340772
| 57> H    1.60048982  -2.88008739  -1.16301861
| 58> *
| 59>
| 60>                          ****END OF INPUT****
 Total Charge           Charge          ....    1
 Multiplicity           Mult            ....    1
 Number of Electrons    NEL             ....  164
Dispersion correction           -0.030675088
FINAL SINGLE POINT ENERGY     -1288.393245028758
Dispersion correction            ... done
Dispersion correction           -0.030637892
FINAL SINGLE POINT ENERGY     -1288.393388270399
Dispersion correction            ... done
Dispersion correction           -0.030610806
FINAL SINGLE POINT ENERGY     -1288.393454537458
Dispersion correction            ... done
FINAL SINGLE POINT ENERGY     -1288.393476770188
FINAL SINGLE POINT ENERGY     -1288.393489332245
FINAL SINGLE POINT ENERGY     -1288.393497739177
FINAL SINGLE POINT ENERGY     -1288.393504637286
FINAL SINGLE POINT ENERGY     -1288.393512855948
FINAL SINGLE POINT ENERGY     -1288.393516581260
FINAL SINGLE POINT ENERGY     -1288.393520791912
FINAL SINGLE POINT ENERGY     -1288.393523810137
FINAL SINGLE POINT ENERGY     -1288.393526098200
FINAL SINGLE POINT ENERGY     -1288.393527875922
Dispersion correction            ... done
Dispersion correction           -0.030493702
FINAL SINGLE POINT ENERGY     -1288.393528963518
Dispersion correction            ... done
Dispersion correction           -0.030491481
FINAL SINGLE POINT ENERGY     -1288.393530010197
Dispersion correction            ... done
                    ***********************HURRAY********************

CARTESIAN COORDINATES (ANGSTROEM)
---------------------------------
  Ir     0.580439   -0.746423    0.526055
  C      0.047045   -2.830449    0.389177
  C     -0.001056   -2.372247    1.755270
  C      2.166310   -2.145767    0.999876
  C      1.362303   -2.665548   -0.082801
  C      1.333193   -2.000752    2.124727
  N     -1.032120    0.123831   -0.495026
  C     -2.318857    0.401253    0.167906
  C     -3.090831    1.552679   -0.459087
  H     -3.926639    1.811814    0.189467
  H     -3.519278    1.298608   -1.429530
  H     -2.474610    2.445170   -0.569576
  C     -3.154449   -0.872446    0.217731
  H     -2.054270    0.684911    1.187703
  H     -4.075988   -0.687831    0.768077
  H     -3.426409   -1.205709   -0.784712
  H     -2.632656   -1.685282    0.720625
  C     -0.850447    0.358970   -1.740634
  C      0.481262    0.198543   -2.263142
  H     -1.661687    0.703921   -2.375921
  C      1.599813    0.398582   -1.466801
  C      2.783755    0.079900   -2.185853
  S      0.870742   -0.300556   -3.851169
  C      2.540968   -0.299693   -3.472239
  H      1.578446    1.321623   -0.591311
  H      3.781313    0.184130   -1.784398
  H      3.261688   -0.560124   -4.232689
  H     -0.787973   -3.205454   -0.184852
  H     -0.854630   -2.406748    2.416127
  H      1.628472   -1.597115    3.082815
  O      1.490847    2.358738    0.211226
  O      0.545379    0.952065    1.660323
  C      1.003828    2.098550    1.320916
  C      0.958901    3.157266    2.382922
  H      0.892599    4.147092    1.939021
  H      1.884993    3.116656    2.959788
  H      0.134197    2.998837    3.073487
  H      3.221513   -1.921793    0.956797
  H      1.713265   -2.890010   -1.079558

 Multiplicity           Mult            ....    1
 Number of Electrons    NEL             ....  164
 Basis Dimension        Dim             ....  358

ORBITAL ENERGIES
----------------

  NO   OCC          E(Eh)            E(eV)
   0   2.0000     -89.754284     -2442.3382
   1   2.0000     -19.632149      -534.2179
   2   2.0000     -19.604952      -533.4779
   3   2.0000     -14.835177      -403.6857
   4   2.0000     -10.692387      -290.9546
   5   2.0000     -10.657029      -289.9925
   6   2.0000     -10.634734      -289.3858
   7   2.0000     -10.634365      -289.3758
   8   2.0000     -10.632096      -289.3140
   9   2.0000     -10.631516      -289.2982
  10   2.0000     -10.628341      -289.2119
  11   2.0000     -10.620461      -288.9974
  12   2.0000     -10.614436      -288.8335
  13   2.0000     -10.604281      -288.5571
  14   2.0000     -10.577697      -287.8338
  15   2.0000     -10.576674      -287.8059
  16   2.0000     -10.555801      -287.2379
  17   2.0000     -10.550743      -287.1003
  18   2.0000     -10.539589      -286.7968
  19   2.0000      -8.393741      -228.4053
  20   2.0000      -6.283747      -170.9894
  21   2.0000      -6.280176      -170.8923
  22   2.0000      -6.278527      -170.8474
  23   2.0000      -4.028991      -109.6344
  24   2.0000      -2.348176       -63.8971
  25   2.0000      -2.314033       -62.9681
  26   2.0000      -2.311788       -62.9069
  27   2.0000      -1.318875       -35.8884
  28   2.0000      -1.222145       -33.2563
  29   2.0000      -1.206488       -32.8302
  30   2.0000      -1.172582       -31.9076
  31   2.0000      -1.118837       -30.4451
  32   2.0000      -1.022566       -27.8254
  33   2.0000      -0.987017       -26.8581
  34   2.0000      -0.977543       -26.6003
  35   2.0000      -0.959536       -26.1103
  36   2.0000      -0.952887       -25.9294
  37   2.0000      -0.935117       -25.4458
  38   2.0000      -0.901368       -24.5275
  39   2.0000      -0.869234       -23.6531
  40   2.0000      -0.794788       -21.6273
  41   2.0000      -0.788132       -21.4462
  42   2.0000      -0.786812       -21.4102
  43   2.0000      -0.776835       -21.1387
  44   2.0000      -0.771078       -20.9821
  45   2.0000      -0.763305       -20.7706
  46   2.0000      -0.741162       -20.1680
  47   2.0000      -0.722441       -19.6586
  48   2.0000      -0.691505       -18.8168
  49   2.0000      -0.676669       -18.4131
  50   2.0000      -0.662387       -18.0245
  51   2.0000      -0.655104       -17.8263
  52   2.0000      -0.648637       -17.6503
  53   2.0000      -0.640267       -17.4226
  54   2.0000      -0.639839       -17.4109
  55   2.0000      -0.634500       -17.2656
  56   2.0000      -0.622662       -16.9435
  57   2.0000      -0.608751       -16.5650
  58   2.0000      -0.607900       -16.5418
  59   2.0000      -0.606137       -16.4938
  60   2.0000      -0.594368       -16.1736
  61   2.0000      -0.586112       -15.9489
  62   2.0000      -0.573566       -15.6075
  63   2.0000      -0.566436       -15.4135
  64   2.0000      -0.560858       -15.2617
  65   2.0000      -0.558382       -15.1944
  66   2.0000      -0.553200       -15.0533
  67   2.0000      -0.548015       -14.9122
  68   2.0000      -0.540011       -14.6945
  69   2.0000      -0.533273       -14.5111
  70   2.0000      -0.527356       -14.3501
  71   2.0000      -0.519556       -14.1378
  72   2.0000      -0.515149       -14.0179
  73   2.0000      -0.506971       -13.7954
  74   2.0000      -0.494801       -13.4642
  75   2.0000      -0.480029       -13.0622
  76   2.0000      -0.463466       -12.6116
  77   2.0000      -0.449992       -12.2449
  78   2.0000      -0.444596       -12.0981
  79   2.0000      -0.418724       -11.3941
  80   2.0000      -0.416444       -11.3320
  81   2.0000      -0.400399       -10.8954
  82   0.0000      -0.199219        -5.4210
  83   0.0000      -0.162089        -4.4107
  84   0.0000      -0.141087        -3.8392
  85   0.0000      -0.089335        -2.4309
  86   0.0000      -0.073679        -2.0049

MULLIKEN ATOMIC CHARGES
-----------------------
   0 Ir:    0.616664
   1 C :   -0.215789
   2 C :   -0.292659
   3 C :   -0.238682
   4 C :   -0.237630
   5 C :   -0.166416
   6 N :   -0.439654
   7 C :   -0.125255
   8 C :   -0.685661
   9 H :    0.269697
  10 H :    0.225471
  11 H :    0.258477
  12 C :   -0.635233
  13 H :    0.278802
  14 H :    0.262363
  15 H :    0.231651
  16 H :    0.229629
  17 C :    0.069893
  18 C :   -0.191541
  19 H :    0.286115
  20 C :   -0.420777
  21 C :   -0.151324
  22 S :    0.305804
  23 C :   -0.424312
  24 H :    0.497191
  25 H :    0.261343
  26 H :    0.294690
  27 H :    0.291554
  28 H :    0.291738
  29 H :    0.305463
  30 O :   -0.495471
  31 O :   -0.530176
  32 C :    0.627807
  33 C :   -0.745744
  34 H :    0.272007
  35 H :    0.270859
  36 H :    0.257282
  37 H :    0.294082
  38 H :    0.297742
Sum of atomic charges:    1.0000000

LOEWDIN ATOMIC CHARGES
----------------------
   0 Ir:   -0.217028
   1 C :   -0.045504
   2 C :   -0.065283
   3 C :   -0.059697
   4 C :   -0.045604
   5 C :   -0.021323
   6 N :   -0.016528
   7 C :   -0.068975
   8 C :   -0.363114
   9 H :    0.156223
  10 H :    0.133291
  11 H :    0.145777
  12 C :   -0.343916
  13 H :    0.154541
  14 H :    0.152125
  15 H :    0.137510
  16 H :    0.132119
  17 C :    0.035973
  18 C :   -0.201544
  19 H :    0.160060
  20 C :   -0.206069
  21 C :   -0.146664
  22 S :    0.462740
  23 C :   -0.260205
  24 H :    0.315359
  25 H :    0.159263
  26 H :    0.166770
  27 H :    0.185309
  28 H :    0.185185
  29 H :    0.192883
  30 O :   -0.273171
  31 O :   -0.195505
  32 C :    0.166153
  33 C :   -0.373640
  34 H :    0.162188
  35 H :    0.170051
  36 H :    0.154793
  37 H :    0.187345
  38 H :    0.188111

  Mayer bond orders larger than 0.100000
B(  0-Ir,  1-C ) :   0.4251 B(  0-Ir,  2-C ) :   0.5390 B(  0-Ir,  3-C ) :   0.4597
B(  0-Ir,  4-C ) :   0.4559 B(  0-Ir,  5-C ) :   0.4044 B(  0-Ir,  6-N ) :   0.4718
B(  0-Ir, 20-C ) :   0.2686 B(  0-Ir, 31-O ) :   0.5573 B(  1-C ,  2-C ) :   1.1151
B(  1-C ,  4-C ) :   1.2403 B(  1-C , 27-H ) :   0.9037 B(  2-C ,  5-C ) :   1.1351
B(  2-C , 28-H ) :   0.9073 B(  3-C ,  4-C ) :   1.1082 B(  3-C ,  5-C ) :   1.2304
B(  3-C , 37-H ) :   0.9052 B(  4-C , 38-H ) :   0.8997 B(  5-C , 29-H ) :   0.8979
B(  6-N ,  7-C ) :   0.8916 B(  6-N , 17-C ) :   1.6684 B(  7-C ,  8-C ) :   0.9916
B(  7-C , 12-C ) :   0.9686 B(  7-C , 13-H ) :   0.8765 B(  8-C ,  9-H ) :   0.9043
B(  8-C , 10-H ) :   0.9129 B(  8-C , 11-H ) :   0.9098 B( 12-C , 14-H ) :   0.9070
B( 12-C , 15-H ) :   0.9156 B( 12-C , 16-H ) :   0.9129 B( 17-C , 18-C ) :   1.0839
B( 17-C , 19-H ) :   0.8754 B( 18-C , 20-C ) :   1.3006 B( 18-C , 22-S ) :   1.2071
B( 20-C , 21-C ) :   1.2909 B( 20-C , 24-H ) :   0.4182 B( 21-C , 23-C ) :   1.5362
B( 21-C , 25-H ) :   0.9060 B( 22-S , 23-C ) :   1.2154 B( 23-C , 26-H ) :   0.8926
B( 24-H , 30-O ) :   0.2729 B( 30-O , 32-C ) :   1.6241 B( 31-O , 32-C ) :   1.3219
B( 32-C , 33-C ) :   0.9492 B( 33-C , 34-H ) :   0.9027 B( 33-C , 35-H ) :   0.8956
B( 33-C , 36-H ) :   0.9085

Dispersion correction           -0.030489098
FINAL SINGLE POINT ENERGY     -1288.393530542111

DIPOLE MOMENT
-------------
                                X             Y             Z
Electronic contribution:     34.50336     -71.45500      80.77642
Nuclear contribution   :    -35.12306      70.46162     -80.81023
                        -----------------------------------------
Total Dipole Moment    :     -0.61970      -0.99338      -0.03381
                        -----------------------------------------
Magnitude (a.u.)       :      1.17131
Magnitude (Debye)      :      2.97724

Rotational constants in cm-1:     0.010544     0.008778     0.008073
Rotational constants in MHz :   316.099464   263.156258   242.025117

                             ****ORCA TERMINATED NORMALLY****
TOTAL RUN TIME: 0 days 1 hours 53 minutes 44 seconds 158 msec
