                         Program Version 5.0.3 -  RELEASE  -
|  1> ! Opt PBEh-3c
|  2> %geom Constraints
|  3> { B 0 20 2.1714285714285713 C }
|  4> { B 24 30 1.5 C }
|  5>     end
|  6> end
|  7> %output
|  8> xyzfile=True
|  9> end
| 10> %scf
| 11> maxiter 250
| 12> end
| 13> %output
| 14> Print[P_Hirshfeld] = 1
| 15> end
| 16> % maxcore
| 17> 4000
| 18> *xyz 1 1
| 19> Ir   0.62910149  -0.70718796   0.41484343
| 20> C    0.10307654  -2.81477675   0.33866080
| 21> C    0.07449122  -2.35272333   1.70024910
| 22> C    2.22355861  -2.09496092   0.89524602
| 23> C    1.40926592  -2.64767296  -0.16128244
| 24> C    1.40112455  -1.94410627   2.03286857
| 25> N   -1.04530882   0.14930200  -0.52752974
| 26> C   -2.30537918   0.43330843   0.17588788
| 27> C   -3.09258768   1.58690877  -0.42660133
| 28> H   -3.91132921   1.84344871   0.24422662
| 29> H   -3.54539332   1.33535542  -1.38668225
| 30> H   -2.47885907   2.47972479  -0.54838929
| 31> C   -3.13991618  -0.84027718   0.25239565
| 32> H   -2.00244296   0.71235727   1.18592956
| 33> H   -4.03904012  -0.65508839   0.83828074
| 34> H   -3.45027425  -1.17019651  -0.73984594
| 35> H   -2.59878798  -1.65395858   0.73297576
| 36> C   -0.88680184   0.39599814  -1.77286938
| 37> C    0.44658528   0.18462692  -2.27204788
| 38> H   -1.68672648   0.77786429  -2.39957164
| 39> C    1.51485621   0.25200109  -1.37357940
| 40> C    2.73257668  -0.09040312  -2.03937538
| 41> S    0.91025174  -0.28150007  -3.83360333
| 42> C    2.55522167  -0.39869955  -3.35088686
| 43> H    1.52245976   1.21559693  -0.66497876
| 44> H    3.70477999  -0.05393036  -1.56979666
| 45> H    3.30667369  -0.66554112  -4.07842894
| 46> H   -0.73711483  -3.20851328  -0.21505532
| 47> H   -0.76734652  -2.38584368   2.37533792
| 48> H    1.70690758  -1.51885912   2.97822529
| 49> O    1.39434202   2.44864946   0.17951358
| 50> O    0.54476180   0.95849726   1.60111439
| 51> C    0.95033095   2.13790992   1.28550418
| 52> C    0.88035211   3.15029301   2.39464132
| 53> H    0.85135652   4.16026501   1.99499056
| 54> H    1.77632209   3.06112307   3.01193240
| 55> H    0.02278965   2.97916749   3.04170120
| 56> H    3.27920966  -1.87652017   0.84200550
| 57> H    1.74628275  -2.90244873  -1.15526580
| 58> *
| 59>
| 60>                          ****END OF INPUT****
 Total Charge           Charge          ....    1
 Multiplicity           Mult            ....    1
 Number of Electrons    NEL             ....  164
Dispersion correction           -0.031073612
FINAL SINGLE POINT ENERGY     -1288.399170656641
Dispersion correction            ... done
Dispersion correction           -0.031024361
FINAL SINGLE POINT ENERGY     -1288.399282497936
Dispersion correction            ... done
Dispersion correction           -0.031073227
FINAL SINGLE POINT ENERGY     -1288.398605402172
Dispersion correction            ... done
FINAL SINGLE POINT ENERGY     -1288.399410401824
FINAL SINGLE POINT ENERGY     -1288.399428837880
Dispersion correction            ... done
Dispersion correction           -0.030983302
FINAL SINGLE POINT ENERGY     -1288.399456694518
Dispersion correction            ... done
Dispersion correction           -0.030977932
FINAL SINGLE POINT ENERGY     -1288.399461265300
Dispersion correction            ... done
                    ***********************HURRAY********************

CARTESIAN COORDINATES (ANGSTROEM)
---------------------------------
  Ir     0.631497   -0.709529    0.406559
  C      0.103314   -2.818978    0.343012
  C      0.069657   -2.358381    1.703981
  C      2.221406   -2.096503    0.904350
  C      1.412216   -2.653760   -0.152849
  C      1.392070   -1.943143    2.038229
  N     -1.047511    0.146866   -0.529583
  C     -2.306269    0.424745    0.178085
  C     -3.095089    1.583107   -0.413182
  H     -3.913518    1.832451    0.260725
  H     -3.548421    1.339846   -1.375145
  H     -2.482556    2.477754   -0.527320
  C     -3.140499   -0.849713    0.244801
  H     -2.001998    0.695086    1.190102
  H     -4.037670   -0.670306    0.835474
  H     -3.454023   -1.169864   -0.749628
  H     -2.597458   -1.667905    0.715369
  C     -0.890763    0.404816   -1.773412
  C      0.442139    0.193832   -2.271930
  H     -1.689723    0.795337   -2.395797
  C      1.499314    0.217212   -1.355016
  C      2.722306   -0.110676   -2.022753
  S      0.919003   -0.217527   -3.842608
  C      2.557924   -0.368029   -3.346331
  H      1.521941    1.204267   -0.668475
  H      3.689746   -0.099975   -1.542004
  H      3.315025   -0.613851   -4.075372
  H     -0.734199   -3.214752   -0.213320
  H     -0.775302   -2.389073    2.375091
  H      1.693601   -1.513720    2.983080
  O      1.407970    2.448756    0.161138
  O      0.550003    0.965708    1.584744
  C      0.959363    2.141586    1.267742
  C      0.891079    3.159398    2.371978
  H      0.863827    4.167673    1.967963
  H      1.786829    3.071239    2.989684
  H      0.032987    2.992276    3.019313
  H      3.278221   -1.882524    0.858027
  H      1.752932   -2.914556   -1.143982

 Multiplicity           Mult            ....    1
 Number of Electrons    NEL             ....  164
 Basis Dimension        Dim             ....  358

ORBITAL ENERGIES
----------------

  NO   OCC          E(Eh)            E(eV)
   0   2.0000     -89.771293     -2442.8011
   1   2.0000     -19.622317      -533.9504
   2   2.0000     -19.594678      -533.1983
   3   2.0000     -14.840762      -403.8377
   4   2.0000     -10.680343      -290.6269
   5   2.0000     -10.660800      -290.0951
   6   2.0000     -10.637353      -289.4571
   7   2.0000     -10.630006      -289.2572
   8   2.0000     -10.628859      -289.2260
   9   2.0000     -10.624729      -289.1136
  10   2.0000     -10.621193      -289.0174
  11   2.0000     -10.620520      -288.9990
  12   2.0000     -10.614739      -288.8417
  13   2.0000     -10.614429      -288.8333
  14   2.0000     -10.593181      -288.2551
  15   2.0000     -10.589717      -288.1608
  16   2.0000     -10.555788      -287.2376
  17   2.0000     -10.551514      -287.1213
  18   2.0000     -10.533935      -286.6429
  19   2.0000      -8.410666      -228.8659
  20   2.0000      -6.300540      -171.4464
  21   2.0000      -6.296921      -171.3479
  22   2.0000      -6.295690      -171.3144
  23   2.0000      -4.023753      -109.4919
  24   2.0000      -2.341681       -63.7204
  25   2.0000      -2.309229       -62.8373
  26   2.0000      -2.307498       -62.7902
  27   2.0000      -1.305867       -35.5344
  28   2.0000      -1.213661       -33.0254
  29   2.0000      -1.207865       -32.8677
  30   2.0000      -1.165453       -31.7136
  31   2.0000      -1.133350       -30.8400
  32   2.0000      -1.028334       -27.9824
  33   2.0000      -0.978687       -26.6314
  34   2.0000      -0.974553       -26.5189
  35   2.0000      -0.971072       -26.4242
  36   2.0000      -0.963719       -26.2241
  37   2.0000      -0.927007       -25.2251
  38   2.0000      -0.902250       -24.5515
  39   2.0000      -0.876657       -23.8551
  40   2.0000      -0.801990       -21.8233
  41   2.0000      -0.786100       -21.3909
  42   2.0000      -0.781654       -21.2699
  43   2.0000      -0.780413       -21.2361
  44   2.0000      -0.766112       -20.8470
  45   2.0000      -0.754885       -20.5415
  46   2.0000      -0.743250       -20.2249
  47   2.0000      -0.724577       -19.7167
  48   2.0000      -0.691822       -18.8254
  49   2.0000      -0.676291       -18.4028
  50   2.0000      -0.665753       -18.1161
  51   2.0000      -0.649382       -17.6706
  52   2.0000      -0.645697       -17.5703
  53   2.0000      -0.635388       -17.2898
  54   2.0000      -0.632947       -17.2234
  55   2.0000      -0.628152       -17.0929
  56   2.0000      -0.622737       -16.9455
  57   2.0000      -0.615012       -16.7353
  58   2.0000      -0.603244       -16.4151
  59   2.0000      -0.601453       -16.3664
  60   2.0000      -0.600815       -16.3490
  61   2.0000      -0.592913       -16.1340
  62   2.0000      -0.582862       -15.8605
  63   2.0000      -0.574859       -15.6427
  64   2.0000      -0.564729       -15.3671
  65   2.0000      -0.557029       -15.1575
  66   2.0000      -0.551551       -15.0085
  67   2.0000      -0.548354       -14.9215
  68   2.0000      -0.541362       -14.7312
  69   2.0000      -0.536719       -14.6049
  70   2.0000      -0.528297       -14.3757
  71   2.0000      -0.519250       -14.1295
  72   2.0000      -0.515022       -14.0145
  73   2.0000      -0.499192       -13.5837
  74   2.0000      -0.487236       -13.2584
  75   2.0000      -0.483220       -13.1491
  76   2.0000      -0.477473       -12.9927
  77   2.0000      -0.444842       -12.1048
  78   2.0000      -0.442552       -12.0425
  79   2.0000      -0.424815       -11.5598
  80   2.0000      -0.415315       -11.3013
  81   2.0000      -0.397460       -10.8154
  82   0.0000      -0.210634        -5.7316
  83   0.0000      -0.144903        -3.9430
  84   0.0000      -0.141445        -3.8489
  85   0.0000      -0.094586        -2.5738
  86   0.0000      -0.078058        -2.1241

MULLIKEN ATOMIC CHARGES
-----------------------
   0 Ir:    0.605688
   1 C :   -0.219739
   2 C :   -0.267454
   3 C :   -0.254150
   4 C :   -0.242121
   5 C :   -0.160179
   6 N :   -0.423470
   7 C :   -0.127271
   8 C :   -0.686320
   9 H :    0.270916
  10 H :    0.223891
  11 H :    0.259795
  12 C :   -0.635104
  13 H :    0.284438
  14 H :    0.262324
  15 H :    0.231079
  16 H :    0.233300
  17 C :    0.073342
  18 C :   -0.134060
  19 H :    0.290250
  20 C :   -0.554516
  21 C :   -0.093970
  22 S :    0.335516
  23 C :   -0.434899
  24 H :    0.481344
  25 H :    0.269649
  26 H :    0.300079
  27 H :    0.287048
  28 H :    0.286655
  29 H :    0.302827
  30 O :   -0.468743
  31 O :   -0.532153
  32 C :    0.614306
  33 C :   -0.743394
  34 H :    0.268900
  35 H :    0.266836
  36 H :    0.253055
  37 H :    0.285156
  38 H :    0.291150
Sum of atomic charges:    1.0000000

LOEWDIN ATOMIC CHARGES
----------------------
   0 Ir:   -0.252142
   1 C :   -0.045280
   2 C :   -0.085969
   3 C :   -0.075558
   4 C :   -0.056776
   5 C :   -0.017643
   6 N :    0.004337
   7 C :   -0.070343
   8 C :   -0.363196
   9 H :    0.157066
  10 H :    0.132840
  11 H :    0.146351
  12 C :   -0.343283
  13 H :    0.157564
  14 H :    0.152359
  15 H :    0.137215
  16 H :    0.133943
  17 C :    0.029978
  18 C :   -0.167100
  19 H :    0.162873
  20 C :   -0.211745
  21 C :   -0.116973
  22 S :    0.500413
  23 C :   -0.262745
  24 H :    0.314488
  25 H :    0.164528
  26 H :    0.169898
  27 H :    0.182632
  28 H :    0.182489
  29 H :    0.191262
  30 O :   -0.269123
  31 O :   -0.203443
  32 C :    0.149602
  33 C :   -0.375271
  34 H :    0.159411
  35 H :    0.167267
  36 H :    0.153277
  37 H :    0.182991
  38 H :    0.183810

  Mayer bond orders larger than 0.100000
B(  0-Ir,  1-C ) :   0.4175 B(  0-Ir,  2-C ) :   0.4497 B(  0-Ir,  3-C ) :   0.4615
B(  0-Ir,  4-C ) :   0.4380 B(  0-Ir,  5-C ) :   0.3912 B(  0-Ir,  6-N ) :   0.4604
B(  0-Ir, 20-C ) :   0.3970 B(  0-Ir, 31-O ) :   0.5628 B(  1-C ,  2-C ) :   1.1323
B(  1-C ,  4-C ) :   1.2408 B(  1-C , 27-H ) :   0.9056 B(  2-C ,  5-C ) :   1.1678
B(  2-C , 28-H ) :   0.9096 B(  3-C ,  4-C ) :   1.1157 B(  3-C ,  5-C ) :   1.2107
B(  3-C , 37-H ) :   0.9102 B(  4-C , 38-H ) :   0.9009 B(  5-C , 29-H ) :   0.8993
B(  6-N ,  7-C ) :   0.8932 B(  6-N , 17-C ) :   1.6697 B(  7-C ,  8-C ) :   0.9906
B(  7-C , 12-C ) :   0.9669 B(  7-C , 13-H ) :   0.8717 B(  8-C ,  9-H ) :   0.9041
B(  8-C , 10-H ) :   0.9132 B(  8-C , 11-H ) :   0.9091 B( 12-C , 14-H ) :   0.9069
B( 12-C , 15-H ) :   0.9155 B( 12-C , 16-H ) :   0.9119 B( 17-C , 18-C ) :   1.0818
B( 17-C , 19-H ) :   0.8756 B( 18-C , 20-C ) :   1.2296 B( 18-C , 22-S ) :   1.2686
B( 20-C , 21-C ) :   1.2429 B( 20-C , 24-H ) :   0.4532 B( 21-C , 23-C ) :   1.5619
B( 21-C , 25-H ) :   0.9021 B( 22-S , 23-C ) :   1.1973 B( 23-C , 26-H ) :   0.8909
B( 24-H , 30-O ) :   0.2644 B( 30-O , 32-C ) :   1.6808 B( 31-O , 32-C ) :   1.2952
B( 32-C , 33-C ) :   0.9434 B( 33-C , 34-H ) :   0.9050 B( 33-C , 35-H ) :   0.8986
B( 33-C , 36-H ) :   0.9095

Dispersion correction           -0.030979951
FINAL SINGLE POINT ENERGY     -1288.399465053487

DIPOLE MOMENT
-------------
                                X             Y             Z
Electronic contribution:     39.40928     -68.66652      69.11840
Nuclear contribution   :    -40.03707      67.65084     -69.62926
                        -----------------------------------------
Total Dipole Moment    :     -0.62779      -1.01568      -0.51085
                        -----------------------------------------
Magnitude (a.u.)       :      1.29873
Magnitude (Debye)      :      3.30111

Rotational constants in cm-1:     0.010609     0.009202     0.008241
Rotational constants in MHz :   318.049223   275.875010   247.056330

                             ****ORCA TERMINATED NORMALLY****
TOTAL RUN TIME: 0 days 1 hours 1 minutes 30 seconds 257 msec
