                         Program Version 5.0.3 -  RELEASE  -
|  1> ! Opt PBEh-3c
|  2> %geom Constraints
|  3> { B 0 20 2.0 C }
|  4> { B 24 30 1.3571428571428572 C }
|  5>     end
|  6> end
|  7> %output
|  8> xyzfile=True
|  9> end
| 10> %scf
| 11> maxiter 250
| 12> end
| 13> %output
| 14> Print[P_Hirshfeld] = 1
| 15> end
| 16> % maxcore
| 17> 4000
| 18> *xyz 1 1
| 19> Ir   0.61774513  -0.73983580   0.39796025
| 20> C    0.17330863  -2.85882713   0.32344067
| 21> C   -0.10349472  -2.42731277   1.67085303
| 22> C    2.13640591  -2.05110796   1.23442252
| 23> C    1.55215349  -2.65865976   0.07551779
| 24> C    1.10229840  -1.94708155   2.21447282
| 25> N   -1.07991330   0.10676630  -0.50743051
| 26> C   -2.34758660   0.28705419   0.21467000
| 27> C   -3.13616537   1.51198031  -0.22587588
| 28> H   -3.96573327   1.66286922   0.46300773
| 29> H   -3.57246394   1.40214136  -1.21961975
| 30> H   -2.52689545   2.41592943  -0.20812644
| 31> C   -3.17875173  -0.98579957   0.09620401
| 32> H   -2.06217067   0.42586008   1.25861237
| 33> H   -4.07770263  -0.90158818   0.70557058
| 34> H   -3.48930792  -1.15688557  -0.93530149
| 35> H   -2.63201692  -1.86430061   0.43512090
| 36> C   -0.93595458   0.48647432  -1.72464865
| 37> C    0.37894721   0.31174152  -2.25893740
| 38> H   -1.74492635   0.93519647  -2.29150634
| 39> C    1.38980574  -0.00558041  -1.34504196
| 40> C    2.61639990  -0.21842835  -2.05482614
| 41> S    0.90319684   0.37506027  -3.86954722
| 42> C    2.49661806  -0.04075436  -3.39945970
| 43> H    1.62319501   1.16244564  -0.70623625
| 44> H    3.56075949  -0.43558916  -1.57660355
| 45> H    3.27289425  -0.11335417  -4.14603440
| 46> H   -0.52900263  -3.31404192  -0.35937621
| 47> H   -1.05032655  -2.48904720   2.18489742
| 48> H    1.21410412  -1.50176913   3.19289874
| 49> O    1.73623593   2.31809609   0.02349665
| 50> O    0.61076361   1.04374590   1.46120644
| 51> C    1.16229056   2.13077536   1.11976778
| 52> C    1.14526335   3.25395149   2.11372577
| 53> H    1.03069919   4.21150453   1.61109130
| 54> H    2.10280189   3.27605140   2.63701758
| 55> H    0.35856135   3.12090056   2.85084056
| 56> H    3.17926013  -1.81828276   1.38403332
| 57> H    2.06807447  -2.91110812  -0.83951636
| 58> *
| 59>
| 60>                          ****END OF INPUT****
 Total Charge           Charge          ....    1
 Multiplicity           Mult            ....    1
 Number of Electrons    NEL             ....  164
Dispersion correction           -0.030851635
FINAL SINGLE POINT ENERGY     -1288.399753763752
Dispersion correction            ... done
Dispersion correction           -0.030818662
FINAL SINGLE POINT ENERGY     -1288.399979175400
Dispersion correction            ... done
Dispersion correction           -0.030806508
FINAL SINGLE POINT ENERGY     -1288.400073226329
Dispersion correction            ... done
FINAL SINGLE POINT ENERGY     -1288.400138701494
FINAL SINGLE POINT ENERGY     -1288.400191195920
FINAL SINGLE POINT ENERGY     -1288.400222983403
FINAL SINGLE POINT ENERGY     -1288.400239723608
FINAL SINGLE POINT ENERGY     -1288.400253772739
FINAL SINGLE POINT ENERGY     -1288.400263490876
FINAL SINGLE POINT ENERGY     -1288.400272536062
FINAL SINGLE POINT ENERGY     -1288.400279081574
FINAL SINGLE POINT ENERGY     -1288.400285211524
FINAL SINGLE POINT ENERGY     -1288.400290922074
Dispersion correction            ... done
Dispersion correction           -0.030765613
FINAL SINGLE POINT ENERGY     -1288.400296086652
Dispersion correction            ... done
Dispersion correction           -0.030765997
FINAL SINGLE POINT ENERGY     -1288.400299660369
Dispersion correction            ... done
                    ***********************HURRAY********************

CARTESIAN COORDINATES (ANGSTROEM)
---------------------------------
  Ir     0.617669   -0.745770    0.384248
  C      0.197457   -2.866717    0.314419
  C     -0.124817   -2.450728    1.658235
  C      2.118452   -2.034922    1.288950
  C      1.584543   -2.654164    0.115844
  C      1.049517   -1.953577    2.240115
  N     -1.088981    0.097977   -0.503195
  C     -2.355500    0.260587    0.224590
  C     -3.136360    1.504431   -0.174259
  H     -3.966383    1.636291    0.518010
  H     -3.571358    1.432540   -1.172048
  H     -2.521284    2.403159   -0.124023
  C     -3.192922   -1.003409    0.063544
  H     -2.069714    0.363001    1.272638
  H     -4.087240   -0.939819    0.682214
  H     -3.511591   -1.133008   -0.971526
  H     -2.646619   -1.896659    0.362699
  C     -0.949036    0.496789   -1.715190
  C      0.364318    0.323710   -2.250823
  H     -1.758414    0.955711   -2.273060
  C      1.358872   -0.049533   -1.337923
  C      2.592700   -0.241582   -2.044195
  S      0.910583    0.460114   -3.850357
  C      2.491488    0.003573   -3.380485
  H      1.631300    1.184931   -0.758461
  H      3.528661   -0.495201   -1.567313
  H      3.277041   -0.042526   -4.119443
  H     -0.473859   -3.338409   -0.388011
  H     -1.088961   -2.521763    2.137785
  H      1.123381   -1.510487    3.222975
  O      1.749903    2.326723   -0.034527
  O      0.639745    1.058137    1.422279
  C      1.187724    2.139950    1.072269
  C      1.190181    3.268889    2.059130
  H      1.080887    4.225358    1.553413
  H      2.151825    3.283291    2.575251
  H      0.408119    3.146120    2.802895
  H      3.153175   -1.791650    1.474309
  H      2.134869   -2.902169   -0.780231

 Multiplicity           Mult            ....    1
 Number of Electrons    NEL             ....  164
 Basis Dimension        Dim             ....  358

ORBITAL ENERGIES
----------------

  NO   OCC          E(Eh)            E(eV)
   0   2.0000     -89.764352     -2442.6122
   1   2.0000     -19.640203      -534.4371
   2   2.0000     -19.637134      -534.3536
   3   2.0000     -14.831650      -403.5897
   4   2.0000     -10.704512      -291.2846
   5   2.0000     -10.652689      -289.8744
   6   2.0000     -10.624265      -289.1009
   7   2.0000     -10.619863      -288.9812
   8   2.0000     -10.618835      -288.9532
   9   2.0000     -10.616162      -288.8804
  10   2.0000     -10.612045      -288.7684
  11   2.0000     -10.611431      -288.7517
  12   2.0000     -10.609806      -288.7075
  13   2.0000     -10.606073      -288.6059
  14   2.0000     -10.592745      -288.2433
  15   2.0000     -10.590970      -288.1949
  16   2.0000     -10.551980      -287.1340
  17   2.0000     -10.550101      -287.0828
  18   2.0000     -10.549134      -287.0565
  19   2.0000      -8.403684      -228.6759
  20   2.0000      -6.293556      -171.2564
  21   2.0000      -6.290061      -171.1613
  22   2.0000      -6.288625      -171.1222
  23   2.0000      -4.015932      -109.2791
  24   2.0000      -2.332247       -63.4637
  25   2.0000      -2.303748       -62.6882
  26   2.0000      -2.299268       -62.5663
  27   2.0000      -1.332939       -36.2711
  28   2.0000      -1.234994       -33.6059
  29   2.0000      -1.205849       -32.8128
  30   2.0000      -1.154083       -31.4042
  31   2.0000      -1.128553       -30.7095
  32   2.0000      -1.024303       -27.8727
  33   2.0000      -0.971122       -26.4256
  34   2.0000      -0.967891       -26.3376
  35   2.0000      -0.961085       -26.1525
  36   2.0000      -0.956855       -26.0373
  37   2.0000      -0.944679       -25.7060
  38   2.0000      -0.899220       -24.4690
  39   2.0000      -0.871676       -23.7195
  40   2.0000      -0.798007       -21.7149
  41   2.0000      -0.782570       -21.2948
  42   2.0000      -0.772176       -21.0120
  43   2.0000      -0.770981       -20.9795
  44   2.0000      -0.764525       -20.8038
  45   2.0000      -0.755808       -20.5666
  46   2.0000      -0.742091       -20.1933
  47   2.0000      -0.720664       -19.6103
  48   2.0000      -0.702426       -19.1140
  49   2.0000      -0.684315       -18.6212
  50   2.0000      -0.666700       -18.1418
  51   2.0000      -0.663457       -18.0536
  52   2.0000      -0.651375       -17.7248
  53   2.0000      -0.638183       -17.3658
  54   2.0000      -0.628365       -17.0987
  55   2.0000      -0.622112       -16.9285
  56   2.0000      -0.619325       -16.8527
  57   2.0000      -0.611191       -16.6314
  58   2.0000      -0.601008       -16.3542
  59   2.0000      -0.594101       -16.1663
  60   2.0000      -0.591175       -16.0867
  61   2.0000      -0.589591       -16.0436
  62   2.0000      -0.578779       -15.7494
  63   2.0000      -0.573012       -15.5925
  64   2.0000      -0.564889       -15.3714
  65   2.0000      -0.561976       -15.2922
  66   2.0000      -0.558030       -15.1848
  67   2.0000      -0.545045       -14.8314
  68   2.0000      -0.542263       -14.7557
  69   2.0000      -0.535338       -14.5673
  70   2.0000      -0.531765       -14.4701
  71   2.0000      -0.518260       -14.1026
  72   2.0000      -0.512455       -13.9446
  73   2.0000      -0.504524       -13.7288
  74   2.0000      -0.500754       -13.6262
  75   2.0000      -0.491374       -13.3710
  76   2.0000      -0.473664       -12.8891
  77   2.0000      -0.454179       -12.3588
  78   2.0000      -0.441671       -12.0185
  79   2.0000      -0.418151       -11.3785
  80   2.0000      -0.412190       -11.2163
  81   2.0000      -0.390529       -10.6268
  82   0.0000      -0.202238        -5.5032
  83   0.0000      -0.143579        -3.9070
  84   0.0000      -0.117584        -3.1996
  85   0.0000      -0.086618        -2.3570
  86   0.0000      -0.076914        -2.0929

MULLIKEN ATOMIC CHARGES
-----------------------
   0 Ir:    0.617004
   1 C :   -0.271674
   2 C :   -0.241566
   3 C :   -0.286966
   4 C :   -0.210972
   5 C :   -0.149720
   6 N :   -0.435303
   7 C :   -0.127554
   8 C :   -0.676533
   9 H :    0.268056
  10 H :    0.224092
  11 H :    0.251817
  12 C :   -0.631860
  13 H :    0.275094
  14 H :    0.256898
  15 H :    0.233030
  16 H :    0.235139
  17 C :    0.071875
  18 C :   -0.122507
  19 H :    0.284042
  20 C :   -0.584020
  21 C :   -0.094547
  22 S :    0.346278
  23 C :   -0.421666
  24 H :    0.474312
  25 H :    0.268268
  26 H :    0.298499
  27 H :    0.282179
  28 H :    0.277762
  29 H :    0.292190
  30 O :   -0.482581
  31 O :   -0.495037
  32 C :    0.634918
  33 C :   -0.743507
  34 H :    0.274399
  35 H :    0.277692
  36 H :    0.264499
  37 H :    0.277628
  38 H :    0.290341
Sum of atomic charges:    1.0000000

LOEWDIN ATOMIC CHARGES
----------------------
   0 Ir:   -0.264248
   1 C :   -0.070822
   2 C :   -0.097963
   3 C :   -0.106990
   4 C :   -0.037843
   5 C :   -0.026015
   6 N :   -0.003334
   7 C :   -0.069396
   8 C :   -0.361212
   9 H :    0.155697
  10 H :    0.132643
  11 H :    0.142483
  12 C :   -0.344066
  13 H :    0.152547
  14 H :    0.149950
  15 H :    0.138225
  16 H :    0.133947
  17 C :    0.027862
  18 C :   -0.198021
  19 H :    0.159946
  20 C :   -0.210542
  21 C :   -0.132299
  22 S :    0.499576
  23 C :   -0.254779
  24 H :    0.378616
  25 H :    0.162821
  26 H :    0.169929
  27 H :    0.180583
  28 H :    0.176566
  29 H :    0.184391
  30 O :   -0.255022
  31 O :   -0.169638
  32 C :    0.168458
  33 C :   -0.370897
  34 H :    0.165095
  35 H :    0.173588
  36 H :    0.157848
  37 H :    0.179492
  38 H :    0.182826

  Mayer bond orders larger than 0.100000
B(  0-Ir,  1-C ) :   0.4757 B(  0-Ir,  2-C ) :   0.3423 B(  0-Ir,  3-C ) :   0.4789
B(  0-Ir,  4-C ) :   0.4097 B(  0-Ir,  5-C ) :   0.3270 B(  0-Ir,  6-N ) :   0.4653
B(  0-Ir, 20-C ) :   0.6030 B(  0-Ir, 31-O ) :   0.4976 B(  1-C ,  2-C ) :   1.1204
B(  1-C ,  4-C ) :   1.2075 B(  1-C , 27-H ) :   0.9112 B(  2-C ,  5-C ) :   1.2817
B(  2-C , 28-H ) :   0.9100 B(  3-C ,  4-C ) :   1.1617 B(  3-C ,  5-C ) :   1.1411
B(  3-C , 37-H ) :   0.9158 B(  4-C , 38-H ) :   0.8997 B(  5-C , 29-H ) :   0.9036
B(  6-N ,  7-C ) :   0.8967 B(  6-N , 17-C ) :   1.6387 B(  7-C ,  8-C ) :   0.9897
B(  7-C , 12-C ) :   0.9674 B(  7-C , 13-H ) :   0.8796 B(  8-C ,  9-H ) :   0.9052
B(  8-C , 10-H ) :   0.9133 B(  8-C , 11-H ) :   0.9133 B( 12-C , 14-H ) :   0.9081
B( 12-C , 15-H ) :   0.9151 B( 12-C , 16-H ) :   0.9120 B( 17-C , 18-C ) :   1.1252
B( 17-C , 19-H ) :   0.8769 B( 18-C , 20-C ) :   1.2113 B( 18-C , 22-S ) :   1.2320
B( 20-C , 21-C ) :   1.2487 B( 20-C , 24-H ) :   0.2848 B( 21-C , 23-C ) :   1.5320
B( 21-C , 25-H ) :   0.9017 B( 22-S , 23-C ) :   1.2249 B( 23-C , 26-H ) :   0.8917
B( 24-H , 30-O ) :   0.3938 B( 30-O , 32-C ) :   1.5185 B( 31-O , 32-C ) :   1.4187
B( 32-C , 33-C ) :   0.9444 B( 33-C , 34-H ) :   0.8992 B( 33-C , 35-H ) :   0.8916
B( 33-C , 36-H ) :   0.9070

Dispersion correction           -0.030766544
FINAL SINGLE POINT ENERGY     -1288.400301825889

DIPOLE MOMENT
-------------
                                X             Y             Z
Electronic contribution:     37.89717     -75.97020      67.52074
Nuclear contribution   :    -38.45246      75.77329     -67.73767
                        -----------------------------------------
Total Dipole Moment    :     -0.55530      -0.19691      -0.21693
                        -----------------------------------------
Magnitude (a.u.)       :      0.62784
Magnitude (Debye)      :      1.59585

Rotational constants in cm-1:     0.010596     0.008897     0.008259
Rotational constants in MHz :   317.647134   266.726843   247.587526

                             ****ORCA TERMINATED NORMALLY****
TOTAL RUN TIME: 0 days 2 hours 5 minutes 8 seconds 279 msec
