                         Program Version 5.0.3 -  RELEASE  -
|  1> ! Opt PBEh-3c
|  2> %geom Constraints
|  3> { B 0 20 2.4714285714285715 C }
|  4> { B 24 30 1.3142857142857143 C }
|  5>     end
|  6> end
|  7> %output
|  8> xyzfile=True
|  9> end
| 10> %scf
| 11> maxiter 250
| 12> end
| 13> %output
| 14> Print[P_Hirshfeld] = 1
| 15> end
| 16> % maxcore
| 17> 4000
| 18> *xyz 1 1
| 19> Ir   0.57810807  -0.74205784   0.51841990
| 20> C    0.03023019  -2.82328021   0.39522574
| 21> C    0.02688614  -2.36500823   1.76200540
| 22> C    2.16976065  -2.15062903   0.93942169
| 23> C    1.33009125  -2.66452263  -0.11910689
| 24> C    1.37505403  -2.00242722   2.09071131
| 25> N   -1.03461554   0.13059944  -0.50115731
| 26> C   -2.32052155   0.41932314   0.15784982
| 27> C   -3.10156364   1.54724345  -0.49914741
| 28> H   -3.93628551   1.82023629   0.14507948
| 29> H   -3.53255751   1.26270583  -1.46007972
| 30> H   -2.49138535   2.44006079  -0.63757215
| 31> C   -3.14863307  -0.85692314   0.24971530
| 32> H   -2.05269669   0.73330205   1.16800220
| 33> H   -4.07274923  -0.65740596   0.79037046
| 34> H   -3.41589767  -1.22732248  -0.74088563
| 35> H   -2.62449930  -1.64760405   0.78444982
| 36> C   -0.84637246   0.35779035  -1.74680503
| 37> C    0.49034369   0.19111850  -2.25731035
| 38> H   -1.65225298   0.70105636  -2.38966114
| 39> C    1.60300572   0.42216970  -1.46041607
| 40> C    2.79368480   0.09173702  -2.16368826
| 41> S    0.89273346  -0.35211268  -3.82714022
| 42> C    2.56142499  -0.32817910  -3.43887056
| 43> H    1.56297811   1.33398291  -0.59535357
| 44> H    3.78794894   0.21588310  -1.75971651
| 45> H    3.28851632  -0.60612801  -4.18695892
| 46> H   -0.82514177  -3.19179053  -0.15250429
| 47> H   -0.80629118  -2.39505404   2.44861736
| 48> H    1.70298168  -1.60273443   3.03969046
| 49> O    1.45662956   2.37510640   0.22309246
| 50> O    0.54048435   0.94404465   1.66736273
| 51> C    0.98631692   2.09935482   1.33436724
| 52> C    0.94389975   3.14255949   2.41219477
| 53> H    0.89507476   4.13994861   1.98348550
| 54> H    1.86215694   3.07995285   2.99957667
| 55> H    0.10969992   2.98429202   3.09159035
| 56> H    3.22342264  -1.92816983   0.86161890
| 57> H    1.64940058  -2.89192836  -1.12573340
| 58> *
| 59>
| 60>                          ****END OF INPUT****
 Total Charge           Charge          ....    1
 Multiplicity           Mult            ....    1
 Number of Electrons    NEL             ....  164
Dispersion correction           -0.030635545
FINAL SINGLE POINT ENERGY     -1288.394864642179
Dispersion correction            ... done
Dispersion correction           -0.030596575
FINAL SINGLE POINT ENERGY     -1288.395005919941
Dispersion correction            ... done
Dispersion correction           -0.030568469
FINAL SINGLE POINT ENERGY     -1288.395074679277
Dispersion correction            ... done
FINAL SINGLE POINT ENERGY     -1288.395100793161
FINAL SINGLE POINT ENERGY     -1288.395116799436
FINAL SINGLE POINT ENERGY     -1288.395125413842
FINAL SINGLE POINT ENERGY     -1288.395129570880
FINAL SINGLE POINT ENERGY     -1288.395135602387
FINAL SINGLE POINT ENERGY     -1288.395142429612
FINAL SINGLE POINT ENERGY     -1288.395145497224
FINAL SINGLE POINT ENERGY     -1288.395148772691
FINAL SINGLE POINT ENERGY     -1288.395150700734
FINAL SINGLE POINT ENERGY     -1288.395152259698
Dispersion correction            ... done
Dispersion correction           -0.030454601
FINAL SINGLE POINT ENERGY     -1288.395153448729
Dispersion correction            ... done
Dispersion correction           -0.030452954
FINAL SINGLE POINT ENERGY     -1288.395154856277
Dispersion correction            ... done
                    ***********************HURRAY********************

CARTESIAN COORDINATES (ANGSTROEM)
---------------------------------
  Ir     0.587007   -0.744762    0.519279
  C      0.066457   -2.833562    0.382780
  C     -0.023288   -2.371506    1.745199
  C      2.164767   -2.133825    1.050167
  C      1.395047   -2.665217   -0.050594
  C      1.295477   -1.987036    2.148759
  N     -1.034560    0.118718   -0.494555
  C     -2.320611    0.381464    0.175473
  C     -3.090126    1.551471   -0.420194
  H     -3.925748    1.794404    0.234787
  H     -3.518235    1.325076   -1.397562
  H     -2.471867    2.445241   -0.506095
  C     -3.159038   -0.891331    0.188687
  H     -2.056534    0.637293    1.202627
  H     -4.078450   -0.723035    0.747825
  H     -3.434904   -1.192058   -0.822933
  H     -2.636688   -1.721165    0.662399
  C     -0.860918    0.368421   -1.738852
  C      0.466321    0.212113   -2.270205
  H     -1.676211    0.720693   -2.364742
  C      1.583702    0.350068   -1.459586
  C      2.765924    0.046219   -2.187608
  S      0.854560   -0.217258   -3.877400
  C      2.522229   -0.264503   -3.492560
  H      1.592177    1.286939   -0.583361
  H      3.763178    0.112497   -1.777535
  H      3.241943   -0.499636   -4.262112
  H     -0.748630   -3.217751   -0.213314
  H     -0.894594   -2.408401    2.382213
  H      1.559944   -1.574990    3.112345
  O      1.544536    2.340273    0.201218
  O      0.545638    0.965210    1.643336
  C      1.028976    2.099331    1.304171
  C      0.980815    3.172605    2.350983
  H      0.918303    4.156324    1.892959
  H      1.904645    3.139145    2.931817
  H      0.152428    3.024886    3.039287
  H      3.220570   -1.909548    1.039331
  H      1.775127   -2.893615   -1.035693

 Multiplicity           Mult            ....    1
 Number of Electrons    NEL             ....  164
 Basis Dimension        Dim             ....  358

ORBITAL ENERGIES
----------------

  NO   OCC          E(Eh)            E(eV)
   0   2.0000     -89.754971     -2442.3569
   1   2.0000     -19.632926      -534.2391
   2   2.0000     -19.608126      -533.5642
   3   2.0000     -14.834463      -403.6663
   4   2.0000     -10.693606      -290.9878
   5   2.0000     -10.656418      -289.9759
   6   2.0000     -10.633717      -289.3581
   7   2.0000     -10.633035      -289.3396
   8   2.0000     -10.630737      -289.2770
   9   2.0000     -10.630016      -289.2574
  10   2.0000     -10.625907      -289.1456
  11   2.0000     -10.620290      -288.9928
  12   2.0000     -10.613986      -288.8213
  13   2.0000     -10.604678      -288.5680
  14   2.0000     -10.578875      -287.8658
  15   2.0000     -10.578345      -287.8514
  16   2.0000     -10.555345      -287.2255
  17   2.0000     -10.550545      -287.0949
  18   2.0000     -10.540645      -286.8255
  19   2.0000      -8.394444      -228.4244
  20   2.0000      -6.284426      -171.0079
  21   2.0000      -6.280862      -170.9109
  22   2.0000      -6.279260      -170.8673
  23   2.0000      -4.027858      -109.6036
  24   2.0000      -2.346814       -63.8601
  25   2.0000      -2.312909       -62.9375
  26   2.0000      -2.310613       -62.8750
  27   2.0000      -1.320581       -35.9348
  28   2.0000      -1.223464       -33.2921
  29   2.0000      -1.205923       -32.8148
  30   2.0000      -1.171124       -31.8679
  31   2.0000      -1.119537       -30.4642
  32   2.0000      -1.022295       -27.8181
  33   2.0000      -0.985317       -26.8118
  34   2.0000      -0.976190       -26.5635
  35   2.0000      -0.960044       -26.1241
  36   2.0000      -0.953519       -25.9466
  37   2.0000      -0.936210       -25.4756
  38   2.0000      -0.900924       -24.5154
  39   2.0000      -0.869237       -23.6531
  40   2.0000      -0.794883       -21.6299
  41   2.0000      -0.786704       -21.4073
  42   2.0000      -0.785516       -21.3750
  43   2.0000      -0.776804       -21.1379
  44   2.0000      -0.770204       -20.9583
  45   2.0000      -0.763631       -20.7795
  46   2.0000      -0.740921       -20.1615
  47   2.0000      -0.722416       -19.6580
  48   2.0000      -0.691080       -18.8052
  49   2.0000      -0.677700       -18.4412
  50   2.0000      -0.662138       -18.0177
  51   2.0000      -0.655981       -17.8502
  52   2.0000      -0.648279       -17.6406
  53   2.0000      -0.640157       -17.4196
  54   2.0000      -0.638707       -17.3801
  55   2.0000      -0.634207       -17.2577
  56   2.0000      -0.622349       -16.9350
  57   2.0000      -0.608065       -16.5463
  58   2.0000      -0.606526       -16.5044
  59   2.0000      -0.605365       -16.4728
  60   2.0000      -0.594504       -16.1773
  61   2.0000      -0.586775       -15.9670
  62   2.0000      -0.574116       -15.6225
  63   2.0000      -0.566585       -15.4176
  64   2.0000      -0.561061       -15.2672
  65   2.0000      -0.559406       -15.2222
  66   2.0000      -0.553512       -15.0618
  67   2.0000      -0.547757       -14.9052
  68   2.0000      -0.540175       -14.6989
  69   2.0000      -0.533388       -14.5142
  70   2.0000      -0.527636       -14.3577
  71   2.0000      -0.519094       -14.1253
  72   2.0000      -0.514702       -14.0057
  73   2.0000      -0.505891       -13.7660
  74   2.0000      -0.495264       -13.4768
  75   2.0000      -0.480020       -13.0620
  76   2.0000      -0.465110       -12.6563
  77   2.0000      -0.448797       -12.2124
  78   2.0000      -0.445328       -12.1180
  79   2.0000      -0.418811       -11.3964
  80   2.0000      -0.416510       -11.3338
  81   2.0000      -0.399993       -10.8844
  82   0.0000      -0.198841        -5.4107
  83   0.0000      -0.159552        -4.3416
  84   0.0000      -0.141109        -3.8398
  85   0.0000      -0.087985        -2.3942
  86   0.0000      -0.072979        -1.9859

MULLIKEN ATOMIC CHARGES
-----------------------
   0 Ir:    0.613618
   1 C :   -0.219134
   2 C :   -0.289895
   3 C :   -0.242947
   4 C :   -0.235166
   5 C :   -0.165201
   6 N :   -0.439876
   7 C :   -0.126579
   8 C :   -0.683663
   9 H :    0.269201
  10 H :    0.225156
  11 H :    0.257622
  12 C :   -0.634625
  13 H :    0.278817
  14 H :    0.261652
  15 H :    0.231727
  16 H :    0.229747
  17 C :    0.070190
  18 C :   -0.181773
  19 H :    0.285353
  20 C :   -0.433985
  21 C :   -0.147937
  22 S :    0.311423
  23 C :   -0.424521
  24 H :    0.494071
  25 H :    0.261686
  26 H :    0.295017
  27 H :    0.290666
  28 H :    0.290341
  29 H :    0.304718
  30 O :   -0.494685
  31 O :   -0.527015
  32 C :    0.629392
  33 C :   -0.745481
  34 H :    0.272359
  35 H :    0.271706
  36 H :    0.258042
  37 H :    0.292560
  38 H :    0.297421
Sum of atomic charges:    1.0000000

LOEWDIN ATOMIC CHARGES
----------------------
   0 Ir:   -0.223129
   1 C :   -0.047751
   2 C :   -0.069716
   3 C :   -0.065864
   4 C :   -0.043456
   5 C :   -0.019005
   6 N :   -0.015819
   7 C :   -0.069106
   8 C :   -0.362712
   9 H :    0.156052
  10 H :    0.133098
  11 H :    0.145335
  12 C :   -0.343971
  13 H :    0.154450
  14 H :    0.151839
  15 H :    0.137524
  16 H :    0.131972
  17 C :    0.035198
  18 C :   -0.200561
  19 H :    0.159742
  20 C :   -0.208680
  21 C :   -0.144281
  22 S :    0.467386
  23 C :   -0.259856
  24 H :    0.321483
  25 H :    0.159475
  26 H :    0.167030
  27 H :    0.184888
  28 H :    0.184445
  29 H :    0.192435
  30 O :   -0.271466
  31 O :   -0.193281
  32 C :    0.166754
  33 C :   -0.373188
  34 H :    0.162648
  35 H :    0.170520
  36 H :    0.155055
  37 H :    0.186644
  38 H :    0.187868

  Mayer bond orders larger than 0.100000
B(  0-Ir,  1-C ) :   0.4257 B(  0-Ir,  2-C ) :   0.5267 B(  0-Ir,  3-C ) :   0.4602
B(  0-Ir,  4-C ) :   0.4530 B(  0-Ir,  5-C ) :   0.4040 B(  0-Ir,  6-N ) :   0.4707
B(  0-Ir, 20-C ) :   0.2915 B(  0-Ir, 31-O ) :   0.5510 B(  1-C ,  2-C ) :   1.1170
B(  1-C ,  4-C ) :   1.2393 B(  1-C , 27-H ) :   0.9043 B(  2-C ,  5-C ) :   1.1411
B(  2-C , 28-H ) :   0.9080 B(  3-C ,  4-C ) :   1.1111 B(  3-C ,  5-C ) :   1.2250
B(  3-C , 37-H ) :   0.9064 B(  4-C , 38-H ) :   0.8998 B(  5-C , 29-H ) :   0.8981
B(  6-N ,  7-C ) :   0.8920 B(  6-N , 17-C ) :   1.6645 B(  7-C ,  8-C ) :   0.9913
B(  7-C , 12-C ) :   0.9683 B(  7-C , 13-H ) :   0.8771 B(  8-C ,  9-H ) :   0.9045
B(  8-C , 10-H ) :   0.9130 B(  8-C , 11-H ) :   0.9104 B( 12-C , 14-H ) :   0.9072
B( 12-C , 15-H ) :   0.9156 B( 12-C , 16-H ) :   0.9130 B( 17-C , 18-C ) :   1.0894
B( 17-C , 19-H ) :   0.8757 B( 18-C , 20-C ) :   1.2943 B( 18-C , 22-S ) :   1.2105
B( 20-C , 21-C ) :   1.2931 B( 20-C , 24-H ) :   0.4038 B( 21-C , 23-C ) :   1.5358
B( 21-C , 25-H ) :   0.9058 B( 22-S , 23-C ) :   1.2174 B( 23-C , 26-H ) :   0.8923
B( 24-H , 30-O ) :   0.2854 B( 30-O , 32-C ) :   1.6122 B( 31-O , 32-C ) :   1.3316
B( 32-C , 33-C ) :   0.9490 B( 33-C , 34-H ) :   0.9022 B( 33-C , 35-H ) :   0.8951
B( 33-C , 36-H ) :   0.9084

Dispersion correction           -0.030451943
FINAL SINGLE POINT ENERGY     -1288.395155789907

DIPOLE MOMENT
-------------
                                X             Y             Z
Electronic contribution:     35.19271     -71.78335      80.31134
Nuclear contribution   :    -35.81191      70.86169     -80.36181
                        -----------------------------------------
Total Dipole Moment    :     -0.61920      -0.92166      -0.05047
                        -----------------------------------------
Magnitude (a.u.)       :      1.11149
Magnitude (Debye)      :      2.82519

Rotational constants in cm-1:     0.010539     0.008749     0.008070
Rotational constants in MHz :   315.939449   262.284957   241.923703

                             ****ORCA TERMINATED NORMALLY****
TOTAL RUN TIME: 0 days 1 hours 52 minutes 46 seconds 330 msec
