                         Program Version 5.0.3 -  RELEASE  -
|  1> ! Opt PBEh-3c
|  2> %geom Constraints
|  3> { B 0 20 2.2142857142857144 C }
|  4> { B 24 30 1.4142857142857144 C }
|  5>     end
|  6> end
|  7> %output
|  8> xyzfile=True
|  9> end
| 10> %scf
| 11> maxiter 250
| 12> end
| 13> %output
| 14> Print[P_Hirshfeld] = 1
| 15> end
| 16> % maxcore
| 17> 4000
| 18> *xyz 1 1
| 19> Ir   0.61851824  -0.71727333   0.44095625
| 20> C    0.09322207  -2.82002337   0.35247424
| 21> C    0.03713372  -2.35672895   1.71350660
| 22> C    2.20389930  -2.10440705   0.95375546
| 23> C    1.41012474  -2.65416312  -0.11942965
| 24> C    1.35814264  -1.95234839   2.07385256
| 25> N   -1.04561152   0.13761423  -0.51845963
| 26> C   -2.31358548   0.40618232   0.17841899
| 27> C   -3.09821959   1.56945863  -0.40971667
| 28> H   -3.92213320   1.81313882   0.25956703
| 29> H   -3.54370346   1.33438682  -1.37730525
| 30> H   -2.48511551   2.46510617  -0.51207012
| 31> C   -3.14795773  -0.86896668   0.22285507
| 32> H   -2.02257981   0.66855318   1.19646235
| 33> H   -4.05355071  -0.69636844   0.80271736
| 34> H   -3.44768289  -1.17996060  -0.77875593
| 35> H   -2.61141814  -1.69195035   0.69250105
| 36> C   -0.88486484   0.39553529  -1.76223960
| 37> C    0.44644393   0.20446123  -2.27202695
| 38> H   -1.69038250   0.77404123  -2.38413084
| 39> C    1.52166114   0.25211932  -1.38642022
| 40> C    2.73294122  -0.06765211  -2.06908080
| 41> S    0.89917730  -0.20292139  -3.85686660
| 42> C    2.54579546  -0.33004507  -3.39093185
| 43> H    1.53976960   1.22091989  -0.63037927
| 44> H    3.70900063  -0.04738902  -1.60658098
| 45> H    3.29329784  -0.56935502  -4.13200481
| 46> H   -0.73532471  -3.21308634  -0.21892969
| 47> H   -0.81777118  -2.39062339   2.37198388
| 48> H    1.64512590  -1.52808153   3.02558421
| 49> O    1.46847278   2.40036250   0.17252061
| 50> O    0.54567824   0.96767647   1.60587803
| 51> C    0.98958215   2.12542598   1.27839605
| 52> C    0.92915376   3.16839838   2.35741665
| 53> H    0.90497107   4.16720928   1.93014216
| 54> H    1.82771035   3.09161661   2.97261646
| 55> H    0.07283947   3.01921817   3.01109851
| 56> H    3.26044632  -1.88635238   0.92130493
| 57> H    1.76616338  -2.90453808  -1.10793954
| 58> *
| 59>
| 60>                          ****END OF INPUT****
 Total Charge           Charge          ....    1
 Multiplicity           Mult            ....    1
 Number of Electrons    NEL             ....  164
Dispersion correction           -0.030944829
FINAL SINGLE POINT ENERGY     -1288.400624533496
Dispersion correction            ... done
Dispersion correction           -0.030869156
FINAL SINGLE POINT ENERGY     -1288.400415902399
Dispersion correction            ... done
Dispersion correction           -0.030878315
FINAL SINGLE POINT ENERGY     -1288.400267895550
Dispersion correction            ... done
FINAL SINGLE POINT ENERGY     -1288.400882891643
FINAL SINGLE POINT ENERGY     -1288.400955778940
FINAL SINGLE POINT ENERGY     -1288.400982478280
FINAL SINGLE POINT ENERGY     -1288.401022867239
FINAL SINGLE POINT ENERGY     -1288.401043826144
FINAL SINGLE POINT ENERGY     -1288.401054817803
FINAL SINGLE POINT ENERGY     -1288.401065831973
FINAL SINGLE POINT ENERGY     -1288.401077893304
FINAL SINGLE POINT ENERGY     -1288.401086966160
FINAL SINGLE POINT ENERGY     -1288.401093343369
FINAL SINGLE POINT ENERGY     -1288.401099628072
FINAL SINGLE POINT ENERGY     -1288.401102107043
Dispersion correction            ... done
Dispersion correction           -0.030730866
FINAL SINGLE POINT ENERGY     -1288.401102297458
Dispersion correction            ... done
Dispersion correction           -0.030729993
FINAL SINGLE POINT ENERGY     -1288.401102219554
Dispersion correction            ... done
                    ***********************HURRAY********************

CARTESIAN COORDINATES (ANGSTROEM)
---------------------------------
  Ir     0.615521   -0.719181    0.438785
  C      0.122537   -2.829715    0.339869
  C     -0.019771   -2.367752    1.695913
  C      2.185183   -2.080273    1.062580
  C      1.465504   -2.650136   -0.048783
  C      1.266169   -1.937554    2.129219
  N     -1.056812    0.129598   -0.512989
  C     -2.327976    0.366735    0.189158
  C     -3.118719    1.546333   -0.358117
  H     -3.946008    1.759215    0.317339
  H     -3.559867    1.344492   -1.335147
  H     -2.511471    2.449211   -0.425697
  C     -3.156686   -0.913096    0.180475
  H     -2.043327    0.594014    1.217411
  H     -4.061885   -0.771494    0.769436
  H     -3.457118   -1.180706   -0.833383
  H     -2.615086   -1.754411    0.609869
  C     -0.901720    0.424765   -1.749834
  C      0.422449    0.243859   -2.273721
  H     -1.711357    0.820551   -2.355208
  C      1.493129    0.182057   -1.383476
  C      2.698349   -0.108945   -2.090766
  S      0.871692   -0.027498   -3.887716
  C      2.510557   -0.241734   -3.432272
  H      1.590309    1.168367   -0.616769
  H      3.672861   -0.157986   -1.627132
  H      3.255126   -0.432181   -4.190220
  H     -0.662436   -3.241761   -0.277569
  H     -0.910948   -2.412270    2.303493
  H      1.487889   -1.502389    3.093505
  O      1.634112    2.342825    0.169953
  O      0.545179    0.997192    1.569238
  C      1.069667    2.119165    1.250264
  C      1.003658    3.197339    2.293015
  H      0.976288    4.180216    1.829584
  H      1.904793    3.148669    2.907030
  H      0.147523    3.068329    2.950363
  H      3.240148   -1.855948    1.097045
  H      1.881914   -2.898716   -1.014008

 Multiplicity           Mult            ....    1
 Number of Electrons    NEL             ....  164
 Basis Dimension        Dim             ....  358

ORBITAL ENERGIES
----------------

  NO   OCC          E(Eh)            E(eV)
   0   2.0000     -89.764994     -2442.6297
   1   2.0000     -19.628885      -534.1291
   2   2.0000     -19.606871      -533.5301
   3   2.0000     -14.836762      -403.7288
   4   2.0000     -10.688784      -290.8566
   5   2.0000     -10.657500      -290.0053
   6   2.0000     -10.629331      -289.2388
   7   2.0000     -10.628924      -289.2277
   8   2.0000     -10.627838      -289.1982
   9   2.0000     -10.626122      -289.1515
  10   2.0000     -10.621040      -289.0132
  11   2.0000     -10.618266      -288.9377
  12   2.0000     -10.613746      -288.8147
  13   2.0000     -10.610713      -288.7322
  14   2.0000     -10.588662      -288.1321
  15   2.0000     -10.587792      -288.1085
  16   2.0000     -10.554766      -287.2098
  17   2.0000     -10.550983      -287.1068
  18   2.0000     -10.539175      -286.7855
  19   2.0000      -8.404424      -228.6960
  20   2.0000      -6.294312      -171.2769
  21   2.0000      -6.290727      -171.1794
  22   2.0000      -6.289401      -171.1433
  23   2.0000      -4.023735      -109.4914
  24   2.0000      -2.341589       -63.7179
  25   2.0000      -2.309104       -62.8339
  26   2.0000      -2.306993       -62.7765
  27   2.0000      -1.315734       -35.8029
  28   2.0000      -1.217579       -33.1320
  29   2.0000      -1.208995       -32.8984
  30   2.0000      -1.165015       -31.7017
  31   2.0000      -1.128432       -30.7062
  32   2.0000      -1.025348       -27.9011
  33   2.0000      -0.978175       -26.6175
  34   2.0000      -0.971094       -26.4248
  35   2.0000      -0.968748       -26.3610
  36   2.0000      -0.960182       -26.1279
  37   2.0000      -0.933533       -25.4027
  38   2.0000      -0.901079       -24.5196
  39   2.0000      -0.873364       -23.7654
  40   2.0000      -0.798953       -21.7406
  41   2.0000      -0.782703       -21.2984
  42   2.0000      -0.780783       -21.2462
  43   2.0000      -0.780104       -21.2277
  44   2.0000      -0.765522       -20.8309
  45   2.0000      -0.757328       -20.6079
  46   2.0000      -0.743015       -20.2185
  47   2.0000      -0.722946       -19.6724
  48   2.0000      -0.690993       -18.8029
  49   2.0000      -0.680706       -18.5230
  50   2.0000      -0.663722       -18.0608
  51   2.0000      -0.653250       -17.7758
  52   2.0000      -0.647166       -17.6103
  53   2.0000      -0.636381       -17.3168
  54   2.0000      -0.634079       -17.2542
  55   2.0000      -0.630704       -17.1623
  56   2.0000      -0.622276       -16.9330
  57   2.0000      -0.611441       -16.6381
  58   2.0000      -0.601059       -16.3557
  59   2.0000      -0.600498       -16.3404
  60   2.0000      -0.599570       -16.3151
  61   2.0000      -0.591438       -16.0938
  62   2.0000      -0.579857       -15.7787
  63   2.0000      -0.569761       -15.5040
  64   2.0000      -0.563154       -15.3242
  65   2.0000      -0.561757       -15.2862
  66   2.0000      -0.552279       -15.0283
  67   2.0000      -0.547746       -14.9049
  68   2.0000      -0.541463       -14.7340
  69   2.0000      -0.535833       -14.5808
  70   2.0000      -0.528496       -14.3811
  71   2.0000      -0.518599       -14.1118
  72   2.0000      -0.514019       -13.9872
  73   2.0000      -0.499939       -13.6040
  74   2.0000      -0.492056       -13.3895
  75   2.0000      -0.480961       -13.0876
  76   2.0000      -0.477804       -13.0017
  77   2.0000      -0.446451       -12.1485
  78   2.0000      -0.444725       -12.1016
  79   2.0000      -0.420551       -11.4438
  80   2.0000      -0.417016       -11.3476
  81   2.0000      -0.397934       -10.8283
  82   0.0000      -0.205319        -5.5870
  83   0.0000      -0.143794        -3.9128
  84   0.0000      -0.141690        -3.8556
  85   0.0000      -0.089606        -2.4383
  86   0.0000      -0.074554        -2.0287

MULLIKEN ATOMIC CHARGES
-----------------------
   0 Ir:    0.605145
   1 C :   -0.228150
   2 C :   -0.271130
   3 C :   -0.258791
   4 C :   -0.231832
   5 C :   -0.157747
   6 N :   -0.431082
   7 C :   -0.126900
   8 C :   -0.683688
   9 H :    0.269959
  10 H :    0.224238
  11 H :    0.256624
  12 C :   -0.634545
  13 H :    0.282016
  14 H :    0.260794
  15 H :    0.231751
  16 H :    0.232448
  17 C :    0.070691
  18 C :   -0.139507
  19 H :    0.287073
  20 C :   -0.531204
  21 C :   -0.108294
  22 S :    0.334639
  23 C :   -0.430201
  24 H :    0.479572
  25 H :    0.267079
  26 H :    0.298397
  27 H :    0.287064
  28 H :    0.285387
  29 H :    0.301753
  30 O :   -0.476860
  31 O :   -0.524065
  32 C :    0.624958
  33 C :   -0.744066
  34 H :    0.271193
  35 H :    0.270987
  36 H :    0.256962
  37 H :    0.285809
  38 H :    0.293523
Sum of atomic charges:    1.0000000

LOEWDIN ATOMIC CHARGES
----------------------
   0 Ir:   -0.249226
   1 C :   -0.051642
   2 C :   -0.087316
   3 C :   -0.083091
   4 C :   -0.045564
   5 C :   -0.015389
   6 N :   -0.003060
   7 C :   -0.069697
   8 C :   -0.362636
   9 H :    0.156546
  10 H :    0.132800
  11 H :    0.144765
  12 C :   -0.343663
  13 H :    0.156124
  14 H :    0.151606
  15 H :    0.137516
  16 H :    0.132997
  17 C :    0.030297
  18 C :   -0.182157
  19 H :    0.161099
  20 C :   -0.214428
  21 C :   -0.125370
  22 S :    0.493393
  23 C :   -0.260440
  24 H :    0.331586
  25 H :    0.162738
  26 H :    0.169149
  27 H :    0.182937
  28 H :    0.181675
  29 H :    0.190608
  30 O :   -0.267085
  31 O :   -0.195137
  32 C :    0.158623
  33 C :   -0.373363
  34 H :    0.162016
  35 H :    0.169849
  36 H :    0.154420
  37 H :    0.183480
  38 H :    0.185041

  Mayer bond orders larger than 0.100000
B(  0-Ir,  1-C ) :   0.4258 B(  0-Ir,  2-C ) :   0.4571 B(  0-Ir,  3-C ) :   0.4644
B(  0-Ir,  4-C ) :   0.4358 B(  0-Ir,  5-C ) :   0.3907 B(  0-Ir,  6-N ) :   0.4634
B(  0-Ir, 20-C ) :   0.3969 B(  0-Ir, 31-O ) :   0.5472 B(  1-C ,  2-C ) :   1.1262
B(  1-C ,  4-C ) :   1.2376 B(  1-C , 27-H ) :   0.9065 B(  2-C ,  5-C ) :   1.1746
B(  2-C , 28-H ) :   0.9098 B(  3-C ,  4-C ) :   1.1219 B(  3-C ,  5-C ) :   1.2008
B(  3-C , 37-H ) :   0.9106 B(  4-C , 38-H ) :   0.8997 B(  5-C , 29-H ) :   0.8995
B(  6-N ,  7-C ) :   0.8940 B(  6-N , 17-C ) :   1.6604 B(  7-C ,  8-C ) :   0.9906
B(  7-C , 12-C ) :   0.9667 B(  7-C , 13-H ) :   0.8748 B(  8-C ,  9-H ) :   0.9044
B(  8-C , 10-H ) :   0.9131 B(  8-C , 11-H ) :   0.9108 B( 12-C , 14-H ) :   0.9074
B( 12-C , 15-H ) :   0.9155 B( 12-C , 16-H ) :   0.9122 B( 17-C , 18-C ) :   1.0958
B( 17-C , 19-H ) :   0.8759 B( 18-C , 20-C ) :   1.2461 B( 18-C , 22-S ) :   1.2467
B( 20-C , 21-C ) :   1.2666 B( 20-C , 24-H ) :   0.4027 B( 21-C , 23-C ) :   1.5491
B( 21-C , 25-H ) :   0.9031 B( 22-S , 23-C ) :   1.2104 B( 23-C , 26-H ) :   0.8912
B( 24-H , 30-O ) :   0.2970 B( 30-O , 32-C ) :   1.6281 B( 31-O , 32-C ) :   1.3289
B( 32-C , 33-C ) :   0.9450 B( 33-C , 34-H ) :   0.9027 B( 33-C , 35-H ) :   0.8960
B( 33-C , 36-H ) :   0.9087

Dispersion correction           -0.030730732
FINAL SINGLE POINT ENERGY     -1288.401101640352

DIPOLE MOMENT
-------------
                                X             Y             Z
Electronic contribution:     37.78300     -70.62557      72.55224
Nuclear contribution   :    -38.42753      69.81720     -72.88586
                        -----------------------------------------
Total Dipole Moment    :     -0.64452      -0.80838      -0.33362
                        -----------------------------------------
Magnitude (a.u.)       :      1.08637
Magnitude (Debye)      :      2.76132

Rotational constants in cm-1:     0.010530     0.008956     0.008211
Rotational constants in MHz :   315.666508   268.506005   246.169429

                             ****ORCA TERMINATED NORMALLY****
TOTAL RUN TIME: 0 days 2 hours 12 minutes 47 seconds 914 msec
