                         Program Version 5.0.3 -  RELEASE  -
|  1> ! Opt PBEh-3c
|  2> %geom Constraints
|  3> { B 0 20 2.257142857142857 C }
|  4> { B 24 30 1.4142857142857144 C }
|  5>     end
|  6> end
|  7> %output
|  8> xyzfile=True
|  9> end
| 10> %scf
| 11> maxiter 250
| 12> end
| 13> %output
| 14> Print[P_Hirshfeld] = 1
| 15> end
| 16> % maxcore
| 17> 4000
| 18> *xyz 1 1
| 19> Ir   0.61640018  -0.71858943   0.44661187
| 20> C    0.09665789  -2.81957470   0.34184766
| 21> C    0.03978222  -2.35933966   1.70483376
| 22> C    2.20609231  -2.10299606   0.94792635
| 23> C    1.41291207  -2.64885554  -0.12831745
| 24> C    1.36167245  -1.95762099   2.06893444
| 25> N   -1.04394852   0.14046058  -0.51548220
| 26> C   -2.31198553   0.41588377   0.17887960
| 27> C   -3.09305465   1.57685967  -0.41801152
| 28> H   -3.91717772   1.82744887   0.24849205
| 29> H   -3.53797381   1.33622897  -1.38449432
| 30> H   -2.47732682   2.47005014  -0.52581588
| 31> C   -3.14812423  -0.85772485   0.23114270
| 32> H   -2.02104372   0.68423679   1.19536104
| 33> H   -4.05236452  -0.68080225   0.81175441
| 34> H   -3.45000097  -1.17357116  -0.76829562
| 35> H   -2.61177550  -1.67899469   0.70415553
| 36> C   -0.88156764   0.38778658  -1.76037700
| 37> C    0.45119824   0.19364917  -2.26948783
| 38> H   -1.68654058   0.75981068  -2.38711759
| 39> C    1.53655841   0.29433420  -1.40198071
| 40> C    2.74297031  -0.04462728  -2.08277371
| 41> S    0.89080498  -0.27856256  -3.84100796
| 42> C    2.54415548  -0.36870583  -3.38897554
| 43> H    1.53702294   1.24539057  -0.63793090
| 44> H    3.72347642   0.00558198  -1.63211708
| 45> H    3.28562937  -0.63410773  -4.12724318
| 46> H   -0.73168896  -3.21127442  -0.23076892
| 47> H   -0.81525841  -2.39690214   2.36311119
| 48> H    1.64783571  -1.53744136   3.02272716
| 49> O    1.44046129   2.41228370   0.18051433
| 50> O    0.54732780   0.96057373   1.61456750
| 51> C    0.97701938   2.12577498   1.28857830
| 52> C    0.91750626   3.15921076   2.37703128
| 53> H    0.87987722   4.16096644   1.95767997
| 54> H    1.82298803   3.08637208   2.98255185
| 55> H    0.06942567   2.99750099   3.03848392
| 56> H    3.26175454  -1.88059556   0.91446220
| 57> H    1.76967241  -2.89092844  -1.11870968
| 58> *
| 59>
| 60>                          ****END OF INPUT****
 Total Charge           Charge          ....    1
 Multiplicity           Mult            ....    1
 Number of Electrons    NEL             ....  164
Dispersion correction           -0.030936175
FINAL SINGLE POINT ENERGY     -1288.400435097198
Dispersion correction            ... done
Dispersion correction           -0.030860658
FINAL SINGLE POINT ENERGY     -1288.400269352009
Dispersion correction            ... done
Dispersion correction           -0.030872819
FINAL SINGLE POINT ENERGY     -1288.399993014367
Dispersion correction            ... done
FINAL SINGLE POINT ENERGY     -1288.400682250768
FINAL SINGLE POINT ENERGY     -1288.400739599374
FINAL SINGLE POINT ENERGY     -1288.400760982710
FINAL SINGLE POINT ENERGY     -1288.400789407949
FINAL SINGLE POINT ENERGY     -1288.400803171193
FINAL SINGLE POINT ENERGY     -1288.400810636454
Dispersion correction            ... done
Dispersion correction           -0.030796515
FINAL SINGLE POINT ENERGY     -1288.400817064083
Dispersion correction            ... done
Dispersion correction           -0.030797038
FINAL SINGLE POINT ENERGY     -1288.400821919420
Dispersion correction            ... done
                    ***********************HURRAY********************

CARTESIAN COORDINATES (ANGSTROEM)
---------------------------------
  Ir     0.617706   -0.720770    0.445147
  C      0.093532   -2.822803    0.355333
  C      0.024040   -2.358957    1.715666
  C      2.198536   -2.106442    0.976795
  C      1.415512   -2.657494   -0.103209
  C      1.340841   -1.953352    2.088137
  N     -1.045429    0.133852   -0.516027
  C     -2.314813    0.396313    0.180971
  C     -3.098531    1.565026   -0.397997
  H     -3.923391    1.802770    0.272246
  H     -3.542580    1.338772   -1.368321
  H     -2.485220    2.461484   -0.491615
  C     -3.149862   -0.878798    0.211694
  H     -2.026330    0.649875    1.201958
  H     -4.056347   -0.711840    0.791858
  H     -3.448131   -1.179571   -0.793469
  H     -2.614407   -1.706900    0.673449
  C     -0.885522    0.398787   -1.758712
  C      0.444284    0.212085   -2.272412
  H     -1.692566    0.779523   -2.377245
  C      1.519883    0.240214   -1.387141
  C      2.729641   -0.069701   -2.076277
  S      0.895253   -0.163057   -3.866040
  C      2.541151   -0.304237   -3.403478
  H      1.546580    1.215702   -0.623500
  H      3.706067   -0.062758   -1.614166
  H      3.287795   -0.530586   -4.149466
  H     -0.728815   -3.217225   -0.224002
  H     -0.837237   -2.392349    2.365789
  H      1.618251   -1.527588    3.042061
  O      1.493971    2.387384    0.166814
  O      0.548325    0.971930    1.601962
  C      1.002932    2.123221    1.271504
  C      0.942349    3.175990    2.340431
  H      0.918373    4.170800    1.903818
  H      1.841141    3.105091    2.955959
  H      0.085872    3.032666    2.995058
  H      3.255545   -1.889453    0.955318
  H      1.780970   -2.908414   -1.088150

 Multiplicity           Mult            ....    1
 Number of Electrons    NEL             ....  164
 Basis Dimension        Dim             ....  358

ORBITAL ENERGIES
----------------

  NO   OCC          E(Eh)            E(eV)
   0   2.0000     -89.764957     -2442.6287
   1   2.0000     -19.627366      -534.0878
   2   2.0000     -19.602866      -533.4211
   3   2.0000     -14.837786      -403.7567
   4   2.0000     -10.686873      -290.8046
   5   2.0000     -10.658663      -290.0370
   6   2.0000     -10.630222      -289.2631
   7   2.0000     -10.630079      -289.2591
   8   2.0000     -10.630009      -289.2572
   9   2.0000     -10.626302      -289.1564
  10   2.0000     -10.622963      -289.0655
  11   2.0000     -10.621229      -289.0183
  12   2.0000     -10.614186      -288.8267
  13   2.0000     -10.610738      -288.7329
  14   2.0000     -10.587997      -288.1140
  15   2.0000     -10.586500      -288.0733
  16   2.0000     -10.555306      -287.2245
  17   2.0000     -10.551086      -287.1096
  18   2.0000     -10.537714      -286.7458
  19   2.0000      -8.404371      -228.6946
  20   2.0000      -6.294281      -171.2761
  21   2.0000      -6.290688      -171.1783
  22   2.0000      -6.289320      -171.1411
  23   2.0000      -4.024624      -109.5156
  24   2.0000      -2.342767       -63.7499
  25   2.0000      -2.309801       -62.8529
  26   2.0000      -2.307961       -62.8028
  27   2.0000      -1.313441       -35.7406
  28   2.0000      -1.215620       -33.0787
  29   2.0000      -1.209735       -32.9186
  30   2.0000      -1.166583       -31.7443
  31   2.0000      -1.128282       -30.7021
  32   2.0000      -1.025739       -27.9118
  33   2.0000      -0.980127       -26.6706
  34   2.0000      -0.972227       -26.4556
  35   2.0000      -0.968289       -26.3485
  36   2.0000      -0.960352       -26.1325
  37   2.0000      -0.932046       -25.3622
  38   2.0000      -0.901470       -24.5303
  39   2.0000      -0.873650       -23.7732
  40   2.0000      -0.798981       -21.7414
  41   2.0000      -0.782954       -21.3053
  42   2.0000      -0.782464       -21.2919
  43   2.0000      -0.781104       -21.2549
  44   2.0000      -0.766955       -20.8699
  45   2.0000      -0.756903       -20.5964
  46   2.0000      -0.743041       -20.2192
  47   2.0000      -0.722994       -19.6737
  48   2.0000      -0.691354       -18.8127
  49   2.0000      -0.679290       -18.4844
  50   2.0000      -0.664141       -18.0722
  51   2.0000      -0.651842       -17.7375
  52   2.0000      -0.647437       -17.6177
  53   2.0000      -0.636296       -17.3145
  54   2.0000      -0.635145       -17.2832
  55   2.0000      -0.631096       -17.1730
  56   2.0000      -0.622465       -16.9381
  57   2.0000      -0.611693       -16.6450
  58   2.0000      -0.602516       -16.3953
  59   2.0000      -0.601952       -16.3800
  60   2.0000      -0.599263       -16.3068
  61   2.0000      -0.591178       -16.0868
  62   2.0000      -0.579526       -15.7697
  63   2.0000      -0.570271       -15.5179
  64   2.0000      -0.563448       -15.3322
  65   2.0000      -0.560261       -15.2455
  66   2.0000      -0.551913       -15.0183
  67   2.0000      -0.548092       -14.9143
  68   2.0000      -0.540695       -14.7131
  69   2.0000      -0.536219       -14.5912
  70   2.0000      -0.528302       -14.3758
  71   2.0000      -0.518824       -14.1179
  72   2.0000      -0.514483       -13.9998
  73   2.0000      -0.501217       -13.6388
  74   2.0000      -0.490448       -13.3458
  75   2.0000      -0.480729       -13.0813
  76   2.0000      -0.475571       -12.9409
  77   2.0000      -0.446233       -12.1426
  78   2.0000      -0.444800       -12.1036
  79   2.0000      -0.421388       -11.4666
  80   2.0000      -0.417119       -11.3504
  81   2.0000      -0.398915       -10.8550
  82   0.0000      -0.204754        -5.5716
  83   0.0000      -0.148007        -4.0275
  84   0.0000      -0.141553        -3.8519
  85   0.0000      -0.091251        -2.4831
  86   0.0000      -0.074881        -2.0376

MULLIKEN ATOMIC CHARGES
-----------------------
   0 Ir:    0.607553
   1 C :   -0.220916
   2 C :   -0.275490
   3 C :   -0.251943
   4 C :   -0.238502
   5 C :   -0.160768
   6 N :   -0.430057
   7 C :   -0.126937
   8 C :   -0.684745
   9 H :    0.270092
  10 H :    0.224363
  11 H :    0.258154
  12 C :   -0.634871
  13 H :    0.282135
  14 H :    0.261694
  15 H :    0.231333
  16 H :    0.232140
  17 C :    0.071153
  18 C :   -0.145817
  19 H :    0.287968
  20 C :   -0.517888
  21 C :   -0.113695
  22 S :    0.328975
  23 C :   -0.431316
  24 H :    0.485583
  25 H :    0.266258
  26 H :    0.298232
  27 H :    0.287901
  28 H :    0.287075
  29 H :    0.302914
  30 O :   -0.478226
  31 O :   -0.527528
  32 C :    0.622929
  33 C :   -0.744236
  34 H :    0.270693
  35 H :    0.269473
  36 H :    0.256001
  37 H :    0.287091
  38 H :    0.293225
Sum of atomic charges:    1.0000000

LOEWDIN ATOMIC CHARGES
----------------------
   0 Ir:   -0.245361
   1 C :   -0.046579
   2 C :   -0.083318
   3 C :   -0.074555
   4 C :   -0.051046
   5 C :   -0.017274
   6 N :   -0.003330
   7 C :   -0.069859
   8 C :   -0.362913
   9 H :    0.156598
  10 H :    0.132900
  11 H :    0.145532
  12 C :   -0.343617
  13 H :    0.156211
  14 H :    0.151994
  15 H :    0.137334
  16 H :    0.133152
  17 C :    0.031833
  18 C :   -0.180666
  19 H :    0.161483
  20 C :   -0.211466
  21 C :   -0.126759
  22 S :    0.489453
  23 C :   -0.261299
  24 H :    0.322715
  25 H :    0.162582
  26 H :    0.168879
  27 H :    0.183249
  28 H :    0.182762
  29 H :    0.191348
  30 O :   -0.269380
  31 O :   -0.197825
  32 C :    0.157351
  33 C :   -0.373927
  34 H :    0.160945
  35 H :    0.169031
  36 H :    0.154615
  37 H :    0.184047
  38 H :    0.185158

  Mayer bond orders larger than 0.100000
B(  0-Ir,  1-C ) :   0.4208 B(  0-Ir,  2-C ) :   0.4744 B(  0-Ir,  3-C ) :   0.4609
B(  0-Ir,  4-C ) :   0.4417 B(  0-Ir,  5-C ) :   0.3954 B(  0-Ir,  6-N ) :   0.4642
B(  0-Ir, 20-C ) :   0.3646 B(  0-Ir, 31-O ) :   0.5547 B(  1-C ,  2-C ) :   1.1271
B(  1-C ,  4-C ) :   1.2399 B(  1-C , 27-H ) :   0.9054 B(  2-C ,  5-C ) :   1.1604
B(  2-C , 28-H ) :   0.9096 B(  3-C ,  4-C ) :   1.1161 B(  3-C ,  5-C ) :   1.2134
B(  3-C , 37-H ) :   0.9094 B(  4-C , 38-H ) :   0.9005 B(  5-C , 29-H ) :   0.8991
B(  6-N ,  7-C ) :   0.8930 B(  6-N , 17-C ) :   1.6660 B(  7-C ,  8-C ) :   0.9907
B(  7-C , 12-C ) :   0.9673 B(  7-C , 13-H ) :   0.8742 B(  8-C ,  9-H ) :   0.9043
B(  8-C , 10-H ) :   0.9132 B(  8-C , 11-H ) :   0.9100 B( 12-C , 14-H ) :   0.9071
B( 12-C , 15-H ) :   0.9156 B( 12-C , 16-H ) :   0.9124 B( 17-C , 18-C ) :   1.0883
B( 17-C , 19-H ) :   0.8758 B( 18-C , 20-C ) :   1.2533 B( 18-C , 22-S ) :   1.2453
B( 20-C , 21-C ) :   1.2681 B( 20-C , 24-H ) :   0.4165 B( 21-C , 23-C ) :   1.5498
B( 21-C , 25-H ) :   0.9038 B( 22-S , 23-C ) :   1.2080 B( 23-C , 26-H ) :   0.8913
B( 24-H , 30-O ) :   0.2853 B( 30-O , 32-C ) :   1.6416 B( 31-O , 32-C ) :   1.3165
B( 32-C , 33-C ) :   0.9457 B( 33-C , 34-H ) :   0.9036 B( 33-C , 35-H ) :   0.8968
B( 33-C , 36-H ) :   0.9087

Dispersion correction           -0.030794342
FINAL SINGLE POINT ENERGY     -1288.400825539251

DIPOLE MOMENT
-------------
                                X             Y             Z
Electronic contribution:     38.05408     -69.92969      73.04442
Nuclear contribution   :    -38.67825      69.01682     -73.37839
                        -----------------------------------------
Total Dipole Moment    :     -0.62417      -0.91287      -0.33397
                        -----------------------------------------
Magnitude (a.u.)       :      1.15519
Magnitude (Debye)      :      2.93626

Rotational constants in cm-1:     0.010566     0.009034     0.008193
Rotational constants in MHz :   316.775541   270.836682   245.611774

                             ****ORCA TERMINATED NORMALLY****
TOTAL RUN TIME: 0 days 1 hours 28 minutes 10 seconds 741 msec
