                         Program Version 5.0.3 -  RELEASE  -
|  1> ! Opt PBEh-3c
|  2> %geom Constraints
|  3> { B 0 20 2.6 C }
|  4> { B 24 30 1.4428571428571428 C }
|  5>     end
|  6> end
|  7> %output
|  8> xyzfile=True
|  9> end
| 10> %scf
| 11> maxiter 250
| 12> end
| 13> %output
| 14> Print[P_Hirshfeld] = 1
| 15> end
| 16> % maxcore
| 17> 4000
| 18> *xyz 1 1
| 19> Ir   0.57530666  -0.73192943   0.47883455
| 20> C    0.02300566  -2.81078215   0.33862541
| 21> C    0.11371492  -2.37146268   1.71152940
| 22> C    2.19161594  -2.14480293   0.75126572
| 23> C    1.28336715  -2.64112790  -0.25878395
| 24> C    1.48457513  -2.02098237   1.95871732
| 25> N   -1.03974228   0.17769608  -0.51106408
| 26> C   -2.31240153   0.52154453   0.14253790
| 27> C   -3.13099919   1.54889770  -0.62185346
| 28> H   -3.96538204   1.86710248   0.00153817
| 29> H   -3.56417442   1.14914497  -1.54021444
| 30> H   -2.55040258   2.43973773  -0.86368282
| 31> C   -3.11068135  -0.74909019   0.40657363
| 32> H   -2.02161106   0.95522020   1.10093324
| 33> H   -4.02593902  -0.49995565   0.94129598
| 34> H   -3.39349052  -1.24064688  -0.52528538
| 35> H   -2.56139487  -1.45934421   1.02309974
| 36> C   -0.82250767   0.37906045  -1.75196920
| 37> C    0.53133048   0.14544896  -2.21422041
| 38> H   -1.59417292   0.74168140  -2.42528888
| 39> C    1.64544370   0.56949599  -1.50134186
| 40> C    2.84128210   0.13814953  -2.14356795
| 41> S    0.93803859  -0.70358298  -3.64293941
| 42> C    2.61241737  -0.54891633  -3.29412452
| 43> H    1.55404210   1.41900845  -0.70562403
| 44> H    3.83267348   0.37712515  -1.78713063
| 45> H    3.34052305  -0.95866373  -3.97779968
| 46> H   -0.87030419  -3.16700387  -0.15394565
| 47> H   -0.67133419  -2.41108332   2.45265619
| 48> H    1.87809251  -1.64025371   2.89024790
| 49> O    1.26928917   2.45442781   0.27930632
| 50> O    0.54171708   0.88856692   1.69342057
| 51> C    0.88951940   2.09889020   1.38926569
| 52> C    0.82600363   3.06537799   2.53915877
| 53> H    0.76876754   4.08808633   2.17654973
| 54> H    1.73626693   2.97235992   3.13471078
| 55> H   -0.01314283   2.85623829   3.19949103
| 56> H    3.23421012  -1.90751123   0.59882912
| 57> H    1.53584794  -2.84693150  -1.28901073
| 58> *
| 59>
| 60>                          ****END OF INPUT****
 Total Charge           Charge          ....    1
 Multiplicity           Mult            ....    1
 Number of Electrons    NEL             ....  164
Dispersion correction           -0.030934916
FINAL SINGLE POINT ENERGY     -1288.395797938601
Dispersion correction            ... done
Dispersion correction           -0.030903711
FINAL SINGLE POINT ENERGY     -1288.395796418512
Dispersion correction            ... done
Dispersion correction           -0.030884760
FINAL SINGLE POINT ENERGY     -1288.395721481567
Dispersion correction            ... done
FINAL SINGLE POINT ENERGY     -1288.395732842323
FINAL SINGLE POINT ENERGY     -1288.395761202922
FINAL SINGLE POINT ENERGY     -1288.395808469483
Dispersion correction            ... done
Dispersion correction           -0.030914501
FINAL SINGLE POINT ENERGY     -1288.395809484005
Dispersion correction            ... done
Dispersion correction           -0.030914000
FINAL SINGLE POINT ENERGY     -1288.395812995813
Dispersion correction            ... done
                    ***********************HURRAY********************

CARTESIAN COORDINATES (ANGSTROEM)
---------------------------------
  Ir     0.573305   -0.733194    0.482153
  C      0.020200   -2.811495    0.342134
  C      0.110274   -2.372571    1.715077
  C      2.188913   -2.146616    0.755985
  C      1.280986   -2.642198   -0.254706
  C      1.481112   -2.022499    1.962987
  N     -1.040287    0.175371   -0.510536
  C     -2.314038    0.517505    0.142046
  C     -3.132110    1.546055   -0.621410
  H     -3.967007    1.863248    0.001816
  H     -3.564559    1.147826   -1.540763
  H     -2.551373    2.437288   -0.861442
  C     -3.112508   -0.753677    0.402857
  H     -2.024740    0.949700    1.101578
  H     -4.028816   -0.505563    0.936264
  H     -3.393480   -1.243977   -0.530219
  H     -2.564201   -1.464692    1.019369
  C     -0.822986    0.377095   -1.751610
  C      0.530857    0.147669   -2.214761
  H     -1.595825    0.737843   -2.424613
  C      1.643900    0.567896   -1.497996
  C      2.840267    0.141683   -2.142578
  S      0.938912   -0.690588   -3.649603
  C      2.612776   -0.537067   -3.298478
  H      1.551734    1.419441   -0.696314
  H      3.831405    0.378531   -1.783956
  H      3.341727   -0.941093   -3.984670
  H     -0.872991   -3.167132   -0.151084
  H     -0.675219   -2.412131    2.455723
  H      1.874331   -1.642265    2.894841
  O      1.280801    2.449472    0.277066
  O      0.540910    0.891087    1.693015
  C      0.895807    2.098158    1.387381
  C      0.834954    3.068663    2.533745
  H      0.782127    4.090451    2.167905
  H      1.744316    2.973894    3.130417
  H     -0.005658    2.864698    3.193798
  H      3.231697   -1.909753    0.604187
  H      1.533860   -2.847873   -1.284868

 Multiplicity           Mult            ....    1
 Number of Electrons    NEL             ....  164
 Basis Dimension        Dim             ....  358

ORBITAL ENERGIES
----------------

  NO   OCC          E(Eh)            E(eV)
   0   2.0000     -89.759304     -2442.4748
   1   2.0000     -19.622422      -533.9532
   2   2.0000     -19.582663      -532.8714
   3   2.0000     -14.841960      -403.8703
   4   2.0000     -10.678305      -290.5714
   5   2.0000     -10.662912      -290.1526
   6   2.0000     -10.639888      -289.5261
   7   2.0000     -10.638490      -289.4880
   8   2.0000     -10.636016      -289.4207
   9   2.0000     -10.635213      -289.3989
  10   2.0000     -10.633773      -289.3597
  11   2.0000     -10.630717      -289.2765
  12   2.0000     -10.617155      -288.9075
  13   2.0000     -10.608669      -288.6766
  14   2.0000     -10.581309      -287.9320
  15   2.0000     -10.580115      -287.8996
  16   2.0000     -10.557965      -287.2968
  17   2.0000     -10.552642      -287.1520
  18   2.0000     -10.531029      -286.5639
  19   2.0000      -8.398575      -228.5369
  20   2.0000      -6.288710      -171.1245
  21   2.0000      -6.285068      -171.0254
  22   2.0000      -6.283217      -170.9750
  23   2.0000      -4.032802      -109.7381
  24   2.0000      -2.352389       -64.0118
  25   2.0000      -2.317745       -63.0690
  26   2.0000      -2.316217       -63.0275
  27   2.0000      -1.301908       -35.4267
  28   2.0000      -1.214139       -33.0384
  29   2.0000      -1.205971       -32.8161
  30   2.0000      -1.176755       -32.0211
  31   2.0000      -1.124282       -30.5933
  32   2.0000      -1.027272       -27.9535
  33   2.0000      -0.991794       -26.9881
  34   2.0000      -0.981709       -26.7137
  35   2.0000      -0.963807       -26.2265
  36   2.0000      -0.958163       -26.0730
  37   2.0000      -0.924746       -25.1636
  38   2.0000      -0.904368       -24.6091
  39   2.0000      -0.873435       -23.7674
  40   2.0000      -0.797209       -21.6932
  41   2.0000      -0.792543       -21.5662
  42   2.0000      -0.790619       -21.5138
  43   2.0000      -0.780668       -21.2430
  44   2.0000      -0.774870       -21.0853
  45   2.0000      -0.755406       -20.5556
  46   2.0000      -0.744603       -20.2617
  47   2.0000      -0.722140       -19.6504
  48   2.0000      -0.695525       -18.9262
  49   2.0000      -0.671789       -18.2803
  50   2.0000      -0.665266       -18.1028
  51   2.0000      -0.652698       -17.7608
  52   2.0000      -0.649498       -17.6737
  53   2.0000      -0.641694       -17.4614
  54   2.0000      -0.636797       -17.3281
  55   2.0000      -0.628428       -17.1004
  56   2.0000      -0.624490       -16.9932
  57   2.0000      -0.613033       -16.6815
  58   2.0000      -0.611849       -16.6493
  59   2.0000      -0.609278       -16.5793
  60   2.0000      -0.596426       -16.2296
  61   2.0000      -0.587573       -15.9887
  62   2.0000      -0.576088       -15.6762
  63   2.0000      -0.570605       -15.5269
  64   2.0000      -0.563679       -15.3385
  65   2.0000      -0.554146       -15.0791
  66   2.0000      -0.552280       -15.0283
  67   2.0000      -0.548514       -14.9258
  68   2.0000      -0.539229       -14.6732
  69   2.0000      -0.534302       -14.5391
  70   2.0000      -0.528113       -14.3707
  71   2.0000      -0.522637       -14.2217
  72   2.0000      -0.516516       -14.0551
  73   2.0000      -0.508631       -13.8406
  74   2.0000      -0.488833       -13.3018
  75   2.0000      -0.481060       -13.0903
  76   2.0000      -0.463302       -12.6071
  77   2.0000      -0.451746       -12.2926
  78   2.0000      -0.439948       -11.9716
  79   2.0000      -0.423458       -11.5229
  80   2.0000      -0.417376       -11.3574
  81   2.0000      -0.404823       -11.0158
  82   0.0000      -0.201273        -5.4769
  83   0.0000      -0.167654        -4.5621
  84   0.0000      -0.142215        -3.8699
  85   0.0000      -0.103064        -2.8045
  86   0.0000      -0.077385        -2.1057

MULLIKEN ATOMIC CHARGES
-----------------------
   0 Ir:    0.625697
   1 C :   -0.207433
   2 C :   -0.298327
   3 C :   -0.229544
   4 C :   -0.244468
   5 C :   -0.165111
   6 N :   -0.425170
   7 C :   -0.115380
   8 C :   -0.696657
   9 H :    0.273664
  10 H :    0.226474
  11 H :    0.261284
  12 C :   -0.640675
  13 H :    0.281051
  14 H :    0.265850
  15 H :    0.230987
  16 H :    0.233185
  17 C :    0.066165
  18 C :   -0.236512
  19 H :    0.293179
  20 C :   -0.376153
  21 C :   -0.148476
  22 S :    0.287181
  23 C :   -0.427449
  24 H :    0.490445
  25 H :    0.267267
  26 H :    0.296454
  27 H :    0.293611
  28 H :    0.295568
  29 H :    0.308534
  30 O :   -0.480758
  31 O :   -0.547425
  32 C :    0.610733
  33 C :   -0.746461
  34 H :    0.268343
  35 H :    0.264758
  36 H :    0.250853
  37 H :    0.297967
  38 H :    0.296751
Sum of atomic charges:    1.0000000

LOEWDIN ATOMIC CHARGES
----------------------
   0 Ir:   -0.202595
   1 C :   -0.039383
   2 C :   -0.050644
   3 C :   -0.043731
   4 C :   -0.053999
   5 C :   -0.026998
   6 N :   -0.007980
   7 C :   -0.067931
   8 C :   -0.365080
   9 H :    0.157910
  10 H :    0.134242
  11 H :    0.147251
  12 C :   -0.343394
  13 H :    0.156630
  14 H :    0.153518
  15 H :    0.137372
  16 H :    0.134640
  17 C :    0.037825
  18 C :   -0.192889
  19 H :    0.163425
  20 C :   -0.175530
  21 C :   -0.147810
  22 S :    0.451933
  23 C :   -0.262254
  24 H :    0.271392
  25 H :    0.162193
  26 H :    0.167333
  27 H :    0.186612
  28 H :    0.187293
  29 H :    0.194747
  30 O :   -0.277400
  31 O :   -0.212958
  32 C :    0.151638
  33 C :   -0.377619
  34 H :    0.158842
  35 H :    0.166019
  36 H :    0.152039
  37 H :    0.189017
  38 H :    0.186324

  Mayer bond orders larger than 0.100000
B(  0-Ir,  1-C ) :   0.4208 B(  0-Ir,  2-C ) :   0.5660 B(  0-Ir,  3-C ) :   0.4659
B(  0-Ir,  4-C ) :   0.4519 B(  0-Ir,  5-C ) :   0.4035 B(  0-Ir,  6-N ) :   0.4642
B(  0-Ir, 20-C ) :   0.1903 B(  0-Ir, 31-O ) :   0.6009 B(  1-C ,  2-C ) :   1.1093
B(  1-C ,  4-C ) :   1.2492 B(  1-C , 27-H ) :   0.9026 B(  2-C ,  5-C ) :   1.1264
B(  2-C , 28-H ) :   0.9056 B(  3-C ,  4-C ) :   1.1019 B(  3-C ,  5-C ) :   1.2367
B(  3-C , 37-H ) :   0.9016 B(  4-C , 38-H ) :   0.8961 B(  5-C , 29-H ) :   0.8970
B(  6-N ,  7-C ) :   0.8901 B(  6-N , 17-C ) :   1.7049 B(  7-C ,  8-C ) :   0.9930
B(  7-C , 12-C ) :   0.9698 B(  7-C , 13-H ) :   0.8711 B(  8-C ,  9-H ) :   0.9030
B(  8-C , 10-H ) :   0.9121 B(  8-C , 11-H ) :   0.9075 B( 12-C , 14-H ) :   0.9060
B( 12-C , 15-H ) :   0.9151 B( 12-C , 16-H ) :   0.9103 B( 17-C , 18-C ) :   1.0416
B( 17-C , 19-H ) :   0.8734 B( 18-C , 20-C ) :   1.3187 B( 18-C , 22-S ) :   1.2073
B( 20-C , 21-C ) :   1.2642 B( 20-C , 24-H ) :   0.5306 B( 21-C , 23-C ) :   1.5463
B( 21-C , 25-H ) :   0.9039 B( 22-S , 23-C ) :   1.2012 B( 23-C , 26-H ) :   0.8929
B( 24-H , 30-O ) :   0.2038 B( 30-O , 32-C ) :   1.7269 B( 31-O , 32-C ) :   1.2502
B( 32-C , 33-C ) :   0.9463 B( 33-C , 34-H ) :   0.9060 B( 33-C , 35-H ) :   0.8997
B( 33-C , 36-H ) :   0.9101

Dispersion correction           -0.030911093
FINAL SINGLE POINT ENERGY     -1288.395813291547

DIPOLE MOMENT
-------------
                                X             Y             Z
Electronic contribution:     33.56952     -68.00007      75.00724
Nuclear contribution   :    -34.20932      66.66148     -75.21253
                        -----------------------------------------
Total Dipole Moment    :     -0.63981      -1.33859      -0.20530
                        -----------------------------------------
Magnitude (a.u.)       :      1.49777
Magnitude (Debye)      :      3.80703

Rotational constants in cm-1:     0.010766     0.009061     0.008238
Rotational constants in MHz :   322.746642   271.636602   246.969563

                             ****ORCA TERMINATED NORMALLY****
TOTAL RUN TIME: 0 days 1 hours 8 minutes 34 seconds 295 msec
