                         Program Version 5.0.3 -  RELEASE  -
|  1> ! Opt PBEh-3c
|  2> %geom Constraints
|  3> { B 0 20 2.3 C }
|  4> { B 24 30 1.4714285714285715 C }
|  5>     end
|  6> end
|  7> %output
|  8> xyzfile=True
|  9> end
| 10> %scf
| 11> maxiter 250
| 12> end
| 13> %output
| 14> Print[P_Hirshfeld] = 1
| 15> end
| 16> % maxcore
| 17> 4000
| 18> *xyz 1 1
| 19> Ir   0.61206501  -0.70793442   0.42615349
| 20> C    0.06554134  -2.80027107   0.34265276
| 21> C    0.11788421  -2.34199286   1.70696797
| 22> C    2.22031723  -2.11170400   0.78869197
| 23> C    1.34138136  -2.64030187  -0.22956111
| 24> C    1.47297474  -1.96198404   1.97276159
| 25> N   -1.04766453   0.16487926  -0.52813871
| 26> C   -2.31253849   0.47599029   0.15484772
| 27> C   -3.11404687   1.57569748  -0.52313796
| 28> H   -3.93809400   1.86364757   0.12824534
| 29> H   -3.56135384   1.25704390  -1.46599704
| 30> H   -2.51372616   2.46843006  -0.70076614
| 31> C   -3.12942840  -0.80046923   0.31680636
| 32> H   -2.01355090   0.82562641   1.14411511
| 33> H   -4.03682129  -0.58454350   0.87878790
| 34> H   -3.42543201  -1.20714136  -0.65105532
| 35> H   -2.58385125  -1.56797272   0.86386604
| 36> C   -0.86658909   0.38269648  -1.77357475
| 37> C    0.47868288   0.15999261  -2.24959262
| 38> H   -1.65409335   0.74890436  -2.42545846
| 39> C    1.56547581   0.39340186  -1.40879768
| 40> C    2.77810854  -0.00192488  -2.04836637
| 41> S    0.92584677  -0.50449725  -3.74867504
| 42> C    2.58423442  -0.49883492  -3.29809999
| 43> H    1.52239073   1.31143878  -0.66921266
| 44> H    3.75725472   0.13044362  -1.61153520
| 45> H    3.32869432  -0.84167209  -4.00064626
| 46> H   -0.81122265  -3.17428484  -0.16630420
| 47> H   -0.68522248  -2.37133541   2.42822645
| 48> H    1.83852826  -1.55276155   2.90368289
| 49> O    1.32953310   2.47454725   0.23485127
| 50> O    0.53448651   0.93219271   1.63484837
| 51> C    0.91506897   2.12912982   1.33913772
| 52> C    0.85045243   3.10595571   2.48026224
| 53> H    0.81786595   4.12740131   2.11127437
| 54> H    1.74904043   2.99936024   3.09107176
| 55> H   -0.00336456   2.91520412   3.12711205
| 56> H    3.27010222  -1.88955075   0.66949927
| 57> H    1.62043995  -2.88361710  -1.24420304
| 58> *
| 59>
| 60>                          ****END OF INPUT****
 Total Charge           Charge          ....    1
 Multiplicity           Mult            ....    1
 Number of Electrons    NEL             ....  164
Dispersion correction           -0.031094337
FINAL SINGLE POINT ENERGY     -1288.400274539816
Dispersion correction            ... done
Dispersion correction           -0.031131117
FINAL SINGLE POINT ENERGY     -1288.398786645932
Dispersion correction            ... done
Dispersion correction           -0.031057508
FINAL SINGLE POINT ENERGY     -1288.400414486086
Dispersion correction            ... done
FINAL SINGLE POINT ENERGY     -1288.399216830068
FINAL SINGLE POINT ENERGY     -1288.400480987357
FINAL SINGLE POINT ENERGY     -1288.400496286730
FINAL SINGLE POINT ENERGY     -1288.400534495276
FINAL SINGLE POINT ENERGY     -1288.400550126268
FINAL SINGLE POINT ENERGY     -1288.400561784335
Dispersion correction            ... done
Dispersion correction           -0.030939877
FINAL SINGLE POINT ENERGY     -1288.400569154749
Dispersion correction            ... done
Dispersion correction           -0.030939297
FINAL SINGLE POINT ENERGY     -1288.400569913151
Dispersion correction            ... done
                    ***********************HURRAY********************

CARTESIAN COORDINATES (ANGSTROEM)
---------------------------------
  Ir     0.615083   -0.709714    0.429626
  C      0.070355   -2.805438    0.352908
  C      0.096020   -2.343569    1.715665
  C      2.215990   -2.111316    0.835192
  C      1.357237   -2.646993   -0.195922
  C      1.443199   -1.956445    2.003493
  N     -1.046123    0.156356   -0.528086
  C     -2.312054    0.452725    0.160131
  C     -3.109897    1.572377   -0.489573
  H     -3.933448    1.845958    0.168574
  H     -3.557513    1.279011   -1.440346
  H     -2.506456    2.467189   -0.644295
  C     -3.133333   -0.825251    0.285880
  H     -2.015166    0.775025    1.159214
  H     -4.041087   -0.622422    0.852240
  H     -3.428844   -1.204376   -0.693234
  H     -2.590551   -1.609271    0.811694
  C     -0.872526    0.389237   -1.773098
  C      0.467935    0.178784   -2.260559
  H     -1.666589    0.759808   -2.414265
  C      1.548002    0.337882   -1.393066
  C      2.761880   -0.031119   -2.046335
  S      0.921195   -0.388593   -3.795383
  C      2.573931   -0.438014   -3.329638
  H      1.524539    1.274001   -0.652585
  H      3.738642    0.056676   -1.593254
  H      3.321018   -0.742863   -4.046740
  H     -0.795209   -3.184440   -0.171282
  H     -0.720704   -2.370951    2.421385
  H      1.789781   -1.541211    2.939052
  O      1.371576    2.453717    0.213425
  O      0.535574    0.945228    1.624849
  C      0.936861    2.129922    1.318908
  C      0.875282    3.127403    2.441524
  H      0.853921    4.142668    2.055112
  H      1.770144    3.022979    3.058128
  H      0.016508    2.954668    3.086693
  H      3.268798   -1.893228    0.738078
  H      1.655397   -2.897213   -1.203371

 Multiplicity           Mult            ....    1
 Number of Electrons    NEL             ....  164
 Basis Dimension        Dim             ....  358

ORBITAL ENERGIES
----------------

  NO   OCC          E(Eh)            E(eV)
   0   2.0000     -89.767901     -2442.7088
   1   2.0000     -19.621783      -533.9358
   2   2.0000     -19.590165      -533.0755
   3   2.0000     -14.840943      -403.8426
   4   2.0000     -10.679289      -290.5982
   5   2.0000     -10.661649      -290.1182
   6   2.0000     -10.635829      -289.4156
   7   2.0000     -10.633775      -289.3597
   8   2.0000     -10.631261      -289.2913
   9   2.0000     -10.627375      -289.1856
  10   2.0000     -10.626760      -289.1688
  11   2.0000     -10.625912      -289.1458
  12   2.0000     -10.615273      -288.8563
  13   2.0000     -10.612846      -288.7902
  14   2.0000     -10.589774      -288.1624
  15   2.0000     -10.587050      -288.0883
  16   2.0000     -10.556457      -287.2558
  17   2.0000     -10.551728      -287.1271
  18   2.0000     -10.532654      -286.6081
  19   2.0000      -8.407277      -228.7736
  20   2.0000      -6.297227      -171.3562
  21   2.0000      -6.293590      -171.2573
  22   2.0000      -6.292193      -171.2193
  23   2.0000      -4.026446      -109.5652
  24   2.0000      -2.344912       -63.8083
  25   2.0000      -2.311422       -62.8970
  26   2.0000      -2.310150       -62.8624
  27   2.0000      -1.304382       -35.4941
  28   2.0000      -1.213725       -33.0271
  29   2.0000      -1.206869       -32.8406
  30   2.0000      -1.169286       -31.8179
  31   2.0000      -1.131089       -30.7785
  32   2.0000      -1.027865       -27.9696
  33   2.0000      -0.983336       -26.7579
  34   2.0000      -0.974769       -26.5248
  35   2.0000      -0.970518       -26.4091
  36   2.0000      -0.962723       -26.1970
  37   2.0000      -0.926075       -25.1998
  38   2.0000      -0.902822       -24.5670
  39   2.0000      -0.875676       -23.8284
  40   2.0000      -0.800340       -21.7783
  41   2.0000      -0.785493       -21.3744
  42   2.0000      -0.785199       -21.3664
  43   2.0000      -0.782942       -21.3049
  44   2.0000      -0.769555       -20.9407
  45   2.0000      -0.754876       -20.5412
  46   2.0000      -0.743452       -20.2304
  47   2.0000      -0.724008       -19.7013
  48   2.0000      -0.692732       -18.8502
  49   2.0000      -0.674326       -18.3493
  50   2.0000      -0.665583       -18.1114
  51   2.0000      -0.650056       -17.6889
  52   2.0000      -0.646162       -17.5830
  53   2.0000      -0.637900       -17.3581
  54   2.0000      -0.634719       -17.2716
  55   2.0000      -0.628318       -17.0974
  56   2.0000      -0.622909       -16.9502
  57   2.0000      -0.613633       -16.6978
  58   2.0000      -0.605155       -16.4671
  59   2.0000      -0.604605       -16.4521
  60   2.0000      -0.600477       -16.3398
  61   2.0000      -0.591437       -16.0938
  62   2.0000      -0.581407       -15.8209
  63   2.0000      -0.573722       -15.6118
  64   2.0000      -0.564517       -15.3613
  65   2.0000      -0.555581       -15.1181
  66   2.0000      -0.551982       -15.0202
  67   2.0000      -0.548405       -14.9229
  68   2.0000      -0.540220       -14.7001
  69   2.0000      -0.536442       -14.5973
  70   2.0000      -0.527888       -14.3646
  71   2.0000      -0.519712       -14.1421
  72   2.0000      -0.515509       -14.0277
  73   2.0000      -0.501977       -13.6595
  74   2.0000      -0.487366       -13.2619
  75   2.0000      -0.481491       -13.1020
  76   2.0000      -0.473079       -12.8731
  77   2.0000      -0.445683       -12.1277
  78   2.0000      -0.442219       -12.0334
  79   2.0000      -0.424541       -11.5524
  80   2.0000      -0.416609       -11.3365
  81   2.0000      -0.401068       -10.9136
  82   0.0000      -0.205870        -5.6020
  83   0.0000      -0.154125        -4.1940
  84   0.0000      -0.141673        -3.8551
  85   0.0000      -0.097117        -2.6427
  86   0.0000      -0.077234        -2.1017

MULLIKEN ATOMIC CHARGES
-----------------------
   0 Ir:    0.607301
   1 C :   -0.212904
   2 C :   -0.279711
   3 C :   -0.242895
   4 C :   -0.246156
   5 C :   -0.163457
   6 N :   -0.424527
   7 C :   -0.123773
   8 C :   -0.689861
   9 H :    0.271753
  10 H :    0.224531
  11 H :    0.260596
  12 C :   -0.636706
  13 H :    0.283667
  14 H :    0.263534
  15 H :    0.230802
  16 H :    0.232752
  17 C :    0.072294
  18 C :   -0.159534
  19 H :    0.291266
  20 C :   -0.504761
  21 C :   -0.111645
  22 S :    0.320688
  23 C :   -0.433965
  24 H :    0.492684
  25 H :    0.268447
  26 H :    0.299152
  27 H :    0.289365
  28 H :    0.289756
  29 H :    0.304717
  30 O :   -0.474068
  31 O :   -0.537178
  32 C :    0.613993
  33 C :   -0.744254
  34 H :    0.268803
  35 H :    0.265655
  36 H :    0.252361
  37 H :    0.289012
  38 H :    0.292267
Sum of atomic charges:    1.0000000

LOEWDIN ATOMIC CHARGES
----------------------
   0 Ir:   -0.239662
   1 C :   -0.041196
   2 C :   -0.074672
   3 C :   -0.062728
   4 C :   -0.058171
   5 C :   -0.020713
   6 N :    0.000283
   7 C :   -0.069696
   8 C :   -0.363897
   9 H :    0.157290
  10 H :    0.133141
  11 H :    0.146788
  12 C :   -0.343376
  13 H :    0.157394
  14 H :    0.152782
  15 H :    0.137138
  16 H :    0.133905
  17 C :    0.032470
  18 C :   -0.172857
  19 H :    0.163022
  20 C :   -0.201872
  21 C :   -0.125604
  22 S :    0.486716
  23 C :   -0.263429
  24 H :    0.300546
  25 H :    0.163717
  26 H :    0.169091
  27 H :    0.183929
  28 H :    0.184325
  29 H :    0.192516
  30 O :   -0.273254
  31 O :   -0.206864
  32 C :    0.150555
  33 C :   -0.375953
  34 H :    0.159229
  35 H :    0.166630
  36 H :    0.152953
  37 H :    0.184836
  38 H :    0.184686

  Mayer bond orders larger than 0.100000
B(  0-Ir,  1-C ) :   0.4163 B(  0-Ir,  2-C ) :   0.4929 B(  0-Ir,  3-C ) :   0.4609
B(  0-Ir,  4-C ) :   0.4456 B(  0-Ir,  5-C ) :   0.3988 B(  0-Ir,  6-N ) :   0.4608
B(  0-Ir, 20-C ) :   0.3208 B(  0-Ir, 31-O ) :   0.5742 B(  1-C ,  2-C ) :   1.1262
B(  1-C ,  4-C ) :   1.2437 B(  1-C , 27-H ) :   0.9042 B(  2-C ,  5-C ) :   1.1483
B(  2-C , 28-H ) :   0.9087 B(  3-C ,  4-C ) :   1.1095 B(  3-C ,  5-C ) :   1.2243
B(  3-C , 37-H ) :   0.9073 B(  4-C , 38-H ) :   0.9009 B(  5-C , 29-H ) :   0.8985
B(  6-N ,  7-C ) :   0.8923 B(  6-N , 17-C ) :   1.6817 B(  7-C ,  8-C ) :   0.9913
B(  7-C , 12-C ) :   0.9679 B(  7-C , 13-H ) :   0.8715 B(  8-C ,  9-H ) :   0.9038
B(  8-C , 10-H ) :   0.9129 B(  8-C , 11-H ) :   0.9085 B( 12-C , 14-H ) :   0.9066
B( 12-C , 15-H ) :   0.9155 B( 12-C , 16-H ) :   0.9117 B( 17-C , 18-C ) :   1.0670
B( 17-C , 19-H ) :   0.8747 B( 18-C , 20-C ) :   1.2627 B( 18-C , 22-S ) :   1.2517
B( 20-C , 21-C ) :   1.2538 B( 20-C , 24-H ) :   0.4640 B( 21-C , 23-C ) :   1.5547
B( 21-C , 25-H ) :   0.9033 B( 22-S , 23-C ) :   1.2005 B( 23-C , 26-H ) :   0.8913
B( 24-H , 30-O ) :   0.2531 B( 30-O , 32-C ) :   1.6916 B( 31-O , 32-C ) :   1.2821
B( 32-C , 33-C ) :   0.9448 B( 33-C , 34-H ) :   0.9053 B( 33-C , 35-H ) :   0.8992
B( 33-C , 36-H ) :   0.9097

Dispersion correction           -0.030938139
FINAL SINGLE POINT ENERGY     -1288.400570876237

DIPOLE MOMENT
-------------
                                X             Y             Z
Electronic contribution:     37.79664     -67.69488      70.95522
Nuclear contribution   :    -38.42220      66.54589     -71.38432
                        -----------------------------------------
Total Dipole Moment    :     -0.62557      -1.14899      -0.42909
                        -----------------------------------------
Magnitude (a.u.)       :      1.37682
Magnitude (Debye)      :      3.49960

Rotational constants in cm-1:     0.010670     0.009146     0.008247
Rotational constants in MHz :   319.882005   274.202907   247.228854

                             ****ORCA TERMINATED NORMALLY****
TOTAL RUN TIME: 0 days 1 hours 38 minutes 45 seconds 409 msec
