                         Program Version 5.0.3 -  RELEASE  -
|  1> ! Opt PBEh-3c
|  2> %geom Constraints
|  3> { B 0 20 2.4714285714285715 C }
|  4> { B 24 30 1.4142857142857144 C }
|  5>     end
|  6> end
|  7> %output
|  8> xyzfile=True
|  9> end
| 10> %scf
| 11> maxiter 250
| 12> end
| 13> %output
| 14> Print[P_Hirshfeld] = 1
| 15> end
| 16> % maxcore
| 17> 4000
| 18> *xyz 1 1
| 19> Ir   0.58345664  -0.72636845   0.46888085
| 20> C    0.02787848  -2.80645569   0.34971517
| 21> C    0.10897828  -2.36040981   1.71947591
| 22> C    2.19470874  -2.14013704   0.76975145
| 23> C    1.29299075  -2.64394192  -0.24201805
| 24> C    1.47670059  -2.00452777   1.97054653
| 25> N   -1.04337255   0.16754604  -0.51694506
| 26> C   -2.31615622   0.49758348   0.14367313
| 27> C   -3.12885017   1.55026747  -0.59271289
| 28> H   -3.96003396   1.85845639   0.04002805
| 29> H   -3.56680502   1.17863346  -1.52054865
| 30> H   -2.54161004   2.44246749  -0.81236670
| 31> C   -3.12070570  -0.77639531   0.37041289
| 32> H   -2.02601432   0.90336643   1.11431270
| 33> H   -4.03618872  -0.53834226   0.90985586
| 34> H   -3.40308632  -1.24067182  -0.57542528
| 35> H   -2.57536552  -1.50583813   0.96760511
| 36> C   -0.83823705   0.37388157  -1.76017118
| 37> C    0.51289710   0.15579952  -2.22942087
| 38> H   -1.61882250   0.73077439  -2.42605334
| 39> C    1.61673077   0.50883729  -1.46198526
| 40> C    2.81991590   0.10034100  -2.10590044
| 41> S    0.93709565  -0.60728784  -3.69706774
| 42> C    2.60565700  -0.50492671  -3.30446417
| 43> H    1.53694327   1.38542611  -0.66596481
| 44> H    3.80711959   0.29908645  -1.71468173
| 45> H    3.34145514  -0.87939649  -4.00005038
| 46> H   -0.86206949  -3.16515572  -0.14721493
| 47> H   -0.68083781  -2.39493812   2.45550481
| 48> H    1.86401192  -1.61578203   2.90137627
| 49> O    1.31500897   2.44831608   0.26238125
| 50> O    0.53596895   0.90770832   1.67532298
| 51> C    0.91135003   2.10570670   1.37139210
| 52> C    0.85435647   3.08509288   2.50989074
| 53> H    0.81039143   4.10485560   2.13733971
| 54> H    1.76157475   2.98733879   3.10939342
| 55> H    0.01037448   2.89122992   3.16856525
| 56> H    3.24000152  -1.91006046   0.62605604
| 57> H    1.55195894  -2.86288979  -1.26774869
| 58> *
| 59>
| 60>                          ****END OF INPUT****
 Total Charge           Charge          ....    1
 Multiplicity           Mult            ....    1
 Number of Electrons    NEL             ....  164
Dispersion correction           -0.030975788
FINAL SINGLE POINT ENERGY     -1288.397195226661
Dispersion correction            ... done
Dispersion correction           -0.031012553
FINAL SINGLE POINT ENERGY     -1288.395599292949
Dispersion correction            ... done
Dispersion correction           -0.030950256
FINAL SINGLE POINT ENERGY     -1288.397260567861
Dispersion correction            ... done
FINAL SINGLE POINT ENERGY     -1288.395449133465
FINAL SINGLE POINT ENERGY     -1288.397352144507
FINAL SINGLE POINT ENERGY     -1288.397369536152
FINAL SINGLE POINT ENERGY     -1288.397390257891
FINAL SINGLE POINT ENERGY     -1288.397399390070
Dispersion correction            ... done
Dispersion correction           -0.030862627
FINAL SINGLE POINT ENERGY     -1288.397406682581
Dispersion correction            ... done
Dispersion correction           -0.030855861
FINAL SINGLE POINT ENERGY     -1288.397417724376
Dispersion correction            ... done
                    ***********************HURRAY********************

CARTESIAN COORDINATES (ANGSTROEM)
---------------------------------
  Ir     0.587615   -0.724247    0.467706
  C      0.033085   -2.806004    0.356947
  C      0.100713   -2.356801    1.725402
  C      2.195813   -2.136363    0.793226
  C      1.303888   -2.645271   -0.224396
  C      1.464481   -1.995698    1.986200
  N     -1.044334    0.160679   -0.518073
  C     -2.318000    0.480265    0.146271
  C     -3.124941    1.552441   -0.568449
  H     -3.955253    1.851526    0.069834
  H     -3.564037    1.203036   -1.504294
  H     -2.532573    2.445748   -0.768778
  C     -3.127720   -0.795723    0.341899
  H     -2.029775    0.863245    1.126641
  H     -4.043791   -0.567039    0.884430
  H     -3.408948   -1.237339   -0.615041
  H     -2.585814   -1.540456    0.923048
  C     -0.846598    0.372130   -1.762336
  C      0.501791    0.163427   -2.238367
  H     -1.632794    0.727462   -2.422307
  C      1.600830    0.470098   -1.444072
  C      2.806476    0.077219   -2.092954
  S      0.932652   -0.540877   -3.731202
  C      2.597989   -0.473511   -3.318899
  H      1.531455    1.363701   -0.647720
  H      3.791824    0.248571   -1.684466
  H      3.336715   -0.824806   -4.023420
  H     -0.851452   -3.167704   -0.147441
  H     -0.695847   -2.389766    2.454039
  H      1.842341   -1.602027    2.918866
  O      1.340169    2.440547    0.248950
  O      0.534131    0.919467    1.666853
  C      0.923938    2.109227    1.358941
  C      0.873769    3.099558    2.487725
  H      0.835351    4.116296    2.106434
  H      1.781418    3.001792    3.086620
  H      0.029472    2.915797    3.148756
  H      3.243146   -1.909377    0.660542
  H      1.572186   -2.870034   -1.246374

 Multiplicity           Mult            ....    1
 Number of Electrons    NEL             ....  164
 Basis Dimension        Dim             ....  358

ORBITAL ENERGIES
----------------

  NO   OCC          E(Eh)            E(eV)
   0   2.0000     -89.761551     -2442.5360
   1   2.0000     -19.623909      -533.9937
   2   2.0000     -19.588937      -533.0421
   3   2.0000     -14.840500      -403.8305
   4   2.0000     -10.681280      -290.6524
   5   2.0000     -10.661598      -290.1168
   6   2.0000     -10.637384      -289.4579
   7   2.0000     -10.633964      -289.3649
   8   2.0000     -10.633213      -289.3444
   9   2.0000     -10.631525      -289.2985
  10   2.0000     -10.631114      -289.2873
  11   2.0000     -10.630831      -289.2796
  12   2.0000     -10.616021      -288.8766
  13   2.0000     -10.609402      -288.6965
  14   2.0000     -10.583602      -287.9945
  15   2.0000     -10.581436      -287.9355
  16   2.0000     -10.557060      -287.2722
  17   2.0000     -10.552028      -287.1353
  18   2.0000     -10.533052      -286.6189
  19   2.0000      -8.400900      -228.6001
  20   2.0000      -6.290946      -171.1853
  21   2.0000      -6.287310      -171.0864
  22   2.0000      -6.285668      -171.0417
  23   2.0000      -4.029952      -109.6606
  24   2.0000      -2.349082       -63.9218
  25   2.0000      -2.314912       -62.9920
  26   2.0000      -2.313337       -62.9491
  27   2.0000      -1.306006       -35.5382
  28   2.0000      -1.213074       -33.0094
  29   2.0000      -1.209011       -32.8989
  30   2.0000      -1.173579       -31.9347
  31   2.0000      -1.125818       -30.6351
  32   2.0000      -1.026716       -27.9384
  33   2.0000      -0.988246       -26.8916
  34   2.0000      -0.978613       -26.6294
  35   2.0000      -0.965137       -26.2627
  36   2.0000      -0.959033       -26.0966
  37   2.0000      -0.927177       -25.2298
  38   2.0000      -0.903355       -24.5815
  39   2.0000      -0.873491       -23.7689
  40   2.0000      -0.797773       -21.7085
  41   2.0000      -0.789446       -21.4819
  42   2.0000      -0.787911       -21.4402
  43   2.0000      -0.780786       -21.2463
  44   2.0000      -0.772923       -21.0323
  45   2.0000      -0.756137       -20.5755
  46   2.0000      -0.744013       -20.2456
  47   2.0000      -0.722786       -19.6680
  48   2.0000      -0.693908       -18.8822
  49   2.0000      -0.673999       -18.3405
  50   2.0000      -0.665202       -18.1011
  51   2.0000      -0.651280       -17.7222
  52   2.0000      -0.648423       -17.6445
  53   2.0000      -0.640414       -17.4266
  54   2.0000      -0.637166       -17.3382
  55   2.0000      -0.629951       -17.1418
  56   2.0000      -0.623652       -16.9704
  57   2.0000      -0.611583       -16.6420
  58   2.0000      -0.609079       -16.5739
  59   2.0000      -0.608035       -16.5455
  60   2.0000      -0.597329       -16.2542
  61   2.0000      -0.588505       -16.0140
  62   2.0000      -0.577464       -15.7136
  63   2.0000      -0.570430       -15.5222
  64   2.0000      -0.563490       -15.3333
  65   2.0000      -0.555221       -15.1083
  66   2.0000      -0.552551       -15.0357
  67   2.0000      -0.548522       -14.9261
  68   2.0000      -0.539262       -14.6741
  69   2.0000      -0.535359       -14.5679
  70   2.0000      -0.528147       -14.3716
  71   2.0000      -0.520851       -14.1731
  72   2.0000      -0.516003       -14.0411
  73   2.0000      -0.506184       -13.7740
  74   2.0000      -0.489327       -13.3153
  75   2.0000      -0.481172       -13.0934
  76   2.0000      -0.465911       -12.6781
  77   2.0000      -0.449545       -12.2327
  78   2.0000      -0.441645       -12.0178
  79   2.0000      -0.423069       -11.5123
  80   2.0000      -0.417269       -11.3545
  81   2.0000      -0.403396       -10.9770
  82   0.0000      -0.201156        -5.4737
  83   0.0000      -0.163379        -4.4458
  84   0.0000      -0.141656        -3.8547
  85   0.0000      -0.098709        -2.6860
  86   0.0000      -0.076316        -2.0767

MULLIKEN ATOMIC CHARGES
-----------------------
   0 Ir:    0.616559
   1 C :   -0.209105
   2 C :   -0.291913
   3 C :   -0.233626
   4 C :   -0.245939
   5 C :   -0.166046
   6 N :   -0.427684
   7 C :   -0.118940
   8 C :   -0.693584
   9 H :    0.272540
  10 H :    0.225785
  11 H :    0.260632
  12 C :   -0.638691
  13 H :    0.281477
  14 H :    0.264598
  15 H :    0.230857
  16 H :    0.232526
  17 C :    0.069153
  18 C :   -0.198698
  19 H :    0.291641
  20 C :   -0.435703
  21 C :   -0.135769
  22 S :    0.301028
  23 C :   -0.430128
  24 H :    0.500502
  25 H :    0.266217
  26 H :    0.297071
  27 H :    0.292068
  28 H :    0.293026
  29 H :    0.306466
  30 O :   -0.482996
  31 O :   -0.540587
  32 C :    0.615691
  33 C :   -0.745558
  34 H :    0.269273
  35 H :    0.265927
  36 H :    0.252644
  37 H :    0.294234
  38 H :    0.295049
Sum of atomic charges:    1.0000000

LOEWDIN ATOMIC CHARGES
----------------------
   0 Ir:   -0.218936
   1 C :   -0.039200
   2 C :   -0.061563
   3 C :   -0.050595
   4 C :   -0.055902
   5 C :   -0.024972
   6 N :   -0.006562
   7 C :   -0.068708
   8 C :   -0.364635
   9 H :    0.157459
  10 H :    0.133735
  11 H :    0.146856
  12 C :   -0.343532
  13 H :    0.156556
  14 H :    0.153101
  15 H :    0.137249
  16 H :    0.134044
  17 C :    0.035626
  18 C :   -0.186299
  19 H :    0.162807
  20 C :   -0.191798
  21 C :   -0.139770
  22 S :    0.465641
  23 C :   -0.262808
  24 H :    0.290577
  25 H :    0.162093
  26 H :    0.167779
  27 H :    0.185549
  28 H :    0.186060
  29 H :    0.193590
  30 O :   -0.277080
  31 O :   -0.207503
  32 C :    0.154509
  33 C :   -0.376222
  34 H :    0.159563
  35 H :    0.166885
  36 H :    0.152970
  37 H :    0.187326
  38 H :    0.186109

  Mayer bond orders larger than 0.100000
B(  0-Ir,  1-C ) :   0.4205 B(  0-Ir,  2-C ) :   0.5371 B(  0-Ir,  3-C ) :   0.4618
B(  0-Ir,  4-C ) :   0.4519 B(  0-Ir,  5-C ) :   0.4026 B(  0-Ir,  6-N ) :   0.4642
B(  0-Ir, 20-C ) :   0.2464 B(  0-Ir, 31-O ) :   0.5827 B(  1-C ,  2-C ) :   1.1168
B(  1-C ,  4-C ) :   1.2447 B(  1-C , 27-H ) :   0.9030 B(  2-C ,  5-C ) :   1.1337
B(  2-C , 28-H ) :   0.9071 B(  3-C ,  4-C ) :   1.1055 B(  3-C ,  5-C ) :   1.2333
B(  3-C , 37-H ) :   0.9039 B(  4-C , 38-H ) :   0.8989 B(  5-C , 29-H ) :   0.8979
B(  6-N ,  7-C ) :   0.8915 B(  6-N , 17-C ) :   1.6915 B(  7-C ,  8-C ) :   0.9922
B(  7-C , 12-C ) :   0.9691 B(  7-C , 13-H ) :   0.8719 B(  8-C ,  9-H ) :   0.9035
B(  8-C , 10-H ) :   0.9125 B(  8-C , 11-H ) :   0.9082 B( 12-C , 14-H ) :   0.9063
B( 12-C , 15-H ) :   0.9154 B( 12-C , 16-H ) :   0.9113 B( 17-C , 18-C ) :   1.0556
B( 17-C , 19-H ) :   0.8740 B( 18-C , 20-C ) :   1.2963 B( 18-C , 22-S ) :   1.2238
B( 20-C , 21-C ) :   1.2652 B( 20-C , 24-H ) :   0.4752 B( 21-C , 23-C ) :   1.5476
B( 21-C , 25-H ) :   0.9043 B( 22-S , 23-C ) :   1.2030 B( 23-C , 26-H ) :   0.8923
B( 24-H , 30-O ) :   0.2376 B( 30-O , 32-C ) :   1.6916 B( 31-O , 32-C ) :   1.2759
B( 32-C , 33-C ) :   0.9467 B( 33-C , 34-H ) :   0.9052 B( 33-C , 35-H ) :   0.8989
B( 33-C , 36-H ) :   0.9096

Dispersion correction           -0.030852009
FINAL SINGLE POINT ENERGY     -1288.397421223350

DIPOLE MOMENT
-------------
                                X             Y             Z
Electronic contribution:     35.00816     -68.06191      74.20375
Nuclear contribution   :    -35.63679      66.84063     -74.45859
                        -----------------------------------------
Total Dipole Moment    :     -0.62863      -1.22128      -0.25484
                        -----------------------------------------
Magnitude (a.u.)       :      1.39701
Magnitude (Debye)      :      3.55091

Rotational constants in cm-1:     0.010691     0.009067     0.008239
Rotational constants in MHz :   320.501821   271.809824   246.984137

                             ****ORCA TERMINATED NORMALLY****
TOTAL RUN TIME: 0 days 1 hours 30 minutes 50 seconds 209 msec
