                         Program Version 5.0.3 -  RELEASE  -
|  1> ! Opt PBEh-3c
|  2> %geom Constraints
|  3> { B 0 20 2.0 C }
|  4> { B 24 30 1.3285714285714287 C }
|  5>     end
|  6> end
|  7> %output
|  8> xyzfile=True
|  9> end
| 10> %scf
| 11> maxiter 250
| 12> end
| 13> %output
| 14> Print[P_Hirshfeld] = 1
| 15> end
| 16> % maxcore
| 17> 4000
| 18> %pal nprocs 2
| 19> end
| 20> *xyz 1 1
| 21> Ir   0.61405711  -0.74503001   0.39945710
| 22> C    0.17467830  -2.86162755   0.32912894
| 23> C   -0.12152697  -2.43204768   1.67356727
| 24> C    2.12243180  -2.04805382   1.26694509
| 25> C    1.55807826  -2.66029563   0.10222287
| 26> C    1.07287863  -1.94689361   2.23322259
| 27> N   -1.08389058   0.09994332  -0.50585181
| 28> C   -2.35424884   0.26941990   0.21444043
| 29> C   -3.14107129   1.50107445  -0.21027311
| 30> H   -3.97293485   1.64189059   0.47798362
| 31> H   -3.57397081   1.40679824  -1.20709387
| 32> H   -2.53137959   2.40427962  -0.17682274
| 33> C   -3.18530030  -1.00119890   0.07463856
| 34> H   -2.07292058   0.39333278   1.26139406
| 35> H   -4.08536414  -0.92705148   0.68371634
| 36> H   -3.49401891  -1.15581814  -0.96001498
| 37> H   -2.63892352  -1.88517354   0.39977896
| 38> C   -0.93925409   0.49011084  -1.71992576
| 39> C    0.37504004   0.32161186  -2.25640801
| 40> H   -1.74916772   0.94192909  -2.28303788
| 41> C    1.38200046  -0.02311014  -1.35050292
| 42> C    2.60944130  -0.22086051  -2.06043889
| 43> S    0.90479701   0.42791629  -3.86493972
| 44> C    2.49381927  -0.00529603  -3.40108122
| 45> H    1.63700249   1.18561722  -0.71338302
| 46> H    3.55132245  -0.45795679  -1.58683892
| 47> H    3.27244580  -0.06152476  -4.14665096
| 48> H   -0.51557294  -3.32224425  -0.36228583
| 49> H   -1.07614638  -2.49433217   2.17291948
| 50> H    1.16920407  -1.50045356   3.21273269
| 51> O    1.75851363   2.31309527   0.00584823
| 52> O    0.62062220   1.05304350   1.44706750
| 53> C    1.18118613   2.13133379   1.10573979
| 54> C    1.17980563   3.26042058   2.09186022
| 55> H    1.06008942   4.21525041   1.58510379
| 56> H    2.14444566   3.28429038   2.60190719
| 57> H    0.40250042   3.13279193   2.83966383
| 58> H    3.16252322  -1.81300704   1.43157006
| 59> H    2.08817822  -2.91298448  -0.80461901
| 60> *
| 61>
| 62>                          ****END OF INPUT****
 Total Charge           Charge          ....    1
 Multiplicity           Mult            ....    1
 Number of Electrons    NEL             ....  164
Dispersion correction           -0.030800812
FINAL SINGLE POINT ENERGY     -1288.402281868734
Dispersion correction            ... done
Dispersion correction           -0.030771241
FINAL SINGLE POINT ENERGY     -1288.402509811265
Dispersion correction            ... done
Dispersion correction           -0.030762446
FINAL SINGLE POINT ENERGY     -1288.402610519235
Dispersion correction            ... done
FINAL SINGLE POINT ENERGY     -1288.402682999621
FINAL SINGLE POINT ENERGY     -1288.402746069073
FINAL SINGLE POINT ENERGY     -1288.402786226387
FINAL SINGLE POINT ENERGY     -1288.402808582228
FINAL SINGLE POINT ENERGY     -1288.402826275532
FINAL SINGLE POINT ENERGY     -1288.402835353017
FINAL SINGLE POINT ENERGY     -1288.402842678387
FINAL SINGLE POINT ENERGY     -1288.402846541376
FINAL SINGLE POINT ENERGY     -1288.402849216606
FINAL SINGLE POINT ENERGY     -1288.402850832145
Dispersion correction            ... done
Dispersion correction           -0.030731730
FINAL SINGLE POINT ENERGY     -1288.402852302286
Dispersion correction            ... done
Dispersion correction           -0.030731472
FINAL SINGLE POINT ENERGY     -1288.402854674944
Dispersion correction            ... done
                    ***********************HURRAY********************

CARTESIAN COORDINATES (ANGSTROEM)
---------------------------------
  Ir     0.609994   -0.748948    0.383200
  C      0.193710   -2.867634    0.326199
  C     -0.143729   -2.449490    1.666087
  C      2.101608   -2.027899    1.318478
  C      1.584136   -2.654959    0.143699
  C      1.020768   -1.945803    2.258225
  N     -1.096767    0.092932   -0.504207
  C     -2.367324    0.240552    0.219868
  C     -3.153919    1.483943   -0.168981
  H     -3.987543    1.603673    0.521169
  H     -3.584432    1.419902   -1.169254
  H     -2.544301    2.385628   -0.106900
  C     -3.197695   -1.025844    0.042809
  H     -2.086817    0.334106    1.270272
  H     -4.094402   -0.973586    0.659114
  H     -3.512202   -1.145810   -0.994686
  H     -2.647937   -1.919734    0.333613
  C     -0.953377    0.508187   -1.710504
  C      0.359963    0.342704   -2.247149
  H     -1.762568    0.972831   -2.263935
  C      1.348353   -0.065654   -1.345365
  C      2.582694   -0.244218   -2.051129
  S      0.913014    0.524196   -3.842429
  C      2.487267    0.043224   -3.380925
  H      1.662360    1.213154   -0.764701
  H      3.514842   -0.523011   -1.580899
  H      3.275409    0.012273   -4.117927
  H     -0.467727   -3.346478   -0.380738
  H     -1.113608   -2.519773    2.134029
  H      1.082590   -1.498941    3.240146
  O      1.799629    2.319553   -0.042108
  O      0.645835    1.072122    1.400532
  C      1.218746    2.139996    1.061127
  C      1.237837    3.271443    2.043574
  H      1.130658    4.227199    1.535789
  H      2.204151    3.281580    2.551008
  H      0.460817    3.155973    2.793567
  H      3.133623   -1.781349    1.514360
  H      2.145714   -2.906853   -0.744290

 Multiplicity           Mult            ....    1
 Number of Electrons    NEL             ....  164
 Basis Dimension        Dim             ....  358

ORBITAL ENERGIES
----------------

  NO   OCC          E(Eh)            E(eV)
   0   2.0000     -89.762250     -2442.5550
   1   2.0000     -19.644341      -534.5497
   2   2.0000     -19.643277      -534.5208
   3   2.0000     -14.829630      -403.5348
   4   2.0000     -10.708704      -291.3986
   5   2.0000     -10.651353      -289.8380
   6   2.0000     -10.621280      -289.0197
   7   2.0000     -10.619328      -288.9666
   8   2.0000     -10.617906      -288.9279
   9   2.0000     -10.615221      -288.8549
  10   2.0000     -10.611383      -288.7504
  11   2.0000     -10.610648      -288.7304
  12   2.0000     -10.609139      -288.6893
  13   2.0000     -10.605390      -288.5873
  14   2.0000     -10.593028      -288.2509
  15   2.0000     -10.589734      -288.1613
  16   2.0000     -10.551532      -287.1218
  17   2.0000     -10.551229      -287.1135
  18   2.0000     -10.549641      -287.0703
  19   2.0000      -8.401585      -228.6188
  20   2.0000      -6.291468      -171.1995
  21   2.0000      -6.287997      -171.1051
  22   2.0000      -6.286492      -171.0641
  23   2.0000      -4.015055      -109.2552
  24   2.0000      -2.331223       -63.4358
  25   2.0000      -2.302948       -62.6664
  26   2.0000      -2.298376       -62.5420
  27   2.0000      -1.337578       -36.3973
  28   2.0000      -1.239900       -33.7394
  29   2.0000      -1.204155       -32.7667
  30   2.0000      -1.153229       -31.3810
  31   2.0000      -1.127021       -30.6678
  32   2.0000      -1.023214       -27.8431
  33   2.0000      -0.969513       -26.3818
  34   2.0000      -0.967161       -26.3178
  35   2.0000      -0.959940       -26.1213
  36   2.0000      -0.955839       -26.0097
  37   2.0000      -0.947514       -25.7832
  38   2.0000      -0.898591       -24.4519
  39   2.0000      -0.870225       -23.6800
  40   2.0000      -0.796615       -21.6770
  41   2.0000      -0.781462       -21.2647
  42   2.0000      -0.772647       -21.0248
  43   2.0000      -0.770454       -20.9651
  44   2.0000      -0.766952       -20.8698
  45   2.0000      -0.755087       -20.5470
  46   2.0000      -0.741159       -20.1680
  47   2.0000      -0.720977       -19.6188
  48   2.0000      -0.704345       -19.1662
  49   2.0000      -0.683551       -18.6004
  50   2.0000      -0.669572       -18.2200
  51   2.0000      -0.664145       -18.0723
  52   2.0000      -0.653036       -17.7700
  53   2.0000      -0.637744       -17.3539
  54   2.0000      -0.627938       -17.0870
  55   2.0000      -0.621404       -16.9093
  56   2.0000      -0.618316       -16.8252
  57   2.0000      -0.610159       -16.6033
  58   2.0000      -0.599844       -16.3226
  59   2.0000      -0.593401       -16.1473
  60   2.0000      -0.590505       -16.0684
  61   2.0000      -0.588799       -16.0220
  62   2.0000      -0.577947       -15.7267
  63   2.0000      -0.575633       -15.6638
  64   2.0000      -0.563032       -15.3209
  65   2.0000      -0.561036       -15.2666
  66   2.0000      -0.559972       -15.2376
  67   2.0000      -0.544540       -14.8177
  68   2.0000      -0.542378       -14.7589
  69   2.0000      -0.536070       -14.5872
  70   2.0000      -0.530750       -14.4425
  71   2.0000      -0.518457       -14.1079
  72   2.0000      -0.512499       -13.9458
  73   2.0000      -0.506430       -13.7807
  74   2.0000      -0.503293       -13.6953
  75   2.0000      -0.491002       -13.3609
  76   2.0000      -0.473165       -12.8755
  77   2.0000      -0.454501       -12.3676
  78   2.0000      -0.441585       -12.0162
  79   2.0000      -0.416874       -11.3437
  80   2.0000      -0.411952       -11.2098
  81   2.0000      -0.390039       -10.6135
  82   0.0000      -0.198832        -5.4105
  83   0.0000      -0.143540        -3.9059
  84   0.0000      -0.115576        -3.1450
  85   0.0000      -0.085724        -2.3327
  86   0.0000      -0.078636        -2.1398

MULLIKEN ATOMIC CHARGES
-----------------------
   0 Ir:    0.613249
   1 C :   -0.276385
   2 C :   -0.239716
   3 C :   -0.287373
   4 C :   -0.209356
   5 C :   -0.150733
   6 N :   -0.438300
   7 C :   -0.126163
   8 C :   -0.676460
   9 H :    0.267761
  10 H :    0.224246
  11 H :    0.250970
  12 C :   -0.631675
  13 H :    0.273205
  14 H :    0.256135
  15 H :    0.233294
  16 H :    0.235033
  17 C :    0.072870
  18 C :   -0.130131
  19 H :    0.283224
  20 C :   -0.563977
  21 C :   -0.102453
  22 S :    0.343760
  23 C :   -0.419350
  24 H :    0.477123
  25 H :    0.267029
  26 H :    0.298106
  27 H :    0.282137
  28 H :    0.277378
  29 H :    0.290893
  30 O :   -0.487308
  31 O :   -0.488951
  32 C :    0.637192
  33 C :   -0.743547
  34 H :    0.275704
  35 H :    0.278902
  36 H :    0.266339
  37 H :    0.277185
  38 H :    0.290140
Sum of atomic charges:    1.0000000

LOEWDIN ATOMIC CHARGES
----------------------
   0 Ir:   -0.265914
   1 C :   -0.072158
   2 C :   -0.097576
   3 C :   -0.107744
   4 C :   -0.037041
   5 C :   -0.028109
   6 N :   -0.006316
   7 C :   -0.069091
   8 C :   -0.361228
   9 H :    0.155496
  10 H :    0.132673
  11 H :    0.142062
  12 C :   -0.344247
  13 H :    0.151637
  14 H :    0.149582
  15 H :    0.138370
  16 H :    0.133837
  17 C :    0.028491
  18 C :   -0.205616
  19 H :    0.159469
  20 C :   -0.204014
  21 C :   -0.138109
  22 S :    0.495707
  23 C :   -0.253913
  24 H :    0.384509
  25 H :    0.162189
  26 H :    0.169717
  27 H :    0.180566
  28 H :    0.176267
  29 H :    0.183632
  30 O :   -0.251939
  31 O :   -0.163877
  32 C :    0.171961
  33 C :   -0.370476
  34 H :    0.166109
  35 H :    0.174300
  36 H :    0.158734
  37 H :    0.179199
  38 H :    0.182858

  Mayer bond orders larger than 0.100000
B(  0-Ir,  1-C ) :   0.4822 B(  0-Ir,  2-C ) :   0.3351 B(  0-Ir,  3-C ) :   0.4802
B(  0-Ir,  4-C ) :   0.4095 B(  0-Ir,  5-C ) :   0.3229 B(  0-Ir,  6-N ) :   0.4666
B(  0-Ir, 20-C ) :   0.6177 B(  0-Ir, 31-O ) :   0.4875 B(  1-C ,  2-C ) :   1.1199
B(  1-C ,  4-C ) :   1.2031 B(  1-C , 27-H ) :   0.9114 B(  2-C ,  5-C ) :   1.2909
B(  2-C , 28-H ) :   0.9100 B(  3-C ,  4-C ) :   1.1659 B(  3-C ,  5-C ) :   1.1367
B(  3-C , 37-H ) :   0.9159 B(  4-C , 38-H ) :   0.9001 B(  5-C , 29-H ) :   0.9041
B(  6-N ,  7-C ) :   0.8974 B(  6-N , 17-C ) :   1.6358 B(  7-C ,  8-C ) :   0.9898
B(  7-C , 12-C ) :   0.9678 B(  7-C , 13-H ) :   0.8805 B(  8-C ,  9-H ) :   0.9054
B(  8-C , 10-H ) :   0.9133 B(  8-C , 11-H ) :   0.9137 B( 12-C , 14-H ) :   0.9082
B( 12-C , 15-H ) :   0.9151 B( 12-C , 16-H ) :   0.9120 B( 17-C , 18-C ) :   1.1284
B( 17-C , 19-H ) :   0.8770 B( 18-C , 20-C ) :   1.2217 B( 18-C , 22-S ) :   1.2210
B( 20-C , 21-C ) :   1.2544 B( 20-C , 24-H ) :   0.2539 B( 21-C , 23-C ) :   1.5229
B( 21-C , 25-H ) :   0.9023 B( 22-S , 23-C ) :   1.2320 B( 23-C , 26-H ) :   0.8919
B( 24-H , 30-O ) :   0.4200 B( 30-O , 32-C ) :   1.4909 B( 31-O , 32-C ) :   1.4399
B( 32-C , 33-C ) :   0.9450 B( 33-C , 34-H ) :   0.8982 B( 33-C , 35-H ) :   0.8907
B( 33-C , 36-H ) :   0.9066

Dispersion correction           -0.030731490
FINAL SINGLE POINT ENERGY     -1288.402857162863

DIPOLE MOMENT
-------------
                                X             Y             Z
Electronic contribution:     37.13151     -76.69396      67.44477
Nuclear contribution   :    -37.65305      76.59583     -67.58423
                        -----------------------------------------
Total Dipole Moment    :     -0.52153      -0.09813      -0.13946
                        -----------------------------------------
Magnitude (a.u.)       :      0.54870
Magnitude (Debye)      :      1.39469

Rotational constants in cm-1:     0.010617     0.008823     0.008252
Rotational constants in MHz :   318.303931   264.499250   247.376230

                             ****ORCA TERMINATED NORMALLY****
TOTAL RUN TIME: 0 days 3 hours 18 minutes 16 seconds 721 msec
