                         Program Version 5.0.3 -  RELEASE  -
|  1> ! Opt PBEh-3c
|  2> %geom Constraints
|  3> { B 0 20 2.257142857142857 C }
|  4> { B 24 30 1.4285714285714286 C }
|  5>     end
|  6> end
|  7> %output
|  8> xyzfile=True
|  9> end
| 10> %scf
| 11> maxiter 250
| 12> end
| 13> %output
| 14> Print[P_Hirshfeld] = 1
| 15> end
| 16> % maxcore
| 17> 4000
| 18> *xyz 1 1
| 19> Ir   0.61682455  -0.71563808   0.44114129
| 20> C    0.09241408  -2.81601654   0.34179457
| 21> C    0.05524948  -2.35549258   1.70525146
| 22> C    2.21074386  -2.10307917   0.91824500
| 23> C    1.40175922  -2.64707519  -0.14750200
| 24> C    1.38341833  -1.95657785   2.05126742
| 25> N   -1.04445205   0.14519058  -0.51838527
| 26> C   -2.31141940   0.42649546   0.17514582
| 27> C   -3.09554742   1.57872351  -0.43407003
| 28> H   -3.91913885   1.83554409   0.23072471
| 29> H   -3.54158375   1.32587252  -1.39695534
| 30> H   -2.48177399   2.47185896  -0.55305143
| 31> C   -3.14477339  -0.84809418   0.24471528
| 32> H   -2.01828152   0.70696606   1.18773528
| 33> H   -4.04907614  -0.66482554   0.82321572
| 34> H   -3.44643447  -1.17819338  -0.75016506
| 35> H   -2.60666551  -1.66146373   0.72924218
| 36> C   -0.87985269   0.38742087  -1.76360242
| 37> C    0.45498466   0.18780087  -2.26713191
| 38> H   -1.68204289   0.75878674  -2.39424580
| 39> C    1.53955712   0.30781565  -1.40035459
| 40> C    2.74763094  -0.04187543  -2.07347839
| 41> S    0.89721656  -0.31668372  -3.82746596
| 42> C    2.55088623  -0.39405347  -3.37230151
| 43> H    1.53250506   1.25340006  -0.64446300
| 44> H    3.72743314   0.02057213  -1.62281408
| 45> H    3.29336615  -0.67323190  -4.10446026
| 46> H   -0.74496177  -3.20533179  -0.21923630
| 47> H   -0.79077486  -2.39135987   2.37518049
| 48> H    1.68389759  -1.53746930   3.00108007
| 49> O    1.41726544   2.42591827   0.18845812
| 50> O    0.54476752   0.95603343   1.61715166
| 51> C    0.96420797   2.12779854   1.29634531
| 52> C    0.90335726   3.15047528   2.39526151
| 53> H    0.86766176   4.15630742   1.98569276
| 54> H    1.80694446   3.07042168   3.00270748
| 55> H    0.05353738   2.98347581   3.05330429
| 56> H    3.26587790  -1.88081537   0.86921010
| 57> H    1.74464207  -2.89041094  -1.14244713
| 58> *
| 59>
| 60>                          ****END OF INPUT****
 Total Charge           Charge          ....    1
 Multiplicity           Mult            ....    1
 Number of Electrons    NEL             ....  164
Dispersion correction           -0.030975294
FINAL SINGLE POINT ENERGY     -1288.400338671934
Dispersion correction            ... done
Dispersion correction           -0.030898654
FINAL SINGLE POINT ENERGY     -1288.400204584321
Dispersion correction            ... done
Dispersion correction           -0.030909520
FINAL SINGLE POINT ENERGY     -1288.399963963390
Dispersion correction            ... done
FINAL SINGLE POINT ENERGY     -1288.400590239693
FINAL SINGLE POINT ENERGY     -1288.400636468127
FINAL SINGLE POINT ENERGY     -1288.400658652419
FINAL SINGLE POINT ENERGY     -1288.400685722900
FINAL SINGLE POINT ENERGY     -1288.400695468502
FINAL SINGLE POINT ENERGY     -1288.400702221405
FINAL SINGLE POINT ENERGY     -1288.400708034681
Dispersion correction            ... done
Dispersion correction           -0.030834282
FINAL SINGLE POINT ENERGY     -1288.400712790038
Dispersion correction            ... done
Dispersion correction           -0.030832149
FINAL SINGLE POINT ENERGY     -1288.400715593494
Dispersion correction            ... done
                    ***********************HURRAY********************

CARTESIAN COORDINATES (ANGSTROEM)
---------------------------------
  Ir     0.618518   -0.717273    0.440956
  C      0.093222   -2.820023    0.352474
  C      0.037134   -2.356729    1.713507
  C      2.203899   -2.104407    0.953755
  C      1.410125   -2.654163   -0.119430
  C      1.358143   -1.952348    2.073853
  N     -1.045612    0.137614   -0.518460
  C     -2.313585    0.406182    0.178419
  C     -3.098220    1.569459   -0.409717
  H     -3.922133    1.813139    0.259567
  H     -3.543703    1.334387   -1.377305
  H     -2.485116    2.465106   -0.512070
  C     -3.147958   -0.868967    0.222855
  H     -2.022580    0.668553    1.196462
  H     -4.053551   -0.696368    0.802717
  H     -3.447683   -1.179961   -0.778756
  H     -2.611418   -1.691950    0.692501
  C     -0.884865    0.395535   -1.762240
  C      0.446444    0.204461   -2.272027
  H     -1.690382    0.774041   -2.384131
  C      1.521661    0.252119   -1.386420
  C      2.732941   -0.067652   -2.069081
  S      0.899177   -0.202921   -3.856867
  C      2.545795   -0.330045   -3.390932
  H      1.539770    1.220920   -0.630379
  H      3.709001   -0.047389   -1.606581
  H      3.293298   -0.569355   -4.132005
  H     -0.735325   -3.213086   -0.218930
  H     -0.817771   -2.390623    2.371984
  H      1.645126   -1.528082    3.025584
  O      1.468473    2.400363    0.172521
  O      0.545678    0.967676    1.605878
  C      0.989582    2.125426    1.278396
  C      0.929154    3.168398    2.357417
  H      0.904971    4.167209    1.930142
  H      1.827710    3.091617    2.972616
  H      0.072839    3.019218    3.011099
  H      3.260446   -1.886352    0.921305
  H      1.766163   -2.904538   -1.107940

 Multiplicity           Mult            ....    1
 Number of Electrons    NEL             ....  164
 Basis Dimension        Dim             ....  358

ORBITAL ENERGIES
----------------

  NO   OCC          E(Eh)            E(eV)
   0   2.0000     -89.765859     -2442.6532
   1   2.0000     -19.626194      -534.0559
   2   2.0000     -19.600277      -533.3506
   3   2.0000     -14.838455      -403.7749
   4   2.0000     -10.685227      -290.7598
   5   2.0000     -10.659247      -290.0529
   6   2.0000     -10.631329      -289.2932
   7   2.0000     -10.630725      -289.2767
   8   2.0000     -10.630220      -289.2630
   9   2.0000     -10.626410      -289.1593
  10   2.0000     -10.623434      -289.0783
  11   2.0000     -10.621846      -289.0351
  12   2.0000     -10.614356      -288.8313
  13   2.0000     -10.611327      -288.7489
  14   2.0000     -10.588623      -288.1311
  15   2.0000     -10.586834      -288.0824
  16   2.0000     -10.555508      -287.2300
  17   2.0000     -10.551170      -287.1119
  18   2.0000     -10.536674      -286.7175
  19   2.0000      -8.405263      -228.7188
  20   2.0000      -6.295176      -171.3004
  21   2.0000      -6.291575      -171.2025
  22   2.0000      -6.290212      -171.1654
  23   2.0000      -4.024848      -109.5217
  24   2.0000      -2.343023       -63.7569
  25   2.0000      -2.310003       -62.8584
  26   2.0000      -2.308276       -62.8114
  27   2.0000      -1.311533       -35.6886
  28   2.0000      -1.214024       -33.0353
  29   2.0000      -1.210245       -32.9324
  30   2.0000      -1.166939       -31.7540
  31   2.0000      -1.129052       -30.7231
  32   2.0000      -1.026206       -27.9245
  33   2.0000      -0.980531       -26.6816
  34   2.0000      -0.972580       -26.4653
  35   2.0000      -0.968985       -26.3674
  36   2.0000      -0.960961       -26.1491
  37   2.0000      -0.930774       -25.3277
  38   2.0000      -0.901679       -24.5359
  39   2.0000      -0.874171       -23.7874
  40   2.0000      -0.799403       -21.7529
  41   2.0000      -0.783459       -21.3190
  42   2.0000      -0.782862       -21.3027
  43   2.0000      -0.781422       -21.2636
  44   2.0000      -0.767303       -20.8794
  45   2.0000      -0.756187       -20.5769
  46   2.0000      -0.743244       -20.2247
  47   2.0000      -0.723272       -19.6812
  48   2.0000      -0.691455       -18.8154
  49   2.0000      -0.678389       -18.4599
  50   2.0000      -0.664438       -18.0803
  51   2.0000      -0.650871       -17.7111
  52   2.0000      -0.647465       -17.6184
  53   2.0000      -0.636184       -17.3114
  54   2.0000      -0.635131       -17.2828
  55   2.0000      -0.630701       -17.1622
  56   2.0000      -0.622585       -16.9414
  57   2.0000      -0.612210       -16.6591
  58   2.0000      -0.602856       -16.4046
  59   2.0000      -0.602324       -16.3901
  60   2.0000      -0.599674       -16.3180
  61   2.0000      -0.591383       -16.0924
  62   2.0000      -0.580018       -15.7831
  63   2.0000      -0.571160       -15.5421
  64   2.0000      -0.563714       -15.3394
  65   2.0000      -0.559329       -15.2201
  66   2.0000      -0.551722       -15.0131
  67   2.0000      -0.548199       -14.9172
  68   2.0000      -0.540574       -14.7098
  69   2.0000      -0.536443       -14.5974
  70   2.0000      -0.528280       -14.3752
  71   2.0000      -0.518935       -14.1209
  72   2.0000      -0.514667       -14.0048
  73   2.0000      -0.501130       -13.6364
  74   2.0000      -0.489589       -13.3224
  75   2.0000      -0.480945       -13.0872
  76   2.0000      -0.475453       -12.9377
  77   2.0000      -0.445892       -12.1333
  78   2.0000      -0.444408       -12.0929
  79   2.0000      -0.422076       -11.4853
  80   2.0000      -0.417062       -11.3488
  81   2.0000      -0.399161       -10.8617
  82   0.0000      -0.205396        -5.5891
  83   0.0000      -0.148749        -4.0477
  84   0.0000      -0.141599        -3.8531
  85   0.0000      -0.092291        -2.5114
  86   0.0000      -0.075456        -2.0533

MULLIKEN ATOMIC CHARGES
-----------------------
   0 Ir:    0.607219
   1 C :   -0.219490
   2 C :   -0.275865
   3 C :   -0.251016
   4 C :   -0.239638
   5 C :   -0.160929
   6 N :   -0.428881
   7 C :   -0.126866
   8 C :   -0.685262
   9 H :    0.270300
  10 H :    0.224286
  11 H :    0.258709
  12 C :   -0.635028
  13 H :    0.282596
  14 H :    0.261996
  15 H :    0.231213
  16 H :    0.232237
  17 C :    0.071427
  18 C :   -0.146824
  19 H :    0.288505
  20 C :   -0.518784
  21 C :   -0.112134
  22 S :    0.328417
  23 C :   -0.432016
  24 H :    0.486528
  25 H :    0.266771
  26 H :    0.298512
  27 H :    0.288025
  28 H :    0.287423
  29 H :    0.303244
  30 O :   -0.476877
  31 O :   -0.529344
  32 C :    0.621264
  33 C :   -0.744242
  34 H :    0.270282
  35 H :    0.268693
  36 H :    0.255263
  37 H :    0.287281
  38 H :    0.293004
Sum of atomic charges:    1.0000000

LOEWDIN ATOMIC CHARGES
----------------------
   0 Ir:   -0.244984
   1 C :   -0.045787
   2 C :   -0.082241
   3 C :   -0.073105
   4 C :   -0.052273
   5 C :   -0.017626
   6 N :   -0.002304
   7 C :   -0.069930
   8 C :   -0.363005
   9 H :    0.156706
  10 H :    0.132899
  11 H :    0.145814
  12 C :   -0.343559
  13 H :    0.156487
  14 H :    0.152134
  15 H :    0.137276
  16 H :    0.133279
  17 C :    0.031862
  18 C :   -0.178576
  19 H :    0.161765
  20 C :   -0.210092
  21 C :   -0.125894
  22 S :    0.489947
  23 C :   -0.261708
  24 H :    0.318892
  25 H :    0.162890
  26 H :    0.168984
  27 H :    0.183298
  28 H :    0.182961
  29 H :    0.191548
  30 O :   -0.270056
  31 O :   -0.199594
  32 C :    0.155781
  33 C :   -0.374310
  34 H :    0.160571
  35 H :    0.168547
  36 H :    0.154276
  37 H :    0.184109
  38 H :    0.185018

  Mayer bond orders larger than 0.100000
B(  0-Ir,  1-C ) :   0.4191 B(  0-Ir,  2-C ) :   0.4761 B(  0-Ir,  3-C ) :   0.4609
B(  0-Ir,  4-C ) :   0.4417 B(  0-Ir,  5-C ) :   0.3956 B(  0-Ir,  6-N ) :   0.4637
B(  0-Ir, 20-C ) :   0.3597 B(  0-Ir, 31-O ) :   0.5587 B(  1-C ,  2-C ) :   1.1273
B(  1-C ,  4-C ) :   1.2412 B(  1-C , 27-H ) :   0.9053 B(  2-C ,  5-C ) :   1.1588
B(  2-C , 28-H ) :   0.9095 B(  3-C ,  4-C ) :   1.1149 B(  3-C ,  5-C ) :   1.2151
B(  3-C , 37-H ) :   0.9092 B(  4-C , 38-H ) :   0.9006 B(  5-C , 29-H ) :   0.8990
B(  6-N ,  7-C ) :   0.8928 B(  6-N , 17-C ) :   1.6682 B(  7-C ,  8-C ) :   0.9908
B(  7-C , 12-C ) :   0.9673 B(  7-C , 13-H ) :   0.8737 B(  8-C ,  9-H ) :   0.9043
B(  8-C , 10-H ) :   0.9132 B(  8-C , 11-H ) :   0.9097 B( 12-C , 14-H ) :   0.9070
B( 12-C , 15-H ) :   0.9156 B( 12-C , 16-H ) :   0.9123 B( 17-C , 18-C ) :   1.0853
B( 17-C , 19-H ) :   0.8757 B( 18-C , 20-C ) :   1.2535 B( 18-C , 22-S ) :   1.2478
B( 20-C , 21-C ) :   1.2646 B( 20-C , 24-H ) :   0.4259 B( 21-C , 23-C ) :   1.5511
B( 21-C , 25-H ) :   0.9037 B( 22-S , 23-C ) :   1.2063 B( 23-C , 26-H ) :   0.8913
B( 24-H , 30-O ) :   0.2789 B( 30-O , 32-C ) :   1.6521 B( 31-O , 32-C ) :   1.3093
B( 32-C , 33-C ) :   0.9454 B( 33-C , 34-H ) :   0.9040 B( 33-C , 35-H ) :   0.8973
B( 33-C , 36-H ) :   0.9089

Dispersion correction           -0.030829272
FINAL SINGLE POINT ENERGY     -1288.400718068003

DIPOLE MOMENT
-------------
                                X             Y             Z
Electronic contribution:     38.15340     -69.38356      72.56019
Nuclear contribution   :    -38.77731      68.42511     -72.92111
                        -----------------------------------------
Total Dipole Moment    :     -0.62390      -0.95846      -0.36093
                        -----------------------------------------
Magnitude (a.u.)       :      1.19924
Magnitude (Debye)      :      3.04821

Rotational constants in cm-1:     0.010581     0.009064     0.008203
Rotational constants in MHz :   317.220051   271.741052   245.907587

                             ****ORCA TERMINATED NORMALLY****
TOTAL RUN TIME: 0 days 1 hours 33 minutes 46 seconds 636 msec
