                         Program Version 5.0.3 -  RELEASE  -
|  1> ! Opt PBEh-3c
|  2> %geom Constraints
|  3> { B 0 20 2.5571428571428574 C }
|  4> { B 24 30 1.4285714285714286 C }
|  5>     end
|  6> end
|  7> %output
|  8> xyzfile=True
|  9> end
| 10> %scf
| 11> maxiter 250
| 12> end
| 13> %output
| 14> Print[P_Hirshfeld] = 1
| 15> end
| 16> % maxcore
| 17> 4000
| 18> *xyz 1 1
| 19> Ir   0.57330541  -0.73319431   0.48215342
| 20> C    0.02019983  -2.81149498   0.34213434
| 21> C    0.11027351  -2.37257144   1.71507702
| 22> C    2.18891275  -2.14661624   0.75598521
| 23> C    1.28098582  -2.64219796  -0.25470561
| 24> C    1.48111221  -2.02249883   1.96298719
| 25> N   -1.04028663   0.17537122  -0.51053575
| 26> C   -2.31403846   0.51750549   0.14204588
| 27> C   -3.13210978   1.54605477  -0.62141046
| 28> H   -3.96700673   1.86324768   0.00181640
| 29> H   -3.56455921   1.14782573  -1.54076303
| 30> H   -2.55137306   2.43728826  -0.86144195
| 31> C   -3.11250827  -0.75367677   0.40285708
| 32> H   -2.02474027   0.94969964   1.10157810
| 33> H   -4.02881599  -0.50556260   0.93626404
| 34> H   -3.39347970  -1.24397663  -0.53021926
| 35> H   -2.56420121  -1.46469161   1.01936895
| 36> C   -0.82298587   0.37709535  -1.75161026
| 37> C    0.53085650   0.14766883  -2.21476075
| 38> H   -1.59582529   0.73784257  -2.42461316
| 39> C    1.64389988   0.56789630  -1.49799575
| 40> C    2.84026706   0.14168304  -2.14257775
| 41> S    0.93891170  -0.69058763  -3.64960287
| 42> C    2.61277552  -0.53706707  -3.29847832
| 43> H    1.55173367   1.41944105  -0.69631383
| 44> H    3.83140524   0.37853083  -1.78395626
| 45> H    3.34172725  -0.94109279  -3.98466965
| 46> H   -0.87299050  -3.16713199  -0.15108384
| 47> H   -0.67521935  -2.41213128   2.45572276
| 48> H    1.87433147  -1.64226512   2.89484132
| 49> O    1.28080100   2.44947194   0.27706614
| 50> O    0.54090960   0.89108729   1.69301504
| 51> C    0.89580702   2.09815787   1.38738121
| 52> C    0.83495382   3.06866269   2.53374451
| 53> H    0.78212721   4.09045078   2.16790543
| 54> H    1.74431576   2.97389408   3.13041743
| 55> H   -0.00565837   2.86469822   3.19379815
| 56> H    3.23169665  -1.90975298   0.60418688
| 57> H    1.53385980  -2.84787337  -1.28486789
| 58> *
| 59>
| 60>                          ****END OF INPUT****
 Total Charge           Charge          ....    1
 Multiplicity           Mult            ....    1
 Number of Electrons    NEL             ....  164
Dispersion correction           -0.030991404
FINAL SINGLE POINT ENERGY     -1288.395960847924
Dispersion correction            ... done
Dispersion correction           -0.030997187
FINAL SINGLE POINT ENERGY     -1288.394809305868
Dispersion correction            ... done
Dispersion correction           -0.030953818
FINAL SINGLE POINT ENERGY     -1288.396020659921
Dispersion correction            ... done
FINAL SINGLE POINT ENERGY     -1288.394532815458
FINAL SINGLE POINT ENERGY     -1288.396079653319
FINAL SINGLE POINT ENERGY     -1288.396095599755
Dispersion correction            ... done
Dispersion correction           -0.030898675
FINAL SINGLE POINT ENERGY     -1288.396104337142
Dispersion correction            ... done
Dispersion correction           -0.030898072
FINAL SINGLE POINT ENERGY     -1288.396109268331
Dispersion correction            ... done
                    ***********************HURRAY********************

CARTESIAN COORDINATES (ANGSTROEM)
---------------------------------
  Ir     0.576886   -0.730579    0.472650
  C      0.020501   -2.809216    0.345990
  C      0.109917   -2.365965    1.716846
  C      2.189841   -2.145384    0.756990
  C      1.282157   -2.644877   -0.251678
  C      1.480133   -2.014027    1.962605
  N     -1.043394    0.172797   -0.515377
  C     -2.316491    0.510227    0.140648
  C     -3.136600    1.542110   -0.616256
  H     -3.970947    1.855334    0.009739
  H     -3.570015    1.148484   -1.537142
  H     -2.557112    2.435209   -0.852393
  C     -3.114218   -0.762514    0.396217
  H     -2.026130    0.937837    1.101895
  H     -4.029886   -0.517233    0.932046
  H     -3.396275   -1.248252   -0.538908
  H     -2.564792   -1.476306    1.008393
  C     -0.829579    0.378593   -1.756753
  C      0.524126    0.153934   -2.220265
  H     -1.604144    0.739836   -2.427381
  C      1.632025    0.543031   -1.477627
  C      2.832230    0.124528   -2.121085
  S      0.940751   -0.649541   -3.670763
  C      2.612159   -0.519530   -3.297971
  H      1.545645    1.407552   -0.675936
  H      3.821299    0.343560   -1.745712
  H      3.345142   -0.909478   -3.988003
  H     -0.872763   -3.165816   -0.146444
  H     -0.675663   -2.402430    2.457421
  H      1.873059   -1.629367    2.892767
  O      1.304785    2.448669    0.272156
  O      0.536289    0.898859    1.681485
  C      0.906116    2.100592    1.380234
  C      0.847081    3.073708    2.524182
  H      0.804449    4.095408    2.156794
  H      1.752541    2.972344    3.125713
  H      0.001314    2.877148    3.179839
  H      3.233505   -1.912248    0.606006
  H      1.535430   -2.857810   -1.280185

 Multiplicity           Mult            ....    1
 Number of Electrons    NEL             ....  164
 Basis Dimension        Dim             ....  358

ORBITAL ENERGIES
----------------

  NO   OCC          E(Eh)            E(eV)
   0   2.0000     -89.759929     -2442.4918
   1   2.0000     -19.622906      -533.9664
   2   2.0000     -19.584624      -532.9247
   3   2.0000     -14.841624      -403.8611
   4   2.0000     -10.679373      -290.6005
   5   2.0000     -10.662610      -290.1444
   6   2.0000     -10.639244      -289.5085
   7   2.0000     -10.636864      -289.4438
   8   2.0000     -10.635298      -289.4012
   9   2.0000     -10.634160      -289.3702
  10   2.0000     -10.632817      -289.3337
  11   2.0000     -10.631106      -289.2871
  12   2.0000     -10.616865      -288.8996
  13   2.0000     -10.608821      -288.6807
  14   2.0000     -10.581924      -287.9488
  15   2.0000     -10.580300      -287.9046
  16   2.0000     -10.557679      -287.2890
  17   2.0000     -10.552562      -287.1498
  18   2.0000     -10.531720      -286.5827
  19   2.0000      -8.399223      -228.5545
  20   2.0000      -6.289334      -171.1415
  21   2.0000      -6.285690      -171.0423
  22   2.0000      -6.283898      -170.9936
  23   2.0000      -4.031960      -109.7152
  24   2.0000      -2.351392       -63.9846
  25   2.0000      -2.316912       -63.0464
  26   2.0000      -2.315361       -63.0042
  27   2.0000      -1.303326       -35.4653
  28   2.0000      -1.213908       -33.0321
  29   2.0000      -1.207082       -32.8464
  30   2.0000      -1.175807       -31.9953
  31   2.0000      -1.124665       -30.6037
  32   2.0000      -1.027195       -27.9514
  33   2.0000      -0.990721       -26.9589
  34   2.0000      -0.980771       -26.6881
  35   2.0000      -0.964125       -26.2352
  36   2.0000      -0.958391       -26.0791
  37   2.0000      -0.925589       -25.1866
  38   2.0000      -0.904159       -24.6034
  39   2.0000      -0.873432       -23.7673
  40   2.0000      -0.797345       -21.6969
  41   2.0000      -0.791617       -21.5410
  42   2.0000      -0.789791       -21.4913
  43   2.0000      -0.780568       -21.2403
  44   2.0000      -0.774346       -21.0710
  45   2.0000      -0.755801       -20.5664
  46   2.0000      -0.744550       -20.2602
  47   2.0000      -0.722419       -19.6580
  48   2.0000      -0.695214       -18.9177
  49   2.0000      -0.672508       -18.2999
  50   2.0000      -0.665449       -18.1078
  51   2.0000      -0.652260       -17.7489
  52   2.0000      -0.649078       -17.6623
  53   2.0000      -0.641403       -17.4535
  54   2.0000      -0.637050       -17.3350
  55   2.0000      -0.628995       -17.1158
  56   2.0000      -0.624259       -16.9870
  57   2.0000      -0.612354       -16.6630
  58   2.0000      -0.611002       -16.6262
  59   2.0000      -0.609093       -16.5743
  60   2.0000      -0.596626       -16.2350
  61   2.0000      -0.587656       -15.9909
  62   2.0000      -0.576495       -15.6872
  63   2.0000      -0.570527       -15.5248
  64   2.0000      -0.563587       -15.3360
  65   2.0000      -0.554257       -15.0821
  66   2.0000      -0.552673       -15.0390
  67   2.0000      -0.548565       -14.9272
  68   2.0000      -0.539233       -14.6733
  69   2.0000      -0.534658       -14.5488
  70   2.0000      -0.528190       -14.3728
  71   2.0000      -0.522104       -14.2072
  72   2.0000      -0.516355       -14.0507
  73   2.0000      -0.507830       -13.8188
  74   2.0000      -0.489219       -13.3123
  75   2.0000      -0.481194       -13.0939
  76   2.0000      -0.463918       -12.6238
  77   2.0000      -0.451084       -12.2746
  78   2.0000      -0.440491       -11.9864
  79   2.0000      -0.423344       -11.5198
  80   2.0000      -0.417221       -11.3532
  81   2.0000      -0.404521       -11.0076
  82   0.0000      -0.200783        -5.4636
  83   0.0000      -0.166490        -4.5304
  84   0.0000      -0.142232        -3.8703
  85   0.0000      -0.101868        -2.7720
  86   0.0000      -0.077011        -2.0956

MULLIKEN ATOMIC CHARGES
-----------------------
   0 Ir:    0.622346
   1 C :   -0.207536
   2 C :   -0.296866
   3 C :   -0.230413
   4 C :   -0.245297
   5 C :   -0.165384
   6 N :   -0.425646
   7 C :   -0.115435
   8 C :   -0.696452
   9 H :    0.273562
  10 H :    0.226422
  11 H :    0.260816
  12 C :   -0.640573
  13 H :    0.281158
  14 H :    0.265520
  15 H :    0.230944
  16 H :    0.233269
  17 C :    0.066980
  18 C :   -0.224724
  19 H :    0.292997
  20 C :   -0.395889
  21 C :   -0.144244
  22 S :    0.290579
  23 C :   -0.428348
  24 H :    0.496037
  25 H :    0.266913
  26 H :    0.296572
  27 H :    0.293223
  28 H :    0.294741
  29 H :    0.307799
  30 O :   -0.482070
  31 O :   -0.545297
  32 C :    0.612230
  33 C :   -0.746133
  34 H :    0.268721
  35 H :    0.265069
  36 H :    0.251412
  37 H :    0.296878
  38 H :    0.296118
Sum of atomic charges:    1.0000000

LOEWDIN ATOMIC CHARGES
----------------------
   0 Ir:   -0.207972
   1 C :   -0.038802
   2 C :   -0.054272
   3 C :   -0.045497
   4 C :   -0.055047
   5 C :   -0.026472
   6 N :   -0.007379
   7 C :   -0.068077
   8 C :   -0.365072
   9 H :    0.157851
  10 H :    0.134188
  11 H :    0.146993
  12 C :   -0.343450
  13 H :    0.156665
  14 H :    0.153401
  15 H :    0.137349
  16 H :    0.134603
  17 C :    0.037071
  18 C :   -0.190237
  19 H :    0.163327
  20 C :   -0.181119
  21 C :   -0.145356
  22 S :    0.455499
  23 C :   -0.262481
  24 H :    0.277882
  25 H :    0.162133
  26 H :    0.167440
  27 H :    0.186342
  28 H :    0.186896
  29 H :    0.194354
  30 O :   -0.277596
  31 O :   -0.211238
  32 C :    0.152789
  33 C :   -0.377155
  34 H :    0.159085
  35 H :    0.166252
  36 H :    0.152355
  37 H :    0.188513
  38 H :    0.186235

  Mayer bond orders larger than 0.100000
B(  0-Ir,  1-C ) :   0.4209 B(  0-Ir,  2-C ) :   0.5564 B(  0-Ir,  3-C ) :   0.4644
B(  0-Ir,  4-C ) :   0.4519 B(  0-Ir,  5-C ) :   0.4032 B(  0-Ir,  6-N ) :   0.4638
B(  0-Ir, 20-C ) :   0.2079 B(  0-Ir, 31-O ) :   0.5945 B(  1-C ,  2-C ) :   1.1118
B(  1-C ,  4-C ) :   1.2476 B(  1-C , 27-H ) :   0.9027 B(  2-C ,  5-C ) :   1.1287
B(  2-C , 28-H ) :   0.9061 B(  3-C ,  4-C ) :   1.1032 B(  3-C ,  5-C ) :   1.2357
B(  3-C , 37-H ) :   0.9021 B(  4-C , 38-H ) :   0.8971 B(  5-C , 29-H ) :   0.8974
B(  6-N ,  7-C ) :   0.8907 B(  6-N , 17-C ) :   1.7018 B(  7-C ,  8-C ) :   0.9929
B(  7-C , 12-C ) :   0.9697 B(  7-C , 13-H ) :   0.8710 B(  8-C ,  9-H ) :   0.9031
B(  8-C , 10-H ) :   0.9121 B(  8-C , 11-H ) :   0.9077 B( 12-C , 14-H ) :   0.9061
B( 12-C , 15-H ) :   0.9152 B( 12-C , 16-H ) :   0.9104 B( 17-C , 18-C ) :   1.0441
B( 17-C , 19-H ) :   0.8735 B( 18-C , 20-C ) :   1.3110 B( 18-C , 22-S ) :   1.2125
B( 20-C , 21-C ) :   1.2633 B( 20-C , 24-H ) :   0.5105 B( 21-C , 23-C ) :   1.5477
B( 21-C , 25-H ) :   0.9040 B( 22-S , 23-C ) :   1.2009 B( 23-C , 26-H ) :   0.8928
B( 24-H , 30-O ) :   0.2149 B( 30-O , 32-C ) :   1.7149 B( 31-O , 32-C ) :   1.2589
B( 32-C , 33-C ) :   0.9464 B( 33-C , 34-H ) :   0.9057 B( 33-C , 35-H ) :   0.8995
B( 33-C , 36-H ) :   0.9099

Dispersion correction           -0.030891990
FINAL SINGLE POINT ENERGY     -1288.396113739869

DIPOLE MOMENT
-------------
                                X             Y             Z
Electronic contribution:     33.88587     -68.01418      74.26134
Nuclear contribution   :    -34.52715      66.71290     -74.47788
                        -----------------------------------------
Total Dipole Moment    :     -0.64128      -1.30128      -0.21654
                        -----------------------------------------
Magnitude (a.u.)       :      1.46679
Magnitude (Debye)      :      3.72828

Rotational constants in cm-1:     0.010747     0.009068     0.008251
Rotational constants in MHz :   322.189875   271.864705   247.347610

                             ****ORCA TERMINATED NORMALLY****
TOTAL RUN TIME: 0 days 1 hours 13 minutes 33 seconds 112 msec
