                         Program Version 5.0.3 -  RELEASE  -
|  1> ! Opt PBEh-3c
|  2> %geom Constraints
|  3> { B 0 20 2.085714285714286 C }
|  4> { B 24 30 1.3142857142857143 C }
|  5>     end
|  6> end
|  7> %output
|  8> xyzfile=True
|  9> end
| 10> %scf
| 11> maxiter 250
| 12> end
| 13> %output
| 14> Print[P_Hirshfeld] = 1
| 15> end
| 16> % maxcore
| 17> 4000
| 18> %pal nprocs 2
| 19> end
| 20> *xyz 1 1
| 21> Ir   0.60771117  -0.74367235   0.42824312
| 22> C    0.12760266  -2.85255013   0.36415854
| 23> C   -0.10641916  -2.39404299   1.70930613
| 24> C    2.13196425  -2.07789504   1.21326582
| 25> C    1.49963095  -2.67532723   0.07117476
| 26> C    1.13126271  -1.93640140   2.21579100
| 27> N   -1.07213546   0.10447962  -0.50936809
| 28> C   -2.34928087   0.28756706   0.19707601
| 29> C   -3.14382632   1.49765297  -0.27364953
| 30> H   -3.97842345   1.65677806   0.40727921
| 31> H   -3.57359508   1.36368245  -1.26724521
| 32> H   -2.54162499   2.40651494  -0.27132590
| 33> C   -3.17144364  -0.99222279   0.09507199
| 34> H   -2.07603093   0.44888820   1.24106905
| 35> H   -4.08242673  -0.89758027   0.68476937
| 36> H   -3.46134057  -1.19093903  -0.93749663
| 37> H   -2.62815772  -1.85914174   0.46746206
| 38> C   -0.91802345   0.47708357  -1.72757233
| 39> C    0.39846433   0.31701098  -2.26457208
| 40> H   -1.72854281   0.91413373  -2.30184668
| 41> C    1.43133731   0.03749060  -1.37237924
| 42> C    2.64603571  -0.17360482  -2.09149855
| 43> S    0.89388853   0.35290256  -3.88932491
| 44> C    2.49990630  -0.02698262  -3.43912702
| 45> H    1.65294445   1.17262208  -0.63206028
| 46> H    3.60097062  -0.36985027  -1.62568368
| 47> H    3.26417647  -0.10605008  -4.19736465
| 48> H   -0.60469378  -3.29088512  -0.29802163
| 49> H   -1.03713395  -2.43794543   2.25382227
| 50> H    1.28077346  -1.48519300   3.18657908
| 51> O    1.76950715   2.28661372   0.08245899
| 52> O    0.58344528   1.03929852   1.49358089
| 53> C    1.16316771   2.11444647   1.16617933
| 54> C    1.14271514   3.24348819   2.15155846
| 55> H    1.00980761   4.19512979   1.64162401
| 56> H    2.10646372   3.28447620   2.66200131
| 57> H    0.36558112   3.10694356   2.89783160
| 58> H    3.18203341  -1.85750337   1.32681060
| 59> H    1.98307888  -2.94022560  -0.85783718
| 60> *
| 61>
| 62>                          ****END OF INPUT****
 Total Charge           Charge          ....    1
 Multiplicity           Mult            ....    1
 Number of Electrons    NEL             ....  164
Dispersion correction           -0.030699544
FINAL SINGLE POINT ENERGY     -1288.405579124859
Dispersion correction            ... done
Dispersion correction           -0.030665792
FINAL SINGLE POINT ENERGY     -1288.405820721114
Dispersion correction            ... done
Dispersion correction           -0.030652093
FINAL SINGLE POINT ENERGY     -1288.405919794542
Dispersion correction            ... done
FINAL SINGLE POINT ENERGY     -1288.405979737988
FINAL SINGLE POINT ENERGY     -1288.406036188436
FINAL SINGLE POINT ENERGY     -1288.406071811471
FINAL SINGLE POINT ENERGY     -1288.406096091018
FINAL SINGLE POINT ENERGY     -1288.406108965805
FINAL SINGLE POINT ENERGY     -1288.406119463686
FINAL SINGLE POINT ENERGY     -1288.406125123722
FINAL SINGLE POINT ENERGY     -1288.406128591799
FINAL SINGLE POINT ENERGY     -1288.406130167679
FINAL SINGLE POINT ENERGY     -1288.406131271673
Dispersion correction            ... done
Dispersion correction           -0.030612498
FINAL SINGLE POINT ENERGY     -1288.406132770633
Dispersion correction            ... done
Dispersion correction           -0.030613375
FINAL SINGLE POINT ENERGY     -1288.406134929851
Dispersion correction            ... done
                    ***********************HURRAY********************

CARTESIAN COORDINATES (ANGSTROEM)
---------------------------------
  Ir     0.609402   -0.748177    0.414798
  C      0.160943   -2.860106    0.344837
  C     -0.130826   -2.420152    1.686420
  C      2.116326   -2.055304    1.275621
  C      1.544298   -2.665476    0.112763
  C      1.070308   -1.940778    2.242011
  N     -1.081004    0.096279   -0.505672
  C     -2.356167    0.264302    0.207475
  C     -3.143716    1.493365   -0.223819
  H     -3.978173    1.634821    0.461164
  H     -3.573030    1.395332   -1.221807
  H     -2.535789    2.397787   -0.191114
  C     -3.184507   -1.007801    0.066550
  H     -2.081341    0.391725    1.255741
  H     -4.089305   -0.932624    0.668470
  H     -3.485099   -1.167042   -0.969800
  H     -2.639751   -1.889899    0.399425
  C     -0.933220    0.484517   -1.719987
  C      0.380509    0.324330   -2.260907
  H     -1.745269    0.931009   -2.284609
  C      1.398660   -0.009956   -1.369104
  C      2.619241   -0.203399   -2.085348
  S      0.894742    0.428549   -3.877113
  C      2.489623    0.007273   -3.426673
  H      1.655816    1.198015   -0.678838
  H      3.566314   -0.436298   -1.620216
  H      3.261590   -0.048250   -4.179212
  H     -0.534145   -3.316480   -0.344569
  H     -1.083939   -2.476364    2.189387
  H      1.171654   -1.490988    3.219535
  O      1.780681    2.298100    0.029377
  O      0.611781    1.054210    1.459212
  C      1.187387    2.124504    1.124799
  C      1.189401    3.258008    2.104608
  H      1.058390    4.209242    1.593551
  H      2.159426    3.291805    2.603694
  H      0.420223    3.129867    2.860515
  H      3.157895   -1.823444    1.435261
  H      2.070040   -2.921311   -0.795687

 Multiplicity           Mult            ....    1
 Number of Electrons    NEL             ....  164
 Basis Dimension        Dim             ....  358

ORBITAL ENERGIES
----------------

  NO   OCC          E(Eh)            E(eV)
   0   2.0000     -89.760599     -2442.5101
   1   2.0000     -19.642484      -534.4992
   2   2.0000     -19.640558      -534.4468
   3   2.0000     -14.829911      -403.5424
   4   2.0000     -10.707234      -291.3586
   5   2.0000     -10.651652      -289.8462
   6   2.0000     -10.621803      -289.0340
   7   2.0000     -10.621318      -289.0207
   8   2.0000     -10.620118      -288.9881
   9   2.0000     -10.618447      -288.9426
  10   2.0000     -10.611754      -288.7605
  11   2.0000     -10.611356      -288.7497
  12   2.0000     -10.608720      -288.6779
  13   2.0000     -10.608021      -288.6589
  14   2.0000     -10.590056      -288.1701
  15   2.0000     -10.587188      -288.0920
  16   2.0000     -10.551574      -287.1229
  17   2.0000     -10.550766      -287.1009
  18   2.0000     -10.549613      -287.0696
  19   2.0000      -8.399957      -228.5745
  20   2.0000      -6.289844      -171.1554
  21   2.0000      -6.286345      -171.0601
  22   2.0000      -6.284887      -171.0205
  23   2.0000      -4.017086      -109.3105
  24   2.0000      -2.333629       -63.5013
  25   2.0000      -2.303892       -62.6921
  26   2.0000      -2.299945       -62.5847
  27   2.0000      -1.336757       -36.3750
  28   2.0000      -1.238498       -33.7012
  29   2.0000      -1.203551       -32.7503
  30   2.0000      -1.156474       -31.4693
  31   2.0000      -1.125006       -30.6130
  32   2.0000      -1.022294       -27.8180
  33   2.0000      -0.969758       -26.3885
  34   2.0000      -0.966558       -26.3014
  35   2.0000      -0.962421       -26.1888
  36   2.0000      -0.956458       -26.0265
  37   2.0000      -0.946701       -25.7610
  38   2.0000      -0.898724       -24.4555
  39   2.0000      -0.869367       -23.6567
  40   2.0000      -0.795631       -21.6502
  41   2.0000      -0.780032       -21.2258
  42   2.0000      -0.774320       -21.0703
  43   2.0000      -0.772801       -21.0290
  44   2.0000      -0.767976       -20.8977
  45   2.0000      -0.757802       -20.6209
  46   2.0000      -0.740705       -20.1556
  47   2.0000      -0.721329       -19.6284
  48   2.0000      -0.699723       -19.0404
  49   2.0000      -0.683484       -18.5986
  50   2.0000      -0.668037       -18.1782
  51   2.0000      -0.663620       -18.0580
  52   2.0000      -0.652181       -17.7467
  53   2.0000      -0.637575       -17.3493
  54   2.0000      -0.628711       -17.1081
  55   2.0000      -0.624167       -16.9845
  56   2.0000      -0.619745       -16.8641
  57   2.0000      -0.608684       -16.5631
  58   2.0000      -0.598271       -16.2798
  59   2.0000      -0.594159       -16.1679
  60   2.0000      -0.592942       -16.1348
  61   2.0000      -0.589642       -16.0450
  62   2.0000      -0.577151       -15.7051
  63   2.0000      -0.574464       -15.6320
  64   2.0000      -0.561902       -15.2901
  65   2.0000      -0.560135       -15.2421
  66   2.0000      -0.559441       -15.2232
  67   2.0000      -0.544426       -14.8146
  68   2.0000      -0.542460       -14.7611
  69   2.0000      -0.535669       -14.5763
  70   2.0000      -0.529125       -14.3982
  71   2.0000      -0.517837       -14.0911
  72   2.0000      -0.512306       -13.9405
  73   2.0000      -0.505635       -13.7590
  74   2.0000      -0.500503       -13.6194
  75   2.0000      -0.488256       -13.2861
  76   2.0000      -0.475382       -12.9358
  77   2.0000      -0.452916       -12.3245
  78   2.0000      -0.443077       -12.0567
  79   2.0000      -0.415503       -11.3064
  80   2.0000      -0.413883       -11.2623
  81   2.0000      -0.392060       -10.6685
  82   0.0000      -0.198546        -5.4027
  83   0.0000      -0.142817        -3.8863
  84   0.0000      -0.123695        -3.3659
  85   0.0000      -0.084434        -2.2976
  86   0.0000      -0.077418        -2.1067

MULLIKEN ATOMIC CHARGES
-----------------------
   0 Ir:    0.607691
   1 C :   -0.261295
   2 C :   -0.250718
   3 C :   -0.280243
   4 C :   -0.215022
   5 C :   -0.152102
   6 N :   -0.438247
   7 C :   -0.125819
   8 C :   -0.678338
   9 H :    0.268017
  10 H :    0.224485
  11 H :    0.251436
  12 C :   -0.632362
  13 H :    0.274774
  14 H :    0.256845
  15 H :    0.232988
  16 H :    0.233945
  17 C :    0.069579
  18 C :   -0.124460
  19 H :    0.282999
  20 C :   -0.554394
  21 C :   -0.107916
  22 S :    0.340663
  23 C :   -0.422833
  24 H :    0.478929
  25 H :    0.265730
  26 H :    0.297146
  27 H :    0.283727
  28 H :    0.279338
  29 H :    0.293866
  30 O :   -0.489556
  31 O :   -0.493180
  32 C :    0.637181
  33 C :   -0.743862
  34 H :    0.275525
  35 H :    0.278666
  36 H :    0.265774
  37 H :    0.279225
  38 H :    0.291818
Sum of atomic charges:    1.0000000

LOEWDIN ATOMIC CHARGES
----------------------
   0 Ir:   -0.265342
   1 C :   -0.065342
   2 C :   -0.098157
   3 C :   -0.103576
   4 C :   -0.036793
   5 C :   -0.021404
   6 N :   -0.007895
   7 C :   -0.069130
   8 C :   -0.361647
   9 H :    0.155552
  10 H :    0.132707
  11 H :    0.142260
  12 C :   -0.344165
  13 H :    0.152326
  14 H :    0.149830
  15 H :    0.138184
  16 H :    0.133295
  17 C :    0.029232
  18 C :   -0.201897
  19 H :    0.159140
  20 C :   -0.213920
  21 C :   -0.136095
  22 S :    0.492754
  23 C :   -0.255595
  24 H :    0.376765
  25 H :    0.161276
  26 H :    0.169010
  27 H :    0.181403
  28 H :    0.177817
  29 H :    0.185667
  30 O :   -0.253508
  31 O :   -0.167266
  32 C :    0.171969
  33 C :   -0.370463
  34 H :    0.166395
  35 H :    0.174087
  36 H :    0.158194
  37 H :    0.180340
  38 H :    0.183991

  Mayer bond orders larger than 0.100000
B(  0-Ir,  1-C ) :   0.4663 B(  0-Ir,  2-C ) :   0.3739 B(  0-Ir,  3-C ) :   0.4747
B(  0-Ir,  4-C ) :   0.4206 B(  0-Ir,  5-C ) :   0.3527 B(  0-Ir,  6-N ) :   0.4659
B(  0-Ir, 20-C ) :   0.5467 B(  0-Ir, 31-O ) :   0.4941 B(  1-C ,  2-C ) :   1.1245
B(  1-C ,  4-C ) :   1.2110 B(  1-C , 27-H ) :   0.9098 B(  2-C ,  5-C ) :   1.2492
B(  2-C , 28-H ) :   0.9102 B(  3-C ,  4-C ) :   1.1533 B(  3-C ,  5-C ) :   1.1543
B(  3-C , 37-H ) :   0.9148 B(  4-C , 38-H ) :   0.8999 B(  5-C , 29-H ) :   0.9029
B(  6-N ,  7-C ) :   0.8971 B(  6-N , 17-C ) :   1.6404 B(  7-C ,  8-C ) :   0.9900
B(  7-C , 12-C ) :   0.9676 B(  7-C , 13-H ) :   0.8797 B(  8-C ,  9-H ) :   0.9052
B(  8-C , 10-H ) :   0.9132 B(  8-C , 11-H ) :   0.9133 B( 12-C , 14-H ) :   0.9082
B( 12-C , 15-H ) :   0.9152 B( 12-C , 16-H ) :   0.9122 B( 17-C , 18-C ) :   1.1233
B( 17-C , 19-H ) :   0.8769 B( 18-C , 20-C ) :   1.2309 B( 18-C , 22-S ) :   1.2239
B( 20-C , 21-C ) :   1.2733 B( 20-C , 24-H ) :   0.2733 B( 21-C , 23-C ) :   1.5287
B( 21-C , 25-H ) :   0.9027 B( 22-S , 23-C ) :   1.2288 B( 23-C , 26-H ) :   0.8918
B( 24-H , 30-O ) :   0.4021 B( 30-O , 32-C ) :   1.5000 B( 31-O , 32-C ) :   1.4301
B( 32-C , 33-C ) :   0.9459 B( 33-C , 34-H ) :   0.8981 B( 33-C , 35-H ) :   0.8910
B( 33-C , 36-H ) :   0.9069

Dispersion correction           -0.030613504
FINAL SINGLE POINT ENERGY     -1288.406136929092

DIPOLE MOMENT
-------------
                                X             Y             Z
Electronic contribution:     37.14004     -75.95815      70.57182
Nuclear contribution   :    -37.67661      75.75820     -70.69371
                        -----------------------------------------
Total Dipole Moment    :     -0.53657      -0.19995      -0.12189
                        -----------------------------------------
Magnitude (a.u.)       :      0.58544
Magnitude (Debye)      :      1.48807

Rotational constants in cm-1:     0.010583     0.008769     0.008202
Rotational constants in MHz :   317.262170   262.880102   245.891507

                             ****ORCA TERMINATED NORMALLY****
TOTAL RUN TIME: 0 days 4 hours 25 minutes 34 seconds 542 msec
