                         Program Version 5.0.3 -  RELEASE  -
|  1> ! Opt PBEh-3c
|  2> %geom Constraints
|  3> { B 0 20 2.428571428571429 C }
|  4> { B 24 30 1.3 C }
|  5>     end
|  6> end
|  7> %output
|  8> xyzfile=True
|  9> end
| 10> %scf
| 11> maxiter 250
| 12> end
| 13> %output
| 14> Print[P_Hirshfeld] = 1
| 15> end
| 16> % maxcore
| 17> 4000
| 18> *xyz 1 1
| 19> Ir   0.58700687  -0.74476169   0.51927907
| 20> C    0.06645689  -2.83356184   0.38278044
| 21> C   -0.02328786  -2.37150573   1.74519872
| 22> C    2.16476688  -2.13382494   1.05016652
| 23> C    1.39504739  -2.66521734  -0.05059403
| 24> C    1.29547721  -1.98703609   2.14875868
| 25> N   -1.03455994   0.11871774  -0.49455537
| 26> C   -2.32061110   0.38146386   0.17547305
| 27> C   -3.09012595   1.55147051  -0.42019431
| 28> H   -3.92574808   1.79440390   0.23478680
| 29> H   -3.51823471   1.32507601  -1.39756189
| 30> H   -2.47186745   2.44524127  -0.50609509
| 31> C   -3.15903757  -0.89133148   0.18868746
| 32> H   -2.05653390   0.63729295   1.20262728
| 33> H   -4.07844976  -0.72303535   0.74782473
| 34> H   -3.43490391  -1.19205802  -0.82293343
| 35> H   -2.63668817  -1.72116486   0.66239878
| 36> C   -0.86091843   0.36842060  -1.73885237
| 37> C    0.46632115   0.21211336  -2.27020471
| 38> H   -1.67621065   0.72069262  -2.36474179
| 39> C    1.58370183   0.35006752  -1.45958610
| 40> C    2.76592445   0.04621924  -2.18760768
| 41> S    0.85456050  -0.21725841  -3.87740038
| 42> C    2.52222937  -0.26450265  -3.49256018
| 43> H    1.59217689   1.28693908  -0.58336123
| 44> H    3.76317755   0.11249669  -1.77753467
| 45> H    3.24194291  -0.49963556  -4.26211222
| 46> H   -0.74862972  -3.21775066  -0.21331352
| 47> H   -0.89459434  -2.40840072   2.38221284
| 48> H    1.55994353  -1.57499004   3.11234502
| 49> O    1.54453634   2.34027310   0.20121811
| 50> O    0.54563821   0.96520989   1.64333640
| 51> C    1.02897625   2.09933060   1.30417093
| 52> C    0.98081511   3.17260463   2.35098292
| 53> H    0.91830333   4.15632393   1.89295878
| 54> H    1.90464457   3.13914542   2.93181749
| 55> H    0.15242773   3.02488594   3.03928737
| 56> H    3.22056996  -1.90954849   1.03933115
| 57> H    1.77512662  -2.89361502  -1.03569343
| 58> *
| 59>
| 60>                          ****END OF INPUT****
 Total Charge           Charge          ....    1
 Multiplicity           Mult            ....    1
 Number of Electrons    NEL             ....  164
Dispersion correction           -0.030533975
FINAL SINGLE POINT ENERGY     -1288.396512573478
Dispersion correction            ... done
Dispersion correction           -0.030495409
FINAL SINGLE POINT ENERGY     -1288.396666772532
Dispersion correction            ... done
Dispersion correction           -0.030468078
FINAL SINGLE POINT ENERGY     -1288.396757927428
Dispersion correction            ... done
FINAL SINGLE POINT ENERGY     -1288.396795910704
FINAL SINGLE POINT ENERGY     -1288.396820391811
FINAL SINGLE POINT ENERGY     -1288.396827814078
Dispersion correction            ... done
Dispersion correction           -0.030407727
FINAL SINGLE POINT ENERGY     -1288.396832725980
Dispersion correction            ... done
Dispersion correction           -0.030408741
FINAL SINGLE POINT ENERGY     -1288.396836278821
Dispersion correction            ... done
                    ***********************HURRAY********************

CARTESIAN COORDINATES (ANGSTROEM)
---------------------------------
  Ir     0.590170   -0.747139    0.516414
  C      0.060709   -2.835257    0.400704
  C     -0.038414   -2.365245    1.758936
  C      2.156775   -2.138564    1.077488
  C      1.394272   -2.676469   -0.024089
  C      1.276933   -1.978612    2.167186
  N     -1.035129    0.113159   -0.496006
  C     -2.323193    0.360533    0.175873
  C     -3.096451    1.537702   -0.401524
  H     -3.932760    1.767505    0.257236
  H     -3.523723    1.325511   -1.382437
  H     -2.481082    2.434716   -0.473473
  C     -3.158550   -0.914325    0.165967
  H     -2.062687    0.600904    1.207655
  H     -4.081379   -0.757228    0.722850
  H     -3.428505   -1.200090   -0.851583
  H     -2.636669   -1.750249    0.629098
  C     -0.863724    0.383428   -1.737300
  C      0.460265    0.235468   -2.273574
  H     -1.680852    0.745459   -2.354900
  C      1.571656    0.293046   -1.446405
  C      2.754795    0.015856   -2.182303
  S      0.855135   -0.093952   -3.902307
  C      2.516674   -0.198375   -3.508481
  H      1.610548    1.257234   -0.560969
  H      3.749617    0.032669   -1.761582
  H      3.239329   -0.394248   -4.286225
  H     -0.749942   -3.222062   -0.199700
  H     -0.914282   -2.395367    2.389789
  H      1.535411   -1.558589    3.128975
  O      1.595208    2.316960    0.191856
  O      0.544722    0.977487    1.629278
  C      1.051790    2.097126    1.289762
  C      1.003838    3.188459    2.316629
  H      0.950635    4.164522    1.841180
  H      1.923909    3.159366    2.903523
  H      0.169578    3.057226    3.000877
  H      3.213997   -1.921234    1.075718
  H      1.780746   -2.918144   -1.003398

 Multiplicity           Mult            ....    1
 Number of Electrons    NEL             ....  164
 Basis Dimension        Dim             ....  358

ORBITAL ENERGIES
----------------

  NO   OCC          E(Eh)            E(eV)
   0   2.0000     -89.754691     -2442.3493
   1   2.0000     -19.635201      -534.3010
   2   2.0000     -19.614752      -533.7445
   3   2.0000     -14.833051      -403.6278
   4   2.0000     -10.696891      -291.0772
   5   2.0000     -10.655127      -289.9407
   6   2.0000     -10.632386      -289.3219
   7   2.0000     -10.631552      -289.2992
   8   2.0000     -10.629083      -289.2320
   9   2.0000     -10.627075      -289.1774
  10   2.0000     -10.623760      -289.0872
  11   2.0000     -10.618710      -288.9498
  12   2.0000     -10.613320      -288.8031
  13   2.0000     -10.604491      -288.5629
  14   2.0000     -10.580108      -287.8994
  15   2.0000     -10.579050      -287.8706
  16   2.0000     -10.554597      -287.2052
  17   2.0000     -10.550262      -287.0872
  18   2.0000     -10.542981      -286.8891
  19   2.0000      -8.394178      -228.4172
  20   2.0000      -6.284134      -171.0000
  21   2.0000      -6.280587      -170.9035
  22   2.0000      -6.279024      -170.8609
  23   2.0000      -4.026383      -109.5634
  24   2.0000      -2.345055       -63.8122
  25   2.0000      -2.311524       -62.8998
  26   2.0000      -2.308988       -62.8308
  27   2.0000      -1.324692       -36.0467
  28   2.0000      -1.227117       -33.3915
  29   2.0000      -1.204514       -32.7765
  30   2.0000      -1.169250       -31.8169
  31   2.0000      -1.119364       -30.4594
  32   2.0000      -1.021578       -27.7985
  33   2.0000      -0.983246       -26.7555
  34   2.0000      -0.974416       -26.5152
  35   2.0000      -0.959846       -26.1187
  36   2.0000      -0.953588       -25.9485
  37   2.0000      -0.938739       -25.5444
  38   2.0000      -0.900354       -24.4999
  39   2.0000      -0.868558       -23.6347
  40   2.0000      -0.794502       -21.6195
  41   2.0000      -0.784935       -21.3592
  42   2.0000      -0.783900       -21.3310
  43   2.0000      -0.776370       -21.1261
  44   2.0000      -0.768725       -20.9181
  45   2.0000      -0.765553       -20.8318
  46   2.0000      -0.740445       -20.1485
  47   2.0000      -0.722358       -19.6564
  48   2.0000      -0.690853       -18.7991
  49   2.0000      -0.679123       -18.4799
  50   2.0000      -0.661985       -18.0135
  51   2.0000      -0.658414       -17.9164
  52   2.0000      -0.648292       -17.6409
  53   2.0000      -0.640356       -17.4250
  54   2.0000      -0.637335       -17.3428
  55   2.0000      -0.633863       -17.2483
  56   2.0000      -0.621734       -16.9182
  57   2.0000      -0.607120       -16.5206
  58   2.0000      -0.604831       -16.4583
  59   2.0000      -0.603856       -16.4318
  60   2.0000      -0.594198       -16.1689
  61   2.0000      -0.586984       -15.9727
  62   2.0000      -0.574326       -15.6282
  63   2.0000      -0.567291       -15.4368
  64   2.0000      -0.560991       -15.2653
  65   2.0000      -0.559985       -15.2380
  66   2.0000      -0.554652       -15.0928
  67   2.0000      -0.547335       -14.8937
  68   2.0000      -0.540315       -14.7027
  69   2.0000      -0.533483       -14.5168
  70   2.0000      -0.527631       -14.3576
  71   2.0000      -0.518529       -14.1099
  72   2.0000      -0.514162       -13.9911
  73   2.0000      -0.505210       -13.7475
  74   2.0000      -0.496654       -13.5147
  75   2.0000      -0.479852       -13.0574
  76   2.0000      -0.467377       -12.7180
  77   2.0000      -0.447852       -12.1867
  78   2.0000      -0.446572       -12.1518
  79   2.0000      -0.418708       -11.3936
  80   2.0000      -0.415611       -11.3094
  81   2.0000      -0.398935       -10.8556
  82   0.0000      -0.197605        -5.3771
  83   0.0000      -0.156098        -4.2476
  84   0.0000      -0.141116        -3.8400
  85   0.0000      -0.085664        -2.3310
  86   0.0000      -0.072430        -1.9709

MULLIKEN ATOMIC CHARGES
-----------------------
   0 Ir:    0.609901
   1 C :   -0.220803
   2 C :   -0.287395
   3 C :   -0.245040
   4 C :   -0.235532
   5 C :   -0.165017
   6 N :   -0.441837
   7 C :   -0.125953
   8 C :   -0.683483
   9 H :    0.268950
  10 H :    0.225272
  11 H :    0.256287
  12 C :   -0.634505
  13 H :    0.278213
  14 H :    0.260906
  15 H :    0.231792
  16 H :    0.229966
  17 C :    0.070418
  18 C :   -0.170686
  19 H :    0.284476
  20 C :   -0.444517
  21 C :   -0.146736
  22 S :    0.316498
  23 C :   -0.423939
  24 H :    0.490150
  25 H :    0.261297
  26 H :    0.295028
  27 H :    0.289939
  28 H :    0.288815
  29 H :    0.303254
  30 O :   -0.495827
  31 O :   -0.521076
  32 C :    0.632172
  33 C :   -0.745101
  34 H :    0.273290
  35 H :    0.273221
  36 H :    0.259827
  37 H :    0.290949
  38 H :    0.296826
Sum of atomic charges:    1.0000000

LOEWDIN ATOMIC CHARGES
----------------------
   0 Ir:   -0.230963
   1 C :   -0.047524
   2 C :   -0.075960
   3 C :   -0.069497
   4 C :   -0.044047
   5 C :   -0.018639
   6 N :   -0.016412
   7 C :   -0.069001
   8 C :   -0.362692
   9 H :    0.155873
  10 H :    0.133068
  11 H :    0.144636
  12 C :   -0.344091
  13 H :    0.154084
  14 H :    0.151482
  15 H :    0.137568
  16 H :    0.131920
  17 C :    0.034300
  18 C :   -0.201810
  19 H :    0.159324
  20 C :   -0.212096
  21 C :   -0.143287
  22 S :    0.470769
  23 C :   -0.259199
  24 H :    0.331693
  25 H :    0.159222
  26 H :    0.167158
  27 H :    0.184438
  28 H :    0.183720
  29 H :    0.191604
  30 O :   -0.268214
  31 O :   -0.188500
  32 C :    0.169127
  33 C :   -0.372315
  34 H :    0.163429
  35 H :    0.171434
  36 H :    0.155979
  37 H :    0.185866
  38 H :    0.187553

  Mayer bond orders larger than 0.100000
B(  0-Ir,  1-C ) :   0.4272 B(  0-Ir,  2-C ) :   0.5116 B(  0-Ir,  3-C ) :   0.4587
B(  0-Ir,  4-C ) :   0.4521 B(  0-Ir,  5-C ) :   0.4032 B(  0-Ir,  6-N ) :   0.4710
B(  0-Ir, 20-C ) :   0.3220 B(  0-Ir, 31-O ) :   0.5398 B(  1-C ,  2-C ) :   1.1205
B(  1-C ,  4-C ) :   1.2359 B(  1-C , 27-H ) :   0.9046 B(  2-C ,  5-C ) :   1.1467
B(  2-C , 28-H ) :   0.9088 B(  3-C ,  4-C ) :   1.1144 B(  3-C ,  5-C ) :   1.2208
B(  3-C , 37-H ) :   0.9073 B(  4-C , 38-H ) :   0.9003 B(  5-C , 29-H ) :   0.8988
B(  6-N ,  7-C ) :   0.8931 B(  6-N , 17-C ) :   1.6575 B(  7-C ,  8-C ) :   0.9910
B(  7-C , 12-C ) :   0.9681 B(  7-C , 13-H ) :   0.8776 B(  8-C ,  9-H ) :   0.9047
B(  8-C , 10-H ) :   0.9130 B(  8-C , 11-H ) :   0.9110 B( 12-C , 14-H ) :   0.9074
B( 12-C , 15-H ) :   0.9156 B( 12-C , 16-H ) :   0.9131 B( 17-C , 18-C ) :   1.0975
B( 17-C , 19-H ) :   0.8760 B( 18-C , 20-C ) :   1.2875 B( 18-C , 22-S ) :   1.2104
B( 20-C , 21-C ) :   1.2991 B( 20-C , 24-H ) :   0.3795 B( 21-C , 23-C ) :   1.5336
B( 21-C , 25-H ) :   0.9058 B( 22-S , 23-C ) :   1.2212 B( 23-C , 26-H ) :   0.8921
B( 24-H , 30-O ) :   0.3059 B( 30-O , 32-C ) :   1.5876 B( 31-O , 32-C ) :   1.3507
B( 32-C , 33-C ) :   0.9491 B( 33-C , 34-H ) :   0.9014 B( 33-C , 35-H ) :   0.8941
B( 33-C , 36-H ) :   0.9079

Dispersion correction           -0.030406419
FINAL SINGLE POINT ENERGY     -1288.396841432986

DIPOLE MOMENT
-------------
                                X             Y             Z
Electronic contribution:     35.45241     -72.72761      80.20584
Nuclear contribution   :    -36.05572      71.92918     -80.24586
                        -----------------------------------------
Total Dipole Moment    :     -0.60331      -0.79843      -0.04002
                        -----------------------------------------
Magnitude (a.u.)       :      1.00154
Magnitude (Debye)      :      2.54571

Rotational constants in cm-1:     0.010542     0.008699     0.008053
Rotational constants in MHz :   316.031123   260.778981   241.426453

                             ****ORCA TERMINATED NORMALLY****
TOTAL RUN TIME: 0 days 1 hours 8 minutes 45 seconds 774 msec
