                         Program Version 5.0.3 -  RELEASE  -
|  1> ! Opt PBEh-3c
|  2> %geom Constraints
|  3> { B 0 20 2.2142857142857144 C }
|  4> { B 24 30 1.342857142857143 C }
|  5>     end
|  6> end
|  7> %output
|  8> xyzfile=True
|  9> end
| 10> %scf
| 11> maxiter 250
| 12> end
| 13> %output
| 14> Print[P_Hirshfeld] = 1
| 15> end
| 16> % maxcore
| 17> 4000
| 18> *xyz 1 1
| 19> Ir   0.60508285  -0.72994836   0.46146136
| 20> C    0.09889187  -2.83397420   0.37365126
| 21> C   -0.05050002  -2.36114005   1.72517155
| 22> C    2.16215872  -2.09697373   1.10711926
| 23> C    1.44640979  -2.66642282  -0.00652886
| 24> C    1.23630757  -1.93902035   2.16511920
| 25> N   -1.05487614   0.12083710  -0.50788274
| 26> C   -2.33540248   0.34038511   0.18406273
| 27> C   -3.12942110   1.52162879  -0.35557911
| 28> H   -3.96302558   1.72148070   0.31596374
| 29> H   -3.56182064   1.32863059  -1.33828712
| 30> H   -2.52733614   2.42897483  -0.40823855
| 31> C   -3.15729101  -0.94328702   0.15076896
| 32> H   -2.06428450   0.55762508   1.21827223
| 33> H   -4.07271028  -0.81251542   0.72640107
| 34> H   -3.44003144  -1.20246149  -0.87036709
| 35> H   -2.61889833  -1.78646467   0.58031604
| 36> C   -0.89322219   0.43698923  -1.73941600
| 37> C    0.42807184   0.27585750  -2.27283205
| 38> H   -1.70564193   0.83646600  -2.33885713
| 39> C    1.50527431   0.17523430  -1.39998797
| 40> C    2.70184712  -0.09296023  -2.12474023
| 41> S    0.86493581   0.08145204  -3.90505273
| 42> C    2.50310971  -0.16142406  -3.47140260
| 43> H    1.63109166   1.16906876  -0.57704677
| 44> H    3.67956084  -0.17231815  -1.67223269
| 45> H    3.24233172  -0.32227626  -4.24140477
| 46> H   -0.68377546  -3.24473274  -0.24750526
| 47> H   -0.94546496  -2.39742903   2.32771074
| 48> H    1.45443016  -1.49971941   3.12838895
| 49> O    1.70571741   2.29398630   0.17848499
| 50> O    0.54179118   1.00609504   1.57090591
| 51> C    1.10352699   2.10391649   1.25064527
| 52> C    1.04539868   3.20914011   2.26310137
| 53> H    1.00892093   4.17878200   1.77270239
| 54> H    1.95511019   3.18269013   2.86569301
| 55> H    0.19710385   3.09456864   2.93260864
| 56> H    3.21810150  -1.87824103   1.14686049
| 57> H    1.86789741  -2.92330976  -0.96730749
| 58> *
| 59>
| 60>                          ****END OF INPUT****
 Total Charge           Charge          ....    1
 Multiplicity           Mult            ....    1
 Number of Electrons    NEL             ....  164
Dispersion correction           -0.030688724
FINAL SINGLE POINT ENERGY     -1288.402654002114
Dispersion correction            ... done
Dispersion correction           -0.030646445
FINAL SINGLE POINT ENERGY     -1288.402895139167
Dispersion correction            ... done
Dispersion correction           -0.030625840
FINAL SINGLE POINT ENERGY     -1288.402978914463
Dispersion correction            ... done
FINAL SINGLE POINT ENERGY     -1288.403034961574
FINAL SINGLE POINT ENERGY     -1288.403070869594
FINAL SINGLE POINT ENERGY     -1288.403080695861
FINAL SINGLE POINT ENERGY     -1288.403088800063
FINAL SINGLE POINT ENERGY     -1288.403091680422
FINAL SINGLE POINT ENERGY     -1288.403093677233
FINAL SINGLE POINT ENERGY     -1288.403095923984
FINAL SINGLE POINT ENERGY     -1288.403099014844
FINAL SINGLE POINT ENERGY     -1288.403103105106
FINAL SINGLE POINT ENERGY     -1288.403107910099
Dispersion correction            ... done
Dispersion correction           -0.030551133
FINAL SINGLE POINT ENERGY     -1288.403112730146
Dispersion correction            ... done
Dispersion correction           -0.030553478
FINAL SINGLE POINT ENERGY     -1288.403116720241
Dispersion correction            ... done
                    ***********************HURRAY********************

CARTESIAN COORDINATES (ANGSTROEM)
---------------------------------
  Ir     0.604950   -0.734320    0.454024
  C      0.120290   -2.841596    0.362961
  C     -0.086476   -2.375740    1.709874
  C      2.145803   -2.082082    1.177143
  C      1.483167   -2.664565    0.040719
  C      1.171761   -1.934761    2.197808
  N     -1.062723    0.111550   -0.505988
  C     -2.343362    0.311904    0.191216
  C     -3.133645    1.512331   -0.310509
  H     -3.968742    1.690909    0.365066
  H     -3.563039    1.354675   -1.300785
  H     -2.528899    2.419219   -0.330251
  C     -3.167519   -0.968413    0.114531
  H     -2.074266    0.495987    1.232364
  H     -4.080779   -0.858254    0.697932
  H     -3.453823   -1.190206   -0.914373
  H     -2.628149   -1.827683    0.509795
  C     -0.906263    0.450680   -1.732666
  C      0.411439    0.293632   -2.271709
  H     -1.720623    0.862516   -2.320697
  C      1.476120    0.118142   -1.394606
  C      2.676215   -0.124780   -2.123064
  S      0.863777    0.198642   -3.908130
  C      2.491468   -0.101437   -3.473697
  H      1.644267    1.153585   -0.584270
  H      3.647392   -0.252601   -1.667441
  H      3.236836   -0.226402   -4.244441
  H     -0.630245   -3.266125   -0.287757
  H     -1.005274   -2.418380    2.274757
  H      1.344523   -1.490065    3.167792
  O      1.758275    2.272968    0.148704
  O      0.554505    1.024036    1.541385
  C      1.140570    2.104010    1.220024
  C      1.099755    3.227167    2.212480
  H      0.981571    4.181537    1.704159
  H      2.051521    3.262760    2.745270
  H      0.305697    3.090167    2.940887
  H      3.198108   -1.859940    1.263967
  H      1.945184   -2.919873   -0.901734

 Multiplicity           Mult            ....    1
 Number of Electrons    NEL             ....  164
 Basis Dimension        Dim             ....  358

ORBITAL ENERGIES
----------------

  NO   OCC          E(Eh)            E(eV)
   0   2.0000     -89.760349     -2442.5033
   1   2.0000     -19.636372      -534.3328
   2   2.0000     -19.622458      -533.9542
   3   2.0000     -14.832682      -403.6178
   4   2.0000     -10.698324      -291.1162
   5   2.0000     -10.654083      -289.9123
   6   2.0000     -10.627937      -289.2009
   7   2.0000     -10.625475      -289.1339
   8   2.0000     -10.624818      -289.1160
   9   2.0000     -10.621931      -289.0374
  10   2.0000     -10.618458      -288.9429
  11   2.0000     -10.615084      -288.8511
  12   2.0000     -10.612465      -288.7799
  13   2.0000     -10.607972      -288.6576
  14   2.0000     -10.587421      -288.0984
  15   2.0000     -10.585535      -288.0471
  16   2.0000     -10.553292      -287.1697
  17   2.0000     -10.550150      -287.0842
  18   2.0000     -10.545149      -286.9481
  19   2.0000      -8.399772      -228.5694
  20   2.0000      -6.289668      -171.1506
  21   2.0000      -6.286124      -171.0541
  22   2.0000      -6.284715      -171.0158
  23   2.0000      -4.022133      -109.4478
  24   2.0000      -2.339615       -63.6642
  25   2.0000      -2.307750       -62.7971
  26   2.0000      -2.304916       -62.7200
  27   2.0000      -1.327119       -36.1127
  28   2.0000      -1.228342       -33.4249
  29   2.0000      -1.205174       -32.7944
  30   2.0000      -1.162876       -31.6435
  31   2.0000      -1.124565       -30.6010
  32   2.0000      -1.022761       -27.8307
  33   2.0000      -0.975753       -26.5516
  34   2.0000      -0.968885       -26.3647
  35   2.0000      -0.965253       -26.2659
  36   2.0000      -0.957107       -26.0442
  37   2.0000      -0.940651       -25.5964
  38   2.0000      -0.899792       -24.4846
  39   2.0000      -0.870294       -23.6819
  40   2.0000      -0.796277       -21.6678
  41   2.0000      -0.780062       -21.2266
  42   2.0000      -0.778626       -21.1875
  43   2.0000      -0.778235       -21.1768
  44   2.0000      -0.763984       -20.7891
  45   2.0000      -0.762799       -20.7568
  46   2.0000      -0.741115       -20.1668
  47   2.0000      -0.721851       -19.6426
  48   2.0000      -0.692462       -18.8429
  49   2.0000      -0.683181       -18.5903
  50   2.0000      -0.662529       -18.0283
  51   2.0000      -0.660786       -17.9809
  52   2.0000      -0.648620       -17.6498
  53   2.0000      -0.638460       -17.3734
  54   2.0000      -0.632322       -17.2064
  55   2.0000      -0.629992       -17.1429
  56   2.0000      -0.621361       -16.9081
  57   2.0000      -0.608615       -16.5612
  58   2.0000      -0.599058       -16.3012
  59   2.0000      -0.598345       -16.2818
  60   2.0000      -0.597353       -16.2548
  61   2.0000      -0.590127       -16.0582
  62   2.0000      -0.577453       -15.7133
  63   2.0000      -0.568728       -15.4759
  64   2.0000      -0.563836       -15.3428
  65   2.0000      -0.561267       -15.2728
  66   2.0000      -0.555533       -15.1168
  67   2.0000      -0.546294       -14.8654
  68   2.0000      -0.541736       -14.7414
  69   2.0000      -0.534702       -14.5500
  70   2.0000      -0.528505       -14.3814
  71   2.0000      -0.517782       -14.0896
  72   2.0000      -0.512960       -13.9584
  73   2.0000      -0.501749       -13.6533
  74   2.0000      -0.496435       -13.5087
  75   2.0000      -0.480611       -13.0781
  76   2.0000      -0.478714       -13.0265
  77   2.0000      -0.449461       -12.2304
  78   2.0000      -0.445113       -12.1121
  79   2.0000      -0.417262       -11.3543
  80   2.0000      -0.416615       -11.3367
  81   2.0000      -0.396263       -10.7829
  82   0.0000      -0.200512        -5.4562
  83   0.0000      -0.142501        -3.8776
  84   0.0000      -0.138795        -3.7768
  85   0.0000      -0.085224        -2.3190
  86   0.0000      -0.072468        -1.9720

MULLIKEN ATOMIC CHARGES
-----------------------
   0 Ir:    0.602824
   1 C :   -0.237240
   2 C :   -0.268425
   3 C :   -0.263911
   4 C :   -0.226261
   5 C :   -0.156590
   6 N :   -0.437441
   7 C :   -0.125837
   8 C :   -0.681614
   9 H :    0.268944
  10 H :    0.224526
  11 H :    0.254033
  12 C :   -0.633781
  13 H :    0.278643
  14 H :    0.259026
  15 H :    0.232423
  16 H :    0.232167
  17 C :    0.069370
  18 C :   -0.135873
  19 H :    0.284330
  20 C :   -0.520710
  21 C :   -0.116861
  22 S :    0.335214
  23 C :   -0.426172
  24 H :    0.476367
  25 H :    0.264868
  26 H :    0.296991
  27 H :    0.286560
  28 H :    0.283607
  29 H :    0.299305
  30 O :   -0.485926
  31 O :   -0.510367
  32 C :    0.633117
  33 C :   -0.744438
  34 H :    0.273455
  35 H :    0.275560
  36 H :    0.261629
  37 H :    0.284432
  38 H :    0.294053
Sum of atomic charges:    1.0000000

LOEWDIN ATOMIC CHARGES
----------------------
   0 Ir:   -0.253871
   1 C :   -0.055714
   2 C :   -0.091814
   3 C :   -0.090288
   4 C :   -0.040118
   5 C :   -0.015658
   6 N :   -0.008478
   7 C :   -0.069086
   8 C :   -0.362198
   9 H :    0.155969
  10 H :    0.132751
  11 H :    0.143493
  12 C :   -0.344016
  13 H :    0.154292
  14 H :    0.150752
  15 H :    0.137859
  16 H :    0.132556
  17 C :    0.030508
  18 C :   -0.194465
  19 H :    0.159618
  20 C :   -0.217148
  21 C :   -0.132148
  22 S :    0.489216
  23 C :   -0.258139
  24 H :    0.352056
  25 H :    0.161134
  26 H :    0.168608
  27 H :    0.182761
  28 H :    0.180647
  29 H :    0.189140
  30 O :   -0.262708
  31 O :   -0.182054
  32 C :    0.166772
  33 C :   -0.371670
  34 H :    0.165175
  35 H :    0.172239
  36 H :    0.155750
  37 H :    0.182846
  38 H :    0.185432

  Mayer bond orders larger than 0.100000
B(  0-Ir,  1-C ) :   0.4373 B(  0-Ir,  2-C ) :   0.4406 B(  0-Ir,  3-C ) :   0.4654
B(  0-Ir,  4-C ) :   0.4342 B(  0-Ir,  5-C ) :   0.3864 B(  0-Ir,  6-N ) :   0.4662
B(  0-Ir, 20-C ) :   0.4314 B(  0-Ir, 31-O ) :   0.5237 B(  1-C ,  2-C ) :   1.1264
B(  1-C ,  4-C ) :   1.2281 B(  1-C , 27-H ) :   0.9073 B(  2-C ,  5-C ) :   1.1900
B(  2-C , 28-H ) :   0.9101 B(  3-C ,  4-C ) :   1.1315 B(  3-C ,  5-C ) :   1.1881
B(  3-C , 37-H ) :   0.9116 B(  4-C , 38-H ) :   0.8999 B(  5-C , 29-H ) :   0.9005
B(  6-N ,  7-C ) :   0.8952 B(  6-N , 17-C ) :   1.6493 B(  7-C ,  8-C ) :   0.9905
B(  7-C , 12-C ) :   0.9670 B(  7-C , 13-H ) :   0.8775 B(  8-C ,  9-H ) :   0.9048
B(  8-C , 10-H ) :   0.9131 B(  8-C , 11-H ) :   0.9121 B( 12-C , 14-H ) :   0.9078
B( 12-C , 15-H ) :   0.9154 B( 12-C , 16-H ) :   0.9125 B( 17-C , 18-C ) :   1.1104
B( 17-C , 19-H ) :   0.8764 B( 18-C , 20-C ) :   1.2497 B( 18-C , 22-S ) :   1.2298
B( 20-C , 21-C ) :   1.2842 B( 20-C , 24-H ) :   0.3463 B( 21-C , 23-C ) :   1.5380
B( 21-C , 25-H ) :   0.9036 B( 22-S , 23-C ) :   1.2216 B( 23-C , 26-H ) :   0.8915
B( 24-H , 30-O ) :   0.3394 B( 30-O , 32-C ) :   1.5628 B( 31-O , 32-C ) :   1.3775
B( 32-C , 33-C ) :   0.9461 B( 33-C , 34-H ) :   0.8997 B( 33-C , 35-H ) :   0.8933
B( 33-C , 36-H ) :   0.9081

Dispersion correction           -0.030555198
FINAL SINGLE POINT ENERGY     -1288.403119111797

DIPOLE MOMENT
-------------
                                X             Y             Z
Electronic contribution:     36.72637     -73.32395      74.22957
Nuclear contribution   :    -37.33015      72.78250     -74.40872
                        -----------------------------------------
Total Dipole Moment    :     -0.60378      -0.54146      -0.17915
                        -----------------------------------------
Magnitude (a.u.)       :      0.83056
Magnitude (Debye)      :      2.11111

Rotational constants in cm-1:     0.010542     0.008760     0.008168
Rotational constants in MHz :   316.038384   262.609138   244.867652

                             ****ORCA TERMINATED NORMALLY****
TOTAL RUN TIME: 0 days 1 hours 58 minutes 28 seconds 330 msec
