                         Program Version 5.0.3 -  RELEASE  -
|  1> ! Opt PBEh-3c
|  2> %geom Constraints
|  3> { B 0 20 2.342857142857143 C }
|  4> { B 24 30 1.4285714285714286 C }
|  5>     end
|  6> end
|  7> %output
|  8> xyzfile=True
|  9> end
| 10> %scf
| 11> maxiter 250
| 12> end
| 13> %output
| 14> Print[P_Hirshfeld] = 1
| 15> end
| 16> % maxcore
| 17> 4000
| 18> *xyz 1 1
| 19> Ir   0.60042306  -0.71733752   0.45314156
| 20> C    0.05038522  -2.80548467   0.36003888
| 21> C    0.09282397  -2.34812183   1.72528167
| 22> C    2.20381661  -2.12437473   0.82521352
| 23> C    1.33113014  -2.64711720  -0.20146387
| 24> C    1.44798995  -1.97462461   2.00342207
| 25> N   -1.04543047   0.15541364  -0.52182000
| 26> C   -2.31707640   0.45886006   0.15363595
| 27> C   -3.11693588   1.56125066  -0.52242554
| 28> H   -3.94460975   1.84441096   0.12646140
| 29> H   -3.55922956   1.24718813  -1.46912832
| 30> H   -2.51726155   2.45582564  -0.69266224
| 31> C   -3.13385462  -0.81935093   0.30182731
| 32> H   -2.02736157   0.80364774   1.14746970
| 33> H   -4.04743983  -0.60735409   0.85528739
| 34> H   -3.41931827  -1.22218251  -0.67081054
| 35> H   -2.59338162  -1.58878077   0.85111954
| 36> C   -0.86091427   0.37923194  -1.76666342
| 37> C    0.48274809   0.17512002  -2.25149619
| 38> H   -1.65334457   0.74007796  -2.41577559
| 39> C    1.57381601   0.39912218  -1.41706071
| 40> C    2.78252633   0.02273241  -2.07147201
| 41> S    0.92319113  -0.44446733  -3.77444945
| 42> C    2.58256380  -0.44226700  -3.33380370
| 43> H    1.52966850   1.31615987  -0.63968696
| 44> H    3.76439571   0.14606827  -1.63810303
| 45> H    3.32480271  -0.76351344  -4.04885058
| 46> H   -0.82318223  -3.17611412  -0.15681223
| 47> H   -0.71601635  -2.37751972   2.44016135
| 48> H    1.80753406  -1.56931488   2.93839779
| 49> O    1.37252640   2.43894152   0.22949890
| 50> O    0.53368496   0.93618609   1.64615857
| 51> C    0.93895208   2.11858563   1.33729830
| 52> C    0.88466107   3.11883634   2.45706795
| 53> H    0.85774438   4.13285681   2.06767098
| 54> H    1.78545800   3.01878949   3.06579778
| 55> H    0.03215414   2.94605839   3.11040197
| 56> H    3.25450576  -1.90257253   0.71318993
| 57> H    1.61722495  -2.88567590  -1.21531809
| 58> *
| 59>
| 60>                          ****END OF INPUT****
 Total Charge           Charge          ....    1
 Multiplicity           Mult            ....    1
 Number of Electrons    NEL             ....  164
Dispersion correction           -0.030965087
FINAL SINGLE POINT ENERGY     -1288.399687791911
Dispersion correction            ... done
Dispersion correction           -0.031063406
FINAL SINGLE POINT ENERGY     -1288.396939445265
Dispersion correction            ... done
Dispersion correction           -0.030963098
FINAL SINGLE POINT ENERGY     -1288.399785095517
Dispersion correction            ... done
FINAL SINGLE POINT ENERGY     -1288.398390949581
FINAL SINGLE POINT ENERGY     -1288.399826500716
FINAL SINGLE POINT ENERGY     -1288.399848047143
FINAL SINGLE POINT ENERGY     -1288.399869021133
FINAL SINGLE POINT ENERGY     -1288.399883038220
FINAL SINGLE POINT ENERGY     -1288.399890807201
FINAL SINGLE POINT ENERGY     -1288.399896881903
FINAL SINGLE POINT ENERGY     -1288.399896697296
FINAL SINGLE POINT ENERGY     -1288.399896667682
FINAL SINGLE POINT ENERGY     -1288.399897292243
Dispersion correction            ... done
Dispersion correction           -0.030842210
FINAL SINGLE POINT ENERGY     -1288.399897571644
Dispersion correction            ... done
Dispersion correction           -0.030840248
FINAL SINGLE POINT ENERGY     -1288.399897683252
Dispersion correction            ... done
                    ***********************HURRAY********************

CARTESIAN COORDINATES (ANGSTROEM)
---------------------------------
  Ir     0.609485   -0.717154    0.450301
  C      0.077296   -2.812841    0.349502
  C      0.064405   -2.352773    1.714018
  C      2.207329   -2.110795    0.893175
  C      1.378220   -2.646771   -0.161736
  C      1.402109   -1.963741    2.040497
  N     -1.044452    0.147375   -0.517434
  C     -2.314384    0.434815    0.168435
  C     -3.101021    1.574024   -0.461297
  H     -3.926690    1.839252    0.197614
  H     -3.544618    1.303968   -1.420686
  H     -2.490063    2.467207   -0.593822
  C     -3.143473   -0.841238    0.257445
  H     -2.024549    0.732756    1.177063
  H     -4.052008   -0.649871    0.826589
  H     -3.437846   -1.191776   -0.732628
  H     -2.605936   -1.642853    0.761786
  C     -0.872968    0.381649   -1.762918
  C      0.464825    0.183093   -2.261552
  H     -1.673112    0.746576   -2.400080
  C      1.554696    0.346906   -1.410702
  C      2.761129   -0.012667   -2.079564
  S      0.902237   -0.366203   -3.810252
  C      2.559373   -0.410074   -3.364722
  H      1.533146    1.280243   -0.639611
  H      3.743238    0.074717   -1.638156
  H      3.300114   -0.705260   -4.092400
  H     -0.771505   -3.195923   -0.198522
  H     -0.770565   -2.387001    2.397866
  H      1.720780   -1.549780    2.986574
  O      1.406009    2.426837    0.202989
  O      0.540436    0.949839    1.629260
  C      0.958079    2.123630    1.311355
  C      0.900915    3.140743    2.415415
  H      0.864953    4.148543    2.010733
  H      1.805943    3.057114    3.020282
  H      0.052724    2.971342    3.074972
  H      3.261303   -1.887835    0.824211
  H      1.703814   -2.886884   -1.163263

 Multiplicity           Mult            ....    1
 Number of Electrons    NEL             ....  164
 Basis Dimension        Dim             ....  358

ORBITAL ENERGIES
----------------

  NO   OCC          E(Eh)            E(eV)
   0   2.0000     -89.764787     -2442.6240
   1   2.0000     -19.624387      -534.0067
   2   2.0000     -19.593990      -533.1796
   3   2.0000     -14.839529      -403.8041
   4   2.0000     -10.682571      -290.6875
   5   2.0000     -10.660586      -290.0893
   6   2.0000     -10.633464      -289.3513
   7   2.0000     -10.632196      -289.3168
   8   2.0000     -10.632029      -289.3122
   9   2.0000     -10.628422      -289.2141
  10   2.0000     -10.627725      -289.1951
  11   2.0000     -10.625713      -289.1404
  12   2.0000     -10.615024      -288.8495
  13   2.0000     -10.610889      -288.7370
  14   2.0000     -10.587051      -288.0883
  15   2.0000     -10.584845      -288.0283
  16   2.0000     -10.556302      -287.2516
  17   2.0000     -10.551447      -287.1195
  18   2.0000     -10.534503      -286.6584
  19   2.0000      -8.404179      -228.6893
  20   2.0000      -6.294144      -171.2724
  21   2.0000      -6.290520      -171.1737
  22   2.0000      -6.289065      -171.1342
  23   2.0000      -4.026861      -109.5765
  24   2.0000      -2.345467       -63.8234
  25   2.0000      -2.311827       -62.9080
  26   2.0000      -2.310322       -62.8671
  27   2.0000      -1.308135       -35.5962
  28   2.0000      -1.212695       -32.9991
  29   2.0000      -1.209940       -32.9241
  30   2.0000      -1.169791       -31.8316
  31   2.0000      -1.128359       -30.7042
  32   2.0000      -1.026575       -27.9345
  33   2.0000      -0.983882       -26.7728
  34   2.0000      -0.975074       -26.5331
  35   2.0000      -0.967802       -26.3352
  36   2.0000      -0.960656       -26.1408
  37   2.0000      -0.928536       -25.2667
  38   2.0000      -0.902374       -24.5549
  39   2.0000      -0.874256       -23.7897
  40   2.0000      -0.798965       -21.7410
  41   2.0000      -0.785665       -21.3790
  42   2.0000      -0.784855       -21.3570
  43   2.0000      -0.782035       -21.2803
  44   2.0000      -0.769871       -20.9492
  45   2.0000      -0.755770       -20.5656
  46   2.0000      -0.743594       -20.2342
  47   2.0000      -0.723238       -19.6803
  48   2.0000      -0.692218       -18.8362
  49   2.0000      -0.675862       -18.3911
  50   2.0000      -0.664788       -18.0898
  51   2.0000      -0.650136       -17.6911
  52   2.0000      -0.647630       -17.6229
  53   2.0000      -0.638032       -17.3617
  54   2.0000      -0.635996       -17.3063
  55   2.0000      -0.630166       -17.1477
  56   2.0000      -0.622923       -16.9506
  57   2.0000      -0.612172       -16.6580
  58   2.0000      -0.605530       -16.4773
  59   2.0000      -0.604893       -16.4600
  60   2.0000      -0.598943       -16.2981
  61   2.0000      -0.590599       -16.0710
  62   2.0000      -0.579480       -15.7684
  63   2.0000      -0.571357       -15.5474
  64   2.0000      -0.563918       -15.3450
  65   2.0000      -0.557068       -15.1586
  66   2.0000      -0.551786       -15.0149
  67   2.0000      -0.548365       -14.9218
  68   2.0000      -0.539844       -14.6899
  69   2.0000      -0.536240       -14.5918
  70   2.0000      -0.528027       -14.3683
  71   2.0000      -0.519574       -14.1383
  72   2.0000      -0.515261       -14.0210
  73   2.0000      -0.502911       -13.6849
  74   2.0000      -0.488966       -13.3054
  75   2.0000      -0.480976       -13.0880
  76   2.0000      -0.470932       -12.8147
  77   2.0000      -0.446677       -12.1547
  78   2.0000      -0.443080       -12.0568
  79   2.0000      -0.422950       -11.5090
  80   2.0000      -0.417303       -11.3554
  81   2.0000      -0.401380       -10.9221
  82   0.0000      -0.203752        -5.5444
  83   0.0000      -0.155684        -4.2364
  84   0.0000      -0.141500        -3.8504
  85   0.0000      -0.095388        -2.5956
  86   0.0000      -0.075878        -2.0647

MULLIKEN ATOMIC CHARGES
-----------------------
   0 Ir:    0.609774
   1 C :   -0.215164
   2 C :   -0.282897
   3 C :   -0.244133
   4 C :   -0.242171
   5 C :   -0.162916
   6 N :   -0.427321
   7 C :   -0.125399
   8 C :   -0.687476
   9 H :    0.270990
  10 H :    0.224489
  11 H :    0.260107
  12 C :   -0.635897
  13 H :    0.282546
  14 H :    0.263110
  15 H :    0.231037
  16 H :    0.231906
  17 C :    0.071283
  18 C :   -0.165854
  19 H :    0.289821
  20 C :   -0.488027
  21 C :   -0.120807
  22 S :    0.317865
  23 C :   -0.432002
  24 H :    0.494603
  25 H :    0.266635
  26 H :    0.298152
  27 H :    0.289542
  28 H :    0.289829
  29 H :    0.304977
  30 O :   -0.478897
  31 O :   -0.535156
  32 C :    0.618206
  33 C :   -0.744774
  34 H :    0.269608
  35 H :    0.267101
  36 H :    0.253719
  37 H :    0.289976
  38 H :    0.293616
Sum of atomic charges:    1.0000000

LOEWDIN ATOMIC CHARGES
----------------------
   0 Ir:   -0.235077
   1 C :   -0.043598
   2 C :   -0.073162
   3 C :   -0.064430
   4 C :   -0.053476
   5 C :   -0.019512
   6 N :   -0.003253
   7 C :   -0.069703
   8 C :   -0.363413
   9 H :    0.156961
  10 H :    0.133065
  11 H :    0.146564
  12 C :   -0.343480
  13 H :    0.156624
  14 H :    0.152583
  15 H :    0.137217
  16 H :    0.133371
  17 C :    0.033504
  18 C :   -0.179478
  19 H :    0.162232
  20 C :   -0.203017
  21 C :   -0.130291
  22 S :    0.481620
  23 C :   -0.262774
  24 H :    0.304999
  25 H :    0.162737
  26 H :    0.168569
  27 H :    0.184135
  28 H :    0.184293
  29 H :    0.192612
  30 O :   -0.273652
  31 O :   -0.203862
  32 C :    0.154447
  33 C :   -0.375306
  34 H :    0.160005
  35 H :    0.167600
  36 H :    0.153454
  37 H :    0.185398
  38 H :    0.185497

  Mayer bond orders larger than 0.100000
B(  0-Ir,  1-C ) :   0.4184 B(  0-Ir,  2-C ) :   0.5035 B(  0-Ir,  3-C ) :   0.4618
B(  0-Ir,  4-C ) :   0.4466 B(  0-Ir,  5-C ) :   0.3994 B(  0-Ir,  6-N ) :   0.4629
B(  0-Ir, 20-C ) :   0.3085 B(  0-Ir, 31-O ) :   0.5700 B(  1-C ,  2-C ) :   1.1228
B(  1-C ,  4-C ) :   1.2439 B(  1-C , 27-H ) :   0.9044 B(  2-C ,  5-C ) :   1.1469
B(  2-C , 28-H ) :   0.9085 B(  3-C ,  4-C ) :   1.1096 B(  3-C ,  5-C ) :   1.2240
B(  3-C , 37-H ) :   0.9072 B(  4-C , 38-H ) :   0.9003 B(  5-C , 29-H ) :   0.8982
B(  6-N ,  7-C ) :   0.8919 B(  6-N , 17-C ) :   1.6793 B(  7-C ,  8-C ) :   0.9912
B(  7-C , 12-C ) :   0.9679 B(  7-C , 13-H ) :   0.8731 B(  8-C ,  9-H ) :   0.9040
B(  8-C , 10-H ) :   0.9130 B(  8-C , 11-H ) :   0.9089 B( 12-C , 14-H ) :   0.9068
B( 12-C , 15-H ) :   0.9155 B( 12-C , 16-H ) :   0.9121 B( 17-C , 18-C ) :   1.0713
B( 17-C , 19-H ) :   0.8750 B( 18-C , 20-C ) :   1.2721 B( 18-C , 22-S ) :   1.2414
B( 20-C , 21-C ) :   1.2639 B( 20-C , 24-H ) :   0.4478 B( 21-C , 23-C ) :   1.5500
B( 21-C , 25-H ) :   0.9041 B( 22-S , 23-C ) :   1.2045 B( 23-C , 26-H ) :   0.8916
B( 24-H , 30-O ) :   0.2611 B( 30-O , 32-C ) :   1.6730 B( 31-O , 32-C ) :   1.2923
B( 32-C , 33-C ) :   0.9460 B( 33-C , 34-H ) :   0.9046 B( 33-C , 35-H ) :   0.8982
B( 33-C , 36-H ) :   0.9094

Dispersion correction           -0.030838842
FINAL SINGLE POINT ENERGY     -1288.399897796080

DIPOLE MOMENT
-------------
                                X             Y             Z
Electronic contribution:     37.31410     -68.44916      73.10872
Nuclear contribution   :    -37.94194      67.34935     -73.44312
                        -----------------------------------------
Total Dipole Moment    :     -0.62784      -1.09981      -0.33440
                        -----------------------------------------
Magnitude (a.u.)       :      1.30980
Magnitude (Debye)      :      3.32926

Rotational constants in cm-1:     0.010624     0.009078     0.008218
Rotational constants in MHz :   318.502564   272.166342   246.373300

                             ****ORCA TERMINATED NORMALLY****
TOTAL RUN TIME: 0 days 1 hours 58 minutes 36 seconds 616 msec
