                         Program Version 5.0.3 -  RELEASE  -
|  1> ! Opt PBEh-3c
|  2> %geom Constraints
|  3> { B 0 20 2.5142857142857142 C }
|  4> { B 24 30 1.3 C }
|  5>     end
|  6> end
|  7> %output
|  8> xyzfile=True
|  9> end
| 10> %scf
| 11> maxiter 250
| 12> end
| 13> %output
| 14> Print[P_Hirshfeld] = 1
| 15> end
| 16> % maxcore
| 17> 4000
| 18> *xyz 1 1
| 19> Ir   0.57000034  -0.74739334   0.53304329
| 20> C    0.01740125  -2.82535712   0.40516189
| 21> C    0.02556133  -2.36944604   1.77307902
| 22> C    2.16237994  -2.16027356   0.93612889
| 23> C    1.31339976  -2.66760558  -0.11844114
| 24> C    1.37830665  -2.01364472   2.09407355
| 25> N   -1.03220430   0.12875818  -0.49799815
| 26> C   -2.32112075   0.42238870   0.15362913
| 27> C   -3.10185175   1.54195498  -0.51782289
| 28> H   -3.93828665   1.82112413   0.12153366
| 29> H   -3.53054204   1.24654400  -1.47652611
| 30> H   -2.49253180   2.43400670  -0.66479974
| 31> C   -3.14827837  -0.85348504   0.25745913
| 32> H   -2.05723783   0.74818473   1.16116622
| 33> H   -4.07585927  -0.64770799   0.78976792
| 34> H   -3.40927649  -1.23738675  -0.72967975
| 35> H   -2.62707722  -1.63633505   0.80643006
| 36> C   -0.83824810   0.35042687  -1.74394690
| 37> C    0.49930489   0.18759537  -2.25385278
| 38> H   -1.64360033   0.68816749  -2.39056796
| 39> C    1.61580660   0.44672207  -1.47179021
| 40> C    2.80367497   0.12037348  -2.18095778
| 41> S    0.89498800  -0.37146453  -3.82199610
| 42> C    2.56604353  -0.32045968  -3.44834339
| 43> H    1.56658969   1.35110287  -0.59076640
| 44> H    3.79996173   0.26203922  -1.78779427
| 45> H    3.29057662  -0.60021532  -4.19827345
| 46> H   -0.84334715  -3.18935381  -0.13712746
| 47> H   -0.80288676  -2.39874310   2.46552626
| 48> H    1.71485826  -1.61899180   3.04209440
| 49> O    1.45310754   2.37067723   0.23077901
| 50> O    0.54024496   0.93960585   1.67824524
| 51> C    0.98541269   2.09462673   1.34338340
| 52> C    0.94639883   3.13827401   2.42064263
| 53> H    0.89048420   4.13510931   1.99144708
| 54> H    1.86939546   3.08022969   3.00106469
| 55> H    0.11788325   2.97719047   3.10623982
| 56> H    3.21524867  -1.93709030   0.84904026
| 57> H    1.62468968  -2.89095832  -1.12851094
| 58> *
| 59>
| 60>                          ****END OF INPUT****
 Total Charge           Charge          ....    1
 Multiplicity           Mult            ....    1
 Number of Electrons    NEL             ....  164
Dispersion correction           -0.030595895
FINAL SINGLE POINT ENERGY     -1288.392975284380
Dispersion correction            ... done
Dispersion correction           -0.030561073
FINAL SINGLE POINT ENERGY     -1288.393117287239
Dispersion correction            ... done
Dispersion correction           -0.030537685
FINAL SINGLE POINT ENERGY     -1288.393183590319
Dispersion correction            ... done
FINAL SINGLE POINT ENERGY     -1288.393205074979
FINAL SINGLE POINT ENERGY     -1288.393219097700
FINAL SINGLE POINT ENERGY     -1288.393230618442
FINAL SINGLE POINT ENERGY     -1288.393238124837
FINAL SINGLE POINT ENERGY     -1288.393247000269
FINAL SINGLE POINT ENERGY     -1288.393252191493
FINAL SINGLE POINT ENERGY     -1288.393257253326
FINAL SINGLE POINT ENERGY     -1288.393261261308
FINAL SINGLE POINT ENERGY     -1288.393264297246
FINAL SINGLE POINT ENERGY     -1288.393266620702
Dispersion correction            ... done
Dispersion correction           -0.030420120
FINAL SINGLE POINT ENERGY     -1288.393268362337
Dispersion correction            ... done
Dispersion correction           -0.030417516
FINAL SINGLE POINT ENERGY     -1288.393269987095
Dispersion correction            ... done
                    ***********************HURRAY********************

CARTESIAN COORDINATES (ANGSTROEM)
---------------------------------
  Ir     0.579289   -0.749483    0.534163
  C      0.053192   -2.834925    0.395275
  C     -0.024747   -2.372879    1.758684
  C      2.158444   -2.143361    1.048468
  C      1.378401   -2.668872   -0.048371
  C      1.299824   -1.995761    2.154151
  N     -1.031800    0.116583   -0.491815
  C     -2.321224    0.382771    0.171184
  C     -3.089790    1.547152   -0.436533
  H     -3.927350    1.795176    0.214084
  H     -3.515299    1.312212   -1.413026
  H     -2.471955    2.440610   -0.528464
  C     -3.158817   -0.890419    0.191824
  H     -2.061655    0.647220    1.197367
  H     -4.081720   -0.717184    0.743661
  H     -3.428466   -1.201328   -0.818410
  H     -2.639160   -1.715156    0.677232
  C     -0.853174    0.361313   -1.736600
  C      0.474379    0.209988   -2.268680
  H     -1.668704    0.707569   -2.365740
  C      1.597439    0.373664   -1.471715
  C      2.775744    0.073125   -2.206404
  S      0.853451   -0.232636   -3.876617
  C      2.524276   -0.256373   -3.505589
  H      1.599473    1.302130   -0.576218
  H      3.775941    0.154936   -1.806368
  H      3.240250   -0.493148   -4.278156
  H     -0.767962   -3.214742   -0.195270
  H     -0.891514   -2.407901    2.402078
  H      1.573443   -1.587389    3.116709
  O      1.548145    2.334704    0.211916
  O      0.543610    0.961970    1.653522
  C      1.029803    2.094737    1.314139
  C      0.982315    3.168830    2.359855
  H      0.918456    4.152016    1.900835
  H      1.907149    3.136837    2.939201
  H      0.155104    3.021240    3.049568
  H      3.214175   -1.919061    1.027893
  H      1.750405   -2.894976   -1.037091

 Multiplicity           Mult            ....    1
 Number of Electrons    NEL             ....  164
 Basis Dimension        Dim             ....  358

ORBITAL ENERGIES
----------------

  NO   OCC          E(Eh)            E(eV)
   0   2.0000     -89.753106     -2442.3062
   1   2.0000     -19.633791      -534.2626
   2   2.0000     -19.608643      -533.5783
   3   2.0000     -14.833992      -403.6535
   4   2.0000     -10.694616      -291.0153
   5   2.0000     -10.656047      -289.9658
   6   2.0000     -10.634360      -289.3756
   7   2.0000     -10.633956      -289.3646
   8   2.0000     -10.631541      -289.2989
   9   2.0000     -10.631464      -289.2968
  10   2.0000     -10.627318      -289.1840
  11   2.0000     -10.618558      -288.9457
  12   2.0000     -10.614029      -288.8224
  13   2.0000     -10.603526      -288.5366
  14   2.0000     -10.577076      -287.8169
  15   2.0000     -10.576549      -287.8025
  16   2.0000     -10.555412      -287.2274
  17   2.0000     -10.550494      -287.0935
  18   2.0000     -10.541002      -286.8353
  19   2.0000      -8.392585      -228.3738
  20   2.0000      -6.282580      -170.9577
  21   2.0000      -6.279023      -170.8609
  22   2.0000      -6.277376      -170.8161
  23   2.0000      -4.028642      -109.6249
  24   2.0000      -2.347778       -63.8863
  25   2.0000      -2.313706       -62.9591
  26   2.0000      -2.311336       -62.8947
  27   2.0000      -1.321535       -35.9608
  28   2.0000      -1.224677       -33.3251
  29   2.0000      -1.205280       -32.7973
  30   2.0000      -1.172142       -31.8956
  31   2.0000      -1.117805       -30.4170
  32   2.0000      -1.021758       -27.8035
  33   2.0000      -0.986488       -26.8437
  34   2.0000      -0.977138       -26.5893
  35   2.0000      -0.958727       -26.0883
  36   2.0000      -0.952116       -25.9084
  37   2.0000      -0.936645       -25.4874
  38   2.0000      -0.900919       -24.5152
  39   2.0000      -0.868439       -23.6314
  40   2.0000      -0.794268       -21.6131
  41   2.0000      -0.787670       -21.4336
  42   2.0000      -0.786392       -21.3988
  43   2.0000      -0.776203       -21.1216
  44   2.0000      -0.770577       -20.9685
  45   2.0000      -0.764887       -20.8136
  46   2.0000      -0.740689       -20.1552
  47   2.0000      -0.722484       -19.6598
  48   2.0000      -0.691030       -18.8039
  49   2.0000      -0.676933       -18.4203
  50   2.0000      -0.661931       -18.0121
  51   2.0000      -0.656524       -17.8649
  52   2.0000      -0.648536       -17.6476
  53   2.0000      -0.640809       -17.4373
  54   2.0000      -0.639584       -17.4040
  55   2.0000      -0.634722       -17.2717
  56   2.0000      -0.622368       -16.9355
  57   2.0000      -0.608217       -16.5504
  58   2.0000      -0.607413       -16.5286
  59   2.0000      -0.605586       -16.4788
  60   2.0000      -0.593833       -16.1590
  61   2.0000      -0.585747       -15.9390
  62   2.0000      -0.573240       -15.5987
  63   2.0000      -0.566529       -15.4160
  64   2.0000      -0.560357       -15.2481
  65   2.0000      -0.558634       -15.2012
  66   2.0000      -0.553834       -15.0706
  67   2.0000      -0.547743       -14.9049
  68   2.0000      -0.540074       -14.6962
  69   2.0000      -0.532950       -14.5023
  70   2.0000      -0.527315       -14.3490
  71   2.0000      -0.519278       -14.1303
  72   2.0000      -0.514952       -14.0126
  73   2.0000      -0.506827       -13.7915
  74   2.0000      -0.496049       -13.4982
  75   2.0000      -0.479943       -13.0599
  76   2.0000      -0.463612       -12.6155
  77   2.0000      -0.449594       -12.2341
  78   2.0000      -0.445196       -12.1144
  79   2.0000      -0.418450       -11.3866
  80   2.0000      -0.415786       -11.3141
  81   2.0000      -0.399714       -10.8768
  82   0.0000      -0.198572        -5.4034
  83   0.0000      -0.161417        -4.3924
  84   0.0000      -0.141094        -3.8394
  85   0.0000      -0.087401        -2.3783
  86   0.0000      -0.073208        -1.9921

MULLIKEN ATOMIC CHARGES
-----------------------
   0 Ir:    0.614982
   1 C :   -0.217603
   2 C :   -0.292429
   3 C :   -0.240164
   4 C :   -0.235714
   5 C :   -0.166282
   6 N :   -0.442089
   7 C :   -0.125996
   8 C :   -0.684226
   9 H :    0.269206
  10 H :    0.225434
  11 H :    0.257648
  12 C :   -0.634740
  13 H :    0.278292
  14 H :    0.261792
  15 H :    0.231786
  16 H :    0.229297
  17 C :    0.070106
  18 C :   -0.189312
  19 H :    0.285043
  20 C :   -0.418169
  21 C :   -0.153598
  22 S :    0.307643
  23 C :   -0.423139
  24 H :    0.495018
  25 H :    0.260864
  26 H :    0.294381
  27 H :    0.291367
  28 H :    0.291209
  29 H :    0.305048
  30 O :   -0.497315
  31 O :   -0.527518
  32 C :    0.630002
  33 C :   -0.745684
  34 H :    0.272623
  35 H :    0.271921
  36 H :    0.258263
  37 H :    0.293811
  38 H :    0.298238
Sum of atomic charges:    1.0000000

LOEWDIN ATOMIC CHARGES
----------------------
   0 Ir:   -0.218361
   1 C :   -0.046998
   2 C :   -0.066848
   3 C :   -0.062656
   4 C :   -0.043260
   5 C :   -0.020229
   6 N :   -0.018308
   7 C :   -0.068913
   8 C :   -0.362827
   9 H :    0.156004
  10 H :    0.133204
  11 H :    0.145358
  12 C :   -0.344025
  13 H :    0.154208
  14 H :    0.151866
  15 H :    0.137562
  16 H :    0.131809
  17 C :    0.035727
  18 C :   -0.204275
  19 H :    0.159520
  20 C :   -0.208038
  21 C :   -0.147552
  22 S :    0.462893
  23 C :   -0.259523
  24 H :    0.320528
  25 H :    0.158891
  26 H :    0.166680
  27 H :    0.185243
  28 H :    0.184893
  29 H :    0.192635
  30 O :   -0.271592
  31 O :   -0.192947
  32 C :    0.168241
  33 C :   -0.373124
  34 H :    0.162846
  35 H :    0.170673
  36 H :    0.155128
  37 H :    0.187195
  38 H :    0.188372

  Mayer bond orders larger than 0.100000
B(  0-Ir,  1-C ) :   0.4262 B(  0-Ir,  2-C ) :   0.5363 B(  0-Ir,  3-C ) :   0.4594
B(  0-Ir,  4-C ) :   0.4559 B(  0-Ir,  5-C ) :   0.4050 B(  0-Ir,  6-N ) :   0.4727
B(  0-Ir, 20-C ) :   0.2784 B(  0-Ir, 31-O ) :   0.5512 B(  1-C ,  2-C ) :   1.1154
B(  1-C ,  4-C ) :   1.2391 B(  1-C , 27-H ) :   0.9039 B(  2-C ,  5-C ) :   1.1368
B(  2-C , 28-H ) :   0.9075 B(  3-C ,  4-C ) :   1.1096 B(  3-C ,  5-C ) :   1.2283
B(  3-C , 37-H ) :   0.9055 B(  4-C , 38-H ) :   0.8997 B(  5-C , 29-H ) :   0.8980
B(  6-N ,  7-C ) :   0.8919 B(  6-N , 17-C ) :   1.6633 B(  7-C ,  8-C ) :   0.9915
B(  7-C , 12-C ) :   0.9685 B(  7-C , 13-H ) :   0.8773 B(  8-C ,  9-H ) :   0.9045
B(  8-C , 10-H ) :   0.9130 B(  8-C , 11-H ) :   0.9103 B( 12-C , 14-H ) :   0.9071
B( 12-C , 15-H ) :   0.9156 B( 12-C , 16-H ) :   0.9131 B( 17-C , 18-C ) :   1.0899
B( 17-C , 19-H ) :   0.8756 B( 18-C , 20-C ) :   1.3006 B( 18-C , 22-S ) :   1.2041
B( 20-C , 21-C ) :   1.2962 B( 20-C , 24-H ) :   0.4058 B( 21-C , 23-C ) :   1.5337
B( 21-C , 25-H ) :   0.9060 B( 22-S , 23-C ) :   1.2184 B( 23-C , 26-H ) :   0.8925
B( 24-H , 30-O ) :   0.2826 B( 30-O , 32-C ) :   1.6101 B( 31-O , 32-C ) :   1.3324
B( 32-C , 33-C ) :   0.9495 B( 33-C , 34-H ) :   0.9021 B( 33-C , 35-H ) :   0.8949
B( 33-C , 36-H ) :   0.9083

Dispersion correction           -0.030415289
FINAL SINGLE POINT ENERGY     -1288.393271207443

DIPOLE MOMENT
-------------
                                X             Y             Z
Electronic contribution:     34.42030     -72.13005      81.73610
Nuclear contribution   :    -35.03923      71.19553     -81.73445
                        -----------------------------------------
Total Dipole Moment    :     -0.61893      -0.93452       0.00165
                        -----------------------------------------
Magnitude (a.u.)       :      1.12089
Magnitude (Debye)      :      2.84909

Rotational constants in cm-1:     0.010536     0.008697     0.008044
Rotational constants in MHz :   315.868062   260.716141   241.147241

                             ****ORCA TERMINATED NORMALLY****
TOTAL RUN TIME: 0 days 1 hours 54 minutes 42 seconds 344 msec
