                         Program Version 5.0.3 -  RELEASE  -
|  1> ! Opt PBEh-3c
|  2> %geom Constraints
|  3> { B 0 20 2.5142857142857142 C }
|  4> { B 24 30 1.3714285714285714 C }
|  5>     end
|  6> end
|  7> %output
|  8> xyzfile=True
|  9> end
| 10> %scf
| 11> maxiter 250
| 12> end
| 13> %output
| 14> Print[P_Hirshfeld] = 1
| 15> end
| 16> % maxcore
| 17> 4000
| 18> *xyz 1 1
| 19> Ir   0.57263387  -0.73526970   0.49191334
| 20> C    0.01485606  -2.81182479   0.36146548
| 21> C    0.09347178  -2.37107875   1.73320825
| 22> C    2.18201513  -2.15150703   0.79030638
| 23> C    1.28158730  -2.64788736  -0.22641585
| 24> C    1.46192334  -2.02005820   1.98994519
| 25> N   -1.04101680   0.16075467  -0.51058297
| 26> C   -2.31867177   0.48970830   0.14229271
| 27> C   -3.12905904   1.54065885  -0.59941857
| 28> H   -3.96334378   1.84891046   0.02919950
| 29> H   -3.56252871   1.16734987  -1.52864087
| 30> H   -2.54188303   2.43314790  -0.81803059
| 31> C   -3.12398416  -0.78420730   0.36638097
| 32> H   -2.03526513   0.89766241   1.11411974
| 33> H   -4.04406045  -0.54549702   0.89767976
| 34> H   -3.39836030  -1.25141782  -0.58038357
| 35> H   -2.58331557  -1.51163671   0.97025082
| 36> C   -0.83159579   0.36610476  -1.75395836
| 37> C    0.51905081   0.16031803  -2.22762875
| 38> H   -1.61480883   0.71649580  -2.42040359
| 39> C    1.62519703   0.52312840  -1.46959746
| 40> C    2.82569744   0.12925793  -2.12593876
| 41> S    0.93780821  -0.58435906  -3.70875370
| 42> C    2.60744817  -0.46903671  -3.32809045
| 43> H    1.53858851   1.39930664  -0.64651726
| 44> H    3.81477525   0.33259800  -1.74175736
| 45> H    3.34167534  -0.83148962  -4.03172173
| 46> H   -0.87459238  -3.16645810  -0.13926222
| 47> H   -0.69839732  -2.40758217   2.46699113
| 48> H    1.84794013  -1.63733012   2.92378837
| 49> O    1.33241405   2.42782037   0.25894157
| 50> O    0.53759400   0.90836572   1.68626694
| 51> C    0.92297435   2.09840212   1.37219321
| 52> C    0.87620726   3.09186568   2.49791387
| 53> H    0.83119344   4.10708599   2.11327340
| 54> H    1.78832705   3.00004174   3.09095192
| 55> H    0.03717087   2.90697074   3.16525967
| 56> H    3.22745859  -1.92047863   0.64880374
| 57> H    1.54224511  -2.85964523  -1.25330380
| 58> *
| 59>
| 60>                          ****END OF INPUT****
 Total Charge           Charge          ....    1
 Multiplicity           Mult            ....    1
 Number of Electrons    NEL             ....  164
Dispersion correction           -0.030894540
FINAL SINGLE POINT ENERGY     -1288.394868450740
Dispersion correction            ... done
Dispersion correction           -0.030952077
FINAL SINGLE POINT ENERGY     -1288.392463541666
Dispersion correction            ... done
Dispersion correction           -0.030877033
FINAL SINGLE POINT ENERGY     -1288.394941783128
Dispersion correction            ... done
FINAL SINGLE POINT ENERGY     -1288.392757885994
FINAL SINGLE POINT ENERGY     -1288.395026094746
FINAL SINGLE POINT ENERGY     -1288.395054826545
FINAL SINGLE POINT ENERGY     -1288.395076252275
FINAL SINGLE POINT ENERGY     -1288.395088034231
FINAL SINGLE POINT ENERGY     -1288.395098549319
Dispersion correction            ... done
Dispersion correction           -0.030760519
FINAL SINGLE POINT ENERGY     -1288.395112204771
Dispersion correction            ... done
Dispersion correction           -0.030754674
FINAL SINGLE POINT ENERGY     -1288.395115467803
Dispersion correction            ... done
                    ***********************HURRAY********************

CARTESIAN COORDINATES (ANGSTROEM)
---------------------------------
  Ir     0.577123   -0.733267    0.493553
  C      0.019565   -2.811490    0.373279
  C      0.081386   -2.364987    1.743102
  C      2.181914   -2.148614    0.822973
  C      1.293508   -2.651112   -0.201046
  C      1.445605   -2.009631    2.012626
  N     -1.040938    0.151967   -0.511097
  C     -2.320420    0.467734    0.145395
  C     -3.123091    1.542964   -0.569954
  H     -3.956175    1.840780    0.065312
  H     -3.558116    1.197058   -1.508946
  H     -2.528959    2.436242   -0.765011
  C     -3.132135   -0.808637    0.329992
  H     -2.040532    0.847253    1.129612
  H     -4.053871   -0.581464    0.863556
  H     -3.403474   -1.248137   -0.630788
  H     -2.596548   -1.554825    0.915091
  C     -0.839992    0.364268   -1.755624
  C      0.506732    0.170662   -2.239015
  H     -1.630544    0.712368   -2.414480
  C      1.610437    0.477228   -1.452878
  C      2.811633    0.102941   -2.118329
  S      0.929024   -0.501604   -3.751634
  C      2.596038   -0.427221   -3.353135
  H      1.538576    1.370909   -0.625161
  H      3.800075    0.273357   -1.716893
  H      3.331595   -0.760190   -4.069831
  H     -0.863199   -3.169677   -0.136666
  H     -0.719117   -2.398217    2.467458
  H      1.820081   -1.620847    2.948688
  O      1.369547    2.415986    0.246653
  O      0.535673    0.922357    1.677859
  C      0.941567    2.101654    1.359727
  C      0.897401    3.109390    2.472154
  H      0.857472    4.120146    2.075349
  H      1.808854    3.020890    3.066751
  H      0.056750    2.935559    3.140245
  H      3.229926   -1.921860    0.694932
  H      1.566003   -2.870743   -1.223082

 Multiplicity           Mult            ....    1
 Number of Electrons    NEL             ....  164
 Basis Dimension        Dim             ....  358

ORBITAL ENERGIES
----------------

  NO   OCC          E(Eh)            E(eV)
   0   2.0000     -89.758256     -2442.4463
   1   2.0000     -19.626688      -534.0693
   2   2.0000     -19.593268      -533.1599
   3   2.0000     -14.839006      -403.7899
   4   2.0000     -10.684921      -290.7515
   5   2.0000     -10.660221      -290.0794
   6   2.0000     -10.637605      -289.4639
   7   2.0000     -10.634433      -289.3776
   8   2.0000     -10.633945      -289.3644
   9   2.0000     -10.632164      -289.3159
  10   2.0000     -10.631420      -289.2957
  11   2.0000     -10.626989      -289.1751
  12   2.0000     -10.615772      -288.8698
  13   2.0000     -10.607208      -288.6368
  14   2.0000     -10.580616      -287.9132
  15   2.0000     -10.578459      -287.8545
  16   2.0000     -10.556839      -287.2662
  17   2.0000     -10.551780      -287.1285
  18   2.0000     -10.535000      -286.6719
  19   2.0000      -8.397631      -228.5111
  20   2.0000      -6.287677      -171.0964
  21   2.0000      -6.284063      -170.9980
  22   2.0000      -6.282387      -170.9524
  23   2.0000      -4.030347      -109.6713
  24   2.0000      -2.349646       -63.9371
  25   2.0000      -2.315344       -63.0037
  26   2.0000      -2.313516       -62.9540
  27   2.0000      -1.310077       -35.6490
  28   2.0000      -1.214024       -33.0353
  29   2.0000      -1.210271       -32.9332
  30   2.0000      -1.174138       -31.9499
  31   2.0000      -1.122655       -30.5490
  32   2.0000      -1.025365       -27.9016
  33   2.0000      -0.988860       -26.9082
  34   2.0000      -0.979090       -26.6424
  35   2.0000      -0.962585       -26.1933
  36   2.0000      -0.956274       -26.0215
  37   2.0000      -0.929754       -25.2999
  38   2.0000      -0.902993       -24.5717
  39   2.0000      -0.871806       -23.7230
  40   2.0000      -0.796510       -21.6741
  41   2.0000      -0.789884       -21.4938
  42   2.0000      -0.788292       -21.4505
  43   2.0000      -0.779135       -21.2013
  44   2.0000      -0.772834       -21.0299
  45   2.0000      -0.758376       -20.6365
  46   2.0000      -0.743210       -20.2238
  47   2.0000      -0.722448       -19.6588
  48   2.0000      -0.693586       -18.8734
  49   2.0000      -0.674992       -18.3675
  50   2.0000      -0.664449       -18.0806
  51   2.0000      -0.651791       -17.7361
  52   2.0000      -0.649321       -17.6689
  53   2.0000      -0.640737       -17.4353
  54   2.0000      -0.638531       -17.3753
  55   2.0000      -0.632128       -17.2011
  56   2.0000      -0.623558       -16.9679
  57   2.0000      -0.610720       -16.6185
  58   2.0000      -0.609526       -16.5860
  59   2.0000      -0.607833       -16.5400
  60   2.0000      -0.595961       -16.2169
  61   2.0000      -0.587104       -15.9759
  62   2.0000      -0.575425       -15.6581
  63   2.0000      -0.568288       -15.4639
  64   2.0000      -0.562401       -15.3037
  65   2.0000      -0.556292       -15.1375
  66   2.0000      -0.552540       -15.0354
  67   2.0000      -0.548559       -14.9271
  68   2.0000      -0.539609       -14.6835
  69   2.0000      -0.534426       -14.5425
  70   2.0000      -0.527863       -14.3639
  71   2.0000      -0.520709       -14.1692
  72   2.0000      -0.515943       -14.0395
  73   2.0000      -0.507298       -13.8043
  74   2.0000      -0.491275       -13.3683
  75   2.0000      -0.480726       -13.0812
  76   2.0000      -0.463964       -12.6251
  77   2.0000      -0.450879       -12.2690
  78   2.0000      -0.442312       -12.0359
  79   2.0000      -0.421317       -11.4646
  80   2.0000      -0.417182       -11.3521
  81   2.0000      -0.402690       -10.9577
  82   0.0000      -0.200455        -5.4546
  83   0.0000      -0.164255        -4.4696
  84   0.0000      -0.141368        -3.8468
  85   0.0000      -0.096114        -2.6154
  86   0.0000      -0.075540        -2.0556

MULLIKEN ATOMIC CHARGES
-----------------------
   0 Ir:    0.618733
   1 C :   -0.209003
   2 C :   -0.293837
   3 C :   -0.232228
   4 C :   -0.244698
   5 C :   -0.167382
   6 N :   -0.432233
   7 C :   -0.118634
   8 C :   -0.693343
   9 H :    0.272141
  10 H :    0.226160
  11 H :    0.260068
  12 C :   -0.638513
  13 H :    0.280317
  14 H :    0.264364
  15 H :    0.230983
  16 H :    0.231871
  17 C :    0.068544
  18 C :   -0.203472
  19 H :    0.290330
  20 C :   -0.420622
  21 C :   -0.144694
  22 S :    0.298560
  23 C :   -0.427634
  24 H :    0.501865
  25 H :    0.264129
  26 H :    0.295899
  27 H :    0.292577
  28 H :    0.293426
  29 H :    0.306266
  30 O :   -0.488560
  31 O :   -0.538380
  32 C :    0.619617
  33 C :   -0.745867
  34 H :    0.270220
  35 H :    0.267246
  36 H :    0.254152
  37 H :    0.295339
  38 H :    0.296294
Sum of atomic charges:    1.0000000

LOEWDIN ATOMIC CHARGES
----------------------
   0 Ir:   -0.214253
   1 C :   -0.039410
   2 C :   -0.060130
   3 C :   -0.048900
   4 C :   -0.053996
   5 C :   -0.026148
   6 N :   -0.010868
   7 C :   -0.068509
   8 C :   -0.364610
   9 H :    0.157209
  10 H :    0.133825
  11 H :    0.146570
  12 C :   -0.343704
  13 H :    0.155866
  14 H :    0.152945
  15 H :    0.137306
  16 H :    0.133703
  17 C :    0.036087
  18 C :   -0.193437
  19 H :    0.162074
  20 C :   -0.194921
  21 C :   -0.144439
  22 S :    0.460784
  23 C :   -0.261946
  24 H :    0.296672
  25 H :    0.160861
  26 H :    0.167208
  27 H :    0.185822
  28 H :    0.186210
  29 H :    0.193493
  30 O :   -0.276980
  31 O :   -0.204292
  32 C :    0.158780
  33 C :   -0.375470
  34 H :    0.160292
  35 H :    0.167786
  36 H :    0.153699
  37 H :    0.187855
  38 H :    0.186964

  Mayer bond orders larger than 0.100000
B(  0-Ir,  1-C ) :   0.4225 B(  0-Ir,  2-C ) :   0.5452 B(  0-Ir,  3-C ) :   0.4609
B(  0-Ir,  4-C ) :   0.4551 B(  0-Ir,  5-C ) :   0.4037 B(  0-Ir,  6-N ) :   0.4677
B(  0-Ir, 20-C ) :   0.2395 B(  0-Ir, 31-O ) :   0.5769 B(  1-C ,  2-C ) :   1.1151
B(  1-C ,  4-C ) :   1.2430 B(  1-C , 27-H ) :   0.9027 B(  2-C ,  5-C ) :   1.1309
B(  2-C , 28-H ) :   0.9068 B(  3-C ,  4-C ) :   1.1056 B(  3-C ,  5-C ) :   1.2348
B(  3-C , 37-H ) :   0.9034 B(  4-C , 38-H ) :   0.8989 B(  5-C , 29-H ) :   0.8980
B(  6-N ,  7-C ) :   0.8915 B(  6-N , 17-C ) :   1.6859 B(  7-C ,  8-C ) :   0.9923
B(  7-C , 12-C ) :   0.9692 B(  7-C , 13-H ) :   0.8730 B(  8-C ,  9-H ) :   0.9035
B(  8-C , 10-H ) :   0.9124 B(  8-C , 11-H ) :   0.9085 B( 12-C , 14-H ) :   0.9064
B( 12-C , 15-H ) :   0.9154 B( 12-C , 16-H ) :   0.9115 B( 17-C , 18-C ) :   1.0622
B( 17-C , 19-H ) :   0.8741 B( 18-C , 20-C ) :   1.3019 B( 18-C , 22-S ) :   1.2143
B( 20-C , 21-C ) :   1.2742 B( 20-C , 24-H ) :   0.4603 B( 21-C , 23-C ) :   1.5435
B( 21-C , 25-H ) :   0.9051 B( 22-S , 23-C ) :   1.2064 B( 23-C , 26-H ) :   0.8926
B( 24-H , 30-O ) :   0.2434 B( 30-O , 32-C ) :   1.6720 B( 31-O , 32-C ) :   1.2878
B( 32-C , 33-C ) :   0.9478 B( 33-C , 34-H ) :   0.9045 B( 33-C , 35-H ) :   0.8979
B( 33-C , 36-H ) :   0.9091

Dispersion correction           -0.030750253
FINAL SINGLE POINT ENERGY     -1288.395117987745

DIPOLE MOMENT
-------------
                                X             Y             Z
Electronic contribution:     33.94604     -69.09346      76.85986
Nuclear contribution   :    -34.57239      67.92242     -77.02171
                        -----------------------------------------
Total Dipole Moment    :     -0.62635      -1.17104      -0.16185
                        -----------------------------------------
Magnitude (a.u.)       :      1.33785
Magnitude (Debye)      :      3.40056

Rotational constants in cm-1:     0.010632     0.008985     0.008194
Rotational constants in MHz :   318.741918   269.364928   245.648589

                             ****ORCA TERMINATED NORMALLY****
TOTAL RUN TIME: 0 days 1 hours 28 minutes 59 seconds 873 msec
