                         Program Version 5.0.3 -  RELEASE  -
|  1> ! Opt PBEh-3c
|  2> %geom Constraints
|  3> { B 0 20 2.342857142857143 C }
|  4> { B 24 30 1.3285714285714287 C }
|  5>     end
|  6> end
|  7> %output
|  8> xyzfile=True
|  9> end
| 10> %scf
| 11> maxiter 250
| 12> end
| 13> %output
| 14> Print[P_Hirshfeld] = 1
| 15> end
| 16> % maxcore
| 17> 4000
| 18> *xyz 1 1
| 19> Ir   0.60058775  -0.73650909   0.49154207
| 20> C    0.09057211  -2.83214418   0.36153682
| 21> C   -0.02213237  -2.37066360   1.72186361
| 22> C    2.17481399  -2.11608465   1.05628308
| 23> C    1.42566840  -2.65940728  -0.05160880
| 24> C    1.28455273  -1.97117004   2.14087920
| 25> N   -1.04008283   0.12202379  -0.49973008
| 26> C   -2.31994162   0.37766593   0.18314924
| 27> C   -3.09197566   1.55722602  -0.39016601
| 28> H   -3.92405220   1.79003491   0.27289549
| 29> H   -3.52494875   1.34621951  -1.36882720
| 30> H   -2.47363289   2.45193344  -0.46509124
| 31> C   -3.15951095  -0.89459941   0.18300984
| 32> H   -2.04766317   0.61781909   1.21184491
| 33> H   -4.07250149  -0.73568327   0.75526014
| 34> H   -3.44665064  -1.17701982  -0.83072103
| 35> H   -2.63220512  -1.73312529   0.63543407
| 36> C   -0.87521127   0.38308964  -1.74272669
| 37> C    0.45105325   0.21777919  -2.27273371
| 38> H   -1.68968493   0.74815584  -2.36186948
| 39> C    1.55556514   0.29751449  -1.43470972
| 40> C    2.74532906  -0.00680179  -2.15289986
| 41> S    0.85777204  -0.17255433  -3.88125086
| 42> C    2.51796609  -0.26987992  -3.47056538
| 43> H    1.58266583   1.25281509  -0.59522568
| 44> H    3.73614495   0.02535014  -1.72364866
| 45> H    3.24528786  -0.49579840  -4.23563510
| 46> H   -0.71231620  -3.22522838  -0.24519572
| 47> H   -0.90231869  -2.41100202   2.34608735
| 48> H    1.53096722  -1.55197351   3.10621809
| 49> O    1.54912592   2.34725464   0.18216898
| 50> O    0.54926086   0.97282007   1.62207916
| 51> C    1.03212876   2.10739641   1.28424333
| 52> C    0.98065408   3.18143108   2.33065879
| 53> H    0.91930360   4.16496075   1.87206975
| 54> H    1.90265241   3.14827667   2.91432797
| 55> H    0.15007904   3.03389176   3.01636154
| 56> H    3.23053814  -1.89199696   1.06469236
| 57> H    1.82150957  -2.89282650  -1.02926036
| 58> *
| 59>
| 60>                          ****END OF INPUT****
 Total Charge           Charge          ....    1
 Multiplicity           Mult            ....    1
 Number of Electrons    NEL             ....  164
Dispersion correction           -0.030650592
FINAL SINGLE POINT ENERGY     -1288.399532488947
Dispersion correction            ... done
Dispersion correction           -0.030608218
FINAL SINGLE POINT ENERGY     -1288.399694201706
Dispersion correction            ... done
Dispersion correction           -0.030573330
FINAL SINGLE POINT ENERGY     -1288.399801626671
Dispersion correction            ... done
FINAL SINGLE POINT ENERGY     -1288.399846633681
FINAL SINGLE POINT ENERGY     -1288.399870493522
FINAL SINGLE POINT ENERGY     -1288.399880927892
FINAL SINGLE POINT ENERGY     -1288.399883897403
FINAL SINGLE POINT ENERGY     -1288.399887712819
FINAL SINGLE POINT ENERGY     -1288.399891933169
FINAL SINGLE POINT ENERGY     -1288.399894364573
FINAL SINGLE POINT ENERGY     -1288.399892333156
FINAL SINGLE POINT ENERGY     -1288.399891238493
FINAL SINGLE POINT ENERGY     -1288.399892284979
Dispersion correction            ... done
Dispersion correction           -0.030469674
FINAL SINGLE POINT ENERGY     -1288.399893280922
Dispersion correction            ... done
Dispersion correction           -0.030467389
FINAL SINGLE POINT ENERGY     -1288.399894390856
Dispersion correction            ... done
                    ***********************HURRAY********************

CARTESIAN COORDINATES (ANGSTROEM)
---------------------------------
  Ir     0.596133   -0.736413    0.488101
  C      0.093536   -2.835360    0.375225
  C     -0.055823   -2.365261    1.728719
  C      2.157571   -2.104842    1.115277
  C      1.440054   -2.664159   -0.003698
  C      1.235096   -1.951916    2.174288
  N     -1.049378    0.116173   -0.501455
  C     -2.333960    0.345075    0.181828
  C     -3.116366    1.529776   -0.367062
  H     -3.952473    1.738511    0.298794
  H     -3.544558    1.336823   -1.351568
  H     -2.507225    2.432364   -0.419647
  C     -3.162943   -0.933798    0.148035
  H     -2.068900    0.565055    1.216957
  H     -4.079727   -0.796912    0.720057
  H     -3.443379   -1.193747   -0.873553
  H     -2.630755   -1.779168    0.581298
  C     -0.884335    0.411975   -1.737340
  C      0.437950    0.258061   -2.274363
  H     -1.699830    0.793675   -2.344758
  C      1.535965    0.234531   -1.425786
  C      2.722902   -0.042178   -2.159329
  S      0.847067   -0.007406   -3.907115
  C      2.499173   -0.185020   -3.496829
  H      1.633469    1.206421   -0.566401
  H      3.710854   -0.075296   -1.723633
  H      3.226675   -0.366195   -4.273500
  H     -0.690504   -3.239705   -0.248418
  H     -0.951098   -2.403732    2.330962
  H      1.454108   -1.520274    3.140795
  O      1.686344    2.293246    0.195910
  O      0.537877    0.997070    1.594883
  C      1.093357    2.097823    1.272299
  C      1.039493    3.200465    2.287342
  H      0.957762    4.168184    1.798214
  H      1.971657    3.202377    2.855237
  H      0.219542    3.062988    2.986968
  H      3.212827   -1.881950    1.152072
  H      1.861211   -2.908071   -0.968066

 Multiplicity           Mult            ....    1
 Number of Electrons    NEL             ....  164
 Basis Dimension        Dim             ....  358

ORBITAL ENERGIES
----------------

  NO   OCC          E(Eh)            E(eV)
   0   2.0000     -89.757798     -2442.4338
   1   2.0000     -19.634281      -534.2759
   2   2.0000     -19.614612      -533.7407
   3   2.0000     -14.833559      -403.6416
   4   2.0000     -10.695552      -291.0408
   5   2.0000     -10.655314      -289.9458
   6   2.0000     -10.631182      -289.2892
   7   2.0000     -10.629264      -289.2370
   8   2.0000     -10.627980      -289.2020
   9   2.0000     -10.624165      -289.0982
  10   2.0000     -10.621288      -289.0199
  11   2.0000     -10.620512      -288.9988
  12   2.0000     -10.613132      -288.7980
  13   2.0000     -10.606385      -288.6144
  14   2.0000     -10.583472      -287.9909
  15   2.0000     -10.582284      -287.9586
  16   2.0000     -10.554301      -287.1971
  17   2.0000     -10.550354      -287.0897
  18   2.0000     -10.542684      -286.8810
  19   2.0000      -8.397279      -228.5016
  20   2.0000      -6.287206      -171.0836
  21   2.0000      -6.283650      -170.9868
  22   2.0000      -6.282177      -170.9467
  23   2.0000      -4.024974      -109.5251
  24   2.0000      -2.343241       -63.7628
  25   2.0000      -2.310143       -62.8622
  26   2.0000      -2.307721       -62.7963
  27   2.0000      -1.323551       -36.0157
  28   2.0000      -1.225455       -33.3463
  29   2.0000      -1.205435       -32.8015
  30   2.0000      -1.167138       -31.7594
  31   2.0000      -1.122286       -30.5389
  32   2.0000      -1.022406       -27.8211
  33   2.0000      -0.980683       -26.6857
  34   2.0000      -0.972601       -26.4658
  35   2.0000      -0.962561       -26.1926
  36   2.0000      -0.955684       -26.0055
  37   2.0000      -0.938221       -25.5303
  38   2.0000      -0.900306       -24.4986
  39   2.0000      -0.869786       -23.6681
  40   2.0000      -0.795567       -21.6485
  41   2.0000      -0.782884       -21.3034
  42   2.0000      -0.782115       -21.2824
  43   2.0000      -0.777977       -21.1698
  44   2.0000      -0.767157       -20.8754
  45   2.0000      -0.763359       -20.7720
  46   2.0000      -0.740876       -20.1603
  47   2.0000      -0.722258       -19.6536
  48   2.0000      -0.691002       -18.8031
  49   2.0000      -0.680642       -18.5212
  50   2.0000      -0.662216       -18.0198
  51   2.0000      -0.657908       -17.9026
  52   2.0000      -0.647910       -17.6305
  53   2.0000      -0.639271       -17.3954
  54   2.0000      -0.635498       -17.2928
  55   2.0000      -0.632827       -17.2201
  56   2.0000      -0.621659       -16.9162
  57   2.0000      -0.607960       -16.5434
  58   2.0000      -0.602862       -16.4047
  59   2.0000      -0.602116       -16.3844
  60   2.0000      -0.595653       -16.2085
  61   2.0000      -0.588649       -16.0180
  62   2.0000      -0.576149       -15.6778
  63   2.0000      -0.567272       -15.4362
  64   2.0000      -0.562383       -15.3032
  65   2.0000      -0.561048       -15.2669
  66   2.0000      -0.554285       -15.0829
  67   2.0000      -0.547150       -14.8887
  68   2.0000      -0.540910       -14.7189
  69   2.0000      -0.533992       -14.5307
  70   2.0000      -0.528028       -14.3684
  71   2.0000      -0.518258       -14.1025
  72   2.0000      -0.513663       -13.9775
  73   2.0000      -0.502906       -13.6848
  74   2.0000      -0.496141       -13.5007
  75   2.0000      -0.479765       -13.0551
  76   2.0000      -0.471720       -12.8362
  77   2.0000      -0.447072       -12.1654
  78   2.0000      -0.446483       -12.1494
  79   2.0000      -0.418589       -11.3904
  80   2.0000      -0.416746       -11.3402
  81   2.0000      -0.398855       -10.8534
  82   0.0000      -0.199209        -5.4207
  83   0.0000      -0.150348        -4.0912
  84   0.0000      -0.141521        -3.8510
  85   0.0000      -0.086252        -2.3470
  86   0.0000      -0.071750        -1.9524

MULLIKEN ATOMIC CHARGES
-----------------------
   0 Ir:    0.605613
   1 C :   -0.226478
   2 C :   -0.280566
   3 C :   -0.252483
   4 C :   -0.231277
   5 C :   -0.161750
   6 N :   -0.438630
   7 C :   -0.126136
   8 C :   -0.682768
   9 H :    0.269133
  10 H :    0.224796
  11 H :    0.255614
  12 C :   -0.634334
  13 H :    0.279294
  14 H :    0.260323
  15 H :    0.232034
  16 H :    0.230853
  17 C :    0.070320
  18 C :   -0.158379
  19 H :    0.284799
  20 C :   -0.475713
  21 C :   -0.132713
  22 S :    0.324450
  23 C :   -0.425714
  24 H :    0.485182
  25 H :    0.263266
  26 H :    0.296124
  27 H :    0.288646
  28 H :    0.286966
  29 H :    0.302244
  30 O :   -0.490742
  31 O :   -0.519272
  32 C :    0.631727
  33 C :   -0.744907
  34 H :    0.272880
  35 H :    0.273649
  36 H :    0.259647
  37 H :    0.288561
  38 H :    0.295741
Sum of atomic charges:    1.0000000

LOEWDIN ATOMIC CHARGES
----------------------
   0 Ir:   -0.239651
   1 C :   -0.050959
   2 C :   -0.081633
   3 C :   -0.078071
   4 C :   -0.041887
   5 C :   -0.016147
   6 N :   -0.012005
   7 C :   -0.069077
   8 C :   -0.362476
   9 H :    0.156048
  10 H :    0.132889
  11 H :    0.144295
  12 C :   -0.343998
  13 H :    0.154642
  14 H :    0.151290
  15 H :    0.137658
  16 H :    0.132157
  17 C :    0.032573
  18 C :   -0.196443
  19 H :    0.159606
  20 C :   -0.213946
  21 C :   -0.137147
  22 S :    0.479444
  23 C :   -0.259357
  24 H :    0.336061
  25 H :    0.160313
  26 H :    0.167875
  27 H :    0.183826
  28 H :    0.182630
  29 H :    0.190987
  30 O :   -0.267684
  31 O :   -0.188211
  32 C :    0.166729
  33 C :   -0.372403
  34 H :    0.164040
  35 H :    0.171416
  36 H :    0.155138
  37 H :    0.184774
  38 H :    0.186706

  Mayer bond orders larger than 0.100000
B(  0-Ir,  1-C ) :   0.4283 B(  0-Ir,  2-C ) :   0.4880 B(  0-Ir,  3-C ) :   0.4624
B(  0-Ir,  4-C ) :   0.4446 B(  0-Ir,  5-C ) :   0.3998 B(  0-Ir,  6-N ) :   0.4675
B(  0-Ir, 20-C ) :   0.3552 B(  0-Ir, 31-O ) :   0.5375 B(  1-C ,  2-C ) :   1.1226
B(  1-C ,  4-C ) :   1.2356 B(  1-C , 27-H ) :   0.9056 B(  2-C ,  5-C ) :   1.1603
B(  2-C , 28-H ) :   0.9093 B(  3-C ,  4-C ) :   1.1194 B(  3-C ,  5-C ) :   1.2089
B(  3-C , 37-H ) :   0.9089 B(  4-C , 38-H ) :   0.9000 B(  5-C , 29-H ) :   0.8992
B(  6-N ,  7-C ) :   0.8937 B(  6-N , 17-C ) :   1.6576 B(  7-C ,  8-C ) :   0.9909
B(  7-C , 12-C ) :   0.9675 B(  7-C , 13-H ) :   0.8771 B(  8-C ,  9-H ) :   0.9047
B(  8-C , 10-H ) :   0.9130 B(  8-C , 11-H ) :   0.9113 B( 12-C , 14-H ) :   0.9075
B( 12-C , 15-H ) :   0.9155 B( 12-C , 16-H ) :   0.9128 B( 17-C , 18-C ) :   1.0986
B( 17-C , 19-H ) :   0.8760 B( 18-C , 20-C ) :   1.2747 B( 18-C , 22-S ) :   1.2221
B( 20-C , 21-C ) :   1.2900 B( 20-C , 24-H ) :   0.3759 B( 21-C , 23-C ) :   1.5373
B( 21-C , 25-H ) :   0.9048 B( 22-S , 23-C ) :   1.2198 B( 23-C , 26-H ) :   0.8918
B( 24-H , 30-O ) :   0.3119 B( 30-O , 32-C ) :   1.5877 B( 31-O , 32-C ) :   1.3539
B( 32-C , 33-C ) :   0.9477 B( 33-C , 34-H ) :   0.9009 B( 33-C , 35-H ) :   0.8942
B( 33-C , 36-H ) :   0.9083

Dispersion correction           -0.030466051
FINAL SINGLE POINT ENERGY     -1288.399895324498

DIPOLE MOMENT
-------------
                                X             Y             Z
Electronic contribution:     35.97790     -72.27494      77.44272
Nuclear contribution   :    -36.59816      71.53463     -77.57333
                        -----------------------------------------
Total Dipole Moment    :     -0.62026      -0.74031      -0.13060
                        -----------------------------------------
Magnitude (a.u.)       :      0.97460
Magnitude (Debye)      :      2.47723

Rotational constants in cm-1:     0.010531     0.008733     0.008118
Rotational constants in MHz :   315.715621   261.823299   243.380774

                             ****ORCA TERMINATED NORMALLY****
TOTAL RUN TIME: 0 days 1 hours 55 minutes 35 seconds 523 msec
