                         Program Version 5.0.3 -  RELEASE  -
|  1> ! Opt PBEh-3c
|  2> %geom Constraints
|  3> { B 0 20 2.342857142857143 C }
|  4> { B 24 30 1.4857142857142858 C }
|  5>     end
|  6> end
|  7> %output
|  8> xyzfile=True
|  9> end
| 10> %scf
| 11> maxiter 250
| 12> end
| 13> %output
| 14> Print[P_Hirshfeld] = 1
| 15> end
| 16> % maxcore
| 17> 4000
| 18> *xyz 1 1
| 19> Ir   0.60814652  -0.70811714   0.42110778
| 20> C    0.05759013  -2.79730116   0.33622372
| 21> C    0.13143449  -2.33836338   1.70043238
| 22> C    2.21991601  -2.11522501   0.75259245
| 23> C    1.32491401  -2.63940161  -0.25408413
| 24> C    1.49306558  -1.96605361   1.94829723
| 25> N   -1.04879459   0.17439456  -0.53031890
| 26> C   -2.31268927   0.49752262   0.14817018
| 27> C   -3.12473649   1.56999555  -0.55964165
| 28> H   -3.95020621   1.86904536   0.08488478
| 29> H   -3.57072540   1.22060184  -1.49230736
| 30> H   -2.53353483   2.46330162  -0.76352804
| 31> C   -3.12039764  -0.77836914   0.35321703
| 32> H   -2.01123031   0.87948922   1.12475226
| 33> H   -4.02730825  -0.54999175   0.91097504
| 34> H   -3.41720892  -1.21735496  -0.60018833
| 35> H   -2.56907176  -1.52462504   0.92346063
| 36> C   -0.85794713   0.38699175  -1.77414937
| 37> C    0.49160639   0.15214333  -2.23991453
| 38> H   -1.63713517   0.75651997  -2.43423310
| 39> C    1.58483693   0.44177239  -1.42698922
| 40> C    2.79469571   0.02329046  -2.05726239
| 41> S    0.93030465  -0.58756566  -3.70833062
| 42> C    2.59361855  -0.54166949  -3.27596220
| 43> H    1.53087862   1.34211176  -0.68490152
| 44> H    3.77636395   0.18804585  -1.63741651
| 45> H    3.33469861  -0.91517705  -3.96631736
| 46> H   -0.82828799  -3.16760096  -0.15948413
| 47> H   -0.66060293  -2.36699335   2.43401658
| 48> H    1.87379240  -1.56000792   2.87448250
| 49> O    1.30624682   2.48768620   0.25701129
| 50> O    0.53239304   0.91914152   1.64097778
| 51> C    0.90119646   2.12521970   1.35713794
| 52> C    0.83012015   3.08358212   2.51406823
| 53> H    0.79153080   4.11028438   2.16046782
| 54> H    1.72871360   2.97342520   3.12422474
| 55> H   -0.02295148   2.87861094   3.15766367
| 56> H    3.26702645  -1.89065442   0.61509277
| 57> H    1.58910855  -2.87951473  -1.27348735
| 58> *
| 59>
| 60>                          ****END OF INPUT****
 Total Charge           Charge          ....    1
 Multiplicity           Mult            ....    1
 Number of Electrons    NEL             ....  164
Dispersion correction           -0.031113200
FINAL SINGLE POINT ENERGY     -1288.400270087442
Dispersion correction            ... done
Dispersion correction           -0.031130321
FINAL SINGLE POINT ENERGY     -1288.399277727360
Dispersion correction            ... done
Dispersion correction           -0.031067387
FINAL SINGLE POINT ENERGY     -1288.400386368585
Dispersion correction            ... done
FINAL SINGLE POINT ENERGY     -1288.399196483979
FINAL SINGLE POINT ENERGY     -1288.400476380011
FINAL SINGLE POINT ENERGY     -1288.400479288476
FINAL SINGLE POINT ENERGY     -1288.400519978396
FINAL SINGLE POINT ENERGY     -1288.400532183444
FINAL SINGLE POINT ENERGY     -1288.400543731643
Dispersion correction            ... done
Dispersion correction           -0.030985410
FINAL SINGLE POINT ENERGY     -1288.400556505218
Dispersion correction            ... done
Dispersion correction           -0.030985012
FINAL SINGLE POINT ENERGY     -1288.400557067484
Dispersion correction            ... done
                    ***********************HURRAY********************

CARTESIAN COORDINATES (ANGSTROEM)
---------------------------------
  Ir     0.612065   -0.707934    0.426153
  C      0.065541   -2.800271    0.342653
  C      0.117884   -2.341993    1.706968
  C      2.220317   -2.111704    0.788692
  C      1.341381   -2.640302   -0.229561
  C      1.472975   -1.961984    1.972762
  N     -1.047665    0.164879   -0.528139
  C     -2.312538    0.475990    0.154848
  C     -3.114047    1.575697   -0.523138
  H     -3.938094    1.863648    0.128245
  H     -3.561354    1.257044   -1.465997
  H     -2.513726    2.468430   -0.700766
  C     -3.129428   -0.800469    0.316806
  H     -2.013551    0.825626    1.144115
  H     -4.036821   -0.584544    0.878788
  H     -3.425432   -1.207141   -0.651055
  H     -2.583851   -1.567973    0.863866
  C     -0.866589    0.382696   -1.773575
  C      0.478683    0.159993   -2.249593
  H     -1.654093    0.748904   -2.425458
  C      1.565476    0.393402   -1.408798
  C      2.778109   -0.001925   -2.048366
  S      0.925847   -0.504497   -3.748675
  C      2.584234   -0.498835   -3.298100
  H      1.522391    1.311439   -0.669213
  H      3.757255    0.130444   -1.611535
  H      3.328694   -0.841672   -4.000646
  H     -0.811223   -3.174285   -0.166304
  H     -0.685222   -2.371335    2.428226
  H      1.838528   -1.552762    2.903683
  O      1.329533    2.474547    0.234851
  O      0.534487    0.932193    1.634848
  C      0.915069    2.129130    1.339138
  C      0.850452    3.105956    2.480262
  H      0.817866    4.127401    2.111274
  H      1.749040    2.999360    3.091072
  H     -0.003365    2.915204    3.127112
  H      3.270102   -1.889551    0.669499
  H      1.620440   -2.883617   -1.244203

 Multiplicity           Mult            ....    1
 Number of Electrons    NEL             ....  164
 Basis Dimension        Dim             ....  358

ORBITAL ENERGIES
----------------

  NO   OCC          E(Eh)            E(eV)
   0   2.0000     -89.767877     -2442.7081
   1   2.0000     -19.620247      -533.8941
   2   2.0000     -19.585732      -532.9548
   3   2.0000     -14.841996      -403.8712
   4   2.0000     -10.677010      -290.5362
   5   2.0000     -10.662856      -290.1511
   6   2.0000     -10.637464      -289.4601
   7   2.0000     -10.635354      -289.4027
   8   2.0000     -10.632240      -289.3179
   9   2.0000     -10.629194      -289.2351
  10   2.0000     -10.628677      -289.2210
  11   2.0000     -10.627982      -289.2021
  12   2.0000     -10.615814      -288.8710
  13   2.0000     -10.613136      -288.7981
  14   2.0000     -10.589504      -288.1550
  15   2.0000     -10.586907      -288.0844
  16   2.0000     -10.556966      -287.2696
  17   2.0000     -10.552023      -287.1351
  18   2.0000     -10.531048      -286.5644
  19   2.0000      -8.407226      -228.7722
  20   2.0000      -6.297216      -171.3560
  21   2.0000      -6.293561      -171.2565
  22   2.0000      -6.292090      -171.2165
  23   2.0000      -4.027744      -109.6005
  24   2.0000      -2.346381       -63.8483
  25   2.0000      -2.312695       -62.9316
  26   2.0000      -2.311505       -62.8993
  27   2.0000      -1.301498       -35.4156
  28   2.0000      -1.214943       -33.0603
  29   2.0000      -1.204492       -32.7759
  30   2.0000      -1.170881       -31.8613
  31   2.0000      -1.131400       -30.7870
  32   2.0000      -1.028520       -27.9875
  33   2.0000      -0.985203       -26.8087
  34   2.0000      -0.976230       -26.5646
  35   2.0000      -0.970461       -26.4076
  36   2.0000      -0.963209       -26.2102
  37   2.0000      -0.924224       -25.1494
  38   2.0000      -0.903354       -24.5815
  39   2.0000      -0.876140       -23.8410
  40   2.0000      -0.800347       -21.7785
  41   2.0000      -0.787011       -21.4157
  42   2.0000      -0.786277       -21.3957
  43   2.0000      -0.783622       -21.3234
  44   2.0000      -0.771050       -20.9813
  45   2.0000      -0.754984       -20.5442
  46   2.0000      -0.743491       -20.2314
  47   2.0000      -0.724237       -19.7075
  48   2.0000      -0.693504       -18.8712
  49   2.0000      -0.672613       -18.3027
  50   2.0000      -0.665837       -18.1183
  51   2.0000      -0.650820       -17.7097
  52   2.0000      -0.645838       -17.5741
  53   2.0000      -0.639094       -17.3906
  54   2.0000      -0.634636       -17.2693
  55   2.0000      -0.627056       -17.0631
  56   2.0000      -0.623131       -16.9563
  57   2.0000      -0.613958       -16.7067
  58   2.0000      -0.606678       -16.5086
  59   2.0000      -0.606070       -16.4920
  60   2.0000      -0.600350       -16.3363
  61   2.0000      -0.591263       -16.0891
  62   2.0000      -0.581625       -15.8268
  63   2.0000      -0.574522       -15.6335
  64   2.0000      -0.564881       -15.3712
  65   2.0000      -0.554085       -15.0774
  66   2.0000      -0.552350       -15.0302
  67   2.0000      -0.548488       -14.9251
  68   2.0000      -0.540081       -14.6964
  69   2.0000      -0.536190       -14.5905
  70   2.0000      -0.527848       -14.3635
  71   2.0000      -0.520308       -14.1583
  72   2.0000      -0.515986       -14.0407
  73   2.0000      -0.502941       -13.6857
  74   2.0000      -0.486905       -13.2494
  75   2.0000      -0.481613       -13.1054
  76   2.0000      -0.471373       -12.8267
  77   2.0000      -0.446264       -12.1435
  78   2.0000      -0.441246       -12.0069
  79   2.0000      -0.425374       -11.5750
  80   2.0000      -0.416499       -11.3335
  81   2.0000      -0.402379       -10.9493
  82   0.0000      -0.204723        -5.5708
  83   0.0000      -0.157781        -4.2935
  84   0.0000      -0.141927        -3.8620
  85   0.0000      -0.100001        -2.7212
  86   0.0000      -0.077851        -2.1184

MULLIKEN ATOMIC CHARGES
-----------------------
   0 Ir:    0.608818
   1 C :   -0.210957
   2 C :   -0.283486
   3 C :   -0.239493
   4 C :   -0.247387
   5 C :   -0.163787
   6 N :   -0.422266
   7 C :   -0.122349
   8 C :   -0.691405
   9 H :    0.272352
  10 H :    0.224654
  11 H :    0.261363
  12 C :   -0.637519
  13 H :    0.283606
  14 H :    0.264272
  15 H :    0.230634
  16 H :    0.233027
  17 C :    0.072206
  18 C :   -0.172680
  19 H :    0.292514
  20 C :   -0.486425
  21 C :   -0.114701
  22 S :    0.313441
  23 C :   -0.434294
  24 H :    0.495790
  25 H :    0.269338
  26 H :    0.299240
  27 H :    0.290195
  28 H :    0.291043
  29 H :    0.305739
  30 O :   -0.473798
  31 O :   -0.540901
  32 C :    0.610871
  33 C :   -0.744547
  34 H :    0.268188
  35 H :    0.264575
  36 H :    0.251106
  37 H :    0.290494
  38 H :    0.292529
Sum of atomic charges:    1.0000000

LOEWDIN ATOMIC CHARGES
----------------------
   0 Ir:   -0.234640
   1 C :   -0.040102
   2 C :   -0.069454
   3 C :   -0.058340
   4 C :   -0.058799
   5 C :   -0.021761
   6 N :    0.000744
   7 C :   -0.069475
   8 C :   -0.364174
   9 H :    0.157542
  10 H :    0.133265
  11 H :    0.147207
  12 C :   -0.343319
  13 H :    0.157550
  14 H :    0.153085
  15 H :    0.137093
  16 H :    0.134191
  17 C :    0.033505
  18 C :   -0.172246
  19 H :    0.163558
  20 C :   -0.195154
  21 C :   -0.127817
  22 S :    0.481276
  23 C :   -0.264073
  24 H :    0.290439
  25 H :    0.164045
  26 H :    0.168991
  27 H :    0.184433
  28 H :    0.185066
  29 H :    0.193122
  30 O :   -0.274798
  31 O :   -0.210031
  32 C :    0.148729
  33 C :   -0.376791
  34 H :    0.158766
  35 H :    0.165914
  36 H :    0.152263
  37 H :    0.185534
  38 H :    0.184657

  Mayer bond orders larger than 0.100000
B(  0-Ir,  1-C ) :   0.4164 B(  0-Ir,  2-C ) :   0.5060 B(  0-Ir,  3-C ) :   0.4621
B(  0-Ir,  4-C ) :   0.4465 B(  0-Ir,  5-C ) :   0.3995 B(  0-Ir,  6-N ) :   0.4595
B(  0-Ir, 20-C ) :   0.2933 B(  0-Ir, 31-O ) :   0.5826 B(  1-C ,  2-C ) :   1.1235
B(  1-C ,  4-C ) :   1.2454 B(  1-C , 27-H ) :   0.9038 B(  2-C ,  5-C ) :   1.1438
B(  2-C , 28-H ) :   0.9082 B(  3-C ,  4-C ) :   1.1072 B(  3-C ,  5-C ) :   1.2277
B(  3-C , 37-H ) :   0.9061 B(  4-C , 38-H ) :   0.9001 B(  5-C , 29-H ) :   0.8981
B(  6-N ,  7-C ) :   0.8918 B(  6-N , 17-C ) :   1.6902 B(  7-C ,  8-C ) :   0.9915
B(  7-C , 12-C ) :   0.9683 B(  7-C , 13-H ) :   0.8710 B(  8-C ,  9-H ) :   0.9036
B(  8-C , 10-H ) :   0.9128 B(  8-C , 11-H ) :   0.9080 B( 12-C , 14-H ) :   0.9064
B( 12-C , 15-H ) :   0.9155 B( 12-C , 16-H ) :   0.9115 B( 17-C , 18-C ) :   1.0562
B( 17-C , 19-H ) :   0.8743 B( 18-C , 20-C ) :   1.2723 B( 18-C , 22-S ) :   1.2478
B( 20-C , 21-C ) :   1.2504 B( 20-C , 24-H ) :   0.4838 B( 21-C , 23-C ) :   1.5553
B( 21-C , 25-H ) :   0.9030 B( 22-S , 23-C ) :   1.1982 B( 23-C , 26-H ) :   0.8914
B( 24-H , 30-O ) :   0.2394 B( 30-O , 32-C ) :   1.7097 B( 31-O , 32-C ) :   1.2691
B( 32-C , 33-C ) :   0.9447 B( 33-C , 34-H ) :   0.9058 B( 33-C , 35-H ) :   0.8999
B( 33-C , 36-H ) :   0.9101

Dispersion correction           -0.030982995
FINAL SINGLE POINT ENERGY     -1288.400557519632

DIPOLE MOMENT
-------------
                                X             Y             Z
Electronic contribution:     37.50640     -66.83937      70.27247
Nuclear contribution   :    -38.13549      65.60203     -70.70153
                        -----------------------------------------
Total Dipole Moment    :     -0.62910      -1.23734      -0.42906
                        -----------------------------------------
Magnitude (a.u.)       :      1.45288
Magnitude (Debye)      :      3.69294

Rotational constants in cm-1:     0.010742     0.009167     0.008275
Rotational constants in MHz :   322.031341   274.833057   248.087504

                             ****ORCA TERMINATED NORMALLY****
TOTAL RUN TIME: 0 days 1 hours 38 minutes 15 seconds 492 msec
