                         Program Version 5.0.3 -  RELEASE  -
|  1> ! Opt PBEh-3c
|  2> %geom Constraints
|  3> { B 0 20 2.3857142857142857 C }
|  4> { B 24 30 1.5 C }
|  5>     end
|  6> end
|  7> %output
|  8> xyzfile=True
|  9> end
| 10> %scf
| 11> maxiter 250
| 12> end
| 13> %output
| 14> Print[P_Hirshfeld] = 1
| 15> end
| 16> % maxcore
| 17> 4000
| 18> *xyz 1 1
| 19> Ir   0.60380035  -0.71199698   0.43067600
| 20> C    0.05234286  -2.79869198   0.33554269
| 21> C    0.13085440  -2.34225791   1.70119860
| 22> C    2.21661710  -2.12068717   0.74903632
| 23> C    1.31780570  -2.63964947  -0.25730365
| 24> C    1.49506764  -1.97533799   1.94766150
| 25> N   -1.04593631   0.17539439  -0.52724150
| 26> C   -2.31086054   0.50377020   0.14735739
| 27> C   -3.12284832   1.56962009  -0.57037263
| 28> H   -3.94862347   1.87403741   0.07123616
| 29> H   -3.56839804   1.21193356  -1.50010972
| 30> H   -2.53190845   2.46132412  -0.78191372
| 31> C   -3.11820691  -0.77048287   0.36313267
| 32> H   -2.01056425   0.89472699   1.12078021
| 33> H   -4.02627597  -0.53716999   0.91695139
| 34> H   -3.41317879  -1.21873717  -0.58653989
| 35> H   -2.56805694  -1.51113679   0.94182461
| 36> C   -0.85140228   0.38367314  -1.77100475
| 37> C    0.49863799   0.14819881  -2.23664997
| 38> H   -1.63004864   0.74993095  -2.43370967
| 39> C    1.59733969   0.46897864  -1.44446008
| 40> C    2.80450959   0.04486589  -2.07410991
| 41> S    0.93108422  -0.62119648  -3.69356586
| 42> C    2.59709066  -0.55161401  -3.27694014
| 43> H    1.53361836   1.35735523  -0.69384173
| 44> H    3.78840063   0.22697651  -1.66690688
| 45> H    3.33516067  -0.93620899  -3.96444415
| 46> H   -0.83563826  -3.16588456  -0.15870331
| 47> H   -0.65927067  -2.37168214   2.43694531
| 48> H    1.87948601  -1.57365197   2.87421796
| 49> O    1.28845483   2.48640528   0.26278821
| 50> O    0.53578707   0.91157557   1.65216977
| 51> C    0.89364011   2.12124513   1.36499051
| 52> C    0.82290748   3.07812737   2.52321226
| 53> H    0.77507026   4.10465637   2.17023437
| 54> H    1.72597609   2.97404449   3.12780728
| 55> H   -0.02466921   2.86714655   3.17212606
| 56> H    3.26285613  -1.89420841   0.60757079
| 57> H    1.57874924  -2.87420185  -1.27890244
| 58> *
| 59>
| 60>                          ****END OF INPUT****
 Total Charge           Charge          ....    1
 Multiplicity           Mult            ....    1
 Number of Electrons    NEL             ....  164
Dispersion correction           -0.031086275
FINAL SINGLE POINT ENERGY     -1288.400355180401
Dispersion correction            ... done
Dispersion correction           -0.031122701
FINAL SINGLE POINT ENERGY     -1288.399328497824
Dispersion correction            ... done
Dispersion correction           -0.031066896
FINAL SINGLE POINT ENERGY     -1288.400425351626
Dispersion correction            ... done
FINAL SINGLE POINT ENERGY     -1288.399385079854
FINAL SINGLE POINT ENERGY     -1288.400478011076
FINAL SINGLE POINT ENERGY     -1288.400475659044
Dispersion correction            ... done
Dispersion correction           -0.031008698
FINAL SINGLE POINT ENERGY     -1288.400503820802
Dispersion correction            ... done
Dispersion correction           -0.031007669
FINAL SINGLE POINT ENERGY     -1288.400508849018
Dispersion correction            ... done
                    ***********************HURRAY********************

CARTESIAN COORDINATES (ANGSTROEM)
---------------------------------
  Ir     0.608147   -0.708117    0.421108
  C      0.057590   -2.797301    0.336224
  C      0.131434   -2.338363    1.700432
  C      2.219916   -2.115225    0.752592
  C      1.324914   -2.639402   -0.254084
  C      1.493066   -1.966054    1.948297
  N     -1.048795    0.174395   -0.530319
  C     -2.312689    0.497523    0.148170
  C     -3.124736    1.569996   -0.559642
  H     -3.950206    1.869045    0.084885
  H     -3.570725    1.220602   -1.492307
  H     -2.533535    2.463302   -0.763528
  C     -3.120398   -0.778369    0.353217
  H     -2.011230    0.879489    1.124752
  H     -4.027308   -0.549992    0.910975
  H     -3.417209   -1.217355   -0.600188
  H     -2.569072   -1.524625    0.923461
  C     -0.857947    0.386992   -1.774149
  C      0.491606    0.152143   -2.239915
  H     -1.637135    0.756520   -2.434233
  C      1.584837    0.441772   -1.426989
  C      2.794696    0.023290   -2.057262
  S      0.930305   -0.587566   -3.708331
  C      2.593619   -0.541669   -3.275962
  H      1.530879    1.342112   -0.684902
  H      3.776364    0.188046   -1.637417
  H      3.334699   -0.915177   -3.966317
  H     -0.828288   -3.167601   -0.159484
  H     -0.660603   -2.366993    2.434017
  H      1.873792   -1.560008    2.874483
  O      1.306247    2.487686    0.257011
  O      0.532393    0.919142    1.640978
  C      0.901196    2.125220    1.357138
  C      0.830120    3.083582    2.514068
  H      0.791531    4.110284    2.160468
  H      1.728714    2.973425    3.124225
  H     -0.022951    2.878611    3.157664
  H      3.267026   -1.890654    0.615093
  H      1.589109   -2.879515   -1.273487

 Multiplicity           Mult            ....    1
 Number of Electrons    NEL             ....  164
 Basis Dimension        Dim             ....  358

ORBITAL ENERGIES
----------------

  NO   OCC          E(Eh)            E(eV)
   0   2.0000     -89.767411     -2442.6954
   1   2.0000     -19.619163      -533.8646
   2   2.0000     -19.582315      -532.8619
   3   2.0000     -14.842891      -403.8956
   4   2.0000     -10.675279      -290.4891
   5   2.0000     -10.663807      -290.1769
   6   2.0000     -10.638524      -289.4889
   7   2.0000     -10.636705      -289.4394
   8   2.0000     -10.633121      -289.3419
   9   2.0000     -10.631237      -289.2907
  10   2.0000     -10.629995      -289.2569
  11   2.0000     -10.629511      -289.2437
  12   2.0000     -10.616341      -288.8853
  13   2.0000     -10.613166      -288.7989
  14   2.0000     -10.588994      -288.1412
  15   2.0000     -10.586903      -288.0843
  16   2.0000     -10.557367      -287.2806
  17   2.0000     -10.552394      -287.1452
  18   2.0000     -10.529895      -286.5330
  19   2.0000      -8.406728      -228.7587
  20   2.0000      -6.296762      -171.3436
  21   2.0000      -6.293095      -171.2438
  22   2.0000      -6.291529      -171.2012
  23   2.0000      -4.028960      -109.6336
  24   2.0000      -2.347728       -63.8849
  25   2.0000      -2.313916       -62.9649
  26   2.0000      -2.312736       -62.9327
  27   2.0000      -1.299244       -35.3542
  28   2.0000      -1.215885       -33.0859
  29   2.0000      -1.202649       -32.7257
  30   2.0000      -1.172251       -31.8986
  31   2.0000      -1.131328       -30.7850
  32   2.0000      -1.029018       -28.0010
  33   2.0000      -0.986770       -26.8514
  34   2.0000      -0.977521       -26.5997
  35   2.0000      -0.970111       -26.3981
  36   2.0000      -0.963506       -26.2183
  37   2.0000      -0.922833       -25.1116
  38   2.0000      -0.903903       -24.5964
  39   2.0000      -0.876376       -23.8474
  40   2.0000      -0.800178       -21.7740
  41   2.0000      -0.788380       -21.4529
  42   2.0000      -0.787215       -21.4212
  43   2.0000      -0.783854       -21.3298
  44   2.0000      -0.772286       -21.0150
  45   2.0000      -0.755199       -20.5500
  46   2.0000      -0.743469       -20.2308
  47   2.0000      -0.724293       -19.7090
  48   2.0000      -0.694393       -18.8954
  49   2.0000      -0.671527       -18.2732
  50   2.0000      -0.665751       -18.1160
  51   2.0000      -0.651525       -17.7289
  52   2.0000      -0.646065       -17.5803
  53   2.0000      -0.640022       -17.4159
  54   2.0000      -0.634322       -17.2608
  55   2.0000      -0.626095       -17.0369
  56   2.0000      -0.623324       -16.9615
  57   2.0000      -0.613946       -16.7063
  58   2.0000      -0.607976       -16.5439
  59   2.0000      -0.607294       -16.5253
  60   2.0000      -0.600034       -16.3278
  61   2.0000      -0.590908       -16.0794
  62   2.0000      -0.581599       -15.8261
  63   2.0000      -0.575066       -15.6484
  64   2.0000      -0.565068       -15.3763
  65   2.0000      -0.553345       -15.0573
  66   2.0000      -0.552483       -15.0338
  67   2.0000      -0.548620       -14.9287
  68   2.0000      -0.539898       -14.6914
  69   2.0000      -0.535963       -14.5843
  70   2.0000      -0.527936       -14.3659
  71   2.0000      -0.520997       -14.1770
  72   2.0000      -0.516247       -14.0478
  73   2.0000      -0.503785       -13.7087
  74   2.0000      -0.486885       -13.2488
  75   2.0000      -0.481669       -13.1069
  76   2.0000      -0.469935       -12.7876
  77   2.0000      -0.446847       -12.1593
  78   2.0000      -0.440491       -11.9864
  79   2.0000      -0.425824       -11.5873
  80   2.0000      -0.416461       -11.3325
  81   2.0000      -0.403567       -10.9816
  82   0.0000      -0.203399        -5.5348
  83   0.0000      -0.160644        -4.3713
  84   0.0000      -0.142404        -3.8750
  85   0.0000      -0.102516        -2.7896
  86   0.0000      -0.078224        -2.1286

MULLIKEN ATOMIC CHARGES
-----------------------
   0 Ir:    0.610624
   1 C :   -0.209496
   2 C :   -0.287434
   3 C :   -0.236721
   4 C :   -0.248100
   5 C :   -0.163387
   6 N :   -0.420377
   7 C :   -0.119835
   8 C :   -0.693688
   9 H :    0.273139
  10 H :    0.225072
  11 H :    0.261512
  12 C :   -0.638779
  13 H :    0.283521
  14 H :    0.264879
  15 H :    0.230676
  16 H :    0.233474
  17 C :    0.071433
  18 C :   -0.186549
  19 H :    0.293744
  20 C :   -0.465702
  21 C :   -0.118374
  22 S :    0.306797
  23 C :   -0.433987
  24 H :    0.496245
  25 H :    0.270069
  26 H :    0.299169
  27 H :    0.290996
  28 H :    0.292085
  29 H :    0.306601
  30 O :   -0.473099
  31 O :   -0.544125
  32 C :    0.608187
  33 C :   -0.744837
  34 H :    0.267740
  35 H :    0.263783
  36 H :    0.250069
  37 H :    0.291922
  38 H :    0.292754
Sum of atomic charges:    1.0000000

LOEWDIN ATOMIC CHARGES
----------------------
   0 Ir:   -0.229440
   1 C :   -0.039120
   2 C :   -0.065227
   3 C :   -0.054742
   4 C :   -0.059290
   5 C :   -0.022512
   6 N :    0.000909
   7 C :   -0.069095
   8 C :   -0.364589
   9 H :    0.157845
  10 H :    0.133538
  11 H :    0.147310
  12 C :   -0.343259
  13 H :    0.157752
  14 H :    0.153318
  15 H :    0.137159
  16 H :    0.134514
  17 C :    0.034351
  18 C :   -0.172603
  19 H :    0.164034
  20 C :   -0.188314
  21 C :   -0.130520
  22 S :    0.475497
  23 C :   -0.264153
  24 H :    0.281551
  25 H :    0.164245
  26 H :    0.168869
  27 H :    0.184937
  28 H :    0.185643
  29 H :    0.193624
  30 O :   -0.275424
  31 O :   -0.212737
  32 C :    0.147195
  33 C :   -0.377507
  34 H :    0.158426
  35 H :    0.165367
  36 H :    0.151668
  37 H :    0.186181
  38 H :    0.184598

  Mayer bond orders larger than 0.100000
B(  0-Ir,  1-C ) :   0.4166 B(  0-Ir,  2-C ) :   0.5178 B(  0-Ir,  3-C ) :   0.4631
B(  0-Ir,  4-C ) :   0.4464 B(  0-Ir,  5-C ) :   0.3999 B(  0-Ir,  6-N ) :   0.4582
B(  0-Ir, 20-C ) :   0.2691 B(  0-Ir, 31-O ) :   0.5901 B(  1-C ,  2-C ) :   1.1208
B(  1-C ,  4-C ) :   1.2472 B(  1-C , 27-H ) :   0.9035 B(  2-C ,  5-C ) :   1.1402
B(  2-C , 28-H ) :   0.9078 B(  3-C ,  4-C ) :   1.1056 B(  3-C ,  5-C ) :   1.2301
B(  3-C , 37-H ) :   0.9050 B(  4-C , 38-H ) :   0.8994 B(  5-C , 29-H ) :   0.8978
B(  6-N ,  7-C ) :   0.8915 B(  6-N , 17-C ) :   1.6983 B(  7-C ,  8-C ) :   0.9919
B(  7-C , 12-C ) :   0.9688 B(  7-C , 13-H ) :   0.8702 B(  8-C ,  9-H ) :   0.9033
B(  8-C , 10-H ) :   0.9126 B(  8-C , 11-H ) :   0.9077 B( 12-C , 14-H ) :   0.9063
B( 12-C , 15-H ) :   0.9154 B( 12-C , 16-H ) :   0.9110 B( 17-C , 18-C ) :   1.0462
B( 17-C , 19-H ) :   0.8738 B( 18-C , 20-C ) :   1.2820 B( 18-C , 22-S ) :   1.2425
B( 20-C , 21-C ) :   1.2476 B( 20-C , 24-H ) :   0.5033 B( 21-C , 23-C ) :   1.5561
B( 21-C , 25-H ) :   0.9028 B( 22-S , 23-C ) :   1.1965 B( 23-C , 26-H ) :   0.8916
B( 24-H , 30-O ) :   0.2265 B( 30-O , 32-C ) :   1.7259 B( 31-O , 32-C ) :   1.2575
B( 32-C , 33-C ) :   0.9445 B( 33-C , 34-H ) :   0.9061 B( 33-C , 35-H ) :   0.9004
B( 33-C , 36-H ) :   0.9105

Dispersion correction           -0.031003627
FINAL SINGLE POINT ENERGY     -1288.400513406854

DIPOLE MOMENT
-------------
                                X             Y             Z
Electronic contribution:     37.08696     -66.38795      69.50084
Nuclear contribution   :    -37.72310      65.08684     -69.91968
                        -----------------------------------------
Total Dipole Moment    :     -0.63615      -1.30112      -0.41884
                        -----------------------------------------
Magnitude (a.u.)       :      1.50765
Magnitude (Debye)      :      3.83215

Rotational constants in cm-1:     0.010807     0.009172     0.008295
Rotational constants in MHz :   323.993605   274.970958   248.685309

                             ****ORCA TERMINATED NORMALLY****
TOTAL RUN TIME: 0 days 1 hours 14 minutes 32 seconds 841 msec
