                         Program Version 5.0.3 -  RELEASE  -
|  1> ! Opt PBEh-3c
|  2> %geom Constraints
|  3> { B 0 20 2.2142857142857144 C }
|  4> { B 24 30 1.3142857142857143 C }
|  5>     end
|  6> end
|  7> %output
|  8> xyzfile=True
|  9> end
| 10> %scf
| 11> maxiter 250
| 12> end
| 13> %output
| 14> Print[P_Hirshfeld] = 1
| 15> end
| 16> % maxcore
| 17> 4000
| 18> *xyz 1 1
| 19> Ir   0.60116632  -0.73725352   0.46857951
| 20> C    0.10886717  -2.84093074   0.37307513
| 21> C   -0.08601378  -2.37092083   1.72040569
| 22> C    2.14420260  -2.09174734   1.17251539
| 23> C    1.46897624  -2.66823113   0.03935652
| 24> C    1.18079246  -1.93869482   2.20013880
| 25> N   -1.05824656   0.11036054  -0.50343765
| 26> C   -2.34197642   0.31426495   0.18803005
| 27> C   -3.12986119   1.51263683  -0.32250706
| 28> H   -3.96646197   1.69594452   0.34997880
| 29> H   -3.55704540   1.34988867  -1.31290265
| 30> H   -2.52424549   2.41884855  -0.34594015
| 31> C   -3.16670086  -0.96577485   0.11471821
| 32> H   -2.07702184   0.50366989   1.22926604
| 33> H   -4.08308933  -0.85134808   0.69237504
| 34> H   -3.44766275  -1.19365211  -0.91434259
| 35> H   -2.63048203  -1.82311038   0.51841578
| 36> C   -0.89880977   0.44190047  -1.73175652
| 37> C    0.41934933   0.28988814  -2.27270101
| 38> H   -1.71440255   0.84611530  -2.32365295
| 39> C    1.49552313   0.14527129  -1.40651245
| 40> C    2.68981764  -0.10055032  -2.14081726
| 41> S    0.85616521   0.16737022  -3.91327553
| 42> C    2.49093931  -0.10612673  -3.49014332
| 43> H    1.65136805   1.16656892  -0.57069288
| 44> H    3.66669984  -0.21016823  -1.69279943
| 45> H    3.22967714  -0.23874703  -4.26599596
| 46> H   -0.64936788  -3.25960741  -0.27251097
| 47> H   -1.00021501  -2.41039572   2.29306622
| 48> H    1.36393402  -1.49623808   3.16924797
| 49> O    1.75315776   2.26927373   0.16332551
| 50> O    0.54964417   1.01910121   1.55582925
| 51> C    1.13481345   2.09972265   1.23430202
| 52> C    1.09193111   3.22283340   2.22633155
| 53> H    0.96520203   4.17609247   1.71786401
| 54> H    2.04628909   3.26512006   2.75396479
| 55> H    0.30240763   3.08148805   2.95879292
| 56> H    3.19767857  -1.87110163   1.24867249
| 57> H    1.92237053  -2.92257086  -0.90752313
| 58> *
| 59>
| 60>                          ****END OF INPUT****
 Total Charge           Charge          ....    1
 Multiplicity           Mult            ....    1
 Number of Electrons    NEL             ....  164
Dispersion correction           -0.030598822
FINAL SINGLE POINT ENERGY     -1288.403963721376
Dispersion correction            ... done
Dispersion correction           -0.030556921
FINAL SINGLE POINT ENERGY     -1288.404214686587
Dispersion correction            ... done
Dispersion correction           -0.030537325
FINAL SINGLE POINT ENERGY     -1288.404299599520
Dispersion correction            ... done
FINAL SINGLE POINT ENERGY     -1288.404346449768
FINAL SINGLE POINT ENERGY     -1288.404381474568
FINAL SINGLE POINT ENERGY     -1288.404396068916
FINAL SINGLE POINT ENERGY     -1288.404401392294
FINAL SINGLE POINT ENERGY     -1288.404403279176
FINAL SINGLE POINT ENERGY     -1288.404406024905
FINAL SINGLE POINT ENERGY     -1288.404409177615
FINAL SINGLE POINT ENERGY     -1288.404414323644
Dispersion correction            ... done
Dispersion correction           -0.030480242
FINAL SINGLE POINT ENERGY     -1288.404419588923
Dispersion correction            ... done
Dispersion correction           -0.030479427
FINAL SINGLE POINT ENERGY     -1288.404423288292
Dispersion correction            ... done
                    ***********************HURRAY********************

CARTESIAN COORDINATES (ANGSTROEM)
---------------------------------
  Ir     0.601393   -0.738942    0.456381
  C      0.124905   -2.846094    0.370709
  C     -0.109264   -2.378183    1.712676
  C      2.131683   -2.075694    1.221089
  C      1.494707   -2.666736    0.076118
  C      1.135168   -1.928699    2.222318
  N     -1.066859    0.103085   -0.505408
  C     -2.350137    0.291144    0.190587
  C     -3.138905    1.500179   -0.292701
  H     -3.976523    1.666698    0.382780
  H     -3.564229    1.360707   -1.287428
  H     -2.533730    2.406992   -0.293859
  C     -3.173707   -0.987724    0.089436
  H     -2.085315    0.458299    1.235725
  H     -4.088918   -0.888702    0.671820
  H     -3.456488   -1.191709   -0.944126
  H     -2.634832   -1.853750    0.470503
  C     -0.911598    0.453060   -1.729618
  C      0.404060    0.304170   -2.274105
  H     -1.728285    0.867866   -2.312361
  C      1.466392    0.095711   -1.403241
  C      2.666214   -0.127519   -2.136530
  S      0.858911    0.266031   -3.913535
  C      2.483473   -0.055436   -3.486494
  H      1.656286    1.166704   -0.583023
  H      3.636000   -0.278284   -1.684944
  H      3.230255   -0.157878   -4.259223
  H     -0.609663   -3.279478   -0.292207
  H     -1.038698   -2.422568    2.259660
  H      1.286214   -1.479150    3.193686
  O      1.783981    2.262678    0.131038
  O      0.562163    1.035449    1.527362
  C      1.162240    2.103390    1.206155
  C      1.142510    3.232747    2.190832
  H      1.015427    4.184258    1.679015
  H      2.104739    3.271358    2.704262
  H      0.361937    3.100752    2.934338
  H      3.181461   -1.850883    1.328781
  H      1.976403   -2.924658   -0.855728

 Multiplicity           Mult            ....    1
 Number of Electrons    NEL             ....  164
 Basis Dimension        Dim             ....  358

ORBITAL ENERGIES
----------------

  NO   OCC          E(Eh)            E(eV)
   0   2.0000     -89.758563     -2442.4547
   1   2.0000     -19.639437      -534.4162
   2   2.0000     -19.629556      -534.1474
   3   2.0000     -14.830971      -403.5713
   4   2.0000     -10.702454      -291.2286
   5   2.0000     -10.652784      -289.8770
   6   2.0000     -10.627147      -289.1794
   7   2.0000     -10.624905      -289.1184
   8   2.0000     -10.623656      -289.0844
   9   2.0000     -10.619364      -288.9676
  10   2.0000     -10.617429      -288.9149
  11   2.0000     -10.613686      -288.8131
  12   2.0000     -10.611876      -288.7638
  13   2.0000     -10.606933      -288.6293
  14   2.0000     -10.587220      -288.0929
  15   2.0000     -10.584312      -288.0138
  16   2.0000     -10.552627      -287.1516
  17   2.0000     -10.549717      -287.0724
  18   2.0000     -10.547687      -287.0172
  19   2.0000      -8.397977      -228.5206
  20   2.0000      -6.287879      -171.1019
  21   2.0000      -6.284353      -171.0059
  22   2.0000      -6.282902      -170.9665
  23   2.0000      -4.021220      -109.4230
  24   2.0000      -2.338542       -63.6350
  25   2.0000      -2.306972       -62.7759
  26   2.0000      -2.303819       -62.6901
  27   2.0000      -1.331974       -36.2449
  28   2.0000      -1.233164       -33.5561
  29   2.0000      -1.203605       -32.7518
  30   2.0000      -1.161888       -31.6166
  31   2.0000      -1.123018       -30.5589
  32   2.0000      -1.021710       -27.8021
  33   2.0000      -0.974700       -26.5229
  34   2.0000      -0.967907       -26.3381
  35   2.0000      -0.963798       -26.2263
  36   2.0000      -0.955963       -26.0131
  37   2.0000      -0.943504       -25.6741
  38   2.0000      -0.899185       -24.4681
  39   2.0000      -0.869024       -23.6473
  40   2.0000      -0.795136       -21.6367
  41   2.0000      -0.779008       -21.1979
  42   2.0000      -0.777907       -21.1679
  43   2.0000      -0.777216       -21.1491
  44   2.0000      -0.766551       -20.8589
  45   2.0000      -0.762451       -20.7474
  46   2.0000      -0.740446       -20.1486
  47   2.0000      -0.721722       -19.6390
  48   2.0000      -0.693640       -18.8749
  49   2.0000      -0.683039       -18.5864
  50   2.0000      -0.664040       -18.0695
  51   2.0000      -0.662352       -18.0235
  52   2.0000      -0.650149       -17.6914
  53   2.0000      -0.638345       -17.3703
  54   2.0000      -0.631559       -17.1856
  55   2.0000      -0.629330       -17.1249
  56   2.0000      -0.620849       -16.8942
  57   2.0000      -0.607543       -16.5321
  58   2.0000      -0.598144       -16.2763
  59   2.0000      -0.597429       -16.2569
  60   2.0000      -0.596415       -16.2293
  61   2.0000      -0.589520       -16.0417
  62   2.0000      -0.576538       -15.6884
  63   2.0000      -0.571018       -15.5382
  64   2.0000      -0.562209       -15.2985
  65   2.0000      -0.560471       -15.2512
  66   2.0000      -0.557326       -15.1656
  67   2.0000      -0.545490       -14.8435
  68   2.0000      -0.541668       -14.7395
  69   2.0000      -0.534749       -14.5513
  70   2.0000      -0.528277       -14.3751
  71   2.0000      -0.517481       -14.0814
  72   2.0000      -0.512694       -13.9511
  73   2.0000      -0.503375       -13.6975
  74   2.0000      -0.497864       -13.5476
  75   2.0000      -0.481074       -13.0907
  76   2.0000      -0.478253       -13.0139
  77   2.0000      -0.450283       -12.2528
  78   2.0000      -0.444908       -12.1066
  79   2.0000      -0.416992       -11.3469
  80   2.0000      -0.415261       -11.2998
  81   2.0000      -0.395448       -10.7607
  82   0.0000      -0.198256        -5.3948
  83   0.0000      -0.142442        -3.8760
  84   0.0000      -0.137073        -3.7299
  85   0.0000      -0.083784        -2.2799
  86   0.0000      -0.073877        -2.0103

MULLIKEN ATOMIC CHARGES
-----------------------
   0 Ir:    0.601490
   1 C :   -0.241611
   2 C :   -0.266823
   3 C :   -0.266247
   4 C :   -0.223797
   5 C :   -0.156277
   6 N :   -0.439589
   7 C :   -0.125680
   8 C :   -0.680286
   9 H :    0.268363
  10 H :    0.224557
  11 H :    0.253194
  12 C :   -0.633311
  13 H :    0.276921
  14 H :    0.258270
  15 H :    0.232588
  16 H :    0.232148
  17 C :    0.069184
  18 C :   -0.135031
  19 H :    0.283204
  20 C :   -0.515228
  21 C :   -0.121027
  22 S :    0.334561
  23 C :   -0.424787
  24 H :    0.477743
  25 H :    0.264026
  26 H :    0.296412
  27 H :    0.286222
  28 H :    0.282820
  29 H :    0.298172
  30 O :   -0.489995
  31 O :   -0.504342
  32 C :    0.635662
  33 C :   -0.744465
  34 H :    0.274702
  35 H :    0.276889
  36 H :    0.263595
  37 H :    0.283729
  38 H :    0.294044
Sum of atomic charges:    1.0000000

LOEWDIN ATOMIC CHARGES
----------------------
   0 Ir:   -0.256560
   1 C :   -0.057620
   2 C :   -0.092926
   3 C :   -0.093225
   4 C :   -0.037967
   5 C :   -0.016182
   6 N :   -0.010631
   7 C :   -0.068927
   8 C :   -0.361955
   9 H :    0.155685
  10 H :    0.132703
  11 H :    0.143094
  12 C :   -0.344168
  13 H :    0.153376
  14 H :    0.150397
  15 H :    0.137948
  16 H :    0.132470
  17 C :    0.030882
  18 C :   -0.199278
  19 H :    0.159014
  20 C :   -0.217178
  21 C :   -0.135367
  22 S :    0.486991
  23 C :   -0.257341
  24 H :    0.359477
  25 H :    0.160523
  26 H :    0.168364
  27 H :    0.182658
  28 H :    0.180202
  29 H :    0.188471
  30 O :   -0.259553
  31 O :   -0.176487
  32 C :    0.170210
  33 C :   -0.371029
  34 H :    0.166158
  35 H :    0.173015
  36 H :    0.156748
  37 H :    0.182504
  38 H :    0.185507

  Mayer bond orders larger than 0.100000
B(  0-Ir,  1-C ) :   0.4431 B(  0-Ir,  2-C ) :   0.4326 B(  0-Ir,  3-C ) :   0.4669
B(  0-Ir,  4-C ) :   0.4333 B(  0-Ir,  5-C ) :   0.3842 B(  0-Ir,  6-N ) :   0.4668
B(  0-Ir, 20-C ) :   0.4476 B(  0-Ir, 31-O ) :   0.5133 B(  1-C ,  2-C ) :   1.1263
B(  1-C ,  4-C ) :   1.2239 B(  1-C , 27-H ) :   0.9077 B(  2-C ,  5-C ) :   1.1978
B(  2-C , 28-H ) :   0.9102 B(  3-C ,  4-C ) :   1.1359 B(  3-C ,  5-C ) :   1.1818
B(  3-C , 37-H ) :   0.9120 B(  4-C , 38-H ) :   0.9000 B(  5-C , 29-H ) :   0.9010
B(  6-N ,  7-C ) :   0.8957 B(  6-N , 17-C ) :   1.6460 B(  7-C ,  8-C ) :   0.9904
B(  7-C , 12-C ) :   0.9673 B(  7-C , 13-H ) :   0.8788 B(  8-C ,  9-H ) :   0.9050
B(  8-C , 10-H ) :   0.9131 B(  8-C , 11-H ) :   0.9125 B( 12-C , 14-H ) :   0.9080
B( 12-C , 15-H ) :   0.9154 B( 12-C , 16-H ) :   0.9126 B( 17-C , 18-C ) :   1.1150
B( 17-C , 19-H ) :   0.8767 B( 18-C , 20-C ) :   1.2519 B( 18-C , 22-S ) :   1.2229
B( 20-C , 21-C ) :   1.2908 B( 20-C , 24-H ) :   0.3200 B( 21-C , 23-C ) :   1.5334
B( 21-C , 25-H ) :   0.9039 B( 22-S , 23-C ) :   1.2257 B( 23-C , 26-H ) :   0.8917
B( 24-H , 30-O ) :   0.3604 B( 30-O , 32-C ) :   1.5359 B( 31-O , 32-C ) :   1.3979
B( 32-C , 33-C ) :   0.9467 B( 33-C , 34-H ) :   0.8986 B( 33-C , 35-H ) :   0.8923
B( 33-C , 36-H ) :   0.9076

Dispersion correction           -0.030481101
FINAL SINGLE POINT ENERGY     -1288.404425155589

DIPOLE MOMENT
-------------
                                X             Y             Z
Electronic contribution:     36.46082     -74.14615      74.59434
Nuclear contribution   :    -37.03623      73.70929     -74.70198
                        -----------------------------------------
Total Dipole Moment    :     -0.57541      -0.43686      -0.10764
                        -----------------------------------------
Magnitude (a.u.)       :      0.73043
Magnitude (Debye)      :      1.85661

Rotational constants in cm-1:     0.010556     0.008686     0.008151
Rotational constants in MHz :   316.450408   260.387743   244.368510

                             ****ORCA TERMINATED NORMALLY****
TOTAL RUN TIME: 0 days 1 hours 51 minutes 36 seconds 572 msec
