                         Program Version 5.0.3 -  RELEASE  -
|  1> ! Opt PBEh-3c
|  2> %geom Constraints
|  3> { B 0 20 2.4714285714285715 C }
|  4> { B 24 30 1.4 C }
|  5>     end
|  6> end
|  7> %output
|  8> xyzfile=True
|  9> end
| 10> %scf
| 11> maxiter 250
| 12> end
| 13> %output
| 14> Print[P_Hirshfeld] = 1
| 15> end
| 16> % maxcore
| 17> 4000
| 18> *xyz 1 1
| 19> Ir   0.58178121  -0.72772663   0.47466898
| 20> C    0.02622726  -2.80745987   0.35432077
| 21> C    0.10360047  -2.36203566   1.72433770
| 22> C    2.19211101  -2.14156700   0.78031484
| 23> C    1.29295798  -2.64468268  -0.23407730
| 24> C    1.47063212  -2.00610602   1.97910572
| 25> N   -1.04315569   0.16401159  -0.51540696
| 26> C   -2.31747589   0.49098978   0.14417183
| 27> C   -3.12745616   1.54918506  -0.58747784
| 28> H   -3.95893255   1.85537217   0.04586681
| 29> H   -3.56493059   1.18364588  -1.51793455
| 30> H   -2.53820943   2.44141081  -0.80151674
| 31> C   -3.12390237  -0.78355046   0.36102134
| 32> H   -2.02969706   0.89061458   1.11807071
| 33> H   -4.04081782  -0.54798925   0.89914791
| 34> H   -3.40376933  -1.24200276  -0.58839446
| 35> H   -2.58088706  -1.51700961   0.95539573
| 36> C   -0.83897250   0.37095373  -1.75904626
| 37> C    0.51138827   0.15848027  -2.23105410
| 38> H   -1.62185926   0.72530656  -2.42361583
| 39> C    1.61479663   0.50285538  -1.45928544
| 40> C    2.81786676   0.10143047  -2.10730305
| 41> S    0.93589691  -0.58661758  -3.70800325
| 42> C    2.60394863  -0.48918032  -3.31353045
| 43> H    1.53581796   1.38309354  -0.65639235
| 44> H    3.80517753   0.29493211  -1.71369203
| 45> H    3.34005348  -0.85519322  -4.01330097
| 46> H   -0.86231516  -3.16593133  -0.14528385
| 47> H   -0.68826089  -2.39689541   2.45813206
| 48> H    1.85549850  -1.61788868   2.91116794
| 49> O    1.32639821   2.44112392   0.25844052
| 50> O    0.53572948   0.91111657   1.67623481
| 51> C    0.91798175   2.10495205   1.36873084
| 52> C    0.86437574   3.09087761   2.50135183
| 53> H    0.82130268   4.10863332   2.12324291
| 54> H    1.77275413   2.99517990   3.09945391
| 55> H    0.02136336   2.90163867   3.16252687
| 56> H    3.23787850  -1.91179467   0.63965102
| 57> H    1.55447316  -2.86298279  -1.25929951
| 58> *
| 59>
| 60>                          ****END OF INPUT****
 Total Charge           Charge          ....    1
 Multiplicity           Mult            ....    1
 Number of Electrons    NEL             ....  164
Dispersion correction           -0.030949591
FINAL SINGLE POINT ENERGY     -1288.396785418813
Dispersion correction            ... done
Dispersion correction           -0.030997558
FINAL SINGLE POINT ENERGY     -1288.394900929283
Dispersion correction            ... done
Dispersion correction           -0.030927800
FINAL SINGLE POINT ENERGY     -1288.396857056090
Dispersion correction            ... done
FINAL SINGLE POINT ENERGY     -1288.394920920828
FINAL SINGLE POINT ENERGY     -1288.396948570590
FINAL SINGLE POINT ENERGY     -1288.396969465221
FINAL SINGLE POINT ENERGY     -1288.396992440659
FINAL SINGLE POINT ENERGY     -1288.397002686398
FINAL SINGLE POINT ENERGY     -1288.397011206655
Dispersion correction            ... done
Dispersion correction           -0.030822507
FINAL SINGLE POINT ENERGY     -1288.397023208568
Dispersion correction            ... done
Dispersion correction           -0.030817479
FINAL SINGLE POINT ENERGY     -1288.397026509553
Dispersion correction            ... done
                    ***********************HURRAY********************

CARTESIAN COORDINATES (ANGSTROEM)
---------------------------------
  Ir     0.586139   -0.725963    0.474830
  C      0.031977   -2.807660    0.363082
  C      0.092203   -2.357991    1.731575
  C      2.192590   -2.137904    0.810560
  C      1.305924   -2.647031   -0.211526
  C      1.454483   -1.996564    1.999388
  N     -1.043555    0.156277   -0.515858
  C     -2.319141    0.471014    0.147679
  C     -3.122339    1.551511   -0.558902
  H     -3.953116    1.846964    0.080476
  H     -3.560601    1.211546   -1.498569
  H     -2.527211    2.444892   -0.750381
  C     -3.131418   -0.805664    0.328067
  H     -2.034000    0.844009    1.132782
  H     -4.049202   -0.581217    0.869511
  H     -3.409647   -1.237631   -0.634139
  H     -2.592418   -1.556769    0.903661
  C     -0.847376    0.370007   -1.760438
  C      0.499525    0.167923   -2.241002
  H     -1.636638    0.723173   -2.417950
  C      1.599182    0.459899   -1.442312
  C      2.803684    0.076241   -2.097946
  S      0.928873   -0.510236   -3.746542
  C      2.593899   -0.451905   -3.333987
  H      1.533360    1.357533   -0.637392
  H      3.789682    0.238654   -1.687364
  H      3.332017   -0.791352   -4.044943
  H     -0.849608   -3.169882   -0.146065
  H     -0.708319   -2.390773    2.455844
  H      1.827308   -1.602604    2.933962
  O      1.358170    2.430665    0.244479
  O      0.534450    0.924030    1.667315
  C      0.934190    2.108192    1.355340
  C      0.884963    3.107414    2.475871
  H      0.847557    4.121225    2.086734
  H      1.792912    3.013526    3.074943
  H      0.040650    2.929259    3.138306
  H      3.240790   -1.911632    0.683731
  H      1.579432   -2.871988   -1.232076

 Multiplicity           Mult            ....    1
 Number of Electrons    NEL             ....  164
 Basis Dimension        Dim             ....  358

ORBITAL ENERGIES
----------------

  NO   OCC          E(Eh)            E(eV)
   0   2.0000     -89.760796     -2442.5154
   1   2.0000     -19.624869      -534.0198
   2   2.0000     -19.590922      -533.0961
   3   2.0000     -14.839887      -403.8139
   4   2.0000     -10.682645      -290.6895
   5   2.0000     -10.661031      -290.1014
   6   2.0000     -10.637103      -289.4503
   7   2.0000     -10.633841      -289.3615
   8   2.0000     -10.632911      -289.3362
   9   2.0000     -10.631250      -289.2910
  10   2.0000     -10.630686      -289.2757
  11   2.0000     -10.629845      -289.2528
  12   2.0000     -10.615819      -288.8711
  13   2.0000     -10.608836      -288.6811
  14   2.0000     -10.582978      -287.9775
  15   2.0000     -10.580809      -287.9184
  16   2.0000     -10.556904      -287.2680
  17   2.0000     -10.551877      -287.1312
  18   2.0000     -10.533854      -286.6407
  19   2.0000      -8.400160      -228.5800
  20   2.0000      -6.290197      -171.1650
  21   2.0000      -6.286569      -171.0662
  22   2.0000      -6.284938      -171.0219
  23   2.0000      -4.029742      -109.6549
  24   2.0000      -2.348874       -63.9161
  25   2.0000      -2.314711       -62.9865
  26   2.0000      -2.313058       -62.9415
  27   2.0000      -1.307620       -35.5822
  28   2.0000      -1.212779       -33.0014
  29   2.0000      -1.210099       -32.9285
  30   2.0000      -1.173371       -31.9291
  31   2.0000      -1.125053       -30.6142
  32   2.0000      -1.026234       -27.9253
  33   2.0000      -0.988019       -26.8854
  34   2.0000      -0.978383       -26.6231
  35   2.0000      -0.964517       -26.2458
  36   2.0000      -0.958330       -26.0775
  37   2.0000      -0.928202       -25.2577
  38   2.0000      -0.903129       -24.5754
  39   2.0000      -0.873004       -23.7556
  40   2.0000      -0.797454       -21.6998
  41   2.0000      -0.789210       -21.4755
  42   2.0000      -0.787703       -21.4345
  43   2.0000      -0.780314       -21.2334
  44   2.0000      -0.772660       -21.0251
  45   2.0000      -0.756754       -20.5923
  46   2.0000      -0.743738       -20.2381
  47   2.0000      -0.722675       -19.6650
  48   2.0000      -0.693603       -18.8739
  49   2.0000      -0.674613       -18.3572
  50   2.0000      -0.664910       -18.0931
  51   2.0000      -0.651201       -17.7201
  52   2.0000      -0.648694       -17.6518
  53   2.0000      -0.640279       -17.4229
  54   2.0000      -0.637558       -17.3488
  55   2.0000      -0.630742       -17.1634
  56   2.0000      -0.623538       -16.9673
  57   2.0000      -0.611197       -16.6315
  58   2.0000      -0.608883       -16.5686
  59   2.0000      -0.607786       -16.5387
  60   2.0000      -0.597021       -16.2458
  61   2.0000      -0.588265       -16.0075
  62   2.0000      -0.576994       -15.7008
  63   2.0000      -0.569740       -15.5034
  64   2.0000      -0.563193       -15.3253
  65   2.0000      -0.555822       -15.1247
  66   2.0000      -0.552450       -15.0329
  67   2.0000      -0.548525       -14.9261
  68   2.0000      -0.539394       -14.6777
  69   2.0000      -0.535151       -14.5622
  70   2.0000      -0.528074       -14.3696
  71   2.0000      -0.520640       -14.1673
  72   2.0000      -0.515888       -14.0380
  73   2.0000      -0.506253       -13.7758
  74   2.0000      -0.489938       -13.3319
  75   2.0000      -0.481006       -13.0888
  76   2.0000      -0.465670       -12.6715
  77   2.0000      -0.449698       -12.2369
  78   2.0000      -0.441991       -12.0272
  79   2.0000      -0.422486       -11.4964
  80   2.0000      -0.417313       -11.3557
  81   2.0000      -0.403036       -10.9672
  82   0.0000      -0.201012        -5.4698
  83   0.0000      -0.163058        -4.4370
  84   0.0000      -0.141493        -3.8502
  85   0.0000      -0.097476        -2.6524
  86   0.0000      -0.075925        -2.0660

MULLIKEN ATOMIC CHARGES
-----------------------
   0 Ir:    0.616436
   1 C :   -0.209425
   2 C :   -0.291813
   3 C :   -0.233936
   4 C :   -0.245442
   5 C :   -0.166322
   6 N :   -0.429239
   7 C :   -0.119508
   8 C :   -0.692929
   9 H :    0.272252
  10 H :    0.225780
  11 H :    0.260396
  12 C :   -0.638308
  13 H :    0.281224
  14 H :    0.264374
  15 H :    0.230898
  16 H :    0.232207
  17 C :    0.069202
  18 C :   -0.196521
  19 H :    0.291014
  20 C :   -0.436668
  21 C :   -0.137348
  22 S :    0.301992
  23 C :   -0.429543
  24 H :    0.500997
  25 H :    0.265511
  26 H :    0.296808
  27 H :    0.291998
  28 H :    0.292846
  29 H :    0.306208
  30 O :   -0.484579
  31 O :   -0.539270
  32 C :    0.617476
  33 C :   -0.745607
  34 H :    0.269650
  35 H :    0.266452
  36 H :    0.253312
  37 H :    0.294142
  38 H :    0.295284
Sum of atomic charges:    1.0000000

LOEWDIN ATOMIC CHARGES
----------------------
   0 Ir:   -0.219187
   1 C :   -0.039490
   2 C :   -0.062348
   3 C :   -0.051152
   4 C :   -0.055269
   5 C :   -0.024925
   6 N :   -0.007671
   7 C :   -0.068750
   8 C :   -0.364518
   9 H :    0.157322
  10 H :    0.133690
  11 H :    0.146734
  12 C :   -0.343589
  13 H :    0.156345
  14 H :    0.153000
  15 H :    0.137257
  16 H :    0.133848
  17 C :    0.035540
  18 C :   -0.187954
  19 H :    0.162501
  20 C :   -0.194098
  21 C :   -0.140361
  22 S :    0.465776
  23 C :   -0.262557
  24 H :    0.294251
  25 H :    0.161729
  26 H :    0.167673
  27 H :    0.185492
  28 H :    0.185950
  29 H :    0.193445
  30 O :   -0.276829
  31 O :   -0.206050
  32 C :    0.156016
  33 C :   -0.375860
  34 H :    0.159866
  35 H :    0.167243
  36 H :    0.153298
  37 H :    0.187295
  38 H :    0.186338

  Mayer bond orders larger than 0.100000
B(  0-Ir,  1-C ) :   0.4208 B(  0-Ir,  2-C ) :   0.5366 B(  0-Ir,  3-C ) :   0.4613
B(  0-Ir,  4-C ) :   0.4527 B(  0-Ir,  5-C ) :   0.4028 B(  0-Ir,  6-N ) :   0.4653
B(  0-Ir, 20-C ) :   0.2502 B(  0-Ir, 31-O ) :   0.5793 B(  1-C ,  2-C ) :   1.1170
B(  1-C ,  4-C ) :   1.2440 B(  1-C , 27-H ) :   0.9030 B(  2-C ,  5-C ) :   1.1338
B(  2-C , 28-H ) :   0.9072 B(  3-C ,  4-C ) :   1.1059 B(  3-C ,  5-C ) :   1.2333
B(  3-C , 37-H ) :   0.9041 B(  4-C , 38-H ) :   0.8992 B(  5-C , 29-H ) :   0.8980
B(  6-N ,  7-C ) :   0.8916 B(  6-N , 17-C ) :   1.6883 B(  7-C ,  8-C ) :   0.9921
B(  7-C , 12-C ) :   0.9690 B(  7-C , 13-H ) :   0.8724 B(  8-C ,  9-H ) :   0.9035
B(  8-C , 10-H ) :   0.9125 B(  8-C , 11-H ) :   0.9083 B( 12-C , 14-H ) :   0.9064
B( 12-C , 15-H ) :   0.9154 B( 12-C , 16-H ) :   0.9115 B( 17-C , 18-C ) :   1.0594
B( 17-C , 19-H ) :   0.8741 B( 18-C , 20-C ) :   1.2959 B( 18-C , 22-S ) :   1.2225
B( 20-C , 21-C ) :   1.2684 B( 20-C , 24-H ) :   0.4658 B( 21-C , 23-C ) :   1.5463
B( 21-C , 25-H ) :   0.9046 B( 22-S , 23-C ) :   1.2045 B( 23-C , 26-H ) :   0.8923
B( 24-H , 30-O ) :   0.2428 B( 30-O , 32-C ) :   1.6825 B( 31-O , 32-C ) :   1.2818
B( 32-C , 33-C ) :   0.9470 B( 33-C , 34-H ) :   0.9049 B( 33-C , 35-H ) :   0.8985
B( 33-C , 36-H ) :   0.9094

Dispersion correction           -0.030814105
FINAL SINGLE POINT ENERGY     -1288.397028967013

DIPOLE MOMENT
-------------
                                X             Y             Z
Electronic contribution:     34.86208     -68.39017      75.00105
Nuclear contribution   :    -35.48927      67.19804     -75.23406
                        -----------------------------------------
Total Dipole Moment    :     -0.62719      -1.19213      -0.23301
                        -----------------------------------------
Magnitude (a.u.)       :      1.36705
Magnitude (Debye)      :      3.47477

Rotational constants in cm-1:     0.010662     0.009041     0.008224
Rotational constants in MHz :   319.650867   271.042485   246.536717

                             ****ORCA TERMINATED NORMALLY****
TOTAL RUN TIME: 0 days 1 hours 32 minutes 54 seconds 589 msec
