                         Program Version 5.0.3 -  RELEASE  -
|  1> ! Opt PBEh-3c
|  2> %geom Constraints
|  3> { B 0 20 2.085714285714286 C }
|  4> { B 24 30 1.5 C }
|  5>     end
|  6> end
|  7> %output
|  8> xyzfile=True
|  9> end
| 10> %scf
| 11> maxiter 250
| 12> end
| 13> %output
| 14> Print[P_Hirshfeld] = 1
| 15> end
| 16> % maxcore
| 17> 4000
| 18> *xyz 1 1
| 19> Ir   0.63792339  -0.71340253   0.40458402
| 20> C    0.15375194  -2.83379541   0.30447447
| 21> C    0.01949852  -2.38582181   1.66523666
| 22> C    2.21575724  -2.07233366   1.01501048
| 23> C    1.49292244  -2.64477911  -0.09250601
| 24> C    1.30194417  -1.94445712   2.09008172
| 25> N   -1.05088839   0.13588351  -0.51834208
| 26> C   -2.30607174   0.39820787   0.20144308
| 27> C   -3.08213287   1.58996561  -0.33971535
| 28> H   -3.89787607   1.81923409   0.34444951
| 29> H   -3.53743045   1.39364145  -1.31132775
| 30> H   -2.45925028   2.48140523  -0.41628845
| 31> C   -3.15445030  -0.86881722   0.21143117
| 32> H   -2.00044771   0.62314289   1.22397089
| 33> H   -4.04352047  -0.71217169   0.82062614
| 34> H   -3.48166396  -1.13256468  -0.79510200
| 35> H   -2.61498468  -1.71728896   0.62971277
| 36> C   -0.90836317   0.40896353  -1.76168634
| 37> C    0.41575619   0.20001296  -2.27670423
| 38> H   -1.71481685   0.80794922  -2.36865217
| 39> C    1.46939483   0.14826895  -1.35524375
| 40> C    2.69048119  -0.15133725  -2.04217608
| 41> S    0.89239763  -0.10931697  -3.86979215
| 42> C    2.52674572  -0.31424838  -3.38086792
| 43> H    1.53224933   1.15825488  -0.68313033
| 44> H    3.65686186  -0.18616895  -1.56040638
| 45> H    3.28350568  -0.51953285  -4.12266001
| 46> H   -0.63295254  -3.24908594  -0.30858895
| 47> H   -0.86816671  -2.43750561   2.27726731
| 48> H    1.52715696  -1.51252444   3.05495775
| 49> O    1.46803285   2.42279103   0.12112373
| 50> O    0.56793431   0.98155893   1.56097729
| 51> C    0.99750179   2.14385893   1.22772170
| 52> C    0.92857573   3.18839700   2.30644293
| 53> H    0.88181472   4.18551639   1.87696019
| 54> H    1.83505945   3.12997829   2.91180364
| 55> H    0.08180962   3.02573942   2.96918801
| 56> H    3.27055757  -1.84700442   1.04669024
| 57> H    1.90475314  -2.89142322  -1.06022363
| 58> *
| 59>
| 60>                          ****END OF INPUT****
 Total Charge           Charge          ....    1
 Multiplicity           Mult            ....    1
 Number of Electrons    NEL             ....  164
Dispersion correction           -0.031050306
FINAL SINGLE POINT ENERGY     -1288.396521433024
Dispersion correction            ... done
Dispersion correction           -0.031000214
FINAL SINGLE POINT ENERGY     -1288.396633199770
Dispersion correction            ... done
Dispersion correction           -0.031046552
FINAL SINGLE POINT ENERGY     -1288.396041747201
Dispersion correction            ... done
FINAL SINGLE POINT ENERGY     -1288.396790648513
FINAL SINGLE POINT ENERGY     -1288.396817906880
FINAL SINGLE POINT ENERGY     -1288.396864725368
FINAL SINGLE POINT ENERGY     -1288.396865711844
FINAL SINGLE POINT ENERGY     -1288.396865603335
FINAL SINGLE POINT ENERGY     -1288.396865080828
Dispersion correction            ... done
Dispersion correction           -0.030937786
FINAL SINGLE POINT ENERGY     -1288.396868198029
Dispersion correction            ... done
Dispersion correction           -0.030928489
FINAL SINGLE POINT ENERGY     -1288.396871232622
Dispersion correction            ... done
                    ***********************HURRAY********************

CARTESIAN COORDINATES (ANGSTROEM)
---------------------------------
  Ir     0.637122   -0.717111    0.396593
  C      0.142022   -2.837350    0.323535
  C      0.002771   -2.383296    1.681407
  C      2.203264   -2.079176    1.038050
  C      1.485560   -2.658639   -0.067649
  C      1.281559   -1.940381    2.107346
  N     -1.053478    0.137280   -0.520028
  C     -2.311127    0.379729    0.201400
  C     -3.103860    1.565354   -0.329472
  H     -3.921977    1.777289    0.357256
  H     -3.557415    1.370011   -1.302151
  H     -2.494169    2.466480   -0.399306
  C     -3.145898   -0.896557    0.199779
  H     -2.008399    0.599999    1.226014
  H     -4.040802   -0.752651    0.803656
  H     -3.463558   -1.158073   -0.810371
  H     -2.601224   -1.741966    0.616928
  C     -0.907969    0.445921   -1.755297
  C      0.412816    0.239577   -2.273243
  H     -1.711390    0.867346   -2.350518
  C      1.451583    0.097569   -1.342129
  C      2.674034   -0.185363   -2.037367
  S      0.903788    0.040178   -3.878552
  C      2.524559   -0.243912   -3.386322
  H      1.560937    1.128922   -0.685176
  H      3.633498   -0.279720   -1.549710
  H      3.286562   -0.414087   -4.131617
  H     -0.641530   -3.257231   -0.290397
  H     -0.888054   -2.427358    2.289215
  H      1.503076   -1.500746    3.069621
  O      1.549154    2.399401    0.112159
  O      0.573782    0.993521    1.537907
  C      1.036572    2.141623    1.206836
  C      0.955894    3.203530    2.267469
  H      0.935132    4.194331    1.821515
  H      1.845710    3.141292    2.896508
  H      0.089741    3.063368    2.909840
  H      3.259264   -1.860829    1.076809
  H      1.901823   -2.919087   -1.029800

 Multiplicity           Mult            ....    1
 Number of Electrons    NEL             ....  164
 Basis Dimension        Dim             ....  358

ORBITAL ENERGIES
----------------

  NO   OCC          E(Eh)            E(eV)
   0   2.0000     -89.771322     -2442.8019
   1   2.0000     -19.625356      -534.0331
   2   2.0000     -19.602692      -533.4164
   3   2.0000     -14.839330      -403.7987
   4   2.0000     -10.684288      -290.7343
   5   2.0000     -10.658645      -290.0365
   6   2.0000     -10.635072      -289.3950
   7   2.0000     -10.626685      -289.1668
   8   2.0000     -10.625691      -289.1398
   9   2.0000     -10.623734      -289.0865
  10   2.0000     -10.616851      -288.8992
  11   2.0000     -10.615190      -288.8540
  12   2.0000     -10.614406      -288.8327
  13   2.0000     -10.614287      -288.8294
  14   2.0000     -10.594216      -288.2833
  15   2.0000     -10.591406      -288.2068
  16   2.0000     -10.554979      -287.2156
  17   2.0000     -10.551501      -287.1209
  18   2.0000     -10.536921      -286.7242
  19   2.0000      -8.410679      -228.8662
  20   2.0000      -6.300522      -171.4459
  21   2.0000      -6.296925      -171.3480
  22   2.0000      -6.295740      -171.3158
  23   2.0000      -4.022008      -109.4444
  24   2.0000      -2.339377       -63.6577
  25   2.0000      -2.308383       -62.8143
  26   2.0000      -2.305459       -62.7347
  27   2.0000      -1.310253       -35.6538
  28   2.0000      -1.213482       -33.0205
  29   2.0000      -1.210822       -32.9481
  30   2.0000      -1.162037       -31.6206
  31   2.0000      -1.133403       -30.8415
  32   2.0000      -1.027921       -27.9712
  33   2.0000      -0.975702       -26.5502
  34   2.0000      -0.974694       -26.5228
  35   2.0000      -0.968646       -26.3582
  36   2.0000      -0.962890       -26.2016
  37   2.0000      -0.930047       -25.3079
  38   2.0000      -0.901683       -24.5360
  39   2.0000      -0.876375       -23.8474
  40   2.0000      -0.802344       -21.8329
  41   2.0000      -0.786063       -21.3899
  42   2.0000      -0.778413       -21.1817
  43   2.0000      -0.777516       -21.1573
  44   2.0000      -0.763012       -20.7626
  45   2.0000      -0.754662       -20.5354
  46   2.0000      -0.743866       -20.2416
  47   2.0000      -0.724100       -19.7038
  48   2.0000      -0.691159       -18.8074
  49   2.0000      -0.680202       -18.5092
  50   2.0000      -0.665455       -18.1079
  51   2.0000      -0.650639       -17.7048
  52   2.0000      -0.646271       -17.5859
  53   2.0000      -0.633775       -17.2459
  54   2.0000      -0.632401       -17.2085
  55   2.0000      -0.627755       -17.0821
  56   2.0000      -0.622882       -16.9495
  57   2.0000      -0.614878       -16.7317
  58   2.0000      -0.603760       -16.4291
  59   2.0000      -0.598689       -16.2912
  60   2.0000      -0.597907       -16.2699
  61   2.0000      -0.593358       -16.1461
  62   2.0000      -0.582678       -15.8555
  63   2.0000      -0.573673       -15.6104
  64   2.0000      -0.564320       -15.3559
  65   2.0000      -0.560009       -15.2386
  66   2.0000      -0.551710       -15.0128
  67   2.0000      -0.548089       -14.9142
  68   2.0000      -0.541727       -14.7412
  69   2.0000      -0.537030       -14.6133
  70   2.0000      -0.529581       -14.4106
  71   2.0000      -0.519144       -14.1266
  72   2.0000      -0.514409       -13.9978
  73   2.0000      -0.498238       -13.5577
  74   2.0000      -0.488993       -13.3062
  75   2.0000      -0.486820       -13.2470
  76   2.0000      -0.477794       -13.0014
  77   2.0000      -0.446732       -12.1562
  78   2.0000      -0.442282       -12.0351
  79   2.0000      -0.423558       -11.5256
  80   2.0000      -0.414632       -11.2827
  81   2.0000      -0.394467       -10.7340
  82   0.0000      -0.212334        -5.7779
  83   0.0000      -0.143713        -3.9106
  84   0.0000      -0.134423        -3.6578
  85   0.0000      -0.091500        -2.4898
  86   0.0000      -0.078268        -2.1298

MULLIKEN ATOMIC CHARGES
-----------------------
   0 Ir:    0.609210
   1 C :   -0.232628
   2 C :   -0.260428
   3 C :   -0.266691
   4 C :   -0.231953
   5 C :   -0.153652
   6 N :   -0.426022
   7 C :   -0.128174
   8 C :   -0.684222
   9 H :    0.270508
  10 H :    0.223973
  11 H :    0.257291
  12 C :   -0.634306
  13 H :    0.283701
  14 H :    0.260853
  15 H :    0.231798
  16 H :    0.234063
  17 C :    0.071779
  18 C :   -0.120376
  19 H :    0.288746
  20 C :   -0.585250
  21 C :   -0.085807
  22 S :    0.346774
  23 C :   -0.432193
  24 H :    0.471157
  25 H :    0.270518
  26 H :    0.300184
  27 H :    0.285225
  28 H :    0.283245
  29 H :    0.300511
  30 O :   -0.465687
  31 O :   -0.525640
  32 C :    0.618225
  33 C :   -0.742988
  34 H :    0.269700
  35 H :    0.269514
  36 H :    0.254786
  37 H :    0.282646
  38 H :    0.291609
Sum of atomic charges:    1.0000000

LOEWDIN ATOMIC CHARGES
----------------------
   0 Ir:   -0.256597
   1 C :   -0.053398
   2 C :   -0.094770
   3 C :   -0.089737
   4 C :   -0.049153
   5 C :   -0.015686
   6 N :    0.004851
   7 C :   -0.070284
   8 C :   -0.362751
   9 H :    0.156878
  10 H :    0.132813
  11 H :    0.145066
  12 C :   -0.343313
  13 H :    0.157077
  14 H :    0.151732
  15 H :    0.137564
  16 H :    0.133825
  17 C :    0.027507
  18 C :   -0.170800
  19 H :    0.162306
  20 C :   -0.218161
  21 C :   -0.115642
  22 S :    0.507214
  23 C :   -0.260239
  24 H :    0.333223
  25 H :    0.164664
  26 H :    0.170332
  27 H :    0.181847
  28 H :    0.180342
  29 H :    0.189687
  30 O :   -0.264320
  31 O :   -0.198389
  32 C :    0.151936
  33 C :   -0.374066
  34 H :    0.160402
  35 H :    0.168787
  36 H :    0.153855
  37 H :    0.181892
  38 H :    0.183507

  Mayer bond orders larger than 0.100000
B(  0-Ir,  1-C ) :   0.4280 B(  0-Ir,  2-C ) :   0.4143 B(  0-Ir,  3-C ) :   0.4646
B(  0-Ir,  4-C ) :   0.4257 B(  0-Ir,  5-C ) :   0.3752 B(  0-Ir,  6-N ) :   0.4621
B(  0-Ir, 20-C ) :   0.4704 B(  0-Ir, 31-O ) :   0.5502 B(  1-C ,  2-C ) :   1.1300
B(  1-C ,  4-C ) :   1.2358 B(  1-C , 27-H ) :   0.9075 B(  2-C ,  5-C ) :   1.1968
B(  2-C , 28-H ) :   0.9102 B(  3-C ,  4-C ) :   1.1275 B(  3-C ,  5-C ) :   1.1895
B(  3-C , 37-H ) :   0.9125 B(  4-C , 38-H ) :   0.8996 B(  5-C , 29-H ) :   0.9002
B(  6-N ,  7-C ) :   0.8948 B(  6-N , 17-C ) :   1.6557 B(  7-C ,  8-C ) :   0.9903
B(  7-C , 12-C ) :   0.9659 B(  7-C , 13-H ) :   0.8730 B(  8-C ,  9-H ) :   0.9043
B(  8-C , 10-H ) :   0.9131 B(  8-C , 11-H ) :   0.9104 B( 12-C , 14-H ) :   0.9072
B( 12-C , 15-H ) :   0.9153 B( 12-C , 16-H ) :   0.9116 B( 17-C , 18-C ) :   1.1004
B( 17-C , 19-H ) :   0.8761 B( 18-C , 20-C ) :   1.2079 B( 18-C , 22-S ) :   1.2690
B( 20-C , 21-C ) :   1.2396 B( 20-C , 24-H ) :   0.4260 B( 21-C , 23-C ) :   1.5616
B( 21-C , 25-H ) :   0.9011 B( 22-S , 23-C ) :   1.2006 B( 23-C , 26-H ) :   0.8908
B( 24-H , 30-O ) :   0.2836 B( 30-O , 32-C ) :   1.6584 B( 31-O , 32-C ) :   1.3145
B( 32-C , 33-C ) :   0.9425 B( 33-C , 34-H ) :   0.9040 B( 33-C , 35-H ) :   0.8971
B( 33-C , 36-H ) :   0.9090

Dispersion correction           -0.030921696
FINAL SINGLE POINT ENERGY     -1288.396871751790

DIPOLE MOMENT
-------------
                                X             Y             Z
Electronic contribution:     39.81577     -70.92489      68.47748
Nuclear contribution   :    -40.46695      70.11447     -68.97887
                        -----------------------------------------
Total Dipole Moment    :     -0.65119      -0.81042      -0.50139
                        -----------------------------------------
Magnitude (a.u.)       :      1.15422
Magnitude (Debye)      :      2.93379

Rotational constants in cm-1:     0.010534     0.009153     0.008233
Rotational constants in MHz :   315.788982   274.388941   246.832029

                             ****ORCA TERMINATED NORMALLY****
TOTAL RUN TIME: 0 days 1 hours 29 minutes 48 seconds 237 msec
