                         Program Version 5.0.3 -  RELEASE  -
|  1> ! Opt PBEh-3c
|  2> %geom Constraints
|  3> { B 0 20 2.4714285714285715 C }
|  4> { B 24 30 1.3 C }
|  5>     end
|  6> end
|  7> %output
|  8> xyzfile=True
|  9> end
| 10> %scf
| 11> maxiter 250
| 12> end
| 13> %output
| 14> Print[P_Hirshfeld] = 1
| 15> end
| 16> % maxcore
| 17> 4000
| 18> *xyz 1 1
| 19> Ir   0.58043908  -0.74642303   0.52605531
| 20> C    0.04704475  -2.83044882   0.38917736
| 21> C   -0.00105605  -2.37224721   1.75526956
| 22> C    2.16631010  -2.14576750   0.99987611
| 23> C    1.36230311  -2.66554755  -0.08280111
| 24> C    1.33319255  -2.00075211   2.12472667
| 25> N   -1.03211970   0.12383094  -0.49502563
| 26> C   -2.31885680   0.40125279   0.16790591
| 27> C   -3.09083069   1.55267873  -0.45908657
| 28> H   -3.92663854   1.81181398   0.18946727
| 29> H   -3.51927767   1.29860786  -1.42953019
| 30> H   -2.47461022   2.44517006  -0.56957601
| 31> C   -3.15444950  -0.87244558   0.21773126
| 32> H   -2.05426974   0.68491138   1.18770307
| 33> H   -4.07598766  -0.68783140   0.76807682
| 34> H   -3.42640915  -1.20570934  -0.78471215
| 35> H   -2.63265643  -1.68528217   0.72062462
| 36> C   -0.85044742   0.35897005  -1.74063396
| 37> C    0.48126176   0.19854304  -2.26314220
| 38> H   -1.66168660   0.70392078  -2.37592079
| 39> C    1.59981253   0.39858165  -1.46680058
| 40> C    2.78375496   0.07990002  -2.18585275
| 41> S    0.87074235  -0.30055620  -3.85116947
| 42> C    2.54096791  -0.29969344  -3.47223854
| 43> H    1.57844552   1.32162326  -0.59131094
| 44> H    3.78131324   0.18412958  -1.78439787
| 45> H    3.26168814  -0.56012407  -4.23268906
| 46> H   -0.78797265  -3.20545375  -0.18485170
| 47> H   -0.85462959  -2.40674804   2.41612680
| 48> H    1.62847229  -1.59711469   3.08281512
| 49> O    1.49084707   2.35873837   0.21122610
| 50> O    0.54537855   0.95206515   1.66032320
| 51> C    1.00382766   2.09855004   1.32091648
| 52> C    0.95890051   3.15726613   2.38292201
| 53> H    0.89259919   4.14709199   1.93902133
| 54> H    1.88499261   3.11665596   2.95978781
| 55> H    0.13419727   2.99883651   3.07348746
| 56> H    3.22151259  -1.92179341   0.95679746
| 57> H    1.71326468  -2.89000995  -1.07955810
| 58> *
| 59>
| 60>                          ****END OF INPUT****
 Total Charge           Charge          ....    1
 Multiplicity           Mult            ....    1
 Number of Electrons    NEL             ....  164
Dispersion correction           -0.030564815
FINAL SINGLE POINT ENERGY     -1288.394719765415
Dispersion correction            ... done
Dispersion correction           -0.030527089
FINAL SINGLE POINT ENERGY     -1288.394866829339
Dispersion correction            ... done
Dispersion correction           -0.030499577
FINAL SINGLE POINT ENERGY     -1288.394945004346
Dispersion correction            ... done
FINAL SINGLE POINT ENERGY     -1288.394973912669
FINAL SINGLE POINT ENERGY     -1288.394994230553
FINAL SINGLE POINT ENERGY     -1288.395001115410
FINAL SINGLE POINT ENERGY     -1288.395007494131
FINAL SINGLE POINT ENERGY     -1288.395012649751
FINAL SINGLE POINT ENERGY     -1288.395018372572
FINAL SINGLE POINT ENERGY     -1288.395024018603
FINAL SINGLE POINT ENERGY     -1288.395029346338
FINAL SINGLE POINT ENERGY     -1288.395033611454
FINAL SINGLE POINT ENERGY     -1288.395036503223
Dispersion correction            ... done
Dispersion correction           -0.030380892
FINAL SINGLE POINT ENERGY     -1288.395038449827
Dispersion correction            ... done
Dispersion correction           -0.030376921
FINAL SINGLE POINT ENERGY     -1288.395040428980
Dispersion correction            ... done
                    ***********************HURRAY********************

CARTESIAN COORDINATES (ANGSTROEM)
---------------------------------
  Ir     0.583857   -0.746684    0.526260
  C      0.071322   -2.837028    0.389625
  C     -0.047220   -2.370738    1.748461
  C      2.154635   -2.128896    1.096717
  C      1.408703   -2.667244   -0.016251
  C      1.261171   -1.979530    2.176195
  N     -1.036739    0.112727   -0.491910
  C     -2.326456    0.362045    0.176703
  C     -3.095770    1.540921   -0.402130
  H     -3.934133    1.771442    0.253789
  H     -3.519895    1.330630   -1.384807
  H     -2.478591    2.436914   -0.470817
  C     -3.163253   -0.911830    0.163151
  H     -2.068518    0.601394    1.209364
  H     -4.085074   -0.756100    0.722049
  H     -3.434895   -1.193535   -0.855078
  H     -2.641319   -1.750235    0.621968
  C     -0.864045    0.375473   -1.734119
  C      0.459693    0.228291   -2.273482
  H     -1.682330    0.731050   -2.354291
  C      1.581163    0.326345   -1.464205
  C      2.757273    0.038701   -2.207352
  S      0.837455   -0.144120   -3.898118
  C      2.505208   -0.219836   -3.522769
  H      1.620746    1.266116   -0.564614
  H      3.756921    0.079740   -1.799846
  H      3.220069   -0.432224   -4.303371
  H     -0.729714   -3.226827   -0.221592
  H     -0.930607   -2.408348    2.368519
  H      1.504422   -1.562151    3.143113
  O      1.617206    2.310194    0.209911
  O      0.540727    0.976993    1.634845
  C      1.061303    2.093504    1.300574
  C      1.011068    3.183537    2.329136
  H      0.940136    4.158602    1.853646
  H      1.939114    3.168029    2.903839
  H      0.186792    3.042906    3.023427
  H      3.210147   -1.903539    1.107155
  H      1.808795   -2.897499   -0.992953

 Multiplicity           Mult            ....    1
 Number of Electrons    NEL             ....  164
 Basis Dimension        Dim             ....  358

ORBITAL ENERGIES
----------------

  NO   OCC          E(Eh)            E(eV)
   0   2.0000     -89.753746     -2442.3236
   1   2.0000     -19.634692      -534.2871
   2   2.0000     -19.611840      -533.6653
   3   2.0000     -14.833277      -403.6340
   4   2.0000     -10.695863      -291.0492
   5   2.0000     -10.655412      -289.9485
   6   2.0000     -10.633695      -289.3576
   7   2.0000     -10.632307      -289.3198
   8   2.0000     -10.630748      -289.2773
   9   2.0000     -10.629423      -289.2413
  10   2.0000     -10.624940      -289.1193
  11   2.0000     -10.618371      -288.9406
  12   2.0000     -10.613587      -288.8104
  13   2.0000     -10.603926      -288.5475
  14   2.0000     -10.578743      -287.8622
  15   2.0000     -10.577889      -287.8390
  16   2.0000     -10.554945      -287.2147
  17   2.0000     -10.550318      -287.0887
  18   2.0000     -10.542081      -286.8646
  19   2.0000      -8.393240      -228.3917
  20   2.0000      -6.283213      -170.9749
  21   2.0000      -6.279662      -170.8783
  22   2.0000      -6.278061      -170.8347
  23   2.0000      -4.027550      -109.5952
  24   2.0000      -2.346444       -63.8500
  25   2.0000      -2.312630       -62.9299
  26   2.0000      -2.310201       -62.8638
  27   2.0000      -1.323334       -36.0098
  28   2.0000      -1.226060       -33.3628
  29   2.0000      -1.204736       -32.7825
  30   2.0000      -1.170699       -31.8564
  31   2.0000      -1.118515       -30.4363
  32   2.0000      -1.021497       -27.7963
  33   2.0000      -0.984786       -26.7974
  34   2.0000      -0.975831       -26.5537
  35   2.0000      -0.959247       -26.1024
  36   2.0000      -0.952759       -25.9259
  37   2.0000      -0.937763       -25.5178
  38   2.0000      -0.900515       -24.5043
  39   2.0000      -0.868413       -23.6307
  40   2.0000      -0.794320       -21.6145
  41   2.0000      -0.786262       -21.3953
  42   2.0000      -0.785123       -21.3643
  43   2.0000      -0.776117       -21.1192
  44   2.0000      -0.769717       -20.9451
  45   2.0000      -0.765278       -20.8243
  46   2.0000      -0.740490       -20.1497
  47   2.0000      -0.722443       -19.6587
  48   2.0000      -0.690707       -18.7951
  49   2.0000      -0.677977       -18.4487
  50   2.0000      -0.661783       -18.0080
  51   2.0000      -0.657522       -17.8921
  52   2.0000      -0.648340       -17.6422
  53   2.0000      -0.640680       -17.4338
  54   2.0000      -0.638418       -17.3723
  55   2.0000      -0.634329       -17.2610
  56   2.0000      -0.622049       -16.9268
  57   2.0000      -0.607451       -16.5296
  58   2.0000      -0.606062       -16.4918
  59   2.0000      -0.604854       -16.4589
  60   2.0000      -0.593946       -16.1621
  61   2.0000      -0.586394       -15.9566
  62   2.0000      -0.573838       -15.6149
  63   2.0000      -0.566874       -15.4254
  64   2.0000      -0.560586       -15.2543
  65   2.0000      -0.559512       -15.2251
  66   2.0000      -0.554291       -15.0830
  67   2.0000      -0.547439       -14.8966
  68   2.0000      -0.540251       -14.7010
  69   2.0000      -0.533011       -14.5040
  70   2.0000      -0.527626       -14.3574
  71   2.0000      -0.518855       -14.1188
  72   2.0000      -0.514486       -13.9999
  73   2.0000      -0.505699       -13.7608
  74   2.0000      -0.496649       -13.5145
  75   2.0000      -0.479973       -13.0607
  76   2.0000      -0.465355       -12.6630
  77   2.0000      -0.448471       -12.2035
  78   2.0000      -0.445869       -12.1327
  79   2.0000      -0.418628       -11.3915
  80   2.0000      -0.415795       -11.3144
  81   2.0000      -0.399371       -10.8674
  82   0.0000      -0.198030        -5.3887
  83   0.0000      -0.158747        -4.3197
  84   0.0000      -0.141200        -3.8422
  85   0.0000      -0.086215        -2.3460
  86   0.0000      -0.072510        -1.9731

MULLIKEN ATOMIC CHARGES
-----------------------
   0 Ir:    0.611214
   1 C :   -0.221054
   2 C :   -0.289648
   3 C :   -0.244394
   4 C :   -0.233083
   5 C :   -0.165050
   6 N :   -0.442233
   7 C :   -0.126681
   8 C :   -0.682702
   9 H :    0.268861
  10 H :    0.225170
  11 H :    0.256705
  12 C :   -0.634320
  13 H :    0.278276
  14 H :    0.261101
  15 H :    0.231904
  16 H :    0.229500
  17 C :    0.070302
  18 C :   -0.180513
  19 H :    0.284394
  20 C :   -0.430165
  21 C :   -0.150089
  22 S :    0.312854
  23 C :   -0.423263
  24 H :    0.491830
  25 H :    0.261298
  26 H :    0.294707
  27 H :    0.290553
  28 H :    0.289834
  29 H :    0.304224
  30 O :   -0.496769
  31 O :   -0.524027
  32 C :    0.631563
  33 C :   -0.745480
  34 H :    0.272981
  35 H :    0.272916
  36 H :    0.259066
  37 H :    0.292327
  38 H :    0.297889
Sum of atomic charges:    1.0000000

LOEWDIN ATOMIC CHARGES
----------------------
   0 Ir:   -0.224577
   1 C :   -0.049167
   2 C :   -0.071261
   3 C :   -0.068714
   4 C :   -0.041106
   5 C :   -0.018121
   6 N :   -0.017520
   7 C :   -0.068931
   8 C :   -0.362499
   9 H :    0.155886
  10 H :    0.133038
  11 H :    0.144879
  12 C :   -0.344088
  13 H :    0.154135
  14 H :    0.151579
  15 H :    0.137601
  16 H :    0.131708
  17 C :    0.034852
  18 C :   -0.203519
  19 H :    0.159235
  20 C :   -0.210148
  21 C :   -0.145351
  22 S :    0.467240
  23 C :   -0.259200
  24 H :    0.326676
  25 H :    0.159103
  26 H :    0.166952
  27 H :    0.184859
  28 H :    0.184167
  29 H :    0.192151
  30 O :   -0.270071
  31 O :   -0.190435
  32 C :    0.168824
  33 C :   -0.372709
  34 H :    0.163550
  35 H :    0.171178
  36 H :    0.155202
  37 H :    0.186508
  38 H :    0.188097

  Mayer bond orders larger than 0.100000
B(  0-Ir,  1-C ) :   0.4272 B(  0-Ir,  2-C ) :   0.5234 B(  0-Ir,  3-C ) :   0.4603
B(  0-Ir,  4-C ) :   0.4527 B(  0-Ir,  5-C ) :   0.4048 B(  0-Ir,  6-N ) :   0.4714
B(  0-Ir, 20-C ) :   0.3016 B(  0-Ir, 31-O ) :   0.5448 B(  1-C ,  2-C ) :   1.1172
B(  1-C ,  4-C ) :   1.2378 B(  1-C , 27-H ) :   0.9045 B(  2-C ,  5-C ) :   1.1433
B(  2-C , 28-H ) :   0.9081 B(  3-C ,  4-C ) :   1.1128 B(  3-C ,  5-C ) :   1.2220
B(  3-C , 37-H ) :   0.9066 B(  4-C , 38-H ) :   0.8996 B(  5-C , 29-H ) :   0.8983
B(  6-N ,  7-C ) :   0.8924 B(  6-N , 17-C ) :   1.6599 B(  7-C ,  8-C ) :   0.9912
B(  7-C , 12-C ) :   0.9681 B(  7-C , 13-H ) :   0.8778 B(  8-C ,  9-H ) :   0.9047
B(  8-C , 10-H ) :   0.9131 B(  8-C , 11-H ) :   0.9109 B( 12-C , 14-H ) :   0.9073
B( 12-C , 15-H ) :   0.9156 B( 12-C , 16-H ) :   0.9132 B( 17-C , 18-C ) :   1.0946
B( 17-C , 19-H ) :   0.8759 B( 18-C , 20-C ) :   1.2950 B( 18-C , 22-S ) :   1.2072
B( 20-C , 21-C ) :   1.2979 B( 20-C , 24-H ) :   0.3913 B( 21-C , 23-C ) :   1.5332
B( 21-C , 25-H ) :   0.9058 B( 22-S , 23-C ) :   1.2204 B( 23-C , 26-H ) :   0.8923
B( 24-H , 30-O ) :   0.2955 B( 30-O , 32-C ) :   1.5971 B( 31-O , 32-C ) :   1.3433
B( 32-C , 33-C ) :   0.9492 B( 33-C , 34-H ) :   0.9014 B( 33-C , 35-H ) :   0.8944
B( 33-C , 36-H ) :   0.9083

Dispersion correction           -0.030375427
FINAL SINGLE POINT ENERGY     -1288.395042238220

DIPOLE MOMENT
-------------
                                X             Y             Z
Electronic contribution:     34.89127     -72.39304      81.10191
Nuclear contribution   :    -35.51121      71.53457     -81.11725
                        -----------------------------------------
Total Dipole Moment    :     -0.61994      -0.85847      -0.01535
                        -----------------------------------------
Magnitude (a.u.)       :      1.05903
Magnitude (Debye)      :      2.69183

Rotational constants in cm-1:     0.010533     0.008661     0.008050
Rotational constants in MHz :   315.766226   259.654412   241.344347

                             ****ORCA TERMINATED NORMALLY****
TOTAL RUN TIME: 0 days 1 hours 53 minutes 3 seconds 945 msec
