                         Program Version 5.0.3 -  RELEASE  -
|  1> ! Opt PBEh-3c
|  2> %geom Constraints
|  3> { B 0 20 2.1714285714285713 C }
|  4> { B 24 30 1.4714285714285715 C }
|  5>     end
|  6> end
|  7> %output
|  8> xyzfile=True
|  9> end
| 10> %scf
| 11> maxiter 250
| 12> end
| 13> %output
| 14> Print[P_Hirshfeld] = 1
| 15> end
| 16> % maxcore
| 17> 4000
| 18> *xyz 1 1
| 19> Ir   0.62732336  -0.70910168   0.41864361
| 20> C    0.09932332  -2.81597454   0.34412492
| 21> C    0.06854331  -2.35340099   1.70533096
| 22> C    2.21955738  -2.09809289   0.90405748
| 23> C    1.40672393  -2.65039084  -0.15362141
| 24> C    1.39483725  -1.94553603   2.03989184
| 25> N   -1.04559010   0.14672800  -0.52672010
| 26> C   -2.30705898   0.42720766   0.17587339
| 27> C   -3.09463544   1.58238776  -0.42332101
| 28> H   -3.91418356   1.83586887   0.24767687
| 29> H   -3.54638596   1.33390289  -1.38468595
| 30> H   -2.48161818   2.47617485  -0.54150446
| 31> C   -3.14117924  -0.84699616   0.24662381
| 32> H   -2.00612672   0.70308232   1.18740803
| 33> H   -4.04171994  -0.66425070   0.83112586
| 34> H   -3.44922913  -1.17384060  -0.74735799
| 35> H   -2.60076687  -1.66203030   0.72566591
| 36> C   -0.88657912   0.39723338  -1.77157204
| 37> C    0.44644231   0.19025935  -2.27227881
| 38> H   -1.68735962   0.77985316  -2.39674196
| 39> C    1.51335659   0.24532848  -1.37218568
| 40> C    2.73133010  -0.08947313  -2.04071269
| 41> S    0.91163516  -0.25373574  -3.84028506
| 42> C    2.55533873  -0.37928321  -3.35694051
| 43> H    1.52479614   1.21340371  -0.65758274
| 44> H    3.70309642  -0.06072502  -1.56967543
| 45> H    3.30766911  -0.63672032  -4.08695128
| 46> H   -0.74007039  -3.20922903  -0.21114105
| 47> H   -0.77451669  -2.38565589   2.37890821
| 48> H    1.69930341  -1.52001830   2.98555869
| 49> O    1.41016350   2.43784031   0.17606066
| 50> O    0.54449488   0.96086653   1.60088426
| 51> C    0.95898145   2.13520347   1.28258308
| 52> C    0.89053887   3.15508511   2.38451218
| 53> H    0.86488363   4.16259842   1.97847608
| 54> H    1.78564789   3.06733340   3.00324747
| 55> H    0.03167720   2.99018517   3.03140436
| 56> H    3.27555277  -1.88088086   0.85285400
| 57> H    1.74517322  -2.90601668  -1.14689341
| 58> *
| 59>
| 60>                          ****END OF INPUT****
 Total Charge           Charge          ....    1
 Multiplicity           Mult            ....    1
 Number of Electrons    NEL             ....  164
Dispersion correction           -0.031062767
FINAL SINGLE POINT ENERGY     -1288.399452368847
Dispersion correction            ... done
Dispersion correction           -0.030986167
FINAL SINGLE POINT ENERGY     -1288.399405215663
Dispersion correction            ... done
Dispersion correction           -0.030992076
FINAL SINGLE POINT ENERGY     -1288.399225582002
Dispersion correction            ... done
FINAL SINGLE POINT ENERGY     -1288.399733409274
FINAL SINGLE POINT ENERGY     -1288.399767296872
FINAL SINGLE POINT ENERGY     -1288.399803999157
FINAL SINGLE POINT ENERGY     -1288.399830033212
FINAL SINGLE POINT ENERGY     -1288.399839854856
FINAL SINGLE POINT ENERGY     -1288.399850875066
FINAL SINGLE POINT ENERGY     -1288.399861549953
FINAL SINGLE POINT ENERGY     -1288.399872599642
FINAL SINGLE POINT ENERGY     -1288.399880102659
FINAL SINGLE POINT ENERGY     -1288.399886997751
FINAL SINGLE POINT ENERGY     -1288.399894430544
FINAL SINGLE POINT ENERGY     -1288.399899238520
Dispersion correction            ... done
Dispersion correction           -0.030896012
FINAL SINGLE POINT ENERGY     -1288.399899707485
Dispersion correction            ... done
Dispersion correction           -0.030897166
FINAL SINGLE POINT ENERGY     -1288.399898486505
Dispersion correction            ... done
                    ***********************HURRAY********************

CARTESIAN COORDINATES (ANGSTROEM)
---------------------------------
  Ir     0.632675   -0.715654    0.417529
  C      0.142576   -2.830918    0.311819
  C      0.015809   -2.379926    1.672612
  C      2.210962   -2.078781    1.014002
  C      1.479904   -2.645360   -0.091955
  C      1.304431   -1.946865    2.093047
  N     -1.049692    0.134631   -0.515992
  C     -2.308808    0.396313    0.197937
  C     -3.085205    1.584678   -0.350233
  H     -3.903711    1.815076    0.330260
  H     -3.536835    1.384085   -1.322674
  H     -2.463710    2.476986   -0.427959
  C     -3.154979   -0.872019    0.208869
  H     -2.008137    0.625703    1.220968
  H     -4.047857   -0.714348    0.812223
  H     -3.476010   -1.140894   -0.798303
  H     -2.616812   -1.717824    0.634175
  C     -0.903398    0.404219   -1.759370
  C      0.422201    0.202071   -2.275526
  H     -1.710872    0.796677   -2.369511
  C      1.485136    0.179321   -1.367810
  C      2.701155   -0.125663   -2.056457
  S      0.887102   -0.135060   -3.868773
  C      2.526485   -0.316997   -3.390834
  H      1.536402    1.176331   -0.664509
  H      3.671770   -0.145034   -1.582483
  H      3.278286   -0.531775   -4.135002
  H     -0.649091   -3.241274   -0.298214
  H     -0.868909   -2.429050    2.289223
  H      1.536344   -1.517319    3.057413
  O      1.479085    2.410942    0.133960
  O      0.562968    0.979382    1.572760
  C      1.001390    2.137804    1.240010
  C      0.935232    3.186019    2.314585
  H      0.887826    4.181518    1.881369
  H      1.843400    3.129900    2.917678
  H      0.090082    3.025980    2.979947
  H      3.266105   -1.854004    1.038596
  H      1.886071   -2.889681   -1.062637

 Multiplicity           Mult            ....    1
 Number of Electrons    NEL             ....  164
 Basis Dimension        Dim             ....  358

ORBITAL ENERGIES
----------------

  NO   OCC          E(Eh)            E(eV)
   0   2.0000     -89.769252     -2442.7455
   1   2.0000     -19.625004      -534.0235
   2   2.0000     -19.599900      -533.3404
   3   2.0000     -14.839146      -403.7937
   4   2.0000     -10.683726      -290.7190
   5   2.0000     -10.659453      -290.0585
   6   2.0000     -10.634233      -289.3722
   7   2.0000     -10.628865      -289.2261
   8   2.0000     -10.627875      -289.1992
   9   2.0000     -10.625785      -289.1423
  10   2.0000     -10.620875      -289.0087
  11   2.0000     -10.618134      -288.9341
  12   2.0000     -10.614290      -288.8295
  13   2.0000     -10.613263      -288.8016
  14   2.0000     -10.591838      -288.2186
  15   2.0000     -10.589438      -288.1532
  16   2.0000     -10.555327      -287.2251
  17   2.0000     -10.551184      -287.1123
  18   2.0000     -10.536164      -286.7036
  19   2.0000      -8.408640      -228.8107
  20   2.0000      -6.298516      -171.3913
  21   2.0000      -6.294910      -171.2932
  22   2.0000      -6.293651      -171.2589
  23   2.0000      -4.023547      -109.4863
  24   2.0000      -2.341364       -63.7118
  25   2.0000      -2.309117       -62.8343
  26   2.0000      -2.307053       -62.7781
  27   2.0000      -1.309782       -35.6410
  28   2.0000      -1.213030       -33.0082
  29   2.0000      -1.210496       -32.9393
  30   2.0000      -1.164765       -31.6949
  31   2.0000      -1.131778       -30.7973
  32   2.0000      -1.027226       -27.9522
  33   2.0000      -0.977845       -26.6085
  34   2.0000      -0.973121       -26.4800
  35   2.0000      -0.970308       -26.4034
  36   2.0000      -0.962503       -26.1911
  37   2.0000      -0.929674       -25.2977
  38   2.0000      -0.901534       -24.5320
  39   2.0000      -0.875649       -23.8276
  40   2.0000      -0.801098       -21.7990
  41   2.0000      -0.785017       -21.3614
  42   2.0000      -0.780737       -21.2449
  43   2.0000      -0.779945       -21.2234
  44   2.0000      -0.765438       -20.8286
  45   2.0000      -0.755121       -20.5479
  46   2.0000      -0.743626       -20.2351
  47   2.0000      -0.724011       -19.7014
  48   2.0000      -0.691086       -18.8054
  49   2.0000      -0.678483       -18.4625
  50   2.0000      -0.664885       -18.0925
  51   2.0000      -0.650124       -17.6908
  52   2.0000      -0.646777       -17.5997
  53   2.0000      -0.635099       -17.2819
  54   2.0000      -0.633356       -17.2345
  55   2.0000      -0.629103       -17.1188
  56   2.0000      -0.622783       -16.9468
  57   2.0000      -0.613872       -16.7043
  58   2.0000      -0.602148       -16.3853
  59   2.0000      -0.600915       -16.3517
  60   2.0000      -0.600167       -16.3314
  61   2.0000      -0.592807       -16.1311
  62   2.0000      -0.581747       -15.8301
  63   2.0000      -0.573052       -15.5935
  64   2.0000      -0.564330       -15.3562
  65   2.0000      -0.559131       -15.2147
  66   2.0000      -0.551441       -15.0055
  67   2.0000      -0.548040       -14.9129
  68   2.0000      -0.541152       -14.7255
  69   2.0000      -0.536878       -14.6092
  70   2.0000      -0.528708       -14.3869
  71   2.0000      -0.518837       -14.1183
  72   2.0000      -0.514675       -14.0050
  73   2.0000      -0.499320       -13.5872
  74   2.0000      -0.488125       -13.2826
  75   2.0000      -0.483316       -13.1517
  76   2.0000      -0.477886       -13.0039
  77   2.0000      -0.445765       -12.1299
  78   2.0000      -0.443340       -12.0639
  79   2.0000      -0.423228       -11.5166
  80   2.0000      -0.416100       -11.3226
  81   2.0000      -0.397126       -10.8063
  82   0.0000      -0.209267        -5.6944
  83   0.0000      -0.143527        -3.9056
  84   0.0000      -0.141208        -3.8425
  85   0.0000      -0.092330        -2.5124
  86   0.0000      -0.077276        -2.1028

MULLIKEN ATOMIC CHARGES
-----------------------
   0 Ir:    0.606977
   1 C :   -0.227788
   2 C :   -0.266969
   3 C :   -0.260914
   4 C :   -0.232744
   5 C :   -0.157024
   6 N :   -0.426154
   7 C :   -0.129455
   8 C :   -0.682568
   9 H :    0.269874
  10 H :    0.223602
  11 H :    0.258637
  12 C :   -0.634055
  13 H :    0.283295
  14 H :    0.261375
  15 H :    0.231316
  16 H :    0.232999
  17 C :    0.072329
  18 C :   -0.133171
  19 H :    0.288516
  20 C :   -0.552465
  21 C :   -0.098234
  22 S :    0.337302
  23 C :   -0.433064
  24 H :    0.478937
  25 H :    0.269248
  26 H :    0.299606
  27 H :    0.286378
  28 H :    0.285339
  29 H :    0.302423
  30 O :   -0.470562
  31 O :   -0.528596
  32 C :    0.618730
  33 C :   -0.743682
  34 H :    0.269635
  35 H :    0.268882
  36 H :    0.254612
  37 H :    0.284972
  38 H :    0.292460
Sum of atomic charges:    1.0000000

LOEWDIN ATOMIC CHARGES
----------------------
   0 Ir:   -0.251784
   1 C :   -0.051751
   2 C :   -0.086736
   3 C :   -0.083529
   4 C :   -0.047879
   5 C :   -0.015387
   6 N :    0.001944
   7 C :   -0.070397
   8 C :   -0.362434
   9 H :    0.156660
  10 H :    0.132610
  11 H :    0.145760
  12 C :   -0.343464
  13 H :    0.156752
  14 H :    0.151977
  15 H :    0.137287
  16 H :    0.133486
  17 C :    0.030252
  18 C :   -0.172506
  19 H :    0.162061
  20 C :   -0.213687
  21 C :   -0.119626
  22 S :    0.499237
  23 C :   -0.261537
  24 H :    0.322959
  25 H :    0.164141
  26 H :    0.169724
  27 H :    0.182582
  28 H :    0.181633
  29 H :    0.190928
  30 O :   -0.267777
  31 O :   -0.199906
  32 C :    0.152893
  33 C :   -0.374451
  34 H :    0.160364
  35 H :    0.168532
  36 H :    0.153713
  37 H :    0.183099
  38 H :    0.184257

  Mayer bond orders larger than 0.100000
B(  0-Ir,  1-C ) :   0.4235 B(  0-Ir,  2-C ) :   0.4481 B(  0-Ir,  3-C ) :   0.4653
B(  0-Ir,  4-C ) :   0.4323 B(  0-Ir,  5-C ) :   0.3870 B(  0-Ir,  6-N ) :   0.4615
B(  0-Ir, 20-C ) :   0.4071 B(  0-Ir, 31-O ) :   0.5566 B(  1-C ,  2-C ) :   1.1273
B(  1-C ,  4-C ) :   1.2401 B(  1-C , 27-H ) :   0.9068 B(  2-C ,  5-C ) :   1.1775
B(  2-C , 28-H ) :   0.9097 B(  3-C ,  4-C ) :   1.1209 B(  3-C ,  5-C ) :   1.2005
B(  3-C , 37-H ) :   0.9111 B(  4-C , 38-H ) :   0.8995 B(  5-C , 29-H ) :   0.8993
B(  6-N ,  7-C ) :   0.8932 B(  6-N , 17-C ) :   1.6642 B(  7-C ,  8-C ) :   0.9903
B(  7-C , 12-C ) :   0.9667 B(  7-C , 13-H ) :   0.8737 B(  8-C ,  9-H ) :   0.9044
B(  8-C , 10-H ) :   0.9134 B(  8-C , 11-H ) :   0.9099 B( 12-C , 14-H ) :   0.9072
B( 12-C , 15-H ) :   0.9155 B( 12-C , 16-H ) :   0.9122 B( 17-C , 18-C ) :   1.0911
B( 17-C , 19-H ) :   0.8761 B( 18-C , 20-C ) :   1.2313 B( 18-C , 22-S ) :   1.2610
B( 20-C , 21-C ) :   1.2516 B( 20-C , 24-H ) :   0.4325 B( 21-C , 23-C ) :   1.5575
B( 21-C , 25-H ) :   0.9022 B( 22-S , 23-C ) :   1.2022 B( 23-C , 26-H ) :   0.8909
B( 24-H , 30-O ) :   0.2781 B( 30-O , 32-C ) :   1.6604 B( 31-O , 32-C ) :   1.3084
B( 32-C , 33-C ) :   0.9438 B( 33-C , 34-H ) :   0.9041 B( 33-C , 35-H ) :   0.8973
B( 33-C , 36-H ) :   0.9092

Dispersion correction           -0.030899283
FINAL SINGLE POINT ENERGY     -1288.399897483459

DIPOLE MOMENT
-------------
                                X             Y             Z
Electronic contribution:     39.63304     -69.62058      70.44334
Nuclear contribution   :    -40.26799      68.70060     -70.88968
                        -----------------------------------------
Total Dipole Moment    :     -0.63494      -0.91998      -0.44634
                        -----------------------------------------
Magnitude (a.u.)       :      1.20364
Magnitude (Debye)      :      3.05941

Rotational constants in cm-1:     0.010562     0.009135     0.008220
Rotational constants in MHz :   316.645171   273.864317   246.435579

                             ****ORCA TERMINATED NORMALLY****
TOTAL RUN TIME: 0 days 2 hours 9 minutes 14 seconds 321 msec
