                         Program Version 5.0.3 -  RELEASE  -
|  1> ! Opt PBEh-3c
|  2> %geom Constraints
|  3> { B 0 20 2.0428571428571427 C }
|  4> { B 24 30 1.457142857142857 C }
|  5>     end
|  6> end
|  7> %output
|  8> xyzfile=True
|  9> end
| 10> %scf
| 11> maxiter 250
| 12> end
| 13> %output
| 14> Print[P_Hirshfeld] = 1
| 15> end
| 16> % maxcore
| 17> 4000
| 18> *xyz 1 1
| 19> Ir   0.62340234  -0.71428488   0.39933811
| 20> C    0.14304627  -2.83622540   0.33178854
| 21> C   -0.02571547  -2.37904418   1.68583559
| 22> C    2.18487264  -2.06063712   1.08362728
| 23> C    1.49410431  -2.65163148  -0.03174428
| 24> C    1.23956756  -1.92444999   2.13430550
| 25> N   -1.06766327   0.13447464  -0.52104056
| 26> C   -2.33212433   0.35371846   0.19584246
| 27> C   -3.13798076   1.53377755  -0.32760765
| 28> H   -3.96228903   1.72760999   0.35694480
| 29> H   -3.58397811   1.34174154  -1.30448689
| 30> H   -2.54024614   2.44368315  -0.38551791
| 31> C   -3.15110239  -0.93269119   0.17542598
| 32> H   -2.03886970   0.56786049   1.22462722
| 33> H   -4.05195066  -0.80685300   0.77456995
| 34> H   -3.45845933  -1.18696094  -0.83974610
| 35> H   -2.59917543  -1.77623666   0.58648639
| 36> C   -0.91831235   0.46773004  -1.74978849
| 37> C    0.40209900   0.27455069  -2.27097871
| 38> H   -1.72285917   0.89526355  -2.33908761
| 39> C    1.43744199   0.08586481  -1.34631478
| 40> C    2.65568217  -0.18939889  -2.05080345
| 41> S    0.89253553   0.13236735  -3.88363652
| 42> C    2.50737332  -0.19164256  -3.40197185
| 43> H    1.59966113   1.11809772  -0.66506190
| 44> H    3.61332973  -0.31598331  -1.56678483
| 45> H    3.26859386  -0.34260861  -4.15218919
| 46> H   -0.62411242  -3.26640605  -0.29545872
| 47> H   -0.92807577  -2.42611287   2.27604842
| 48> H    1.43810582  -1.47769926   3.09833604
| 49> O    1.68216202   2.35084695   0.13407826
| 50> O    0.55866944   1.01595479   1.51753066
| 51> C    1.10031814   2.13147052   1.20508720
| 52> C    1.02977106   3.21187663   2.24674116
| 53> H    1.02516174   4.19461532   1.78225339
| 54> H    1.91787053   3.15043992   2.87815400
| 55> H    0.15905408   3.09571898   2.88708350
| 56> H    3.23864686  -1.83637122   1.14335529
| 57> H    1.93081487  -2.91323550  -0.98450014
| 58> *
| 59>
| 60>                          ****END OF INPUT****
 Total Charge           Charge          ....    1
 Multiplicity           Mult            ....    1
 Number of Electrons    NEL             ....  164
Dispersion correction           -0.030949319
FINAL SINGLE POINT ENERGY     -1288.395905290511
Dispersion correction            ... done
Dispersion correction           -0.030902227
FINAL SINGLE POINT ENERGY     -1288.395973424624
Dispersion correction            ... done
Dispersion correction           -0.030905476
FINAL SINGLE POINT ENERGY     -1288.395259542983
Dispersion correction            ... done
FINAL SINGLE POINT ENERGY     -1288.396233139506
FINAL SINGLE POINT ENERGY     -1288.396258770931
FINAL SINGLE POINT ENERGY     -1288.396288414530
FINAL SINGLE POINT ENERGY     -1288.396315921122
FINAL SINGLE POINT ENERGY     -1288.396325334326
FINAL SINGLE POINT ENERGY     -1288.396328635045
FINAL SINGLE POINT ENERGY     -1288.396329690117
FINAL SINGLE POINT ENERGY     -1288.396330022470
FINAL SINGLE POINT ENERGY     -1288.396329468073
FINAL SINGLE POINT ENERGY     -1288.396330756725
FINAL SINGLE POINT ENERGY     -1288.396335178498
Dispersion correction            ... done
Dispersion correction           -0.030844948
FINAL SINGLE POINT ENERGY     -1288.396340684544
Dispersion correction            ... done
Dispersion correction           -0.030846623
FINAL SINGLE POINT ENERGY     -1288.396344440067
Dispersion correction            ... done
                    ***********************HURRAY********************

CARTESIAN COORDINATES (ANGSTROEM)
---------------------------------
  Ir     0.626499   -0.724485    0.390395
  C      0.166130   -2.848735    0.314040
  C     -0.054462   -2.408038    1.667394
  C      2.170884   -2.055701    1.144117
  C      1.530915   -2.653768    0.005898
  C      1.182185   -1.939766    2.162563
  N     -1.070767    0.126344   -0.515104
  C     -2.332297    0.333821    0.209736
  C     -3.129097    1.535862   -0.276375
  H     -3.952637    1.713905    0.413297
  H     -3.574925    1.379496   -1.259635
  H     -2.523914    2.442289   -0.304390
  C     -3.160360   -0.945588    0.151310
  H     -2.036862    0.515444    1.244174
  H     -4.056342   -0.835067    0.760720
  H     -3.475883   -1.163012   -0.869895
  H     -2.610650   -1.806478    0.528084
  C     -0.926799    0.479058   -1.739683
  C      0.390305    0.285780   -2.265814
  H     -1.731884    0.920247   -2.317738
  C      1.410681    0.037186   -1.335346
  C      2.634778   -0.217156   -2.042032
  S      0.900201    0.229395   -3.876903
  C      2.503817   -0.142661   -3.392768
  H      1.599855    1.118800   -0.698580
  H      3.584881   -0.384018   -1.555106
  H      3.273277   -0.262648   -4.140203
  H     -0.570087   -3.291038   -0.341081
  H     -0.978468   -2.465042    2.222024
  H      1.338708   -1.495200    3.135254
  O      1.687082    2.347886    0.079240
  O      0.585824    1.023389    1.490554
  C      1.117246    2.135047    1.161598
  C      1.057649    3.231541    2.186637
  H      0.977973    4.203113    1.705149
  H      1.986006    3.227816    2.760478
  H      0.233650    3.088214    2.880422
  H      3.220332   -1.827758    1.248457
  H      2.005926   -2.909281   -0.930150

 Multiplicity           Mult            ....    1
 Number of Electrons    NEL             ....  164
 Basis Dimension        Dim             ....  358

ORBITAL ENERGIES
----------------

  NO   OCC          E(Eh)            E(eV)
   0   2.0000     -89.769760     -2442.7593
   1   2.0000     -19.630058      -534.1610
   2   2.0000     -19.613089      -533.6993
   3   2.0000     -14.837188      -403.7404
   4   2.0000     -10.690503      -290.9034
   5   2.0000     -10.656571      -289.9800
   6   2.0000     -10.632001      -289.3114
   7   2.0000     -10.624053      -289.0952
   8   2.0000     -10.622608      -289.0559
   9   2.0000     -10.621713      -289.0315
  10   2.0000     -10.613755      -288.8149
  11   2.0000     -10.613644      -288.8119
  12   2.0000     -10.613468      -288.8072
  13   2.0000     -10.611142      -288.7439
  14   2.0000     -10.593750      -288.2706
  15   2.0000     -10.591566      -288.2112
  16   2.0000     -10.554021      -287.1895
  17   2.0000     -10.551202      -287.1128
  18   2.0000     -10.540800      -286.8297
  19   2.0000      -8.409095      -228.8231
  20   2.0000      -6.298938      -171.4028
  21   2.0000      -6.295365      -171.3056
  22   2.0000      -6.294143      -171.2723
  23   2.0000      -4.019905      -109.3872
  24   2.0000      -2.336853       -63.5890
  25   2.0000      -2.306849       -62.7725
  26   2.0000      -2.303264       -62.6750
  27   2.0000      -1.317229       -35.8436
  28   2.0000      -1.219192       -33.1759
  29   2.0000      -1.210003       -32.9259
  30   2.0000      -1.158975       -31.5373
  31   2.0000      -1.132114       -30.8064
  32   2.0000      -1.026887       -27.9430
  33   2.0000      -0.974949       -26.5297
  34   2.0000      -0.971711       -26.4416
  35   2.0000      -0.965975       -26.2855
  36   2.0000      -0.960949       -26.1487
  37   2.0000      -0.934561       -25.4307
  38   2.0000      -0.901058       -24.5190
  39   2.0000      -0.875080       -23.8121
  40   2.0000      -0.801211       -21.8021
  41   2.0000      -0.785160       -21.3653
  42   2.0000      -0.775708       -21.1081
  43   2.0000      -0.774830       -21.0842
  44   2.0000      -0.760392       -20.6913
  45   2.0000      -0.755879       -20.5685
  46   2.0000      -0.744497       -20.2588
  47   2.0000      -0.722774       -19.6677
  48   2.0000      -0.691987       -18.8299
  49   2.0000      -0.684497       -18.6261
  50   2.0000      -0.664771       -18.0893
  51   2.0000      -0.654927       -17.8215
  52   2.0000      -0.646836       -17.6013
  53   2.0000      -0.635945       -17.3050
  54   2.0000      -0.630847       -17.1662
  55   2.0000      -0.625801       -17.0289
  56   2.0000      -0.622320       -16.9342
  57   2.0000      -0.613829       -16.7031
  58   2.0000      -0.603205       -16.4140
  59   2.0000      -0.596633       -16.2352
  60   2.0000      -0.595173       -16.1955
  61   2.0000      -0.592392       -16.1198
  62   2.0000      -0.581568       -15.8253
  63   2.0000      -0.570947       -15.5363
  64   2.0000      -0.564042       -15.3484
  65   2.0000      -0.563525       -15.3343
  66   2.0000      -0.552735       -15.0407
  67   2.0000      -0.547344       -14.8940
  68   2.0000      -0.542225       -14.7547
  69   2.0000      -0.536388       -14.5959
  70   2.0000      -0.530675       -14.4404
  71   2.0000      -0.518860       -14.1189
  72   2.0000      -0.513528       -13.9738
  73   2.0000      -0.498324       -13.5601
  74   2.0000      -0.491924       -13.3859
  75   2.0000      -0.489865       -13.3299
  76   2.0000      -0.476504       -12.9663
  77   2.0000      -0.449571       -12.2334
  78   2.0000      -0.442286       -12.0352
  79   2.0000      -0.421871       -11.4797
  80   2.0000      -0.413648       -11.2559
  81   2.0000      -0.392921       -10.6919
  82   0.0000      -0.210732        -5.7343
  83   0.0000      -0.143847        -3.9143
  84   0.0000      -0.127700        -3.4749
  85   0.0000      -0.089618        -2.4386
  86   0.0000      -0.077369        -2.1053

MULLIKEN ATOMIC CHARGES
-----------------------
   0 Ir:    0.613046
   1 C :   -0.246767
   2 C :   -0.253655
   3 C :   -0.275776
   4 C :   -0.223314
   5 C :   -0.150276
   6 N :   -0.428002
   7 C :   -0.127575
   8 C :   -0.682402
   9 H :    0.270062
  10 H :    0.224052
  11 H :    0.255015
  12 C :   -0.633718
  13 H :    0.281730
  14 H :    0.259482
  15 H :    0.232495
  16 H :    0.234710
  17 C :    0.070134
  18 C :   -0.115148
  19 H :    0.287153
  20 C :   -0.600038
  21 C :   -0.083091
  22 S :    0.349828
  23 C :   -0.428992
  24 H :    0.469046
  25 H :    0.270687
  26 H :    0.299697
  27 H :    0.283919
  28 H :    0.280825
  29 H :    0.297563
  30 O :   -0.469188
  31 O :   -0.516352
  32 C :    0.624494
  33 C :   -0.743305
  34 H :    0.270892
  35 H :    0.272820
  36 H :    0.257989
  37 H :    0.280584
  38 H :    0.291375
Sum of atomic charges:    1.0000000

LOEWDIN ATOMIC CHARGES
----------------------
   0 Ir:   -0.259146
   1 C :   -0.060662
   2 C :   -0.098339
   3 C :   -0.098663
   4 C :   -0.043623
   5 C :   -0.017551
   6 N :    0.003696
   7 C :   -0.069870
   8 C :   -0.362314
   9 H :    0.156623
  10 H :    0.132781
  11 H :    0.143979
  12 C :   -0.343434
  13 H :    0.156037
  14 H :    0.151110
  15 H :    0.137919
  16 H :    0.133867
  17 C :    0.026348
  18 C :   -0.177641
  19 H :    0.161544
  20 C :   -0.221067
  21 C :   -0.118245
  22 S :    0.507740
  23 C :   -0.258544
  24 H :    0.350735
  25 H :    0.164260
  26 H :    0.170335
  27 H :    0.181314
  28 H :    0.178685
  29 H :    0.187790
  30 O :   -0.262071
  31 O :   -0.189588
  32 C :    0.157185
  33 C :   -0.372910
  34 H :    0.162458
  35 H :    0.170631
  36 H :    0.154433
  37 H :    0.180998
  38 H :    0.183204

  Mayer bond orders larger than 0.100000
B(  0-Ir,  1-C ) :   0.4444 B(  0-Ir,  2-C ) :   0.3859 B(  0-Ir,  3-C ) :   0.4699
B(  0-Ir,  4-C ) :   0.4184 B(  0-Ir,  5-C ) :   0.3577 B(  0-Ir,  6-N ) :   0.4624
B(  0-Ir, 20-C ) :   0.5234 B(  0-Ir, 31-O ) :   0.5329 B(  1-C ,  2-C ) :   1.1262
B(  1-C ,  4-C ) :   1.2267 B(  1-C , 27-H ) :   0.9091 B(  2-C ,  5-C ) :   1.2281
B(  2-C , 28-H ) :   0.9101 B(  3-C ,  4-C ) :   1.1398 B(  3-C ,  5-C ) :   1.1693
B(  3-C , 37-H ) :   0.9141 B(  4-C , 38-H ) :   0.8992 B(  5-C , 29-H ) :   0.9014
B(  6-N ,  7-C ) :   0.8958 B(  6-N , 17-C ) :   1.6491 B(  7-C ,  8-C ) :   0.9903
B(  7-C , 12-C ) :   0.9658 B(  7-C , 13-H ) :   0.8748 B(  8-C ,  9-H ) :   0.9045
B(  8-C , 10-H ) :   0.9131 B(  8-C , 11-H ) :   0.9115 B( 12-C , 14-H ) :   0.9075
B( 12-C , 15-H ) :   0.9152 B( 12-C , 16-H ) :   0.9113 B( 17-C , 18-C ) :   1.1099
B( 17-C , 19-H ) :   0.8763 B( 18-C , 20-C ) :   1.2006 B( 18-C , 22-S ) :   1.2624
B( 20-C , 21-C ) :   1.2393 B( 20-C , 24-H ) :   0.3841 B( 21-C , 23-C ) :   1.5559
B( 21-C , 25-H ) :   0.9005 B( 22-S , 23-C ) :   1.2062 B( 23-C , 26-H ) :   0.8910
B( 24-H , 30-O ) :   0.3150 B( 30-O , 32-C ) :   1.6145 B( 31-O , 32-C ) :   1.3479
B( 32-C , 33-C ) :   0.9423 B( 33-C , 34-H ) :   0.9021 B( 33-C , 35-H ) :   0.8951
B( 33-C , 36-H ) :   0.9087

Dispersion correction           -0.030848758
FINAL SINGLE POINT ENERGY     -1288.396345342149

DIPOLE MOMENT
-------------
                                X             Y             Z
Electronic contribution:     38.67723     -72.72720      67.93247
Nuclear contribution   :    -39.32339      72.14289     -68.36561
                        -----------------------------------------
Total Dipole Moment    :     -0.64616      -0.58431      -0.43313
                        -----------------------------------------
Magnitude (a.u.)       :      0.97291
Magnitude (Debye)      :      2.47294

Rotational constants in cm-1:     0.010519     0.009046     0.008267
Rotational constants in MHz :   315.351084   271.184837   247.834967

                             ****ORCA TERMINATED NORMALLY****
TOTAL RUN TIME: 0 days 2 hours 1 minutes 16 seconds 416 msec
