                         Program Version 5.0.3 -  RELEASE  -
|  1> ! Opt PBEh-3c
|  2> %geom Constraints
|  3> { B 0 20 2.1285714285714286 C }
|  4> { B 24 30 1.342857142857143 C }
|  5>     end
|  6> end
|  7> %output
|  8> xyzfile=True
|  9> end
| 10> %scf
| 11> maxiter 250
| 12> end
| 13> %output
| 14> Print[P_Hirshfeld] = 1
| 15> end
| 16> % maxcore
| 17> 4000
| 18> *xyz 1 1
| 19> Ir   0.60786622  -0.73135801   0.43893714
| 20> C    0.13358122  -2.84293329   0.35236944
| 21> C   -0.08785898  -2.38149590   1.69853768
| 22> C    2.14654630  -2.07017083   1.18471589
| 23> C    1.49951658  -2.65991444   0.04432259
| 24> C    1.15995793  -1.93025305   2.19687920
| 25> N   -1.06813342   0.11258033  -0.50865855
| 26> C   -2.34574895   0.30857559   0.19425340
| 27> C   -3.13835254   1.51146249  -0.29759441
| 28> H   -3.97224391   1.68446346   0.38086035
| 29> H   -3.56943985   1.35998538  -1.28811296
| 30> H   -2.53448541   2.41903417  -0.31230572
| 31> C   -3.16911639  -0.97204562   0.11256317
| 32> H   -2.07266195   0.48636449   1.23547750
| 33> H   -4.07951840  -0.86702024   0.70134077
| 34> H   -3.46026840  -1.18665479  -0.91649554
| 35> H   -2.62666392  -1.83357963   0.49854838
| 36> C   -0.91462288   0.45969114  -1.73356850
| 37> C    0.40273853   0.29772816  -2.27061911
| 38> H   -1.72761285   0.87935377  -2.31764385
| 39> C    1.45547981   0.09200602  -1.38279962
| 40> C    2.66138450  -0.14815630  -2.10594951
| 41> S    0.87064321   0.23001970  -3.90223005
| 42> C    2.49099205  -0.09643311  -3.45705587
| 43> H    1.63642165   1.14377048  -0.60156581
| 44> H    3.62672403  -0.29387406  -1.64321954
| 45> H    3.24309012  -0.21394081  -4.22239951
| 46> H   -0.60716092  -3.27526857  -0.30435908
| 47> H   -1.01203176  -2.42868134   2.25407949
| 48> H    1.31998248  -1.48333742   3.16801135
| 49> O    1.76274752   2.27861321   0.13192616
| 50> O    0.55977838   1.02974111   1.52504865
| 51> C    1.14764651   2.10885012   1.20444908
| 52> C    1.11185629   3.23028999   2.19941739
| 53> H    0.99075148   4.18564864   1.69360774
| 54> H    2.06649498   3.26520844   2.72704506
| 55> H    0.32158296   3.09172868   2.93159098
| 56> H    3.19709170  -1.84500669   1.28392357
| 57> H    1.97241621  -2.91580129  -0.89258728
| 58> *
| 59>
| 60>                          ****END OF INPUT****
 Total Charge           Charge          ....    1
 Multiplicity           Mult            ....    1
 Number of Electrons    NEL             ....  164
Dispersion correction           -0.030720545
FINAL SINGLE POINT ENERGY     -1288.403581277441
Dispersion correction            ... done
Dispersion correction           -0.030684413
FINAL SINGLE POINT ENERGY     -1288.403844287527
Dispersion correction            ... done
Dispersion correction           -0.030666142
FINAL SINGLE POINT ENERGY     -1288.403956844190
Dispersion correction            ... done
FINAL SINGLE POINT ENERGY     -1288.404023862875
FINAL SINGLE POINT ENERGY     -1288.404076756050
FINAL SINGLE POINT ENERGY     -1288.404100501865
FINAL SINGLE POINT ENERGY     -1288.404110153551
FINAL SINGLE POINT ENERGY     -1288.404114592566
FINAL SINGLE POINT ENERGY     -1288.404118479254
FINAL SINGLE POINT ENERGY     -1288.404121365227
FINAL SINGLE POINT ENERGY     -1288.404123776826
Dispersion correction            ... done
Dispersion correction           -0.030623701
FINAL SINGLE POINT ENERGY     -1288.404125336613
Dispersion correction            ... done
Dispersion correction           -0.030623309
FINAL SINGLE POINT ENERGY     -1288.404126423365
Dispersion correction            ... done
                    ***********************HURRAY********************

CARTESIAN COORDINATES (ANGSTROEM)
---------------------------------
  Ir     0.610406   -0.738947    0.426945
  C      0.140812   -2.850857    0.351024
  C     -0.102083   -2.396766    1.696315
  C      2.137088   -2.068966    1.213212
  C      1.513188   -2.666307    0.066380
  C      1.130783   -1.935713    2.211347
  N     -1.071519    0.108318   -0.508341
  C     -2.347400    0.294049    0.199627
  C     -3.140475    1.505062   -0.270970
  H     -3.974268    1.665915    0.410524
  H     -3.571401    1.371095   -1.264076
  H     -2.536705    2.412864   -0.269816
  C     -3.171292   -0.984881    0.099060
  H     -2.072457    0.455138    1.243172
  H     -4.079839   -0.890100    0.692443
  H     -3.465429   -1.181928   -0.932645
  H     -2.627220   -1.852812    0.467996
  C     -0.919948    0.474782   -1.728241
  C      0.395928    0.311558   -2.266233
  H     -1.731365    0.908975   -2.303493
  C      1.432138    0.047708   -1.372151
  C      2.644528   -0.176253   -2.092636
  S      0.884921    0.317375   -3.892349
  C      2.493542   -0.055086   -3.441643
  H      1.643987    1.165043   -0.635443
  H      3.601404   -0.361536   -1.626288
  H      3.254716   -0.147329   -4.201487
  H     -0.585967   -3.291367   -0.315745
  H     -1.035539   -2.445872    2.235719
  H      1.272691   -1.486506    3.184201
  O      1.760144    2.290339    0.088078
  O      0.581573    1.036946    1.499323
  C      1.157833    2.115489    1.171244
  C      1.134195    3.241423    2.160890
  H      1.006581    4.195164    1.653682
  H      2.094985    3.278140    2.677203
  H      0.352666    3.104271    2.902568
  H      3.185555   -1.844035    1.332552
  H      2.002614   -2.925202   -0.861208

 Multiplicity           Mult            ....    1
 Number of Electrons    NEL             ....  164
 Basis Dimension        Dim             ....  358

ORBITAL ENERGIES
----------------

  NO   OCC          E(Eh)            E(eV)
   0   2.0000     -89.761858     -2442.5443
   1   2.0000     -19.638467      -534.3899
   2   2.0000     -19.629731      -534.1521
   3   2.0000     -14.832083      -403.6015
   4   2.0000     -10.701480      -291.2021
   5   2.0000     -10.653214      -289.8887
   6   2.0000     -10.624676      -289.1121
   7   2.0000     -10.622935      -289.0648
   8   2.0000     -10.622466      -289.0520
   9   2.0000     -10.621523      -289.0263
  10   2.0000     -10.614297      -288.8297
  11   2.0000     -10.612093      -288.7697
  12   2.0000     -10.611078      -288.7421
  13   2.0000     -10.608914      -288.6832
  14   2.0000     -10.588942      -288.1398
  15   2.0000     -10.587392      -288.0976
  16   2.0000     -10.552558      -287.1497
  17   2.0000     -10.550068      -287.0820
  18   2.0000     -10.547298      -287.0066
  19   2.0000      -8.401231      -228.6091
  20   2.0000      -6.291114      -171.1899
  21   2.0000      -6.287583      -171.0938
  22   2.0000      -6.286191      -171.0559
  23   2.0000      -4.019442      -109.3746
  24   2.0000      -2.336386       -63.5763
  25   2.0000      -2.305690       -62.7410
  26   2.0000      -2.302290       -62.6485
  27   2.0000      -1.330481       -36.2042
  28   2.0000      -1.231870       -33.5209
  29   2.0000      -1.205103       -32.7925
  30   2.0000      -1.159309       -31.5464
  31   2.0000      -1.125750       -30.6332
  32   2.0000      -1.023075       -27.8393
  33   2.0000      -0.972099       -26.4522
  34   2.0000      -0.967398       -26.3242
  35   2.0000      -0.965113       -26.2621
  36   2.0000      -0.957428       -26.0529
  37   2.0000      -0.942861       -25.6566
  38   2.0000      -0.899496       -24.4765
  39   2.0000      -0.870472       -23.6867
  40   2.0000      -0.796595       -21.6765
  41   2.0000      -0.780602       -21.2413
  42   2.0000      -0.775880       -21.1128
  43   2.0000      -0.775197       -21.0942
  44   2.0000      -0.764498       -20.8030
  45   2.0000      -0.760193       -20.6859
  46   2.0000      -0.741285       -20.1714
  47   2.0000      -0.721338       -19.6286
  48   2.0000      -0.695776       -18.9330
  49   2.0000      -0.684101       -18.6153
  50   2.0000      -0.663649       -18.0588
  51   2.0000      -0.662856       -18.0372
  52   2.0000      -0.649809       -17.6822
  53   2.0000      -0.638166       -17.3654
  54   2.0000      -0.630173       -17.1479
  55   2.0000      -0.626818       -17.0566
  56   2.0000      -0.620830       -16.8936
  57   2.0000      -0.609227       -16.5779
  58   2.0000      -0.598597       -16.2886
  59   2.0000      -0.596161       -16.2224
  60   2.0000      -0.595257       -16.1978
  61   2.0000      -0.590324       -16.0635
  62   2.0000      -0.577765       -15.7218
  63   2.0000      -0.570836       -15.5332
  64   2.0000      -0.563520       -15.3342
  65   2.0000      -0.561111       -15.2686
  66   2.0000      -0.556817       -15.1518
  67   2.0000      -0.545584       -14.8461
  68   2.0000      -0.542131       -14.7521
  69   2.0000      -0.535119       -14.5613
  70   2.0000      -0.529124       -14.3982
  71   2.0000      -0.517728       -14.0881
  72   2.0000      -0.512451       -13.9445
  73   2.0000      -0.502826       -13.6826
  74   2.0000      -0.497130       -13.5276
  75   2.0000      -0.486281       -13.2324
  76   2.0000      -0.477118       -12.9830
  77   2.0000      -0.451456       -12.2848
  78   2.0000      -0.444012       -12.0822
  79   2.0000      -0.416673       -11.3383
  80   2.0000      -0.415199       -11.2981
  81   2.0000      -0.393875       -10.7179
  82   0.0000      -0.201291        -5.4774
  83   0.0000      -0.142831        -3.8866
  84   0.0000      -0.129960        -3.5364
  85   0.0000      -0.085170        -2.3176
  86   0.0000      -0.074282        -2.0213

MULLIKEN ATOMIC CHARGES
-----------------------
   0 Ir:    0.606616
   1 C :   -0.248095
   2 C :   -0.258623
   3 C :   -0.272759
   4 C :   -0.221738
   5 C :   -0.153365
   6 N :   -0.435964
   7 C :   -0.125793
   8 C :   -0.680715
   9 H :    0.268804
  10 H :    0.224503
  11 H :    0.252866
  12 C :   -0.633260
  13 H :    0.277485
  14 H :    0.258088
  15 H :    0.232719
  16 H :    0.233439
  17 C :    0.068850
  18 C :   -0.123723
  19 H :    0.284093
  20 C :   -0.553811
  21 C :   -0.105987
  22 S :    0.340411
  23 C :   -0.425571
  24 H :    0.475541
  25 H :    0.265918
  26 H :    0.297332
  27 H :    0.284848
  28 H :    0.281086
  29 H :    0.296602
  30 O :   -0.485073
  31 O :   -0.503008
  32 C :    0.634413
  33 C :   -0.744034
  34 H :    0.274075
  35 H :    0.276774
  36 H :    0.263182
  37 H :    0.281314
  38 H :    0.292558
Sum of atomic charges:    1.0000000

LOEWDIN ATOMIC CHARGES
----------------------
   0 Ir:   -0.260755
   1 C :   -0.060084
   2 C :   -0.097225
   3 C :   -0.097996
   4 C :   -0.039449
   5 C :   -0.017615
   6 N :   -0.006083
   7 C :   -0.069205
   8 C :   -0.362056
   9 H :    0.155906
  10 H :    0.132765
  11 H :    0.142932
  12 C :   -0.343951
  13 H :    0.153718
  14 H :    0.150365
  15 H :    0.138035
  16 H :    0.133097
  17 C :    0.029109
  18 C :   -0.194474
  19 H :    0.159639
  20 C :   -0.219209
  21 C :   -0.130916
  22 S :    0.494112
  23 C :   -0.257257
  24 H :    0.364522
  25 H :    0.161531
  26 H :    0.168991
  27 H :    0.181897
  28 H :    0.179048
  29 H :    0.187406
  30 O :   -0.258514
  31 O :   -0.175974
  32 C :    0.167911
  33 C :   -0.371149
  34 H :    0.165500
  35 H :    0.172932
  36 H :    0.156684
  37 H :    0.181375
  38 H :    0.184434

  Mayer bond orders larger than 0.100000
B(  0-Ir,  1-C ) :   0.4499 B(  0-Ir,  2-C ) :   0.4028 B(  0-Ir,  3-C ) :   0.4696
B(  0-Ir,  4-C ) :   0.4264 B(  0-Ir,  5-C ) :   0.3695 B(  0-Ir,  6-N ) :   0.4652
B(  0-Ir, 20-C ) :   0.4954 B(  0-Ir, 31-O ) :   0.5110 B(  1-C ,  2-C ) :   1.1266
B(  1-C ,  4-C ) :   1.2207 B(  1-C , 27-H ) :   0.9086 B(  2-C ,  5-C ) :   1.2196
B(  2-C , 28-H ) :   0.9103 B(  3-C ,  4-C ) :   1.1419 B(  3-C ,  5-C ) :   1.1707
B(  3-C , 37-H ) :   0.9135 B(  4-C , 38-H ) :   0.8999 B(  5-C , 29-H ) :   0.9017
B(  6-N ,  7-C ) :   0.8964 B(  6-N , 17-C ) :   1.6456 B(  7-C ,  8-C ) :   0.9903
B(  7-C , 12-C ) :   0.9670 B(  7-C , 13-H ) :   0.8780 B(  8-C ,  9-H ) :   0.9049
B(  8-C , 10-H ) :   0.9130 B(  8-C , 11-H ) :   0.9126 B( 12-C , 14-H ) :   0.9080
B( 12-C , 15-H ) :   0.9153 B( 12-C , 16-H ) :   0.9120 B( 17-C , 18-C ) :   1.1160
B( 17-C , 19-H ) :   0.8766 B( 18-C , 20-C ) :   1.2316 B( 18-C , 22-S ) :   1.2336
B( 20-C , 21-C ) :   1.2736 B( 20-C , 24-H ) :   0.3186 B( 21-C , 23-C ) :   1.5378
B( 21-C , 25-H ) :   0.9027 B( 22-S , 23-C ) :   1.2219 B( 23-C , 26-H ) :   0.8916
B( 24-H , 30-O ) :   0.3638 B( 30-O , 32-C ) :   1.5392 B( 31-O , 32-C ) :   1.3986
B( 32-C , 33-C ) :   0.9454 B( 33-C , 34-H ) :   0.8992 B( 33-C , 35-H ) :   0.8924
B( 33-C , 36-H ) :   0.9076

Dispersion correction           -0.030624143
FINAL SINGLE POINT ENERGY     -1288.404127301043

DIPOLE MOMENT
-------------
                                X             Y             Z
Electronic contribution:     37.21640     -74.47067      71.65478
Nuclear contribution   :    -37.79604      74.08957     -71.84584
                        -----------------------------------------
Total Dipole Moment    :     -0.57964      -0.38110      -0.19106
                        -----------------------------------------
Magnitude (a.u.)       :      0.71953
Magnitude (Debye)      :      1.82890

Rotational constants in cm-1:     0.010555     0.008806     0.008199
Rotational constants in MHz :   316.417795   263.989614   245.809996

                             ****ORCA TERMINATED NORMALLY****
TOTAL RUN TIME: 0 days 1 hours 47 minutes 11 seconds 988 msec
