                         Program Version 5.0.3 -  RELEASE  -
|  1> ! Opt PBEh-3c
|  2> %geom Constraints
|  3> { B 0 20 2.5142857142857142 C }
|  4> { B 24 30 1.3857142857142857 C }
|  5>     end
|  6> end
|  7> %output
|  8> xyzfile=True
|  9> end
| 10> %scf
| 11> maxiter 250
| 12> end
| 13> %output
| 14> Print[P_Hirshfeld] = 1
| 15> end
| 16> % maxcore
| 17> 4000
| 18> *xyz 1 1
| 19> Ir   0.57332723  -0.73347141   0.48205528
| 20> C    0.01561706  -2.81093668   0.35479555
| 21> C    0.10100265  -2.36873573   1.72589303
| 22> C    2.18437940  -2.14923079   0.77245968
| 23> C    1.27931301  -2.64714405  -0.23929297
| 24> C    1.47061474  -2.01739118   1.97574019
| 25> N   -1.04329893   0.16675442  -0.51348115
| 26> C   -2.31894116   0.50002303   0.14033728
| 27> C   -3.13610535   1.53782568  -0.61195976
| 28> H   -3.97123953   1.84848658   0.01429014
| 29> H   -3.56841279   1.15084270  -1.53614730
| 30> H   -2.55473582   2.43139257  -0.84158295
| 31> C   -3.11881173  -0.77362523   0.38449946
| 32> H   -2.03224210   0.92124505   1.10551814
| 33> H   -4.03683260  -0.53107422   0.91756493
| 34> H   -3.39676450  -1.25344263  -0.55489803
| 35> H   -2.57274036  -1.49159911   0.99476552
| 36> C   -0.83031808   0.37342367  -1.75547902
| 37> C    0.52251104   0.15856632  -2.22302872
| 38> H   -1.60835821   0.73035906  -2.42444006
| 39> C    1.62894944   0.53435769  -1.47172330
| 40> C    2.82953090   0.12912230  -2.12239701
| 41> S    0.94050633  -0.61412272  -3.69006935
| 42> C    2.61103324  -0.49027452  -3.31319114
| 43> H    1.54276722   1.40535073  -0.65614878
| 44> H    3.81849696   0.34032935  -1.74219653
| 45> H    3.34506688  -0.86496565  -4.01055548
| 46> H   -0.87635439  -3.16642206  -0.14079754
| 47> H   -0.68694705  -2.40519434   2.46390585
| 48> H    1.86102770  -1.63366213   2.90733968
| 49> O    1.32627174   2.43581917   0.26649118
| 50> O    0.53520846   0.90419600   1.68273730
| 51> C    0.91799305   2.09845093   1.37640629
| 52> C    0.86534829   3.08237812   2.51069233
| 53> H    0.82734603   4.10098782   2.13434336
| 54> H    1.77145691   2.98189409   3.11144711
| 55> H    0.01963305   2.89539183   3.16909464
| 56> H    3.22875493  -1.91707376   0.62496309
| 57> H    1.53531637  -2.85964089  -1.26721083
| 58> *
| 59>
| 60>                          ****END OF INPUT****
 Total Charge           Charge          ....    1
 Multiplicity           Mult            ....    1
 Number of Electrons    NEL             ....  164
Dispersion correction           -0.030930114
FINAL SINGLE POINT ENERGY     -1288.395315908271
Dispersion correction            ... done
Dispersion correction           -0.030983651
FINAL SINGLE POINT ENERGY     -1288.393393833025
Dispersion correction            ... done
Dispersion correction           -0.030914963
FINAL SINGLE POINT ENERGY     -1288.395369400143
Dispersion correction            ... done
FINAL SINGLE POINT ENERGY     -1288.393278421887
FINAL SINGLE POINT ENERGY     -1288.395486193001
FINAL SINGLE POINT ENERGY     -1288.395516478285
FINAL SINGLE POINT ENERGY     -1288.395537720501
FINAL SINGLE POINT ENERGY     -1288.395549891742
FINAL SINGLE POINT ENERGY     -1288.395562455604
Dispersion correction            ... done
Dispersion correction           -0.030802260
FINAL SINGLE POINT ENERGY     -1288.395575418113
Dispersion correction            ... done
Dispersion correction           -0.030797977
FINAL SINGLE POINT ENERGY     -1288.395578009274
Dispersion correction            ... done
                    ***********************HURRAY********************

CARTESIAN COORDINATES (ANGSTROEM)
---------------------------------
  Ir     0.578426   -0.730983    0.487031
  C      0.021762   -2.809737    0.365870
  C      0.090640   -2.364532    1.736029
  C      2.185753   -2.145771    0.805164
  C      1.292409   -2.647813   -0.214836
  C      1.456190   -2.009031    1.999061
  N     -1.042094    0.156489   -0.512533
  C     -2.319795    0.476627    0.144779
  C     -3.125051    1.545230   -0.577308
  H     -3.957466    1.846668    0.057110
  H     -3.561082    1.191579   -1.512973
  H     -2.532566    2.437934   -0.779970
  C     -3.129471   -0.799131    0.341823
  H     -2.037161    0.864104    1.125092
  H     -4.049649   -0.568696    0.876646
  H     -3.403585   -1.246307   -0.614620
  H     -2.591216   -1.540164    0.931058
  C     -0.839775    0.366069   -1.756849
  C      0.508528    0.165749   -2.235464
  H     -1.627530    0.715769   -2.418181
  C      1.611731    0.487662   -1.454313
  C      2.813926    0.102844   -2.112625
  S      0.932441   -0.535441   -3.734305
  C      2.599614   -0.451350   -3.336662
  H      1.536358    1.376415   -0.635815
  H      3.801794    0.282717   -1.713917
  H      3.335754   -0.797132   -4.046648
  H     -0.863646   -3.167702   -0.139627
  H     -0.705971   -2.398992    2.464637
  H      1.835486   -1.621235    2.933580
  O      1.353186    2.425313    0.251014
  O      0.535350    0.918465    1.677813
  C      0.932848    2.103060    1.363341
  C      0.885673    3.102877    2.483191
  H      0.845892    4.116286    2.093221
  H      1.795502    3.010721    3.079687
  H      0.043556    2.924229    3.148270
  H      3.232757   -1.917534    0.671492
  H      1.559851   -2.866064   -1.238523

 Multiplicity           Mult            ....    1
 Number of Electrons    NEL             ....  164
 Basis Dimension        Dim             ....  358

ORBITAL ENERGIES
----------------

  NO   OCC          E(Eh)            E(eV)
   0   2.0000     -89.759064     -2442.4683
   1   2.0000     -19.625620      -534.0403
   2   2.0000     -19.591128      -533.1017
   3   2.0000     -14.839670      -403.8079
   4   2.0000     -10.683454      -290.7116
   5   2.0000     -10.660832      -290.0960
   6   2.0000     -10.637886      -289.4716
   7   2.0000     -10.634680      -289.3844
   8   2.0000     -10.634175      -289.3706
   9   2.0000     -10.632467      -289.3241
  10   2.0000     -10.631590      -289.3003
  11   2.0000     -10.628301      -289.2108
  12   2.0000     -10.615985      -288.8756
  13   2.0000     -10.607820      -288.6534
  14   2.0000     -10.581280      -287.9313
  15   2.0000     -10.579117      -287.8724
  16   2.0000     -10.557019      -287.2711
  17   2.0000     -10.551934      -287.1327
  18   2.0000     -10.534140      -286.6485
  19   2.0000      -8.398423      -228.5327
  20   2.0000      -6.288479      -171.1182
  21   2.0000      -6.284856      -171.0196
  22   2.0000      -6.283171      -170.9738
  23   2.0000      -4.030565      -109.6773
  24   2.0000      -2.349867       -63.9431
  25   2.0000      -2.315548       -63.0093
  26   2.0000      -2.313805       -62.9618
  27   2.0000      -1.308339       -35.6017
  28   2.0000      -1.212973       -33.0067
  29   2.0000      -1.210433       -32.9376
  30   2.0000      -1.174361       -31.9560
  31   2.0000      -1.123476       -30.5713
  32   2.0000      -1.025874       -27.9154
  33   2.0000      -0.989125       -26.9155
  34   2.0000      -0.979308       -26.6483
  35   2.0000      -0.963218       -26.2105
  36   2.0000      -0.957043       -26.0425
  37   2.0000      -0.928679       -25.2706
  38   2.0000      -0.903232       -24.5782
  39   2.0000      -0.872338       -23.7375
  40   2.0000      -0.796851       -21.6834
  41   2.0000      -0.790141       -21.5008
  42   2.0000      -0.788504       -21.4563
  43   2.0000      -0.779615       -21.2144
  44   2.0000      -0.773148       -21.0384
  45   2.0000      -0.757518       -20.6131
  46   2.0000      -0.743610       -20.2346
  47   2.0000      -0.722482       -19.6597
  48   2.0000      -0.693873       -18.8812
  49   2.0000      -0.674476       -18.3534
  50   2.0000      -0.664760       -18.0890
  51   2.0000      -0.651626       -17.7316
  52   2.0000      -0.649215       -17.6660
  53   2.0000      -0.640794       -17.4369
  54   2.0000      -0.638181       -17.3658
  55   2.0000      -0.631319       -17.1791
  56   2.0000      -0.623711       -16.9720
  57   2.0000      -0.611091       -16.6286
  58   2.0000      -0.609752       -16.5922
  59   2.0000      -0.608151       -16.5486
  60   2.0000      -0.596292       -16.2259
  61   2.0000      -0.587418       -15.9845
  62   2.0000      -0.575885       -15.6706
  63   2.0000      -0.568924       -15.4812
  64   2.0000      -0.562778       -15.3140
  65   2.0000      -0.555725       -15.1221
  66   2.0000      -0.552581       -15.0365
  67   2.0000      -0.548544       -14.9266
  68   2.0000      -0.539485       -14.6801
  69   2.0000      -0.534622       -14.5478
  70   2.0000      -0.527968       -14.3668
  71   2.0000      -0.520943       -14.1756
  72   2.0000      -0.516057       -14.0426
  73   2.0000      -0.507257       -13.8032
  74   2.0000      -0.490598       -13.3498
  75   2.0000      -0.480861       -13.0849
  76   2.0000      -0.464194       -12.6314
  77   2.0000      -0.450804       -12.2670
  78   2.0000      -0.441889       -12.0244
  79   2.0000      -0.421928       -11.4813
  80   2.0000      -0.417239       -11.3537
  81   2.0000      -0.403106       -10.9691
  82   0.0000      -0.200634        -5.4595
  83   0.0000      -0.164616        -4.4794
  84   0.0000      -0.141507        -3.8506
  85   0.0000      -0.097447        -2.6517
  86   0.0000      -0.075920        -2.0659

MULLIKEN ATOMIC CHARGES
-----------------------
   0 Ir:    0.619007
   1 C :   -0.208555
   2 C :   -0.294123
   3 C :   -0.232009
   4 C :   -0.245086
   5 C :   -0.166957
   6 N :   -0.430534
   7 C :   -0.118252
   8 C :   -0.693834
   9 H :    0.272412
  10 H :    0.226133
  11 H :    0.260325
  12 C :   -0.638830
  13 H :    0.280637
  14 H :    0.264611
  15 H :    0.230917
  16 H :    0.232190
  17 C :    0.068317
  18 C :   -0.205877
  19 H :    0.290963
  20 C :   -0.419628
  21 C :   -0.143336
  22 S :    0.297527
  23 C :   -0.428196
  24 H :    0.501476
  25 H :    0.264879
  26 H :    0.296199
  27 H :    0.292624
  28 H :    0.293613
  29 H :    0.306524
  30 O :   -0.486799
  31 O :   -0.539930
  32 C :    0.617930
  33 C :   -0.745886
  34 H :    0.269825
  35 H :    0.266664
  36 H :    0.253508
  37 H :    0.295454
  38 H :    0.296096
Sum of atomic charges:    1.0000000

LOEWDIN ATOMIC CHARGES
----------------------
   0 Ir:   -0.213879
   1 C :   -0.039183
   2 C :   -0.059278
   3 C :   -0.048350
   4 C :   -0.054503
   5 C :   -0.026195
   6 N :   -0.009675
   7 C :   -0.068491
   8 C :   -0.364688
   9 H :    0.157344
  10 H :    0.133855
  11 H :    0.146710
  12 C :   -0.343646
  13 H :    0.156099
  14 H :    0.153054
  15 H :    0.137283
  16 H :    0.133905
  17 C :    0.036175
  18 C :   -0.191782
  19 H :    0.162396
  20 C :   -0.192359
  21 C :   -0.143898
  22 S :    0.460655
  23 C :   -0.262257
  24 H :    0.292798
  25 H :    0.161249
  26 H :    0.167327
  27 H :    0.185873
  28 H :    0.186320
  29 H :    0.193646
  30 O :   -0.277265
  31 O :   -0.206008
  32 C :    0.157234
  33 C :   -0.375851
  34 H :    0.159975
  35 H :    0.167387
  36 H :    0.153398
  37 H :    0.187895
  38 H :    0.186729

  Mayer bond orders larger than 0.100000
B(  0-Ir,  1-C ) :   0.4219 B(  0-Ir,  2-C ) :   0.5461 B(  0-Ir,  3-C ) :   0.4616
B(  0-Ir,  4-C ) :   0.4542 B(  0-Ir,  5-C ) :   0.4034 B(  0-Ir,  6-N ) :   0.4667
B(  0-Ir, 20-C ) :   0.2349 B(  0-Ir, 31-O ) :   0.5808 B(  1-C ,  2-C ) :   1.1148
B(  1-C ,  4-C ) :   1.2440 B(  1-C , 27-H ) :   0.9027 B(  2-C ,  5-C ) :   1.1308
B(  2-C , 28-H ) :   0.9068 B(  3-C ,  4-C ) :   1.1051 B(  3-C ,  5-C ) :   1.2349
B(  3-C , 37-H ) :   0.9032 B(  4-C , 38-H ) :   0.8986 B(  5-C , 29-H ) :   0.8979
B(  6-N ,  7-C ) :   0.8914 B(  6-N , 17-C ) :   1.6892 B(  7-C ,  8-C ) :   0.9924
B(  7-C , 12-C ) :   0.9692 B(  7-C , 13-H ) :   0.8726 B(  8-C ,  9-H ) :   0.9035
B(  8-C , 10-H ) :   0.9124 B(  8-C , 11-H ) :   0.9083 B( 12-C , 14-H ) :   0.9063
B( 12-C , 15-H ) :   0.9154 B( 12-C , 16-H ) :   0.9113 B( 17-C , 18-C ) :   1.0584
B( 17-C , 19-H ) :   0.8740 B( 18-C , 20-C ) :   1.3022 B( 18-C , 22-S ) :   1.2155
B( 20-C , 21-C ) :   1.2711 B( 20-C , 24-H ) :   0.4699 B( 21-C , 23-C ) :   1.5447
B( 21-C , 25-H ) :   0.9048 B( 22-S , 23-C ) :   1.2050 B( 23-C , 26-H ) :   0.8926
B( 24-H , 30-O ) :   0.2379 B( 30-O , 32-C ) :   1.6818 B( 31-O , 32-C ) :   1.2811
B( 32-C , 33-C ) :   0.9474 B( 33-C , 34-H ) :   0.9048 B( 33-C , 35-H ) :   0.8984
B( 33-C , 36-H ) :   0.9093

Dispersion correction           -0.030793224
FINAL SINGLE POINT ENERGY     -1288.395580256569

DIPOLE MOMENT
-------------
                                X             Y             Z
Electronic contribution:     34.06929     -68.68862      76.09959
Nuclear contribution   :    -34.69805      67.48635     -76.28537
                        -----------------------------------------
Total Dipole Moment    :     -0.62876      -1.20227      -0.18579
                        -----------------------------------------
Magnitude (a.u.)       :      1.36942
Magnitude (Debye)      :      3.48079

Rotational constants in cm-1:     0.010657     0.009015     0.008213
Rotational constants in MHz :   319.497841   270.259144   246.208764

                             ****ORCA TERMINATED NORMALLY****
TOTAL RUN TIME: 0 days 1 hours 30 minutes 52 seconds 764 msec
