                         Program Version 5.0.3 -  RELEASE  -
|  1> ! Opt PBEh-3c
|  2> %geom Constraints
|  3> { B 0 20 2.0428571428571427 C }
|  4> { B 24 30 1.4857142857142858 C }
|  5>     end
|  6> end
|  7> %output
|  8> xyzfile=True
|  9> end
| 10> %scf
| 11> maxiter 250
| 12> end
| 13> %output
| 14> Print[P_Hirshfeld] = 1
| 15> end
| 16> % maxcore
| 17> 4000
| 18> *xyz 1 1
| 19> Ir   0.63712169  -0.71711081   0.39659288
| 20> C    0.14202159  -2.83734989   0.32353501
| 21> C    0.00277081  -2.38329623   1.68140700
| 22> C    2.20326380  -2.07917586   1.03805015
| 23> C    1.48555993  -2.65863936  -0.06764913
| 24> C    1.28155943  -1.94038146   2.10734574
| 25> N   -1.05347751   0.13728049  -0.52002822
| 26> C   -2.31112718   0.37972867   0.20140027
| 27> C   -3.10385990   1.56535424  -0.32947185
| 28> H   -3.92197695   1.77728944   0.35725609
| 29> H   -3.55741498   1.37001059  -1.30215103
| 30> H   -2.49416873   2.46648035  -0.39930613
| 31> C   -3.14589832  -0.89655675   0.19977880
| 32> H   -2.00839891   0.59999948   1.22601355
| 33> H   -4.04080193  -0.75265144   0.80365607
| 34> H   -3.46355833  -1.15807283  -0.81037084
| 35> H   -2.60122416  -1.74196572   0.61692796
| 36> C   -0.90796850   0.44592127  -1.75529675
| 37> C    0.41281605   0.23957725  -2.27324267
| 38> H   -1.71139031   0.86734644  -2.35051820
| 39> C    1.45158286   0.09756908  -1.34212900
| 40> C    2.67403379  -0.18536319  -2.03736671
| 41> S    0.90378784   0.04017845  -3.87855184
| 42> C    2.52455869  -0.24391200  -3.38632153
| 43> H    1.56093698   1.12892152  -0.68517609
| 44> H    3.63349776  -0.27971960  -1.54970987
| 45> H    3.28656174  -0.41408740  -4.13161652
| 46> H   -0.64153030  -3.25723097  -0.29039654
| 47> H   -0.88805431  -2.42735807   2.28921504
| 48> H    1.50307556  -1.50074578   3.06962133
| 49> O    1.54915407   2.39940070   0.11215934
| 50> O    0.57378237   0.99352106   1.53790686
| 51> C    1.03657222   2.14162327   1.20683560
| 52> C    0.95589427   3.20353007   2.26746935
| 53> H    0.93513158   4.19433136   1.82151472
| 54> H    1.84571014   3.14129237   2.89650783
| 55> H    0.08974115   3.06336809   2.90983959
| 56> H    3.25926353  -1.86082942   1.07680936
| 57> H    1.90182254  -2.91908743  -1.02979952
| 58> *
| 59>
| 60>                          ****END OF INPUT****
 Total Charge           Charge          ....    1
 Multiplicity           Mult            ....    1
 Number of Electrons    NEL             ....  164
Dispersion correction           -0.031034878
FINAL SINGLE POINT ENERGY     -1288.394790209825
Dispersion correction            ... done
Dispersion correction           -0.030973291
FINAL SINGLE POINT ENERGY     -1288.394871530063
Dispersion correction            ... done
Dispersion correction           -0.030981504
FINAL SINGLE POINT ENERGY     -1288.394300440482
Dispersion correction            ... done
FINAL SINGLE POINT ENERGY     -1288.395118354431
FINAL SINGLE POINT ENERGY     -1288.395153050476
FINAL SINGLE POINT ENERGY     -1288.395189562572
FINAL SINGLE POINT ENERGY     -1288.395191741517
FINAL SINGLE POINT ENERGY     -1288.395195887639
FINAL SINGLE POINT ENERGY     -1288.395193091721
FINAL SINGLE POINT ENERGY     -1288.395186114946
FINAL SINGLE POINT ENERGY     -1288.395178929911
FINAL SINGLE POINT ENERGY     -1288.395177393151
FINAL SINGLE POINT ENERGY     -1288.395182430019
FINAL SINGLE POINT ENERGY     -1288.395189710035
FINAL SINGLE POINT ENERGY     -1288.395195179488
FINAL SINGLE POINT ENERGY     -1288.395198147361
Dispersion correction            ... done
Dispersion correction           -0.030871723
FINAL SINGLE POINT ENERGY     -1288.395199444797
Dispersion correction            ... done
Dispersion correction           -0.030875387
FINAL SINGLE POINT ENERGY     -1288.395199702250
Dispersion correction            ... done
                    ***********************HURRAY********************

CARTESIAN COORDINATES (ANGSTROEM)
---------------------------------
  Ir     0.630182   -0.718882    0.387409
  C      0.163366   -2.843804    0.312792
  C     -0.036684   -2.399416    1.667733
  C      2.182519   -2.056593    1.113080
  C      1.522873   -2.651651   -0.016715
  C      1.210471   -1.935560    2.144992
  N     -1.068032    0.131906   -0.517758
  C     -2.327721    0.347923    0.207690
  C     -3.127314    1.542098   -0.293034
  H     -3.949024    1.728974    0.396526
  H     -3.576051    1.370833   -1.272489
  H     -2.523643    2.448954   -0.335731
  C     -3.154634   -0.932997    0.168732
  H     -2.029055    0.543564    1.238577
  H     -4.049470   -0.814062    0.778221
  H     -3.472173   -1.165219   -0.848574
  H     -2.603874   -1.787954    0.557250
  C     -0.924350    0.474810   -1.744896
  C      0.393477    0.275444   -2.268212
  H     -1.728335    0.912602   -2.327016
  C      1.417153    0.049246   -1.334195
  C      2.640649   -0.216966   -2.038884
  S      0.898886    0.179692   -3.877955
  C      2.505766   -0.176166   -3.390128
  H      1.594298    1.110464   -0.699177
  H      3.592577   -0.367313   -1.550216
  H      3.273072   -0.311330   -4.137171
  H     -0.584781   -3.281635   -0.331773
  H     -0.952389   -2.453548    2.236304
  H      1.383364   -1.491754    3.115262
  O      1.670270    2.362628    0.096852
  O      0.578035    1.018823    1.497358
  C      1.102172    2.139150    1.174662
  C      1.029317    3.223580    2.212391
  H      0.983054    4.202748    1.742410
  H      1.937275    3.193190    2.817254
  H      0.180986    3.086641    2.877938
  H      3.233942   -1.830755    1.200933
  H      1.983196   -2.908475   -0.959701

 Multiplicity           Mult            ....    1
 Number of Electrons    NEL             ....  164
 Basis Dimension        Dim             ....  358

ORBITAL ENERGIES
----------------

  NO   OCC          E(Eh)            E(eV)
   0   2.0000     -89.771140     -2442.7969
   1   2.0000     -19.627712      -534.0972
   2   2.0000     -19.608302      -533.5690
   3   2.0000     -14.838310      -403.7709
   4   2.0000     -10.687473      -290.8209
   5   2.0000     -10.657445      -290.0038
   6   2.0000     -10.633870      -289.3623
   7   2.0000     -10.624775      -289.1148
   8   2.0000     -10.623170      -289.0712
   9   2.0000     -10.622584      -289.0552
  10   2.0000     -10.614495      -288.8351
  11   2.0000     -10.614249      -288.8284
  12   2.0000     -10.613972      -288.8209
  13   2.0000     -10.612196      -288.7725
  14   2.0000     -10.594673      -288.2957
  15   2.0000     -10.591958      -288.2218
  16   2.0000     -10.554435      -287.2008
  17   2.0000     -10.551428      -287.1189
  18   2.0000     -10.538982      -286.7803
  19   2.0000      -8.410478      -228.8608
  20   2.0000      -6.300314      -171.4403
  21   2.0000      -6.296730      -171.3427
  22   2.0000      -6.295546      -171.3105
  23   2.0000      -4.020587      -109.4057
  24   2.0000      -2.337643       -63.6105
  25   2.0000      -2.307515       -62.7907
  26   2.0000      -2.303997       -62.6949
  27   2.0000      -1.313703       -35.7477
  28   2.0000      -1.216001       -33.0891
  29   2.0000      -1.210811       -32.9478
  30   2.0000      -1.159766       -31.5588
  31   2.0000      -1.133208       -30.8362
  32   2.0000      -1.027581       -27.9619
  33   2.0000      -0.976167       -26.5628
  34   2.0000      -0.972456       -26.4619
  35   2.0000      -0.966923       -26.3113
  36   2.0000      -0.961785       -26.1715
  37   2.0000      -0.932323       -25.3698
  38   2.0000      -0.901418       -24.5288
  39   2.0000      -0.875943       -23.8356
  40   2.0000      -0.802065       -21.8253
  41   2.0000      -0.785946       -21.3867
  42   2.0000      -0.776434       -21.1278
  43   2.0000      -0.775530       -21.1032
  44   2.0000      -0.761074       -20.7099
  45   2.0000      -0.754909       -20.5421
  46   2.0000      -0.744596       -20.2615
  47   2.0000      -0.723526       -19.6881
  48   2.0000      -0.691240       -18.8096
  49   2.0000      -0.683000       -18.5854
  50   2.0000      -0.665171       -18.1002
  51   2.0000      -0.652750       -17.7622
  52   2.0000      -0.646501       -17.5922
  53   2.0000      -0.634613       -17.2687
  54   2.0000      -0.631476       -17.1833
  55   2.0000      -0.626285       -17.0421
  56   2.0000      -0.622663       -16.9435
  57   2.0000      -0.614624       -16.7248
  58   2.0000      -0.603902       -16.4330
  59   2.0000      -0.597239       -16.2517
  60   2.0000      -0.595920       -16.2158
  61   2.0000      -0.592899       -16.1336
  62   2.0000      -0.582422       -15.8485
  63   2.0000      -0.572593       -15.5811
  64   2.0000      -0.563945       -15.3457
  65   2.0000      -0.562176       -15.2976
  66   2.0000      -0.552093       -15.0232
  67   2.0000      -0.547757       -14.9052
  68   2.0000      -0.542216       -14.7544
  69   2.0000      -0.536829       -14.6079
  70   2.0000      -0.530410       -14.4332
  71   2.0000      -0.519116       -14.1259
  72   2.0000      -0.513922       -13.9845
  73   2.0000      -0.497864       -13.5476
  74   2.0000      -0.490849       -13.3567
  75   2.0000      -0.489080       -13.3085
  76   2.0000      -0.476829       -12.9752
  77   2.0000      -0.448186       -12.1957
  78   2.0000      -0.441957       -12.0263
  79   2.0000      -0.422914       -11.5081
  80   2.0000      -0.413791       -11.2598
  81   2.0000      -0.393135       -10.6978
  82   0.0000      -0.212404        -5.7798
  83   0.0000      -0.144011        -3.9187
  84   0.0000      -0.129137        -3.5140
  85   0.0000      -0.090584        -2.4649
  86   0.0000      -0.078177        -2.1273

MULLIKEN ATOMIC CHARGES
-----------------------
   0 Ir:    0.612072
   1 C :   -0.242974
   2 C :   -0.255039
   3 C :   -0.273750
   4 C :   -0.225403
   5 C :   -0.150702
   6 N :   -0.426536
   7 C :   -0.127615
   8 C :   -0.683413
   9 H :    0.270429
  10 H :    0.223992
  11 H :    0.255736
  12 C :   -0.634063
  13 H :    0.282907
  14 H :    0.259992
  15 H :    0.232356
  16 H :    0.234663
  17 C :    0.070535
  18 C :   -0.115740
  19 H :    0.287930
  20 C :   -0.601440
  21 C :   -0.080998
  22 S :    0.350554
  23 C :   -0.430135
  24 H :    0.468870
  25 H :    0.271401
  26 H :    0.300146
  27 H :    0.284189
  28 H :    0.281409
  29 H :    0.298366
  30 O :   -0.465988
  31 O :   -0.520719
  32 C :    0.621351
  33 C :   -0.743095
  34 H :    0.270284
  35 H :    0.271422
  36 H :    0.256487
  37 H :    0.281091
  38 H :    0.291428
Sum of atomic charges:    1.0000000

LOEWDIN ATOMIC CHARGES
----------------------
   0 Ir:   -0.258351
   1 C :   -0.058940
   2 C :   -0.097820
   3 C :   -0.096740
   4 C :   -0.045189
   5 C :   -0.016856
   6 N :    0.005203
   7 C :   -0.069990
   8 C :   -0.362508
   9 H :    0.156800
  10 H :    0.132794
  11 H :    0.144319
  12 C :   -0.343355
  13 H :    0.156692
  14 H :    0.151351
  15 H :    0.137845
  16 H :    0.133891
  17 C :    0.026076
  18 C :   -0.174001
  19 H :    0.161969
  20 C :   -0.220714
  21 C :   -0.115954
  22 S :    0.509574
  23 C :   -0.259196
  24 H :    0.344634
  25 H :    0.164719
  26 H :    0.170523
  27 H :    0.181418
  28 H :    0.179051
  29 H :    0.188314
  30 O :   -0.262482
  31 O :   -0.193964
  32 C :    0.154513
  33 C :   -0.373422
  34 H :    0.161625
  35 H :    0.169848
  36 H :    0.153951
  37 H :    0.181206
  38 H :    0.183163

  Mayer bond orders larger than 0.100000
B(  0-Ir,  1-C ) :   0.4394 B(  0-Ir,  2-C ) :   0.3911 B(  0-Ir,  3-C ) :   0.4686
B(  0-Ir,  4-C ) :   0.4193 B(  0-Ir,  5-C ) :   0.3612 B(  0-Ir,  6-N ) :   0.4618
B(  0-Ir, 20-C ) :   0.5145 B(  0-Ir, 31-O ) :   0.5401 B(  1-C ,  2-C ) :   1.1271
B(  1-C ,  4-C ) :   1.2297 B(  1-C , 27-H ) :   0.9087 B(  2-C ,  5-C ) :   1.2208
B(  2-C , 28-H ) :   0.9101 B(  3-C ,  4-C ) :   1.1363 B(  3-C ,  5-C ) :   1.1740
B(  3-C , 37-H ) :   0.9138 B(  4-C , 38-H ) :   0.8990 B(  5-C , 29-H ) :   0.9011
B(  6-N ,  7-C ) :   0.8956 B(  6-N , 17-C ) :   1.6509 B(  7-C ,  8-C ) :   0.9903
B(  7-C , 12-C ) :   0.9656 B(  7-C , 13-H ) :   0.8738 B(  8-C ,  9-H ) :   0.9044
B(  8-C , 10-H ) :   0.9130 B(  8-C , 11-H ) :   0.9111 B( 12-C , 14-H ) :   0.9074
B( 12-C , 15-H ) :   0.9152 B( 12-C , 16-H ) :   0.9113 B( 17-C , 18-C ) :   1.1070
B( 17-C , 19-H ) :   0.8761 B( 18-C , 20-C ) :   1.1987 B( 18-C , 22-S ) :   1.2679
B( 20-C , 21-C ) :   1.2350 B( 20-C , 24-H ) :   0.4031 B( 21-C , 23-C ) :   1.5595
B( 21-C , 25-H ) :   0.9002 B( 22-S , 23-C ) :   1.2031 B( 23-C , 26-H ) :   0.8909
B( 24-H , 30-O ) :   0.3005 B( 30-O , 32-C ) :   1.6367 B( 31-O , 32-C ) :   1.3324
B( 32-C , 33-C ) :   0.9419 B( 33-C , 34-H ) :   0.9029 B( 33-C , 35-H ) :   0.8960
B( 33-C , 36-H ) :   0.9089

Dispersion correction           -0.030877870
FINAL SINGLE POINT ENERGY     -1288.395199631873

DIPOLE MOMENT
-------------
                                X             Y             Z
Electronic contribution:     39.02454     -71.95916      67.60611
Nuclear contribution   :    -39.68686      71.29144     -68.08769
                        -----------------------------------------
Total Dipole Moment    :     -0.66232      -0.66772      -0.48158
                        -----------------------------------------
Magnitude (a.u.)       :      1.05662
Magnitude (Debye)      :      2.68570

Rotational constants in cm-1:     0.010511     0.009085     0.008271
Rotational constants in MHz :   315.116632   272.368295   247.965903

                             ****ORCA TERMINATED NORMALLY****
TOTAL RUN TIME: 0 days 2 hours 16 minutes 27 seconds 906 msec
