                         Program Version 5.0.3 -  RELEASE  -
|  1> ! Opt PBEh-3c
|  2> %geom Constraints
|  3> { B 0 20 2.0 C }
|  4> { B 24 30 1.4428571428571428 C }
|  5>     end
|  6> end
|  7> %output
|  8> xyzfile=True
|  9> end
| 10> %scf
| 11> maxiter 250
| 12> end
| 13> %output
| 14> Print[P_Hirshfeld] = 1
| 15> end
| 16> % maxcore
| 17> 4000
| 18> *xyz 1 1
| 19> Ir   0.62649901  -0.72448460   0.39039524
| 20> C    0.16612960  -2.84873489   0.31403999
| 21> C   -0.05446203  -2.40803786   1.66739439
| 22> C    2.17088380  -2.05570128   1.14411698
| 23> C    1.53091478  -2.65376760   0.00589836
| 24> C    1.18218470  -1.93976577   2.16256298
| 25> N   -1.07076719   0.12634408  -0.51510358
| 26> C   -2.33229710   0.33382068   0.20973647
| 27> C   -3.12909657   1.53586217  -0.27637499
| 28> H   -3.95263749   1.71390527   0.41329739
| 29> H   -3.57492469   1.37949565  -1.25963498
| 30> H   -2.52391375   2.44228854  -0.30439025
| 31> C   -3.16035978  -0.94558827   0.15130968
| 32> H   -2.03686162   0.51544377   1.24417417
| 33> H   -4.05634237  -0.83506739   0.76072030
| 34> H   -3.47588278  -1.16301219  -0.86989489
| 35> H   -2.61065027  -1.80647791   0.52808447
| 36> C   -0.92679877   0.47905801  -1.73968272
| 37> C    0.39030518   0.28578028  -2.26581432
| 38> H   -1.73188376   0.92024663  -2.31773755
| 39> C    1.41068109   0.03718637  -1.33534551
| 40> C    2.63477773  -0.21715638  -2.04203247
| 41> S    0.90020092   0.22939452  -3.87690293
| 42> C    2.50381707  -0.14266111  -3.39276770
| 43> H    1.59985460   1.11879973  -0.69857957
| 44> H    3.58488091  -0.38401783  -1.55510624
| 45> H    3.27327734  -0.26264835  -4.14020330
| 46> H   -0.57008656  -3.29103771  -0.34108111
| 47> H   -0.97846758  -2.46504235   2.22202364
| 48> H    1.33870845  -1.49520033   3.13525359
| 49> O    1.68708235   2.34788606   0.07924009
| 50> O    0.58582401   1.02338919   1.49055388
| 51> C    1.11724629   2.13504683   1.16159765
| 52> C    1.05764887   3.23154076   2.18663679
| 53> H    0.97797273   4.20311254   1.70514938
| 54> H    1.98600577   3.22781601   2.76047795
| 55> H    0.23364978   3.08821404   2.88042184
| 56> H    3.22033165  -1.82775791   1.24845742
| 57> H    2.00592577  -2.90928141  -0.93015037
| 58> *
| 59>
| 60>                          ****END OF INPUT****
 Total Charge           Charge          ....    1
 Multiplicity           Mult            ....    1
 Number of Electrons    NEL             ....  164
Dispersion correction           -0.030958660
FINAL SINGLE POINT ENERGY     -1288.394023518800
Dispersion correction            ... done
Dispersion correction           -0.030911587
FINAL SINGLE POINT ENERGY     -1288.394081092062
Dispersion correction            ... done
Dispersion correction           -0.030922795
FINAL SINGLE POINT ENERGY     -1288.393230816856
Dispersion correction            ... done
FINAL SINGLE POINT ENERGY     -1288.394352695142
FINAL SINGLE POINT ENERGY     -1288.394386560434
FINAL SINGLE POINT ENERGY     -1288.394426271435
FINAL SINGLE POINT ENERGY     -1288.394464897012
FINAL SINGLE POINT ENERGY     -1288.394476538026
FINAL SINGLE POINT ENERGY     -1288.394481987181
FINAL SINGLE POINT ENERGY     -1288.394484959590
FINAL SINGLE POINT ENERGY     -1288.394485683564
FINAL SINGLE POINT ENERGY     -1288.394486392864
FINAL SINGLE POINT ENERGY     -1288.394487628523
FINAL SINGLE POINT ENERGY     -1288.394490057061
Dispersion correction            ... done
Dispersion correction           -0.030863838
FINAL SINGLE POINT ENERGY     -1288.394493270820
Dispersion correction            ... done
Dispersion correction           -0.030865158
FINAL SINGLE POINT ENERGY     -1288.394494966036
Dispersion correction            ... done
                    ***********************HURRAY********************

CARTESIAN COORDINATES (ANGSTROEM)
---------------------------------
  Ir     0.627398   -0.731661    0.379532
  C      0.184605   -2.857788    0.304653
  C     -0.074639   -2.432532    1.657387
  C      2.157283   -2.047501    1.191510
  C      1.558547   -2.653741    0.038519
  C      1.136888   -1.951327    2.186397
  N     -1.076928    0.117192   -0.511577
  C     -2.336113    0.313036    0.219975
  C     -3.124942    1.533383   -0.232180
  H     -3.948256    1.696714    0.461369
  H     -3.570059    1.409359   -1.220349
  H     -2.513420    2.435990   -0.233009
  C     -3.171386   -0.959683    0.128141
  H     -2.038814    0.465436    1.258621
  H     -4.063534   -0.863511    0.745596
  H     -3.493353   -1.144853   -0.897400
  H     -2.623277   -1.834231    0.474807
  C     -0.937685    0.484823   -1.732879
  C      0.377803    0.292749   -2.260680
  H     -1.743367    0.935248   -2.302628
  C      1.382316   -0.005520   -1.324234
  C      2.615274   -0.236488   -2.028240
  S      0.911185    0.313207   -3.864697
  C      2.504125   -0.094240   -3.375310
  H      1.592959    1.131235   -0.743022
  H      3.557408   -0.435753   -1.537862
  H      3.284139   -0.183795   -4.116079
  H     -0.526384   -3.312183   -0.369677
  H     -1.014463   -2.497852    2.183704
  H      1.261100   -1.509045    3.164682
  O      1.681407    2.352955    0.019483
  O      0.612580    1.033144    1.460835
  C      1.132530    2.141754    1.116546
  C      1.093505    3.246493    2.133197
  H      1.005483    4.214928    1.646976
  H      2.032299    3.245510    2.689909
  H      0.282319    3.107766    2.842722
  H      3.201808   -1.814704    1.329152
  H      2.063028   -2.905323   -0.883151

 Multiplicity           Mult            ....    1
 Number of Electrons    NEL             ....  164
 Basis Dimension        Dim             ....  358

ORBITAL ENERGIES
----------------

  NO   OCC          E(Eh)            E(eV)
   0   2.0000     -89.769754     -2442.7592
   1   2.0000     -19.632231      -534.2202
   2   2.0000     -19.618983      -533.8597
   3   2.0000     -14.836426      -403.7197
   4   2.0000     -10.693691      -290.9901
   5   2.0000     -10.655829      -289.9598
   6   2.0000     -10.631534      -289.2987
   7   2.0000     -10.621481      -289.0252
   8   2.0000     -10.621108      -289.0150
   9   2.0000     -10.619171      -288.9623
  10   2.0000     -10.613750      -288.8148
  11   2.0000     -10.613477      -288.8074
  12   2.0000     -10.611425      -288.7515
  13   2.0000     -10.608488      -288.6716
  14   2.0000     -10.594352      -288.2870
  15   2.0000     -10.592507      -288.2368
  16   2.0000     -10.553597      -287.1780
  17   2.0000     -10.551086      -287.1096
  18   2.0000     -10.542731      -286.8823
  19   2.0000      -8.409069      -228.8224
  20   2.0000      -6.298912      -171.4021
  21   2.0000      -6.295360      -171.3054
  22   2.0000      -6.294100      -171.2712
  23   2.0000      -4.018163      -109.3398
  24   2.0000      -2.334843       -63.5343
  25   2.0000      -2.305797       -62.7439
  26   2.0000      -2.301587       -62.6294
  27   2.0000      -1.320585       -35.9349
  28   2.0000      -1.222604       -33.2688
  29   2.0000      -1.209697       -32.9175
  30   2.0000      -1.156484       -31.4695
  31   2.0000      -1.132315       -30.8119
  32   2.0000      -1.026886       -27.9430
  33   2.0000      -0.975472       -26.5439
  34   2.0000      -0.969709       -26.3871
  35   2.0000      -0.964366       -26.2417
  36   2.0000      -0.959532       -26.1102
  37   2.0000      -0.936759       -25.4905
  38   2.0000      -0.900754       -24.5108
  39   2.0000      -0.874973       -23.8092
  40   2.0000      -0.801224       -21.8024
  41   2.0000      -0.785269       -21.3683
  42   2.0000      -0.773749       -21.0548
  43   2.0000      -0.772688       -21.0259
  44   2.0000      -0.758757       -20.6468
  45   2.0000      -0.756410       -20.5830
  46   2.0000      -0.744656       -20.2631
  47   2.0000      -0.722059       -19.6482
  48   2.0000      -0.694608       -18.9012
  49   2.0000      -0.685699       -18.6588
  50   2.0000      -0.664926       -18.0935
  51   2.0000      -0.657381       -17.8882
  52   2.0000      -0.647430       -17.6175
  53   2.0000      -0.637062       -17.3353
  54   2.0000      -0.629733       -17.1359
  55   2.0000      -0.623864       -16.9762
  56   2.0000      -0.621581       -16.9141
  57   2.0000      -0.613964       -16.7068
  58   2.0000      -0.603547       -16.4233
  59   2.0000      -0.595675       -16.2091
  60   2.0000      -0.593137       -16.1401
  61   2.0000      -0.591545       -16.0968
  62   2.0000      -0.581268       -15.8171
  63   2.0000      -0.570176       -15.5153
  64   2.0000      -0.566125       -15.4051
  65   2.0000      -0.563582       -15.3359
  66   2.0000      -0.553618       -15.0647
  67   2.0000      -0.546913       -14.8823
  68   2.0000      -0.542163       -14.7530
  69   2.0000      -0.535981       -14.5848
  70   2.0000      -0.532221       -14.4825
  71   2.0000      -0.518808       -14.1175
  72   2.0000      -0.513280       -13.9671
  73   2.0000      -0.499474       -13.5914
  74   2.0000      -0.494497       -13.4559
  75   2.0000      -0.490654       -13.3514
  76   2.0000      -0.475020       -12.9260
  77   2.0000      -0.451533       -12.2868
  78   2.0000      -0.441580       -12.0160
  79   2.0000      -0.421701       -11.4751
  80   2.0000      -0.412414       -11.2224
  81   2.0000      -0.391485       -10.6528
  82   0.0000      -0.210181        -5.7193
  83   0.0000      -0.143976        -3.9178
  84   0.0000      -0.122648        -3.3374
  85   0.0000      -0.089363        -2.4317
  86   0.0000      -0.077355        -2.1049

MULLIKEN ATOMIC CHARGES
-----------------------
   0 Ir:    0.619472
   1 C :   -0.257189
   2 C :   -0.247383
   3 C :   -0.282713
   4 C :   -0.218217
   5 C :   -0.148413
   6 N :   -0.428630
   7 C :   -0.128489
   8 C :   -0.680076
   9 H :    0.269480
  10 H :    0.223961
  11 H :    0.254245
  12 C :   -0.632965
  13 H :    0.280148
  14 H :    0.258775
  15 H :    0.232705
  16 H :    0.235339
  17 C :    0.070681
  18 C :   -0.113045
  19 H :    0.286553
  20 C :   -0.612416
  21 C :   -0.080334
  22 S :    0.351907
  23 C :   -0.426830
  24 H :    0.468715
  25 H :    0.271160
  26 H :    0.299758
  27 H :    0.282717
  28 H :    0.279122
  29 H :    0.295360
  30 O :   -0.470688
  31 O :   -0.510686
  32 C :    0.626777
  33 C :   -0.743194
  34 H :    0.271470
  35 H :    0.273969
  36 H :    0.259510
  37 H :    0.278792
  38 H :    0.290654
Sum of atomic charges:    1.0000000

LOEWDIN ATOMIC CHARGES
----------------------
   0 Ir:   -0.260472
   1 C :   -0.065402
   2 C :   -0.099758
   3 C :   -0.103556
   4 C :   -0.042054
   5 C :   -0.020602
   6 N :    0.003874
   7 C :   -0.069862
   8 C :   -0.361855
   9 H :    0.156404
  10 H :    0.132719
  11 H :    0.143635
  12 C :   -0.343505
  13 H :    0.155189
  14 H :    0.150831
  15 H :    0.138042
  16 H :    0.134141
  17 C :    0.026002
  18 C :   -0.180855
  19 H :    0.161342
  20 C :   -0.219885
  21 C :   -0.119918
  22 S :    0.508606
  23 C :   -0.257177
  24 H :    0.360254
  25 H :    0.164440
  26 H :    0.170532
  27 H :    0.180733
  28 H :    0.177509
  29 H :    0.186326
  30 O :   -0.260453
  31 O :   -0.184453
  32 C :    0.159305
  33 C :   -0.372395
  34 H :    0.162755
  35 H :    0.171337
  36 H :    0.155363
  37 H :    0.180149
  38 H :    0.182716

  Mayer bond orders larger than 0.100000
B(  0-Ir,  1-C ) :   0.4568 B(  0-Ir,  2-C ) :   0.3609 B(  0-Ir,  3-C ) :   0.4738
B(  0-Ir,  4-C ) :   0.4122 B(  0-Ir,  5-C ) :   0.3403 B(  0-Ir,  6-N ) :   0.4628
B(  0-Ir, 20-C ) :   0.5692 B(  0-Ir, 31-O ) :   0.5230 B(  1-C ,  2-C ) :   1.1235
B(  1-C ,  4-C ) :   1.2199 B(  1-C , 27-H ) :   0.9102 B(  2-C ,  5-C ) :   1.2546
B(  2-C , 28-H ) :   0.9101 B(  3-C ,  4-C ) :   1.1488 B(  3-C ,  5-C ) :   1.1561
B(  3-C , 37-H ) :   0.9153 B(  4-C , 38-H ) :   0.8991 B(  5-C , 29-H ) :   0.9023
B(  6-N ,  7-C ) :   0.8959 B(  6-N , 17-C ) :   1.6453 B(  7-C ,  8-C ) :   0.9900
B(  7-C , 12-C ) :   0.9660 B(  7-C , 13-H ) :   0.8761 B(  8-C ,  9-H ) :   0.9047
B(  8-C , 10-H ) :   0.9132 B(  8-C , 11-H ) :   0.9120 B( 12-C , 14-H ) :   0.9077
B( 12-C , 15-H ) :   0.9151 B( 12-C , 16-H ) :   0.9113 B( 17-C , 18-C ) :   1.1156
B( 17-C , 19-H ) :   0.8766 B( 18-C , 20-C ) :   1.1923 B( 18-C , 22-S ) :   1.2587
B( 20-C , 21-C ) :   1.2334 B( 20-C , 24-H ) :   0.3604 B( 21-C , 23-C ) :   1.5524
B( 21-C , 25-H ) :   0.9002 B( 22-S , 23-C ) :   1.2086 B( 23-C , 26-H ) :   0.8912
B( 24-H , 30-O ) :   0.3335 B( 30-O , 32-C ) :   1.5926 B( 31-O , 32-C ) :   1.3651
B( 32-C , 33-C ) :   0.9424 B( 33-C , 34-H ) :   0.9017 B( 33-C , 35-H ) :   0.8943
B( 33-C , 36-H ) :   0.9082

Dispersion correction           -0.030866758
FINAL SINGLE POINT ENERGY     -1288.394495099972

DIPOLE MOMENT
-------------
                                X             Y             Z
Electronic contribution:     38.78300     -73.85456      66.94100
Nuclear contribution   :    -39.40913      73.39391     -67.35070
                        -----------------------------------------
Total Dipole Moment    :     -0.62613      -0.46065      -0.40970
                        -----------------------------------------
Magnitude (a.u.)       :      0.87869
Magnitude (Debye)      :      2.23345

Rotational constants in cm-1:     0.010538     0.009050     0.008277
Rotational constants in MHz :   315.907208   271.309708   248.140550

                             ****ORCA TERMINATED NORMALLY****
TOTAL RUN TIME: 0 days 2 hours 7 minutes 28 seconds 233 msec
