                         Program Version 5.0.3 -  RELEASE  -
|  1> ! Opt PBEh-3c
|  2> %geom Constraints
|  3> { B 0 20 2.5142857142857142 C }
|  4> { B 24 30 1.4285714285714286 C }
|  5>     end
|  6> end
|  7> %output
|  8> xyzfile=True
|  9> end
| 10> %scf
| 11> maxiter 250
| 12> end
| 13> %output
| 14> Print[P_Hirshfeld] = 1
| 15> end
| 16> % maxcore
| 17> 4000
| 18> *xyz 1 1
| 19> Ir   0.57849218  -0.72893138   0.46766842
| 20> C    0.02296462  -2.80815858   0.34109254
| 21> C    0.11409898  -2.36445303   1.71185123
| 22> C    2.19241759  -2.14300013   0.74916974
| 23> C    1.28368254  -2.64330649  -0.25812611
| 24> C    1.48450179  -2.01207520   1.95584193
| 25> N   -1.04311599   0.17592595  -0.51613153
| 26> C   -2.31482675   0.51563543   0.14109040
| 27> C   -3.13675252   1.54414151  -0.61826947
| 28> H   -3.97064944   1.85870947   0.00763746
| 29> H   -3.57080493   1.14676448  -1.53725294
| 30> H   -2.55843710   2.43702451  -0.85808230
| 31> C   -3.11130940  -0.75657415   0.40312306
| 32> H   -2.02246323   0.94682000   1.10013424
| 33> H   -4.02565227  -0.50979124   0.94051551
| 34> H   -3.39565794  -1.24565942  -0.52955938
| 35> H   -2.55992756  -1.46795405   1.01634554
| 36> C   -0.82868685   0.38150902  -1.75707525
| 37> C    0.52541021   0.15157761  -2.21855310
| 38> H   -1.60123713   0.74554358  -2.42847842
| 39> C    1.63439883   0.54687569  -1.48075585
| 40> C    2.83404646   0.12119977  -2.12085103
| 41> S    0.94059700  -0.66638183  -3.66127297
| 42> C    2.61259313  -0.53456227  -3.29076660
| 43> H    1.54844619   1.40863938  -0.68549932
| 44> H    3.82338718   0.34331733  -1.74805541
| 45> H    3.34473571  -0.93242731  -3.97714810
| 46> H   -0.87080238  -3.16544679  -0.14990609
| 47> H   -0.67041280  -2.40108286   2.45356671
| 48> H    1.87842793  -1.62692403   2.88537895
| 49> O    1.29413089   2.45478245   0.27509692
| 50> O    0.53651447   0.89578993   1.68043482
| 51> C    0.89982855   2.10120483   1.38205812
| 52> C    0.83657771   3.06891717   2.53067582
| 53> H    0.79128665   4.09208038   2.16768060
| 54> H    1.74149384   2.96763332   3.13300929
| 55> H   -0.00942047   2.86718161   3.18450895
| 56> H    3.23569315  -1.90915931   0.59656873
| 57> H    1.53580115  -2.85619534  -1.28692504
| 58> *
| 59>
| 60>                          ****END OF INPUT****
 Total Charge           Charge          ....    1
 Multiplicity           Mult            ....    1
 Number of Electrons    NEL             ....  164
Dispersion correction           -0.031004657
FINAL SINGLE POINT ENERGY     -1288.396772081767
Dispersion correction            ... done
Dispersion correction           -0.031011710
FINAL SINGLE POINT ENERGY     -1288.395499593772
Dispersion correction            ... done
Dispersion correction           -0.030957921
FINAL SINGLE POINT ENERGY     -1288.396849612031
Dispersion correction            ... done
FINAL SINGLE POINT ENERGY     -1288.395339754586
FINAL SINGLE POINT ENERGY     -1288.396923842494
FINAL SINGLE POINT ENERGY     -1288.396940436468
FINAL SINGLE POINT ENERGY     -1288.396957046462
FINAL SINGLE POINT ENERGY     -1288.396965431875
FINAL SINGLE POINT ENERGY     -1288.396973542864
Dispersion correction            ... done
Dispersion correction           -0.030884934
FINAL SINGLE POINT ENERGY     -1288.396985332601
Dispersion correction            ... done
Dispersion correction           -0.030883478
FINAL SINGLE POINT ENERGY     -1288.396987433044
Dispersion correction            ... done
                    ***********************HURRAY********************

CARTESIAN COORDINATES (ANGSTROEM)
---------------------------------
  Ir     0.583457   -0.726368    0.468881
  C      0.027878   -2.806456    0.349715
  C      0.108978   -2.360410    1.719476
  C      2.194709   -2.140137    0.769751
  C      1.292991   -2.643942   -0.242018
  C      1.476701   -2.004528    1.970547
  N     -1.043373    0.167546   -0.516945
  C     -2.316156    0.497583    0.143673
  C     -3.128850    1.550267   -0.592713
  H     -3.960034    1.858456    0.040028
  H     -3.566805    1.178633   -1.520549
  H     -2.541610    2.442467   -0.812367
  C     -3.120706   -0.776395    0.370413
  H     -2.026014    0.903366    1.114313
  H     -4.036189   -0.538342    0.909856
  H     -3.403086   -1.240672   -0.575425
  H     -2.575366   -1.505838    0.967605
  C     -0.838237    0.373882   -1.760171
  C      0.512897    0.155800   -2.229421
  H     -1.618822    0.730774   -2.426053
  C      1.616731    0.508837   -1.461985
  C      2.819916    0.100341   -2.105900
  S      0.937096   -0.607288   -3.697068
  C      2.605657   -0.504927   -3.304464
  H      1.536943    1.385426   -0.665965
  H      3.807120    0.299086   -1.714682
  H      3.341455   -0.879396   -4.000050
  H     -0.862069   -3.165156   -0.147215
  H     -0.680838   -2.394938    2.455505
  H      1.864012   -1.615782    2.901376
  O      1.315009    2.448316    0.262381
  O      0.535969    0.907708    1.675323
  C      0.911350    2.105707    1.371392
  C      0.854356    3.085093    2.509891
  H      0.810391    4.104856    2.137340
  H      1.761575    2.987339    3.109393
  H      0.010374    2.891230    3.168565
  H      3.240002   -1.910060    0.626056
  H      1.551959   -2.862890   -1.267749

 Multiplicity           Mult            ....    1
 Number of Electrons    NEL             ....  164
 Basis Dimension        Dim             ....  358

ORBITAL ENERGIES
----------------

  NO   OCC          E(Eh)            E(eV)
   0   2.0000     -89.761091     -2442.5235
   1   2.0000     -19.622947      -533.9675
   2   2.0000     -19.585845      -532.9579
   3   2.0000     -14.841260      -403.8512
   4   2.0000     -10.679667      -290.6085
   5   2.0000     -10.662318      -290.1364
   6   2.0000     -10.638454      -289.4871
   7   2.0000     -10.635342      -289.4024
   8   2.0000     -10.634573      -289.3814
   9   2.0000     -10.633011      -289.3389
  10   2.0000     -10.631938      -289.3097
  11   2.0000     -10.631600      -289.3005
  12   2.0000     -10.616498      -288.8896
  13   2.0000     -10.609389      -288.6961
  14   2.0000     -10.583063      -287.9798
  15   2.0000     -10.581222      -287.9297
  16   2.0000     -10.557444      -287.2827
  17   2.0000     -10.552311      -287.1430
  18   2.0000     -10.531992      -286.5901
  19   2.0000      -8.400411      -228.5868
  20   2.0000      -6.290491      -171.1730
  21   2.0000      -6.286849      -171.0739
  22   2.0000      -6.285131      -171.0271
  23   2.0000      -4.031056      -109.6906
  24   2.0000      -2.350341       -63.9560
  25   2.0000      -2.316009       -63.0218
  26   2.0000      -2.314477       -62.9801
  27   2.0000      -1.303896       -35.4808
  28   2.0000      -1.213661       -33.0254
  29   2.0000      -1.207394       -32.8549
  30   2.0000      -1.174805       -31.9681
  31   2.0000      -1.125620       -30.6297
  32   2.0000      -1.027115       -27.9492
  33   2.0000      -0.989636       -26.9294
  34   2.0000      -0.979798       -26.6617
  35   2.0000      -0.964905       -26.2564
  36   2.0000      -0.959059       -26.0973
  37   2.0000      -0.925894       -25.1949
  38   2.0000      -0.903809       -24.5939
  39   2.0000      -0.873679       -23.7740
  40   2.0000      -0.797705       -21.7066
  41   2.0000      -0.790670       -21.5152
  42   2.0000      -0.788958       -21.4686
  43   2.0000      -0.780856       -21.2482
  44   2.0000      -0.773856       -21.0577
  45   2.0000      -0.755675       -20.5630
  46   2.0000      -0.744308       -20.2536
  47   2.0000      -0.722659       -19.6645
  48   2.0000      -0.694602       -18.9011
  49   2.0000      -0.672875       -18.3099
  50   2.0000      -0.665396       -18.1063
  51   2.0000      -0.651837       -17.7374
  52   2.0000      -0.648595       -17.6492
  53   2.0000      -0.640990       -17.4422
  54   2.0000      -0.636926       -17.3316
  55   2.0000      -0.629075       -17.1180
  56   2.0000      -0.623988       -16.9796
  57   2.0000      -0.611984       -16.6529
  58   2.0000      -0.610186       -16.6040
  59   2.0000      -0.608859       -16.5679
  60   2.0000      -0.597133       -16.2488
  61   2.0000      -0.588260       -16.0074
  62   2.0000      -0.577193       -15.7062
  63   2.0000      -0.570808       -15.5325
  64   2.0000      -0.563684       -15.3386
  65   2.0000      -0.554346       -15.0845
  66   2.0000      -0.552738       -15.0408
  67   2.0000      -0.548534       -14.9264
  68   2.0000      -0.539170       -14.6716
  69   2.0000      -0.535068       -14.5599
  70   2.0000      -0.528202       -14.3731
  71   2.0000      -0.521536       -14.1917
  72   2.0000      -0.516266       -14.0483
  73   2.0000      -0.507016       -13.7966
  74   2.0000      -0.488940       -13.3047
  75   2.0000      -0.481234       -13.0951
  76   2.0000      -0.464932       -12.6514
  77   2.0000      -0.450235       -12.2515
  78   2.0000      -0.440901       -11.9975
  79   2.0000      -0.423458       -11.5229
  80   2.0000      -0.417265       -11.3544
  81   2.0000      -0.404111       -10.9964
  82   0.0000      -0.200974        -5.4688
  83   0.0000      -0.165369        -4.4999
  84   0.0000      -0.141930        -3.8621
  85   0.0000      -0.100686        -2.7398
  86   0.0000      -0.076820        -2.0904

MULLIKEN ATOMIC CHARGES
-----------------------
   0 Ir:    0.619530
   1 C :   -0.208169
   2 C :   -0.294562
   3 C :   -0.231880
   4 C :   -0.245784
   5 C :   -0.165615
   6 N :   -0.426336
   7 C :   -0.117311
   8 C :   -0.695045
   9 H :    0.273080
  10 H :    0.226052
  11 H :    0.260926
  12 C :   -0.639612
  13 H :    0.281435
  14 H :    0.265143
  15 H :    0.230864
  16 H :    0.232892
  17 C :    0.068011
  18 C :   -0.212047
  19 H :    0.292487
  20 C :   -0.415652
  21 C :   -0.139706
  22 S :    0.295725
  23 C :   -0.429488
  24 H :    0.498302
  25 H :    0.266854
  26 H :    0.296992
  27 H :    0.292686
  28 H :    0.294007
  29 H :    0.307276
  30 O :   -0.481739
  31 O :   -0.543646
  32 C :    0.613304
  33 C :   -0.745872
  34 H :    0.268812
  35 H :    0.265277
  36 H :    0.251742
  37 H :    0.295603
  38 H :    0.295464
Sum of atomic charges:    1.0000000

LOEWDIN ATOMIC CHARGES
----------------------
   0 Ir:   -0.213263
   1 C :   -0.038923
   2 C :   -0.057449
   3 C :   -0.047741
   4 C :   -0.055655
   5 C :   -0.025784
   6 N :   -0.006655
   7 C :   -0.068407
   8 C :   -0.364862
   9 H :    0.157677
  10 H :    0.133933
  11 H :    0.147030
  12 C :   -0.343481
  13 H :    0.156686
  14 H :    0.153299
  15 H :    0.137279
  16 H :    0.134331
  17 C :    0.036384
  18 C :   -0.187676
  19 H :    0.163161
  20 C :   -0.185387
  21 C :   -0.142335
  22 S :    0.460792
  23 C :   -0.262750
  24 H :    0.282530
  25 H :    0.162281
  26 H :    0.167670
  27 H :    0.185965
  28 H :    0.186553
  29 H :    0.194053
  30 O :   -0.277425
  31 O :   -0.210104
  32 C :    0.152968
  33 C :   -0.376858
  34 H :    0.159209
  35 H :    0.166414
  36 H :    0.152500
  37 H :    0.187942
  38 H :    0.186097

  Mayer bond orders larger than 0.100000
B(  0-Ir,  1-C ) :   0.4205 B(  0-Ir,  2-C ) :   0.5478 B(  0-Ir,  3-C ) :   0.4632
B(  0-Ir,  4-C ) :   0.4516 B(  0-Ir,  5-C ) :   0.4027 B(  0-Ir,  6-N ) :   0.4638
B(  0-Ir, 20-C ) :   0.2250 B(  0-Ir, 31-O ) :   0.5903 B(  1-C ,  2-C ) :   1.1140
B(  1-C ,  4-C ) :   1.2466 B(  1-C , 27-H ) :   0.9028 B(  2-C ,  5-C ) :   1.1309
B(  2-C , 28-H ) :   0.9066 B(  3-C ,  4-C ) :   1.1041 B(  3-C ,  5-C ) :   1.2349
B(  3-C , 37-H ) :   0.9030 B(  4-C , 38-H ) :   0.8980 B(  5-C , 29-H ) :   0.8976
B(  6-N ,  7-C ) :   0.8910 B(  6-N , 17-C ) :   1.6973 B(  7-C ,  8-C ) :   0.9925
B(  7-C , 12-C ) :   0.9694 B(  7-C , 13-H ) :   0.8714 B(  8-C ,  9-H ) :   0.9033
B(  8-C , 10-H ) :   0.9123 B(  8-C , 11-H ) :   0.9079 B( 12-C , 14-H ) :   0.9062
B( 12-C , 15-H ) :   0.9153 B( 12-C , 16-H ) :   0.9109 B( 17-C , 18-C ) :   1.0490
B( 17-C , 19-H ) :   0.8737 B( 18-C , 20-C ) :   1.3039 B( 18-C , 22-S ) :   1.2187
B( 20-C , 21-C ) :   1.2637 B( 20-C , 24-H ) :   0.4963 B( 21-C , 23-C ) :   1.5477
B( 21-C , 25-H ) :   0.9041 B( 22-S , 23-C ) :   1.2018 B( 23-C , 26-H ) :   0.8925
B( 24-H , 30-O ) :   0.2243 B( 30-O , 32-C ) :   1.7075 B( 31-O , 32-C ) :   1.2645
B( 32-C , 33-C ) :   0.9464 B( 33-C , 34-H ) :   0.9055 B( 33-C , 35-H ) :   0.8993
B( 33-C , 36-H ) :   0.9099

Dispersion correction           -0.030881696
FINAL SINGLE POINT ENERGY     -1288.396988420380

DIPOLE MOMENT
-------------
                                X             Y             Z
Electronic contribution:     34.56941     -67.87027      74.06993
Nuclear contribution   :    -35.20387      66.59327     -74.31712
                        -----------------------------------------
Total Dipole Moment    :     -0.63446      -1.27700      -0.24719
                        -----------------------------------------
Magnitude (a.u.)       :      1.44720
Magnitude (Debye)      :      3.67848

Rotational constants in cm-1:     0.010731     0.009074     0.008247
Rotational constants in MHz :   321.706333   272.038721   247.226337

                             ****ORCA TERMINATED NORMALLY****
TOTAL RUN TIME: 0 days 1 hours 38 minutes 31 seconds 630 msec
