                         Program Version 5.0.3 -  RELEASE  -
|  1> ! Opt PBEh-3c
|  2> %geom Constraints
|  3> { B 0 20 2.342857142857143 C }
|  4> { B 24 30 1.4714285714285715 C }
|  5>     end
|  6> end
|  7> %output
|  8> xyzfile=True
|  9> end
| 10> %scf
| 11> maxiter 250
| 12> end
| 13> %output
| 14> Print[P_Hirshfeld] = 1
| 15> end
| 16> % maxcore
| 17> 4000
| 18> *xyz 1 1
| 19> Ir   0.60710037  -0.71005280   0.43029926
| 20> C    0.05943742  -2.79942701   0.33933708
| 21> C    0.12275042  -2.34289330   1.70468562
| 22> C    2.21816695  -2.11521592   0.77230467
| 23> C    1.33082641  -2.63880961  -0.24153883
| 24> C    1.48187771  -1.96865193   1.96276103
| 25> N   -1.04724570   0.16865400  -0.52705841
| 26> C   -2.31261935   0.48750012   0.15143939
| 27> C   -3.11792302   1.57305994  -0.54435176
| 28> H   -3.94297015   1.86842992   0.10243490
| 29> H   -3.56417458   1.23786265  -1.48201808
| 30> H   -2.52124069   2.46532833  -0.73620815
| 31> C   -3.12587647  -0.78804469   0.33604757
| 32> H   -2.01368064   0.85510202   1.13426776
| 33> H   -4.03390923  -0.56429000   0.89388550
| 34> H   -3.42080364  -1.21266958  -0.62441402
| 35> H   -2.57898560  -1.54430722   0.89732965
| 36> C   -0.86009344   0.38063049  -1.77200587
| 37> C    0.48746872   0.15347014  -2.24360874
| 38> H   -1.64408865   0.74509307  -2.42924237
| 39> C    1.57993762   0.43068048  -1.42548843
| 40> C    2.79025166   0.02295370  -2.06048330
| 41> S    0.92795455  -0.56078977  -3.72378414
| 42> C    2.59019582  -0.52215203  -3.28893043
| 43> H    1.52536953   1.33506445  -0.67794481
| 44> H    3.77165664   0.18026084  -1.63721990
| 45> H    3.33190252  -0.88398264  -3.98483836
| 46> H   -0.82207069  -3.17017543  -0.16377848
| 47> H   -0.67482940  -2.37329496   2.43214396
| 48> H    1.85535054  -1.56340937   2.89226296
| 49> O    1.31105804   2.47813311   0.24661539
| 50> O    0.53418521   0.92310533   1.64375276
| 51> C    0.90558040   2.12497475   1.35074989
| 52> C    0.84185174   3.09376372   2.49896067
| 53> H    0.80343052   4.11739517   2.13663354
| 54> H    1.74338755   2.98713709   3.10543088
| 55> H   -0.00832643   2.89565483   3.14845354
| 56> H    3.26627789  -1.89022544   0.64345902
| 57> H    1.60218946  -2.87667250  -1.25960089
| 58> *
| 59>
| 60>                          ****END OF INPUT****
 Total Charge           Charge          ....    1
 Multiplicity           Mult            ....    1
 Number of Electrons    NEL             ....  164
Dispersion correction           -0.031090705
FINAL SINGLE POINT ENERGY     -1288.400122605877
Dispersion correction            ... done
Dispersion correction           -0.031108540
FINAL SINGLE POINT ENERGY     -1288.398867183188
Dispersion correction            ... done
Dispersion correction           -0.031043612
FINAL SINGLE POINT ENERGY     -1288.400245289348
Dispersion correction            ... done
FINAL SINGLE POINT ENERGY     -1288.398968018267
FINAL SINGLE POINT ENERGY     -1288.400306190955
FINAL SINGLE POINT ENERGY     -1288.400312691196
FINAL SINGLE POINT ENERGY     -1288.400348651602
FINAL SINGLE POINT ENERGY     -1288.400360106029
FINAL SINGLE POINT ENERGY     -1288.400369358271
Dispersion correction            ... done
Dispersion correction           -0.030956605
FINAL SINGLE POINT ENERGY     -1288.400381946804
Dispersion correction            ... done
Dispersion correction           -0.030957098
FINAL SINGLE POINT ENERGY     -1288.400383053754
Dispersion correction            ... done
                    ***********************HURRAY********************

CARTESIAN COORDINATES (ANGSTROEM)
---------------------------------
  Ir     0.610585   -0.709774    0.431644
  C      0.064457   -2.802070    0.346776
  C      0.109438   -2.343590    1.711141
  C      2.216988   -2.113212    0.803928
  C      1.343412   -2.642135   -0.218678
  C      1.462894   -1.963104    1.983845
  N     -1.047206    0.161564   -0.526596
  C     -2.313490    0.468482    0.156046
  C     -3.113492    1.573160   -0.515804
  H     -3.938210    1.857418    0.136352
  H     -3.559776    1.260807   -1.461217
  H     -2.512333    2.466551   -0.687055
  C     -3.131507   -0.808572    0.307695
  H     -2.016609    0.811354    1.148318
  H     -4.039921   -0.596121    0.869378
  H     -3.425785   -1.208418   -0.663531
  H     -2.587385   -1.580207    0.850328
  C     -0.867050    0.382715   -1.771942
  C      0.477151    0.165486   -2.251643
  H     -1.656655    0.748530   -2.421511
  C      1.563674    0.385168   -1.407297
  C      2.775793   -0.002457   -2.051938
  S      0.923941   -0.475277   -3.761256
  C      2.581723   -0.479095   -3.309838
  H      1.523439    1.306130   -0.660500
  H      3.755073    0.121060   -1.612820
  H      3.326173   -0.811836   -4.017241
  H     -0.809376   -3.176573   -0.166837
  H     -0.697480   -2.373058    2.428107
  H      1.823348   -1.553527    2.916611
  O      1.344784    2.464137    0.229558
  O      0.534540    0.935327    1.635162
  C      0.923450    2.127361    1.334968
  C      0.861324    3.112484    2.468680
  H      0.832328    4.131454    2.092626
  H      1.759403    3.007185    3.080473
  H      0.006560    2.928721    3.116229
  H      3.267492   -1.891504    0.690475
  H      1.627675   -2.885373   -1.231896

 Multiplicity           Mult            ....    1
 Number of Electrons    NEL             ....  164
 Basis Dimension        Dim             ....  358

ORBITAL ENERGIES
----------------

  NO   OCC          E(Eh)            E(eV)
   0   2.0000     -89.767188     -2442.6894
   1   2.0000     -19.621146      -533.9185
   2   2.0000     -19.587502      -533.0030
   3   2.0000     -14.841489      -403.8574
   4   2.0000     -10.678233      -290.5695
   5   2.0000     -10.662358      -290.1375
   6   2.0000     -10.636283      -289.4280
   7   2.0000     -10.635068      -289.3949
   8   2.0000     -10.632129      -289.3149
   9   2.0000     -10.628871      -289.2263
  10   2.0000     -10.628519      -289.2167
  11   2.0000     -10.627678      -289.1938
  12   2.0000     -10.615659      -288.8668
  13   2.0000     -10.612632      -288.7844
  14   2.0000     -10.588939      -288.1397
  15   2.0000     -10.586336      -288.0688
  16   2.0000     -10.556824      -287.2658
  17   2.0000     -10.551922      -287.1324
  18   2.0000     -10.531793      -286.5846
  19   2.0000      -8.406547      -228.7538
  20   2.0000      -6.296531      -171.3373
  21   2.0000      -6.292883      -171.2380
  22   2.0000      -6.291418      -171.1982
  23   2.0000      -4.027556      -109.5954
  24   2.0000      -2.346195       -63.8432
  25   2.0000      -2.312505       -62.9265
  26   2.0000      -2.311260       -62.8926
  27   2.0000      -1.302968       -35.4556
  28   2.0000      -1.214355       -33.0443
  29   2.0000      -1.205798       -32.8114
  30   2.0000      -1.170672       -31.8556
  31   2.0000      -1.130709       -30.7682
  32   2.0000      -1.028108       -27.9763
  33   2.0000      -0.984953       -26.8019
  34   2.0000      -0.975999       -26.5583
  35   2.0000      -0.969855       -26.3911
  36   2.0000      -0.962638       -26.1947
  37   2.0000      -0.925172       -25.1752
  38   2.0000      -0.903178       -24.5767
  39   2.0000      -0.875712       -23.8293
  40   2.0000      -0.800043       -21.7703
  41   2.0000      -0.786746       -21.4084
  42   2.0000      -0.785987       -21.3878
  43   2.0000      -0.783262       -21.3136
  44   2.0000      -0.770812       -20.9749
  45   2.0000      -0.754974       -20.5439
  46   2.0000      -0.743655       -20.2359
  47   2.0000      -0.723988       -19.7007
  48   2.0000      -0.693268       -18.8648
  49   2.0000      -0.673353       -18.3229
  50   2.0000      -0.665721       -18.1152
  51   2.0000      -0.650586       -17.7033
  52   2.0000      -0.646210       -17.5843
  53   2.0000      -0.638884       -17.3849
  54   2.0000      -0.634999       -17.2792
  55   2.0000      -0.627809       -17.0835
  56   2.0000      -0.623119       -16.9559
  57   2.0000      -0.613567       -16.6960
  58   2.0000      -0.606459       -16.5026
  59   2.0000      -0.605840       -16.4858
  60   2.0000      -0.600033       -16.3277
  61   2.0000      -0.591045       -16.0831
  62   2.0000      -0.581122       -15.8131
  63   2.0000      -0.573807       -15.6141
  64   2.0000      -0.564644       -15.3648
  65   2.0000      -0.554704       -15.0943
  66   2.0000      -0.552236       -15.0271
  67   2.0000      -0.548459       -14.9243
  68   2.0000      -0.539927       -14.6922
  69   2.0000      -0.536310       -14.5937
  70   2.0000      -0.527900       -14.3649
  71   2.0000      -0.520152       -14.1540
  72   2.0000      -0.515835       -14.0366
  73   2.0000      -0.502985       -13.6869
  74   2.0000      -0.487292       -13.2599
  75   2.0000      -0.481530       -13.1031
  76   2.0000      -0.471248       -12.8233
  77   2.0000      -0.446411       -12.1475
  78   2.0000      -0.441618       -12.0170
  79   2.0000      -0.424880       -11.5616
  80   2.0000      -0.416671       -11.3382
  81   2.0000      -0.402177       -10.9438
  82   0.0000      -0.204518        -5.5652
  83   0.0000      -0.157360        -4.2820
  84   0.0000      -0.141782        -3.8581
  85   0.0000      -0.098981        -2.6934
  86   0.0000      -0.077415        -2.1066

MULLIKEN ATOMIC CHARGES
-----------------------
   0 Ir:    0.609044
   1 C :   -0.211405
   2 C :   -0.283342
   3 C :   -0.239931
   4 C :   -0.246802
   5 C :   -0.163950
   6 N :   -0.423489
   7 C :   -0.122624
   8 C :   -0.690977
   9 H :    0.272147
  10 H :    0.224695
  11 H :    0.261072
  12 C :   -0.637300
  13 H :    0.283381
  14 H :    0.264068
  15 H :    0.230702
  16 H :    0.232836
  17 C :    0.071985
  18 C :   -0.171145
  19 H :    0.292005
  20 C :   -0.487159
  21 C :   -0.116072
  22 S :    0.314249
  23 C :   -0.433820
  24 H :    0.496021
  25 H :    0.268677
  26 H :    0.298975
  27 H :    0.290121
  28 H :    0.290845
  29 H :    0.305509
  30 O :   -0.475062
  31 O :   -0.539642
  32 C :    0.612562
  33 C :   -0.744590
  34 H :    0.268527
  35 H :    0.265054
  36 H :    0.251703
  37 H :    0.290411
  38 H :    0.292717
Sum of atomic charges:    1.0000000

LOEWDIN ATOMIC CHARGES
----------------------
   0 Ir:   -0.234686
   1 C :   -0.040382
   2 C :   -0.070236
   3 C :   -0.058933
   4 C :   -0.058226
   5 C :   -0.021678
   6 N :   -0.000165
   7 C :   -0.069491
   8 C :   -0.364101
   9 H :    0.157441
  10 H :    0.133256
  11 H :    0.147055
  12 C :   -0.343357
  13 H :    0.157374
  14 H :    0.152991
  15 H :    0.137118
  16 H :    0.134059
  17 C :    0.033455
  18 C :   -0.173859
  19 H :    0.163297
  20 C :   -0.197018
  21 C :   -0.128393
  22 S :    0.481274
  23 C :   -0.263799
  24 H :    0.293702
  25 H :    0.163721
  26 H :    0.168887
  27 H :    0.184385
  28 H :    0.184945
  29 H :    0.192990
  30 O :   -0.274708
  31 O :   -0.208690
  32 C :    0.150033
  33 C :   -0.376450
  34 H :    0.159013
  35 H :    0.166245
  36 H :    0.152582
  37 H :    0.185509
  38 H :    0.184839

  Mayer bond orders larger than 0.100000
B(  0-Ir,  1-C ) :   0.4168 B(  0-Ir,  2-C ) :   0.5056 B(  0-Ir,  3-C ) :   0.4617
B(  0-Ir,  4-C ) :   0.4469 B(  0-Ir,  5-C ) :   0.3998 B(  0-Ir,  6-N ) :   0.4604
B(  0-Ir, 20-C ) :   0.2962 B(  0-Ir, 31-O ) :   0.5798 B(  1-C ,  2-C ) :   1.1236
B(  1-C ,  4-C ) :   1.2448 B(  1-C , 27-H ) :   0.9039 B(  2-C ,  5-C ) :   1.1440
B(  2-C , 28-H ) :   0.9083 B(  3-C ,  4-C ) :   1.1077 B(  3-C ,  5-C ) :   1.2274
B(  3-C , 37-H ) :   0.9063 B(  4-C , 38-H ) :   0.9003 B(  5-C , 29-H ) :   0.8982
B(  6-N ,  7-C ) :   0.8919 B(  6-N , 17-C ) :   1.6879 B(  7-C ,  8-C ) :   0.9915
B(  7-C , 12-C ) :   0.9683 B(  7-C , 13-H ) :   0.8713 B(  8-C ,  9-H ) :   0.9037
B(  8-C , 10-H ) :   0.9128 B(  8-C , 11-H ) :   0.9082 B( 12-C , 14-H ) :   0.9065
B( 12-C , 15-H ) :   0.9155 B( 12-C , 16-H ) :   0.9116 B( 17-C , 18-C ) :   1.0593
B( 17-C , 19-H ) :   0.8744 B( 18-C , 20-C ) :   1.2723 B( 18-C , 22-S ) :   1.2465
B( 20-C , 21-C ) :   1.2533 B( 20-C , 24-H ) :   0.4752 B( 21-C , 23-C ) :   1.5542
B( 21-C , 25-H ) :   0.9033 B( 22-S , 23-C ) :   1.1995 B( 23-C , 26-H ) :   0.8915
B( 24-H , 30-O ) :   0.2444 B( 30-O , 32-C ) :   1.7013 B( 31-O , 32-C ) :   1.2742
B( 32-C , 33-C ) :   0.9450 B( 33-C , 34-H ) :   0.9055 B( 33-C , 35-H ) :   0.8996
B( 33-C , 36-H ) :   0.9099

Dispersion correction           -0.030955305
FINAL SINGLE POINT ENERGY     -1288.400383092782

DIPOLE MOMENT
-------------
                                X             Y             Z
Electronic contribution:     37.35468     -67.17060      70.90081
Nuclear contribution   :    -37.98306      65.96277     -71.30998
                        -----------------------------------------
Total Dipole Moment    :     -0.62838      -1.20782      -0.40917
                        -----------------------------------------
Magnitude (a.u.)       :      1.42166
Magnitude (Debye)      :      3.61357

Rotational constants in cm-1:     0.010713     0.009152     0.008265
Rotational constants in MHz :   321.173027   274.358432   247.785192

                             ****ORCA TERMINATED NORMALLY****
TOTAL RUN TIME: 0 days 1 hours 39 minutes 21 seconds 340 msec
