                         Program Version 5.0.3 -  RELEASE  -
|  1> ! Opt PBEh-3c
|  2> %geom Constraints
|  3> { B 0 20 2.2142857142857144 C }
|  4> { B 24 30 1.4714285714285715 C }
|  5>     end
|  6> end
|  7> %output
|  8> xyzfile=True
|  9> end
| 10> %scf
| 11> maxiter 250
| 12> end
| 13> %output
| 14> Print[P_Hirshfeld] = 1
| 15> end
| 16> % maxcore
| 17> 4000
| 18> *xyz 1 1
| 19> Ir   0.62467120  -0.70939526   0.42309290
| 20> C    0.10320193  -2.81407496   0.33092593
| 21> C    0.07303793  -2.35523013   1.69462662
| 22> C    2.22250725  -2.09408183   0.89361603
| 23> C    1.40920993  -2.64257281  -0.16646324
| 24> C    1.40067530  -1.94961221   2.03162139
| 25> N   -1.04576366   0.15097547  -0.52307989
| 26> C   -2.30761781   0.43799824   0.17627276
| 27> C   -3.09263267   1.58871013  -0.43421826
| 28> H   -3.91321726   1.84919805   0.23287092
| 29> H   -3.54287414   1.33256783  -1.39430240
| 30> H   -2.47804205   2.48051478  -0.55891463
| 31> C   -3.14178097  -0.83552219   0.25643225
| 32> H   -2.00738205   0.72182738   1.18577344
| 33> H   -4.04095244  -0.64903290   0.84180295
| 34> H   -3.45191199  -1.16858086  -0.73483137
| 35> H   -2.60017674  -1.64755080   0.73938380
| 36> C   -0.88434546   0.38988709  -1.76905406
| 37> C    0.45094674   0.17842459  -2.26709943
| 38> H   -1.68369757   0.76511866  -2.40075163
| 39> C    1.52895552   0.29031592  -1.38730521
| 40> C    2.74163790  -0.06660175  -2.05207115
| 41> S    0.90243427  -0.33845490  -3.81799117
| 42> C    2.55334493  -0.42368643  -3.34981687
| 43> H    1.52498451   1.24064287  -0.66342079
| 44> H    3.71804101  -0.00577469  -1.59384490
| 45> H    3.29931539  -0.71008761  -4.07558327
| 46> H   -0.73667945  -3.20557262  -0.22484266
| 47> H   -0.76908077  -2.39289758   2.36926606
| 48> H    1.70533598  -1.52856689   2.97922227
| 49> O    1.38678609   2.45072597   0.18742998
| 50> O    0.54520468   0.95487565   1.60811458
| 51> C    0.94750590   2.13634562   1.29413824
| 52> C    0.88019724   3.14502931   2.40654815
| 53> H    0.84192612   4.15567474   2.00932050
| 54> H    1.78195116   3.06022819   3.01602556
| 55> H    0.02914010   2.96742757   3.06037865
| 56> H    3.27733552  -1.87156260   0.83990621
| 57> H    1.74717846  -2.88843908  -1.16243815
| 58> *
| 59>
| 60>                          ****END OF INPUT****
 Total Charge           Charge          ....    1
 Multiplicity           Mult            ....    1
 Number of Electrons    NEL             ....  164
Dispersion correction           -0.031063714
FINAL SINGLE POINT ENERGY     -1288.399999389210
Dispersion correction            ... done
Dispersion correction           -0.030986165
FINAL SINGLE POINT ENERGY     -1288.399961764440
Dispersion correction            ... done
Dispersion correction           -0.030994525
FINAL SINGLE POINT ENERGY     -1288.399720826783
Dispersion correction            ... done
FINAL SINGLE POINT ENERGY     -1288.400269386058
FINAL SINGLE POINT ENERGY     -1288.400298676730
FINAL SINGLE POINT ENERGY     -1288.400329262230
FINAL SINGLE POINT ENERGY     -1288.400346621512
FINAL SINGLE POINT ENERGY     -1288.400353439879
FINAL SINGLE POINT ENERGY     -1288.400359496986
FINAL SINGLE POINT ENERGY     -1288.400364973215
Dispersion correction            ... done
Dispersion correction           -0.030925681
FINAL SINGLE POINT ENERGY     -1288.400370351803
Dispersion correction            ... done
Dispersion correction           -0.030923468
FINAL SINGLE POINT ENERGY     -1288.400373100674
Dispersion correction            ... done
                    ***********************HURRAY********************

CARTESIAN COORDINATES (ANGSTROEM)
---------------------------------
  Ir     0.626754   -0.711363    0.422631
  C      0.104071   -2.818755    0.341330
  C      0.054982   -2.357484    1.702713
  C      2.215919   -2.096589    0.929197
  C      1.417875   -2.650475   -0.138542
  C      1.375396   -1.946705    2.054302
  N     -1.046112    0.143077   -0.523596
  C     -2.308425    0.418043    0.179917
  C     -3.093627    1.580473   -0.408691
  H     -3.913804    1.828227    0.263677
  H     -3.544204    1.342426   -1.373207
  H     -2.479194    2.474502   -0.517138
  C     -3.144547   -0.855609    0.235480
  H     -2.009418    0.683499    1.194783
  H     -4.044827   -0.678987    0.822300
  H     -3.453131   -1.169724   -0.762441
  H     -2.605210   -1.677534    0.703842
  C     -0.888945    0.397756   -1.768184
  C      0.442741    0.194811   -2.272905
  H     -1.691798    0.780928   -2.390379
  C      1.510132    0.235817   -1.373353
  C      2.726873   -0.091328   -2.047252
  S      0.906255   -0.225386   -3.848385
  C      2.549622   -0.360224   -3.368043
  H      1.527849    1.209122   -0.652722
  H      3.699071   -0.071936   -1.576618
  H      3.301339   -0.607413   -4.102208
  H     -0.726845   -3.214340   -0.224895
  H     -0.796436   -2.392313    2.365560
  H      1.666495   -1.520651    3.003964
  O      1.430178    2.426587    0.167852
  O      0.547465    0.965190    1.597817
  C      0.970088    2.134155    1.274686
  C      0.904509    3.162949    2.368048
  H      0.877910    4.167140    1.953861
  H      1.801551    3.080390    2.984686
  H      0.047357    3.003094    3.018326
  H      3.272279   -1.878432    0.892310
  H      1.769181   -2.903747   -1.127985

 Multiplicity           Mult            ....    1
 Number of Electrons    NEL             ....  164
 Basis Dimension        Dim             ....  358

ORBITAL ENERGIES
----------------

  NO   OCC          E(Eh)            E(eV)
   0   2.0000     -89.768892     -2442.7357
   1   2.0000     -19.623794      -533.9906
   2   2.0000     -19.596381      -533.2446
   3   2.0000     -14.839812      -403.8118
   4   2.0000     -10.682049      -290.6733
   5   2.0000     -10.660225      -290.0795
   6   2.0000     -10.634747      -289.3862
   7   2.0000     -10.630467      -289.2697
   8   2.0000     -10.629711      -289.2491
   9   2.0000     -10.625845      -289.1439
  10   2.0000     -10.622617      -289.0561
  11   2.0000     -10.621310      -289.0205
  12   2.0000     -10.614580      -288.8374
  13   2.0000     -10.613149      -288.7985
  14   2.0000     -10.591175      -288.2005
  15   2.0000     -10.588659      -288.1321
  16   2.0000     -10.555714      -287.2356
  17   2.0000     -10.551338      -287.1165
  18   2.0000     -10.534904      -286.6693
  19   2.0000      -8.408275      -228.8008
  20   2.0000      -6.298172      -171.3820
  21   2.0000      -6.294559      -171.2837
  22   2.0000      -6.293258      -171.2483
  23   2.0000      -4.024474      -109.5115
  24   2.0000      -2.342526       -63.7434
  25   2.0000      -2.309760       -62.8518
  26   2.0000      -2.308094       -62.8064
  27   2.0000      -1.307905       -35.5899
  28   2.0000      -1.212839       -33.0030
  29   2.0000      -1.209489       -32.9119
  30   2.0000      -1.166380       -31.7388
  31   2.0000      -1.131557       -30.7912
  32   2.0000      -1.027423       -27.9576
  33   2.0000      -0.979824       -26.6624
  34   2.0000      -0.972931       -26.4748
  35   2.0000      -0.971084       -26.4245
  36   2.0000      -0.962679       -26.1958
  37   2.0000      -0.928393       -25.2629
  38   2.0000      -0.901978       -24.5441
  39   2.0000      -0.875642       -23.8274
  40   2.0000      -0.800869       -21.7928
  41   2.0000      -0.784954       -21.3597
  42   2.0000      -0.782426       -21.2909
  43   2.0000      -0.781193       -21.2573
  44   2.0000      -0.766893       -20.8682
  45   2.0000      -0.755033       -20.5455
  46   2.0000      -0.743412       -20.2293
  47   2.0000      -0.724069       -19.7029
  48   2.0000      -0.691595       -18.8193
  49   2.0000      -0.676924       -18.4200
  50   2.0000      -0.665176       -18.1004
  51   2.0000      -0.649639       -17.6776
  52   2.0000      -0.646725       -17.5983
  53   2.0000      -0.635835       -17.3019
  54   2.0000      -0.633967       -17.2511
  55   2.0000      -0.629210       -17.1217
  56   2.0000      -0.622742       -16.9457
  57   2.0000      -0.613789       -16.7020
  58   2.0000      -0.602526       -16.3956
  59   2.0000      -0.602133       -16.3849
  60   2.0000      -0.601021       -16.3546
  61   2.0000      -0.592366       -16.1191
  62   2.0000      -0.581682       -15.8284
  63   2.0000      -0.573463       -15.6047
  64   2.0000      -0.564378       -15.3575
  65   2.0000      -0.557827       -15.1792
  66   2.0000      -0.551534       -15.0080
  67   2.0000      -0.548281       -14.9195
  68   2.0000      -0.540857       -14.7175
  69   2.0000      -0.536793       -14.6069
  70   2.0000      -0.528309       -14.3760
  71   2.0000      -0.519072       -14.1247
  72   2.0000      -0.514943       -14.0123
  73   2.0000      -0.500113       -13.6088
  74   2.0000      -0.487727       -13.2717
  75   2.0000      -0.482050       -13.1172
  76   2.0000      -0.476932       -12.9780
  77   2.0000      -0.445067       -12.1109
  78   2.0000      -0.443470       -12.0674
  79   2.0000      -0.423658       -11.5283
  80   2.0000      -0.416387       -11.3305
  81   2.0000      -0.398489       -10.8434
  82   0.0000      -0.208138        -5.6637
  83   0.0000      -0.146980        -3.9995
  84   0.0000      -0.141764        -3.8576
  85   0.0000      -0.093816        -2.5529
  86   0.0000      -0.077034        -2.0962

MULLIKEN ATOMIC CHARGES
-----------------------
   0 Ir:    0.605958
   1 C :   -0.219547
   2 C :   -0.272227
   3 C :   -0.252800
   4 C :   -0.240439
   5 C :   -0.160039
   6 N :   -0.425848
   7 C :   -0.127441
   8 C :   -0.685522
   9 H :    0.270569
  10 H :    0.223969
  11 H :    0.259487
  12 C :   -0.634992
  13 H :    0.283697
  14 H :    0.262225
  15 H :    0.231079
  16 H :    0.232753
  17 C :    0.072363
  18 C :   -0.140777
  19 H :    0.289492
  20 C :   -0.536578
  21 C :   -0.102919
  22 S :    0.331912
  23 C :   -0.433737
  24 H :    0.484245
  25 H :    0.268478
  26 H :    0.299450
  27 H :    0.287543
  28 H :    0.287106
  29 H :    0.303283
  30 O :   -0.471928
  31 O :   -0.531522
  32 C :    0.617299
  33 C :   -0.743883
  34 H :    0.269411
  35 H :    0.267520
  36 H :    0.253859
  37 H :    0.286362
  38 H :    0.292139
Sum of atomic charges:    1.0000000

LOEWDIN ATOMIC CHARGES
----------------------
   0 Ir:   -0.248524
   1 C :   -0.045779
   2 C :   -0.083550
   3 C :   -0.074480
   4 C :   -0.054079
   5 C :   -0.017378
   6 N :    0.001322
   7 C :   -0.070203
   8 C :   -0.363038
   9 H :    0.156890
  10 H :    0.132819
  11 H :    0.146197
  12 C :   -0.343413
  13 H :    0.157101
  14 H :    0.152288
  15 H :    0.137205
  16 H :    0.133602
  17 C :    0.031024
  18 C :   -0.172264
  19 H :    0.162398
  20 C :   -0.209862
  21 C :   -0.121247
  22 S :    0.495344
  23 C :   -0.262314
  24 H :    0.315103
  25 H :    0.163885
  26 H :    0.169494
  27 H :    0.183006
  28 H :    0.182762
  29 H :    0.191540
  30 O :   -0.269718
  31 O :   -0.202377
  32 C :    0.151941
  33 C :   -0.374939
  34 H :    0.159854
  35 H :    0.167753
  36 H :    0.153633
  37 H :    0.183621
  38 H :    0.184385

  Mayer bond orders larger than 0.100000
B(  0-Ir,  1-C ) :   0.4174 B(  0-Ir,  2-C ) :   0.4647 B(  0-Ir,  3-C ) :   0.4616
B(  0-Ir,  4-C ) :   0.4388 B(  0-Ir,  5-C ) :   0.3932 B(  0-Ir,  6-N ) :   0.4621
B(  0-Ir, 20-C ) :   0.3751 B(  0-Ir, 31-O ) :   0.5632 B(  1-C ,  2-C ) :   1.1292
B(  1-C ,  4-C ) :   1.2422 B(  1-C , 27-H ) :   0.9055 B(  2-C ,  5-C ) :   1.1628
B(  2-C , 28-H ) :   0.9096 B(  3-C ,  4-C ) :   1.1150 B(  3-C ,  5-C ) :   1.2131
B(  3-C , 37-H ) :   0.9096 B(  4-C , 38-H ) :   0.9005 B(  5-C , 29-H ) :   0.8990
B(  6-N ,  7-C ) :   0.8928 B(  6-N , 17-C ) :   1.6695 B(  7-C ,  8-C ) :   0.9907
B(  7-C , 12-C ) :   0.9671 B(  7-C , 13-H ) :   0.8726 B(  8-C ,  9-H ) :   0.9042
B(  8-C , 10-H ) :   0.9132 B(  8-C , 11-H ) :   0.9093 B( 12-C , 14-H ) :   0.9069
B( 12-C , 15-H ) :   0.9156 B( 12-C , 16-H ) :   0.9121 B( 17-C , 18-C ) :   1.0831
B( 17-C , 19-H ) :   0.8757 B( 18-C , 20-C ) :   1.2424 B( 18-C , 22-S ) :   1.2584
B( 20-C , 21-C ) :   1.2536 B( 20-C , 24-H ) :   0.4429 B( 21-C , 23-C ) :   1.5564
B( 21-C , 25-H ) :   0.9029 B( 22-S , 23-C ) :   1.2018 B( 23-C , 26-H ) :   0.8911
B( 24-H , 30-O ) :   0.2693 B( 30-O , 32-C ) :   1.6714 B( 31-O , 32-C ) :   1.2985
B( 32-C , 33-C ) :   0.9443 B( 33-C , 34-H ) :   0.9046 B( 33-C , 35-H ) :   0.8981
B( 33-C , 36-H ) :   0.9092

Dispersion correction           -0.030920467
FINAL SINGLE POINT ENERGY     -1288.400375853503

DIPOLE MOMENT
-------------
                                X             Y             Z
Electronic contribution:     38.98570     -68.73519      70.71868
Nuclear contribution   :    -39.61187      67.72858     -71.16458
                        -----------------------------------------
Total Dipole Moment    :     -0.62617      -1.00661      -0.44591
                        -----------------------------------------
Magnitude (a.u.)       :      1.26657
Magnitude (Debye)      :      3.21936

Rotational constants in cm-1:     0.010605     0.009143     0.008222
Rotational constants in MHz :   317.930880   274.109147   246.501891

                             ****ORCA TERMINATED NORMALLY****
TOTAL RUN TIME: 0 days 1 hours 35 minutes 54 seconds 806 msec
