                         Program Version 5.0.3 -  RELEASE  -
|  1> ! Opt PBEh-3c
|  2> %geom Constraints
|  3> { B 0 20 2.0428571428571427 C }
|  4> { B 24 30 1.4142857142857144 C }
|  5>     end
|  6> end
|  7> %output
|  8> xyzfile=True
|  9> end
| 10> %scf
| 11> maxiter 250
| 12> end
| 13> %output
| 14> Print[P_Hirshfeld] = 1
| 15> end
| 16> % maxcore
| 17> 4000
| 18> *xyz 1 1
| 19> Ir   0.62130492  -0.72522616   0.40576329
| 20> C    0.15355324  -2.84530856   0.32594309
| 21> C   -0.05976573  -2.39618917   1.67745221
| 22> C    2.16661442  -2.06152402   1.14565031
| 23> C    1.51678773  -2.65543917   0.00974518
| 24> C    1.18474039  -1.93537388   2.16693209
| 25> N   -1.06907129   0.12467365  -0.51326396
| 26> C   -2.33572526   0.32999863   0.20423695
| 27> C   -3.13314820   1.52894052  -0.28874944
| 28> H   -3.95988776   1.70729248   0.39701430
| 29> H   -3.57466131   1.36877204  -1.27333545
| 30> H   -2.52983079   2.43658772  -0.31705394
| 31> C   -3.16072459  -0.95114536   0.14411197
| 32> H   -2.04712236   0.51510225   1.23997924
| 33> H   -4.06176131  -0.84048738   0.74603256
| 34> H   -3.46780446  -1.17293772  -0.87873996
| 35> H   -2.61258426  -1.80972473   0.52840736
| 36> C   -0.92126350   0.47461233  -1.73800407
| 37> C    0.39645449   0.28986808  -2.26660942
| 38> H   -1.72821326   0.90897662  -2.31897130
| 39> C    1.42834478   0.06061761  -1.34961141
| 40> C    2.64551717  -0.19534498  -2.06079768
| 41> S    0.89059621   0.21567399  -3.88436134
| 42> C    2.50029602  -0.13913965  -3.41210517
| 43> H    1.61295009   1.12444280  -0.66256280
| 44> H    3.60106503  -0.35176633  -1.58126376
| 45> H    3.26303715  -0.26490299  -4.16546122
| 46> H   -0.58873269  -3.28235302  -0.32588897
| 47> H   -0.98067296  -2.44895718   2.23771746
| 48> H    1.34856178  -1.49004136   3.13810977
| 49> O    1.71165987   2.32540134   0.10475154
| 50> O    0.57344030   1.02303749   1.50583386
| 51> C    1.12352768   2.12570727   1.18134450
| 52> C    1.06564338   3.22963178   2.19741723
| 53> H    0.97078147   4.19591747   1.70772945
| 54> H    2.00159356   3.24151666   2.75860088
| 55> H    0.25126036   3.08502064   2.90195765
| 56> H    3.21716798  -1.83518939   1.24207703
| 57> H    1.98544175  -2.91155038  -0.92928793
| 58> *
| 59>
| 60>                          ****END OF INPUT****
 Total Charge           Charge          ....    1
 Multiplicity           Mult            ....    1
 Number of Electrons    NEL             ....  164
Dispersion correction           -0.030899067
FINAL SINGLE POINT ENERGY     -1288.397949378076
Dispersion correction            ... done
Dispersion correction           -0.030853616
FINAL SINGLE POINT ENERGY     -1288.397983956691
Dispersion correction            ... done
Dispersion correction           -0.030865835
FINAL SINGLE POINT ENERGY     -1288.397021028199
Dispersion correction            ... done
FINAL SINGLE POINT ENERGY     -1288.398279024098
FINAL SINGLE POINT ENERGY     -1288.398311957751
FINAL SINGLE POINT ENERGY     -1288.398346977769
FINAL SINGLE POINT ENERGY     -1288.398391840157
FINAL SINGLE POINT ENERGY     -1288.398400834412
FINAL SINGLE POINT ENERGY     -1288.398405037472
FINAL SINGLE POINT ENERGY     -1288.398407284661
FINAL SINGLE POINT ENERGY     -1288.398407838062
FINAL SINGLE POINT ENERGY     -1288.398408655906
FINAL SINGLE POINT ENERGY     -1288.398410136087
FINAL SINGLE POINT ENERGY     -1288.398412618165
Dispersion correction            ... done
Dispersion correction           -0.030801323
FINAL SINGLE POINT ENERGY     -1288.398416025280
Dispersion correction            ... done
Dispersion correction           -0.030802687
FINAL SINGLE POINT ENERGY     -1288.398417853655
Dispersion correction            ... done
                    ***********************HURRAY********************

CARTESIAN COORDINATES (ANGSTROEM)
---------------------------------
  Ir     0.621957   -0.731855    0.394811
  C      0.169017   -2.853584    0.318127
  C     -0.078682   -2.417494    1.668975
  C      2.154406   -2.054244    1.187729
  C      1.540863   -2.656215    0.038950
  C      1.143621   -1.944023    2.187819
  N     -1.075180    0.116849   -0.511152
  C     -2.339720    0.311196    0.212444
  C     -3.132579    1.524419   -0.252042
  H     -3.959151    1.689259    0.437259
  H     -3.573592    1.390413   -1.240740
  H     -2.525472    2.429981   -0.257835
  C     -3.169212   -0.965450    0.125005
  H     -2.049262    0.472440    1.251707
  H     -4.066937   -0.867489    0.734064
  H     -3.481816   -1.160954   -0.901522
  H     -2.621132   -1.834916    0.484203
  C     -0.931167    0.482787   -1.732231
  C      0.384979    0.298836   -2.262230
  H     -1.738187    0.927545   -2.304866
  C      1.400679    0.017452   -1.338797
  C      2.626087   -0.216850   -2.047255
  S      0.902130    0.301058   -3.874017
  C      2.500817   -0.092123   -3.395949
  H      1.609799    1.136254   -0.699373
  H      3.573414   -0.407747   -1.563728
  H      3.273790   -0.188705   -4.143191
  H     -0.551119   -3.301543   -0.350827
  H     -1.013795   -2.476958    2.204338
  H      1.278704   -1.499368    3.163652
  O      1.712496    2.329537    0.052781
  O      0.596458    1.032928    1.477670
  C      1.139388    2.131679    1.141546
  C      1.100242    3.243136    2.149717
  H      0.995799    4.206270    1.655811
  H      2.046361    3.258905    2.693552
  H      0.298814    3.102076    2.869522
  H      3.200993   -1.824431    1.314191
  H      2.035556   -2.909880   -0.887379

 Multiplicity           Mult            ....    1
 Number of Electrons    NEL             ....  164
 Basis Dimension        Dim             ....  358

ORBITAL ENERGIES
----------------

  NO   OCC          E(Eh)            E(eV)
   0   2.0000     -89.767418     -2442.6956
   1   2.0000     -19.633730      -534.2609
   2   2.0000     -19.621142      -533.9184
   3   2.0000     -14.835244      -403.6875
   4   2.0000     -10.695442      -291.0378
   5   2.0000     -10.655164      -289.9417
   6   2.0000     -10.628855      -289.2258
   7   2.0000     -10.622953      -289.0652
   8   2.0000     -10.621933      -289.0375
   9   2.0000     -10.620339      -288.9941
  10   2.0000     -10.613063      -288.7961
  11   2.0000     -10.612657      -288.7851
  12   2.0000     -10.612242      -288.7738
  13   2.0000     -10.609715      -288.7050
  14   2.0000     -10.592237      -288.2294
  15   2.0000     -10.591152      -288.1999
  16   2.0000     -10.553330      -287.1707
  17   2.0000     -10.550802      -287.1019
  18   2.0000     -10.543787      -286.9110
  19   2.0000      -8.406753      -228.7594
  20   2.0000      -6.296608      -171.3394
  21   2.0000      -6.293057      -171.2428
  22   2.0000      -6.291767      -171.2077
  23   2.0000      -4.018889      -109.3595
  24   2.0000      -2.335672       -63.5569
  25   2.0000      -2.305899       -62.7467
  26   2.0000      -2.302161       -62.6450
  27   2.0000      -1.322953       -35.9994
  28   2.0000      -1.224664       -33.3248
  29   2.0000      -1.208384       -32.8818
  30   2.0000      -1.157790       -31.5051
  31   2.0000      -1.130342       -30.7582
  32   2.0000      -1.025737       -27.9117
  33   2.0000      -0.972971       -26.4759
  34   2.0000      -0.970647       -26.4126
  35   2.0000      -0.964534       -26.2463
  36   2.0000      -0.959635       -26.1130
  37   2.0000      -0.938273       -25.5317
  38   2.0000      -0.900427       -24.5019
  39   2.0000      -0.873635       -23.7728
  40   2.0000      -0.799798       -21.7636
  41   2.0000      -0.783894       -21.3308
  42   2.0000      -0.774704       -21.0808
  43   2.0000      -0.773832       -21.0570
  44   2.0000      -0.759904       -20.6780
  45   2.0000      -0.757978       -20.6256
  46   2.0000      -0.743670       -20.2363
  47   2.0000      -0.721748       -19.6398
  48   2.0000      -0.694639       -18.9021
  49   2.0000      -0.685263       -18.6469
  50   2.0000      -0.664264       -18.0756
  51   2.0000      -0.658694       -17.9240
  52   2.0000      -0.647802       -17.6276
  53   2.0000      -0.637556       -17.3488
  54   2.0000      -0.629961       -17.1421
  55   2.0000      -0.625024       -17.0078
  56   2.0000      -0.621617       -16.9150
  57   2.0000      -0.612549       -16.6683
  58   2.0000      -0.602037       -16.3823
  59   2.0000      -0.595714       -16.2102
  60   2.0000      -0.594126       -16.1670
  61   2.0000      -0.591589       -16.0979
  62   2.0000      -0.580307       -15.7910
  63   2.0000      -0.568551       -15.4711
  64   2.0000      -0.566919       -15.4266
  65   2.0000      -0.562842       -15.3157
  66   2.0000      -0.554263       -15.0823
  67   2.0000      -0.546574       -14.8730
  68   2.0000      -0.542258       -14.7556
  69   2.0000      -0.535574       -14.5737
  70   2.0000      -0.531078       -14.4514
  71   2.0000      -0.518457       -14.1079
  72   2.0000      -0.512994       -13.9593
  73   2.0000      -0.499915       -13.6034
  74   2.0000      -0.494340       -13.4517
  75   2.0000      -0.490471       -13.3464
  76   2.0000      -0.476019       -12.9531
  77   2.0000      -0.451405       -12.2834
  78   2.0000      -0.442586       -12.0434
  79   2.0000      -0.420159       -11.4331
  80   2.0000      -0.413528       -11.2527
  81   2.0000      -0.392476       -10.6798
  82   0.0000      -0.207681        -5.6513
  83   0.0000      -0.143604        -3.9077
  84   0.0000      -0.125408        -3.4125
  85   0.0000      -0.088148        -2.3986
  86   0.0000      -0.076107        -2.0710

MULLIKEN ATOMIC CHARGES
-----------------------
   0 Ir:    0.614094
   1 C :   -0.252422
   2 C :   -0.251706
   3 C :   -0.278558
   4 C :   -0.220088
   5 C :   -0.150040
   6 N :   -0.430573
   7 C :   -0.127358
   8 C :   -0.680833
   9 H :    0.269431
  10 H :    0.224139
  11 H :    0.253889
  12 C :   -0.633227
  13 H :    0.279725
  14 H :    0.258676
  15 H :    0.232679
  16 H :    0.234674
  17 C :    0.069727
  18 C :   -0.115527
  19 H :    0.285939
  20 C :   -0.595194
  21 C :   -0.087375
  22 S :    0.348148
  23 C :   -0.427076
  24 H :    0.470376
  25 H :    0.269486
  26 H :    0.299014
  27 H :    0.283592
  28 H :    0.280022
  29 H :    0.296161
  30 O :   -0.474313
  31 O :   -0.509408
  32 C :    0.629008
  33 C :   -0.743516
  34 H :    0.272098
  35 H :    0.274729
  36 H :    0.260410
  37 H :    0.279825
  38 H :    0.291371
Sum of atomic charges:    1.0000000

LOEWDIN ATOMIC CHARGES
----------------------
   0 Ir:   -0.260764
   1 C :   -0.062862
   2 C :   -0.098993
   3 C :   -0.101173
   4 C :   -0.041462
   5 C :   -0.018968
   6 N :    0.000929
   7 C :   -0.069666
   8 C :   -0.362025
   9 H :    0.156310
  10 H :    0.132746
  11 H :    0.143444
  12 C :   -0.343622
  13 H :    0.154950
  14 H :    0.150730
  15 H :    0.138019
  16 H :    0.133781
  17 C :    0.026960
  18 C :   -0.184160
  19 H :    0.160884
  20 C :   -0.220320
  21 C :   -0.122601
  22 S :    0.504315
  23 C :   -0.257521
  24 H :    0.360215
  25 H :    0.163521
  26 H :    0.170031
  27 H :    0.181209
  28 H :    0.178185
  29 H :    0.186938
  30 O :   -0.260380
  31 O :   -0.182906
  32 C :    0.161488
  33 C :   -0.372079
  34 H :    0.163613
  35 H :    0.171749
  36 H :    0.155529
  37 H :    0.180656
  38 H :    0.183300

  Mayer bond orders larger than 0.100000
B(  0-Ir,  1-C ) :   0.4523 B(  0-Ir,  2-C ) :   0.3779 B(  0-Ir,  3-C ) :   0.4718
B(  0-Ir,  4-C ) :   0.4175 B(  0-Ir,  5-C ) :   0.3527 B(  0-Ir,  6-N ) :   0.4634
B(  0-Ir, 20-C ) :   0.5376 B(  0-Ir, 31-O ) :   0.5213 B(  1-C ,  2-C ) :   1.1250
B(  1-C ,  4-C ) :   1.2214 B(  1-C , 27-H ) :   0.9095 B(  2-C ,  5-C ) :   1.2390
B(  2-C , 28-H ) :   0.9102 B(  3-C ,  4-C ) :   1.1451 B(  3-C ,  5-C ) :   1.1626
B(  3-C , 37-H ) :   0.9146 B(  4-C , 38-H ) :   0.8993 B(  5-C , 29-H ) :   0.9020
B(  6-N ,  7-C ) :   0.8961 B(  6-N , 17-C ) :   1.6462 B(  7-C ,  8-C ) :   0.9902
B(  7-C , 12-C ) :   0.9663 B(  7-C , 13-H ) :   0.8763 B(  8-C ,  9-H ) :   0.9047
B(  8-C , 10-H ) :   0.9131 B(  8-C , 11-H ) :   0.9121 B( 12-C , 14-H ) :   0.9077
B( 12-C , 15-H ) :   0.9152 B( 12-C , 16-H ) :   0.9115 B( 17-C , 18-C ) :   1.1147
B( 17-C , 19-H ) :   0.8765 B( 18-C , 20-C ) :   1.2054 B( 18-C , 22-S ) :   1.2523
B( 20-C , 21-C ) :   1.2466 B( 20-C , 24-H ) :   0.3520 B( 21-C , 23-C ) :   1.5487
B( 21-C , 25-H ) :   0.9010 B( 22-S , 23-C ) :   1.2122 B( 23-C , 26-H ) :   0.8913
B( 24-H , 30-O ) :   0.3395 B( 30-O , 32-C ) :   1.5799 B( 31-O , 32-C ) :   1.3721
B( 32-C , 33-C ) :   0.9432 B( 33-C , 34-H ) :   0.9010 B( 33-C , 35-H ) :   0.8938
B( 33-C , 36-H ) :   0.9081

Dispersion correction           -0.030804191
FINAL SINGLE POINT ENERGY     -1288.398418016392

DIPOLE MOMENT
-------------
                                X             Y             Z
Electronic contribution:     38.25928     -73.77409      68.42996
Nuclear contribution   :    -38.87626      73.31786     -68.78025
                        -----------------------------------------
Total Dipole Moment    :     -0.61699      -0.45623      -0.35029
                        -----------------------------------------
Magnitude (a.u.)       :      0.84352
Magnitude (Debye)      :      2.14406

Rotational constants in cm-1:     0.010538     0.008981     0.008259
Rotational constants in MHz :   315.914842   269.247742   247.607032

                             ****ORCA TERMINATED NORMALLY****
TOTAL RUN TIME: 0 days 2 hours 7 minutes 18 seconds 580 msec
