                         Program Version 5.0.3 -  RELEASE  -
|  1> ! Opt PBEh-3c
|  2> %geom Constraints
|  3> { B 0 20 2.6 C }
|  4> { B 24 30 1.3714285714285714 C }
|  5>     end
|  6> end
|  7> %output
|  8> xyzfile=True
|  9> end
| 10> %scf
| 11> maxiter 250
| 12> end
| 13> %output
| 14> Print[P_Hirshfeld] = 1
| 15> end
| 16> % maxcore
| 17> 4000
| 18> *xyz 1 1
| 19> Ir   0.56655279  -0.73876613   0.49836926
| 20> C    0.01104614  -2.81489015   0.35786699
| 21> C    0.09433570  -2.37763294   1.73114631
| 22> C    2.17889067  -2.15394147   0.78299528
| 23> C    1.27531498  -2.64668112  -0.23291420
| 24> C    1.46420458  -2.02874576   1.98596897
| 25> N   -1.04067287   0.16433328  -0.50713097
| 26> C   -2.31902947   0.49878051   0.14147738
| 27> C   -3.13162975   1.53823558  -0.61356742
| 28> H   -3.96790011   1.85091450   0.01014963
| 29> H   -3.56210069   1.15214755  -1.53895374
| 30> H   -2.54734059   2.43023180  -0.84178550
| 31> C   -3.12131782  -0.77414736   0.38133091
| 32> H   -2.03643556   0.91924641   1.10825159
| 33> H   -4.04198583  -0.53110999   0.90959572
| 34> H   -3.39461427  -1.25367144  -0.55958497
| 35> H   -2.57913183  -1.49275727   0.99439806
| 36> C   -0.82467908   0.36737165  -1.74933712
| 37> C    0.52794048   0.15646897  -2.21890567
| 38> H   -1.60372894   0.71977690  -2.41971596
| 39> C    1.63798236   0.55543621  -1.48583813
| 40> C    2.83512122   0.15231254  -2.14298035
| 41> S    0.93878139  -0.62851791  -3.68349714
| 42> C    2.61091113  -0.48526103  -3.32348947
| 43> H    1.54501388   1.41965413  -0.65853949
| 44> H    3.82604587   0.37657751  -1.77552028
| 45> H    3.34203133  -0.86308992  -4.02225304
| 46> H   -0.87995986  -3.16859508  -0.14068593
| 47> H   -0.69519284  -2.41703443   2.46742680
| 48> H    1.85321643  -1.65014956   2.92024049
| 49> O    1.32075236   2.42756123   0.26560018
| 50> O    0.53892615   0.90097659   1.69314830
| 51> C    0.91838302   2.09441363   1.37915982
| 52> C    0.86950711   3.08365983   2.50867442
| 53> H    0.82486799   4.10017058   2.12738227
| 54> H    1.78034724   2.99000491   3.10336605
| 55> H    0.02923415   2.89652211   3.17390592
| 56> H    3.22291185  -1.91890754   0.63706024
| 57> H    1.53277069  -2.85170730  -1.26207511
| 58> *
| 59>
| 60>                          ****END OF INPUT****
 Total Charge           Charge          ....    1
 Multiplicity           Mult            ....    1
 Number of Electrons    NEL             ....  164
Dispersion correction           -0.030835853
FINAL SINGLE POINT ENERGY     -1288.392781033816
Dispersion correction            ... done
Dispersion correction           -0.030796111
FINAL SINGLE POINT ENERGY     -1288.392754821337
Dispersion correction            ... done
Dispersion correction           -0.030753833
FINAL SINGLE POINT ENERGY     -1288.392558616652
Dispersion correction            ... done
FINAL SINGLE POINT ENERGY     -1288.392448160088
FINAL SINGLE POINT ENERGY     -1288.392726011694
FINAL SINGLE POINT ENERGY     -1288.392804521854
Dispersion correction            ... done
Dispersion correction           -0.030803902
FINAL SINGLE POINT ENERGY     -1288.392814100483
Dispersion correction            ... done
Dispersion correction           -0.030806498
FINAL SINGLE POINT ENERGY     -1288.392816562519
Dispersion correction            ... done
                    ***********************HURRAY********************

CARTESIAN COORDINATES (ANGSTROEM)
---------------------------------
  Ir     0.564670   -0.740455    0.503901
  C      0.008088   -2.815941    0.363827
  C      0.088474   -2.378557    1.737056
  C      2.175530   -2.156413    0.793542
  C      1.273847   -2.648594   -0.224309
  C      1.457931   -2.030195    1.994737
  N     -1.040363    0.160552   -0.505992
  C     -2.320346    0.492186    0.141263
  C     -3.130762    1.536068   -0.610221
  H     -3.967480    1.846990    0.013795
  H     -3.560588    1.154902   -1.537927
  H     -2.544985    2.428274   -0.833719
  C     -3.124095   -0.781372    0.372806
  H     -2.040203    0.907808    1.110848
  H     -4.046252   -0.540394    0.899440
  H     -3.394737   -1.256361   -0.571168
  H     -2.584090   -1.503160    0.984056
  C     -0.825035    0.363882   -1.748653
  C      0.526865    0.158617   -2.220877
  H     -1.606270    0.713480   -2.417993
  C      1.636581    0.549221   -1.482992
  C      2.833498    0.154744   -2.145417
  S      0.937569   -0.608262   -3.695300
  C      2.609413   -0.467184   -3.334545
  H      1.544231    1.417535   -0.646998
  H      3.824603    0.374723   -1.775802
  H      3.340693   -0.834926   -4.038527
  H     -0.881949   -3.169174   -0.136793
  H     -0.702790   -2.417395    2.471481
  H      1.845083   -1.651724    2.929830
  O      1.333964    2.421874    0.262897
  O      0.538934    0.904929    1.693515
  C      0.925810    2.094184    1.377124
  C      0.880308    3.088994    2.501484
  H      0.837127    4.103803    2.115514
  H      1.792014    2.996466    3.095053
  H      0.040664    2.906298    3.168656
  H      3.220094   -1.922324    0.650046
  H      1.533323   -2.853909   -1.252898

 Multiplicity           Mult            ....    1
 Number of Electrons    NEL             ....  164
 Basis Dimension        Dim             ....  358

ORBITAL ENERGIES
----------------

  NO   OCC          E(Eh)            E(eV)
   0   2.0000     -89.756221     -2442.3910
   1   2.0000     -19.626362      -534.0605
   2   2.0000     -19.590002      -533.0711
   3   2.0000     -14.839863      -403.8132
   4   2.0000     -10.683965      -290.7255
   5   2.0000     -10.660945      -290.0990
   6   2.0000     -10.639363      -289.5118
   7   2.0000     -10.637694      -289.4664
   8   2.0000     -10.635672      -289.4113
   9   2.0000     -10.634745      -289.3861
  10   2.0000     -10.633453      -289.3510
  11   2.0000     -10.626273      -289.1556
  12   2.0000     -10.616539      -288.8907
  13   2.0000     -10.606156      -288.6082
  14   2.0000     -10.578382      -287.8524
  15   2.0000     -10.576131      -287.7912
  16   2.0000     -10.557442      -287.2826
  17   2.0000     -10.552213      -287.1403
  18   2.0000     -10.534123      -286.6481
  19   2.0000      -8.395550      -228.4545
  20   2.0000      -6.285653      -171.0413
  21   2.0000      -6.282033      -170.9428
  22   2.0000      -6.280226      -170.8936
  23   2.0000      -4.032325      -109.7252
  24   2.0000      -2.351956       -64.0000
  25   2.0000      -2.317316       -63.0574
  26   2.0000      -2.315501       -63.0080
  27   2.0000      -1.308455       -35.6049
  28   2.0000      -1.213372       -33.0175
  29   2.0000      -1.210622       -32.9427
  30   2.0000      -1.176372       -32.0107
  31   2.0000      -1.120875       -30.5006
  32   2.0000      -1.025637       -27.9090
  33   2.0000      -0.991293       -26.9745
  34   2.0000      -0.981262       -26.7015
  35   2.0000      -0.961293       -26.1581
  36   2.0000      -0.954859       -25.9830
  37   2.0000      -0.928800       -25.2739
  38   2.0000      -0.903666       -24.5900
  39   2.0000      -0.871481       -23.7142
  40   2.0000      -0.796020       -21.6608
  41   2.0000      -0.791986       -21.5510
  42   2.0000      -0.790189       -21.5021
  43   2.0000      -0.779243       -21.2043
  44   2.0000      -0.773528       -21.0488
  45   2.0000      -0.758567       -20.6417
  46   2.0000      -0.743740       -20.2382
  47   2.0000      -0.722244       -19.6533
  48   2.0000      -0.694655       -18.9025
  49   2.0000      -0.673698       -18.3323
  50   2.0000      -0.664742       -18.0886
  51   2.0000      -0.652466       -17.7545
  52   2.0000      -0.650079       -17.6896
  53   2.0000      -0.641724       -17.4622
  54   2.0000      -0.639035       -17.3890
  55   2.0000      -0.631841       -17.1933
  56   2.0000      -0.624173       -16.9846
  57   2.0000      -0.612293       -16.6613
  58   2.0000      -0.611412       -16.6374
  59   2.0000      -0.608006       -16.5447
  60   2.0000      -0.595206       -16.1964
  61   2.0000      -0.585994       -15.9457
  62   2.0000      -0.574155       -15.6236
  63   2.0000      -0.568041       -15.4572
  64   2.0000      -0.562203       -15.2983
  65   2.0000      -0.555115       -15.1054
  66   2.0000      -0.552719       -15.0403
  67   2.0000      -0.548488       -14.9251
  68   2.0000      -0.539716       -14.6864
  69   2.0000      -0.533901       -14.5282
  70   2.0000      -0.527484       -14.3536
  71   2.0000      -0.521857       -14.2004
  72   2.0000      -0.516455       -14.0535
  73   2.0000      -0.508963       -13.8496
  74   2.0000      -0.491458       -13.3733
  75   2.0000      -0.480656       -13.0793
  76   2.0000      -0.461969       -12.5708
  77   2.0000      -0.452829       -12.3221
  78   2.0000      -0.441438       -12.0121
  79   2.0000      -0.421196       -11.4613
  80   2.0000      -0.416895       -11.3443
  81   2.0000      -0.403275       -10.9737
  82   0.0000      -0.200907        -5.4670
  83   0.0000      -0.166623        -4.5341
  84   0.0000      -0.141818        -3.8591
  85   0.0000      -0.098565        -2.6821
  86   0.0000      -0.076406        -2.0791

MULLIKEN ATOMIC CHARGES
-----------------------
   0 Ir:    0.624469
   1 C :   -0.207557
   2 C :   -0.297749
   3 C :   -0.229139
   4 C :   -0.243888
   5 C :   -0.167280
   6 N :   -0.430937
   7 C :   -0.116004
   8 C :   -0.695456
   9 H :    0.272877
  10 H :    0.226703
  11 H :    0.260417
  12 C :   -0.639886
  13 H :    0.279760
  14 H :    0.265198
  15 H :    0.231067
  16 H :    0.232329
  17 C :    0.066539
  18 C :   -0.227193
  19 H :    0.291311
  20 C :   -0.384552
  21 C :   -0.152866
  22 S :    0.287867
  23 C :   -0.425843
  24 H :    0.499646
  25 H :    0.264298
  26 H :    0.295103
  27 H :    0.293724
  28 H :    0.295161
  29 H :    0.307469
  30 O :   -0.489453
  31 O :   -0.542297
  32 C :    0.617056
  33 C :   -0.746415
  34 H :    0.269894
  35 H :    0.266654
  36 H :    0.253326
  37 H :    0.297990
  38 H :    0.297655
Sum of atomic charges:    1.0000000

LOEWDIN ATOMIC CHARGES
----------------------
   0 Ir:   -0.203267
   1 C :   -0.039342
   2 C :   -0.052827
   3 C :   -0.043904
   4 C :   -0.052602
   5 C :   -0.027875
   6 N :   -0.012254
   7 C :   -0.068035
   8 C :   -0.364935
   9 H :    0.157497
  10 H :    0.134202
  11 H :    0.146791
  12 C :   -0.343635
  13 H :    0.155773
  14 H :    0.153216
  15 H :    0.137391
  16 H :    0.134128
  17 C :    0.037622
  18 C :   -0.197919
  19 H :    0.162440
  20 C :   -0.187186
  21 C :   -0.150023
  22 S :    0.450306
  23 C :   -0.261797
  24 H :    0.286981
  25 H :    0.160633
  26 H :    0.166728
  27 H :    0.186582
  28 H :    0.187042
  29 H :    0.194181
  30 O :   -0.277943
  31 O :   -0.207089
  32 C :    0.158270
  33 C :   -0.376150
  34 H :    0.159939
  35 H :    0.167363
  36 H :    0.153328
  37 H :    0.189056
  38 H :    0.187314

  Mayer bond orders larger than 0.100000
B(  0-Ir,  1-C ) :   0.4235 B(  0-Ir,  2-C ) :   0.5633 B(  0-Ir,  3-C ) :   0.4636
B(  0-Ir,  4-C ) :   0.4561 B(  0-Ir,  5-C ) :   0.4043 B(  0-Ir,  6-N ) :   0.4682
B(  0-Ir, 20-C ) :   0.2034 B(  0-Ir, 31-O ) :   0.5865 B(  1-C ,  2-C ) :   1.1104
B(  1-C ,  4-C ) :   1.2450 B(  1-C , 27-H ) :   0.9024 B(  2-C ,  5-C ) :   1.1263
B(  2-C , 28-H ) :   0.9057 B(  3-C ,  4-C ) :   1.1032 B(  3-C ,  5-C ) :   1.2369
B(  3-C , 37-H ) :   0.9017 B(  4-C , 38-H ) :   0.8970 B(  5-C , 29-H ) :   0.8975
B(  6-N ,  7-C ) :   0.8908 B(  6-N , 17-C ) :   1.6944 B(  7-C ,  8-C ) :   0.9929
B(  7-C , 12-C ) :   0.9697 B(  7-C , 13-H ) :   0.8726 B(  8-C ,  9-H ) :   0.9032
B(  8-C , 10-H ) :   0.9122 B(  8-C , 11-H ) :   0.9081 B( 12-C , 14-H ) :   0.9062
B( 12-C , 15-H ) :   0.9152 B( 12-C , 16-H ) :   0.9108 B( 17-C , 18-C ) :   1.0528
B( 17-C , 19-H ) :   0.8737 B( 18-C , 20-C ) :   1.3141 B( 18-C , 22-S ) :   1.2032
B( 20-C , 21-C ) :   1.2722 B( 20-C , 24-H ) :   0.4900 B( 21-C , 23-C ) :   1.5436
B( 21-C , 25-H ) :   0.9048 B( 22-S , 23-C ) :   1.2040 B( 23-C , 26-H ) :   0.8932
B( 24-H , 30-O ) :   0.2218 B( 30-O , 32-C ) :   1.6891 B( 31-O , 32-C ) :   1.2746
B( 32-C , 33-C ) :   0.9478 B( 33-C , 34-H ) :   0.9049 B( 33-C , 35-H ) :   0.8983
B( 33-C , 36-H ) :   0.9093

Dispersion correction           -0.030800278
FINAL SINGLE POINT ENERGY     -1288.392818695801

DIPOLE MOMENT
-------------
                                X             Y             Z
Electronic contribution:     32.66809     -69.11412      77.48118
Nuclear contribution   :    -33.30771      67.87416     -77.58567
                        -----------------------------------------
Total Dipole Moment    :     -0.63963      -1.23996      -0.10449
                        -----------------------------------------
Magnitude (a.u.)       :      1.39912
Magnitude (Debye)      :      3.55628

Rotational constants in cm-1:     0.010662     0.008988     0.008205
Rotational constants in MHz :   319.628652   269.456368   245.988071

                             ****ORCA TERMINATED NORMALLY****
TOTAL RUN TIME: 0 days 1 hours 9 minutes 45 seconds 291 msec
