                         Program Version 5.0.3 -  RELEASE  -
|  1> ! Opt PBEh-3c
|  2> %geom Constraints
|  3> { B 0 20 2.257142857142857 C }
|  4> { B 24 30 1.4 C }
|  5>     end
|  6> end
|  7> %output
|  8> xyzfile=True
|  9> end
| 10> %scf
| 11> maxiter 250
| 12> end
| 13> %output
| 14> Print[P_Hirshfeld] = 1
| 15> end
| 16> % maxcore
| 17> 4000
| 18> *xyz 1 1
| 19> Ir   0.61055935  -0.71989704   0.45006595
| 20> C    0.07129007  -2.81615955   0.36758200
| 21> C    0.04769626  -2.35064158   1.72889588
| 22> C    2.19868267  -2.11615685   0.92287854
| 23> C    1.37769678  -2.65784596  -0.13464905
| 24> C    1.38150016  -1.95821431   2.06156355
| 25> N   -1.04479663   0.14023210  -0.52096039
| 26> C   -2.31604545   0.41536049   0.16784370
| 27> C   -3.10766598   1.55982101  -0.44657826
| 28> H   -3.93409609   1.81239917   0.21631831
| 29> H   -3.55073886   1.30080992  -1.40921835
| 30> H   -2.50103290   2.45759969  -0.56745563
| 31> C   -3.14290021  -0.86326540   0.24095916
| 32> H   -2.02790991   0.70204033   1.18027473
| 33> H   -4.05307143  -0.67991672   0.81022685
| 34> H   -3.43456329  -1.20311011  -0.75362149
| 35> H   -2.60535419  -1.66966780   0.73728441
| 36> C   -0.87593328   0.39334992  -1.76417962
| 37> C    0.45847020   0.20474728  -2.26936192
| 38> H   -1.67869821   0.76696237  -2.39269632
| 39> C    1.53878088   0.29208826  -1.39500602
| 40> C    2.74859819  -0.03713075  -2.07379018
| 41> S    0.90639032  -0.24285412  -3.84616450
| 42> C    2.55686256  -0.34009249  -3.38643207
| 43> H    1.54110968   1.24747561  -0.62165484
| 44> H    3.72664346   0.00511138  -1.61699415
| 45> H    3.30243942  -0.59382800  -4.12466791
| 46> H   -0.77327724  -3.20088116  -0.18581185
| 47> H   -0.79309700  -2.37846503   2.40566081
| 48> H    1.69297320  -1.53756400   3.00712250
| 49> O    1.46047082   2.40235315   0.19072397
| 50> O    0.54022118   0.96095769   1.61794921
| 51> C    0.98452377   2.12048645   1.29610481
| 52> C    0.92714272   3.15643771   2.38180512
| 53> H    0.91249926   4.15825603   1.96131055
| 54> H    1.82181473   3.06824538   3.00118221
| 55> H    0.06666145   3.00945878   3.03061237
| 56> H    3.25467937  -1.90027268   0.86446802
| 57> H    1.71084432  -2.90903922  -1.13085002
| 58> *
| 59>
| 60>                          ****END OF INPUT****
 Total Charge           Charge          ....    1
 Multiplicity           Mult            ....    1
 Number of Electrons    NEL             ....  164
Dispersion correction           -0.030909431
FINAL SINGLE POINT ENERGY     -1288.400532274798
Dispersion correction            ... done
Dispersion correction           -0.030840972
FINAL SINGLE POINT ENERGY     -1288.400411052997
Dispersion correction            ... done
Dispersion correction           -0.030853554
FINAL SINGLE POINT ENERGY     -1288.399941681335
Dispersion correction            ... done
FINAL SINGLE POINT ENERGY     -1288.400783730617
FINAL SINGLE POINT ENERGY     -1288.400838565220
FINAL SINGLE POINT ENERGY     -1288.400863315429
FINAL SINGLE POINT ENERGY     -1288.400897338783
FINAL SINGLE POINT ENERGY     -1288.400920681853
FINAL SINGLE POINT ENERGY     -1288.400933118440
FINAL SINGLE POINT ENERGY     -1288.400945410796
FINAL SINGLE POINT ENERGY     -1288.400957330071
FINAL SINGLE POINT ENERGY     -1288.400967847381
FINAL SINGLE POINT ENERGY     -1288.400974952755
FINAL SINGLE POINT ENERGY     -1288.400984393258
FINAL SINGLE POINT ENERGY     -1288.400990971269
Dispersion correction            ... done
Dispersion correction           -0.030713167
FINAL SINGLE POINT ENERGY     -1288.400993123560
Dispersion correction            ... done
Dispersion correction           -0.030711940
FINAL SINGLE POINT ENERGY     -1288.400993215714
Dispersion correction            ... done
                    ***********************HURRAY********************

CARTESIAN COORDINATES (ANGSTROEM)
---------------------------------
  Ir     0.614616   -0.722890    0.450485
  C      0.117249   -2.829544    0.339542
  C     -0.013622   -2.369616    1.697712
  C      2.187514   -2.089877    1.050527
  C      1.456818   -2.650758   -0.059155
  C      1.279282   -1.948328    2.124638
  N     -1.051043    0.127735   -0.509886
  C     -2.322540    0.375556    0.188828
  C     -3.104191    1.557633   -0.365996
  H     -3.931192    1.780153    0.306785
  H     -3.544931    1.354075   -1.342811
  H     -2.490255    2.455684   -0.437271
  C     -3.158538   -0.899380    0.186010
  H     -2.038466    0.606585    1.216358
  H     -4.063631   -0.749341    0.773002
  H     -3.459232   -1.171107   -0.826683
  H     -2.622063   -1.741180    0.621085
  C     -0.895116    0.405686   -1.750375
  C      0.430448    0.225914   -2.274322
  H     -1.706221    0.789946   -2.361500
  C      1.510526    0.217708   -1.395406
  C      2.713747   -0.080129   -2.100519
  S      0.870293   -0.098590   -3.882698
  C      2.516420   -0.267737   -3.434384
  H      1.573898    1.195687   -0.616020
  H      3.692690   -0.096494   -1.644011
  H      3.257585   -0.474721   -4.191367
  H     -0.674442   -3.235056   -0.273673
  H     -0.900233   -2.414286    2.312088
  H      1.510201   -1.519216    3.089468
  O      1.579125    2.356435    0.166690
  O      0.548615    0.986543    1.587107
  C      1.045269    2.119098    1.259438
  C      0.985142    3.190564    2.309233
  H      0.943059    4.176133    1.852861
  H      1.894946    3.145184    2.910742
  H      0.139683    3.050061    2.978086
  H      3.242785   -1.865533    1.075464
  H      1.865173   -2.893408   -1.029334

 Multiplicity           Mult            ....    1
 Number of Electrons    NEL             ....  164
 Basis Dimension        Dim             ....  358

ORBITAL ENERGIES
----------------

  NO   OCC          E(Eh)            E(eV)
   0   2.0000     -89.763833     -2442.5981
   1   2.0000     -19.628945      -534.1307
   2   2.0000     -19.605941      -533.5048
   3   2.0000     -14.836717      -403.7276
   4   2.0000     -10.688846      -290.8583
   5   2.0000     -10.657767      -290.0126
   6   2.0000     -10.630156      -289.2612
   7   2.0000     -10.628824      -289.2250
   8   2.0000     -10.628283      -289.2103
   9   2.0000     -10.626925      -289.1733
  10   2.0000     -10.622751      -289.0597
  11   2.0000     -10.619635      -288.9749
  12   2.0000     -10.613853      -288.8176
  13   2.0000     -10.610042      -288.7139
  14   2.0000     -10.587337      -288.0961
  15   2.0000     -10.586460      -288.0722
  16   2.0000     -10.554969      -287.2153
  17   2.0000     -10.550902      -287.1047
  18   2.0000     -10.538963      -286.7798
  19   2.0000      -8.403267      -228.6645
  20   2.0000      -6.293173      -171.2459
  21   2.0000      -6.289587      -171.1484
  22   2.0000      -6.288216      -171.1111
  23   2.0000      -4.024419      -109.5100
  24   2.0000      -2.342488       -63.7424
  25   2.0000      -2.309625       -62.8481
  26   2.0000      -2.307627       -62.7937
  27   2.0000      -1.315745       -35.8032
  28   2.0000      -1.217721       -33.1359
  29   2.0000      -1.208855       -32.8946
  30   2.0000      -1.166178       -31.7333
  31   2.0000      -1.127410       -30.6784
  32   2.0000      -1.025042       -27.8928
  33   2.0000      -0.979532       -26.6544
  34   2.0000      -0.971865       -26.4458
  35   2.0000      -0.967556       -26.3285
  36   2.0000      -0.959571       -26.1113
  37   2.0000      -0.933501       -25.4019
  38   2.0000      -0.901074       -24.5195
  39   2.0000      -0.872977       -23.7549
  40   2.0000      -0.798419       -21.7261
  41   2.0000      -0.782457       -21.2917
  42   2.0000      -0.781681       -21.2706
  43   2.0000      -0.780812       -21.2470
  44   2.0000      -0.766536       -20.8585
  45   2.0000      -0.757847       -20.6221
  46   2.0000      -0.742759       -20.2115
  47   2.0000      -0.722815       -19.6688
  48   2.0000      -0.691042       -18.8042
  49   2.0000      -0.680093       -18.5063
  50   2.0000      -0.663539       -18.0558
  51   2.0000      -0.653167       -17.7736
  52   2.0000      -0.647346       -17.6152
  53   2.0000      -0.636809       -17.3285
  54   2.0000      -0.634805       -17.2739
  55   2.0000      -0.631302       -17.1786
  56   2.0000      -0.622340       -16.9347
  57   2.0000      -0.611010       -16.6264
  58   2.0000      -0.602063       -16.3830
  59   2.0000      -0.601429       -16.3657
  60   2.0000      -0.598802       -16.2942
  61   2.0000      -0.590997       -16.0818
  62   2.0000      -0.579069       -15.7573
  63   2.0000      -0.569247       -15.4900
  64   2.0000      -0.563129       -15.3235
  65   2.0000      -0.561355       -15.2753
  66   2.0000      -0.552239       -15.0272
  67   2.0000      -0.547785       -14.9060
  68   2.0000      -0.541041       -14.7225
  69   2.0000      -0.535719       -14.5776
  70   2.0000      -0.528359       -14.3774
  71   2.0000      -0.518600       -14.1118
  72   2.0000      -0.514198       -13.9920
  73   2.0000      -0.500959       -13.6318
  74   2.0000      -0.491894       -13.3851
  75   2.0000      -0.480342       -13.0708
  76   2.0000      -0.475832       -12.9481
  77   2.0000      -0.446261       -12.1434
  78   2.0000      -0.445181       -12.1140
  79   2.0000      -0.420448       -11.4410
  80   2.0000      -0.417389       -11.3577
  81   2.0000      -0.398767       -10.8510
  82   0.0000      -0.204077        -5.5532
  83   0.0000      -0.146908        -3.9976
  84   0.0000      -0.141690        -3.8556
  85   0.0000      -0.089871        -2.4455
  86   0.0000      -0.074173        -2.0184

MULLIKEN ATOMIC CHARGES
-----------------------
   0 Ir:    0.606796
   1 C :   -0.226113
   2 C :   -0.274435
   3 C :   -0.256086
   4 C :   -0.232662
   5 C :   -0.159270
   6 N :   -0.431547
   7 C :   -0.127627
   8 C :   -0.682979
   9 H :    0.269668
  10 H :    0.224211
  11 H :    0.257201
  12 C :   -0.634408
  13 H :    0.281603
  14 H :    0.261054
  15 H :    0.231574
  16 H :    0.232013
  17 C :    0.070847
  18 C :   -0.146020
  19 H :    0.286932
  20 C :   -0.515691
  21 C :   -0.115074
  22 S :    0.330408
  23 C :   -0.430059
  24 H :    0.483433
  25 H :    0.266279
  26 H :    0.297988
  27 H :    0.287574
  28 H :    0.286296
  29 H :    0.302539
  30 O :   -0.479611
  31 O :   -0.525275
  32 C :    0.625157
  33 C :   -0.744334
  34 H :    0.271148
  35 H :    0.270784
  36 H :    0.256852
  37 H :    0.286874
  38 H :    0.293958
Sum of atomic charges:    1.0000000

LOEWDIN ATOMIC CHARGES
----------------------
   0 Ir:   -0.245365
   1 C :   -0.050815
   2 C :   -0.083782
   3 C :   -0.079932
   4 C :   -0.045452
   5 C :   -0.015657
   6 N :   -0.004612
   7 C :   -0.069766
   8 C :   -0.362526
   9 H :    0.156434
  10 H :    0.132774
  11 H :    0.145067
  12 C :   -0.343713
  13 H :    0.155865
  14 H :    0.151722
  15 H :    0.137423
  16 H :    0.132878
  17 C :    0.031553
  18 C :   -0.183692
  19 H :    0.160965
  20 C :   -0.212839
  21 C :   -0.127910
  22 S :    0.489282
  23 C :   -0.260696
  24 H :    0.327703
  25 H :    0.162376
  26 H :    0.168820
  27 H :    0.183241
  28 H :    0.182229
  29 H :    0.191093
  30 O :   -0.268554
  31 O :   -0.195487
  32 C :    0.159307
  33 C :   -0.373503
  34 H :    0.161845
  35 H :    0.169786
  36 H :    0.154486
  37 H :    0.184019
  38 H :    0.185433

  Mayer bond orders larger than 0.100000
B(  0-Ir,  1-C ) :   0.4248 B(  0-Ir,  2-C ) :   0.4712 B(  0-Ir,  3-C ) :   0.4638
B(  0-Ir,  4-C ) :   0.4388 B(  0-Ir,  5-C ) :   0.3941 B(  0-Ir,  6-N ) :   0.4639
B(  0-Ir, 20-C ) :   0.3726 B(  0-Ir, 31-O ) :   0.5495 B(  1-C ,  2-C ) :   1.1248
B(  1-C ,  4-C ) :   1.2388 B(  1-C , 27-H ) :   0.9061 B(  2-C ,  5-C ) :   1.1670
B(  2-C , 28-H ) :   0.9096 B(  3-C ,  4-C ) :   1.1194 B(  3-C ,  5-C ) :   1.2061
B(  3-C , 37-H ) :   0.9100 B(  4-C , 38-H ) :   0.8998 B(  5-C , 29-H ) :   0.8992
B(  6-N ,  7-C ) :   0.8933 B(  6-N , 17-C ) :   1.6632 B(  7-C ,  8-C ) :   0.9906
B(  7-C , 12-C ) :   0.9671 B(  7-C , 13-H ) :   0.8752 B(  8-C ,  9-H ) :   0.9045
B(  8-C , 10-H ) :   0.9132 B(  8-C , 11-H ) :   0.9106 B( 12-C , 14-H ) :   0.9073
B( 12-C , 15-H ) :   0.9155 B( 12-C , 16-H ) :   0.9124 B( 17-C , 18-C ) :   1.0927
B( 17-C , 19-H ) :   0.8760 B( 18-C , 20-C ) :   1.2548 B( 18-C , 22-S ) :   1.2420
B( 20-C , 21-C ) :   1.2715 B( 20-C , 24-H ) :   0.4052 B( 21-C , 23-C ) :   1.5475
B( 21-C , 25-H ) :   0.9037 B( 22-S , 23-C ) :   1.2108 B( 23-C , 26-H ) :   0.8913
B( 24-H , 30-O ) :   0.2936 B( 30-O , 32-C ) :   1.6286 B( 31-O , 32-C ) :   1.3265
B( 32-C , 33-C ) :   0.9458 B( 33-C , 34-H ) :   0.9029 B( 33-C , 35-H ) :   0.8960
B( 33-C , 36-H ) :   0.9087

Dispersion correction           -0.030713414
FINAL SINGLE POINT ENERGY     -1288.400992744042

DIPOLE MOMENT
-------------
                                X             Y             Z
Electronic contribution:     37.79206     -70.49504      73.68207
Nuclear contribution   :    -38.42673      69.64348     -73.98196
                        -----------------------------------------
Total Dipole Moment    :     -0.63467      -0.85156      -0.29990
                        -----------------------------------------
Magnitude (a.u.)       :      1.10359
Magnitude (Debye)      :      2.80509

Rotational constants in cm-1:     0.010539     0.008957     0.008189
Rotational constants in MHz :   315.938176   268.519601   245.500336

                             ****ORCA TERMINATED NORMALLY****
TOTAL RUN TIME: 0 days 2 hours 12 minutes 52 seconds 33 msec
