                         Program Version 5.0.3 -  RELEASE  -
|  1> ! Opt PBEh-3c
|  2> %geom Constraints
|  3> { B 0 20 2.6 C }
|  4> { B 24 30 1.3857142857142857 C }
|  5>     end
|  6> end
|  7> %output
|  8> xyzfile=True
|  9> end
| 10> %scf
| 11> maxiter 250
| 12> end
| 13> %output
| 14> Print[P_Hirshfeld] = 1
| 15> end
| 16> % maxcore
| 17> 4000
| 18> *xyz 1 1
| 19> Ir   0.56791649  -0.73738145   0.49398399
| 20> C    0.01269384  -2.81402739   0.35404947
| 21> C    0.09836814  -2.37617159   1.72716731
| 22> C    2.18102021  -2.15230092   0.77529413
| 23> C    1.27584050  -2.64579357  -0.23884205
| 24> C    1.46864718  -2.02714843   1.97960503
| 25> N   -1.04089605   0.16720057  -0.50819311
| 26> C   -2.31816253   0.50354589   0.14129383
| 27> C   -3.13259685   1.53945756  -0.61648876
| 28> H   -3.96868103   1.85323763   0.00691099
| 29> H   -3.56335451   1.14955849  -1.54015624
| 30> H   -2.54962940   2.43142990  -0.84818138
| 31> C   -3.11899383  -0.76911248   0.38730593
| 32> H   -2.03392165   0.92768007   1.10596378
| 33> H   -4.03860635  -0.52481008   0.91681013
| 34> H   -3.39415043  -1.25204604  -0.55132296
| 35> H   -2.57494794  -1.48522728   1.00166208
| 36> C   -0.82430254   0.36990773  -1.75005842
| 37> C    0.52882775   0.15418923  -2.21762329
| 38> H   -1.60160087   0.72443945  -2.42131239
| 39> C    1.63938759   0.55927714  -1.48859671
| 40> C    2.83656926   0.15047680  -2.14240745
| 41> S    0.93941501  -0.64539216  -3.67418014
| 42> C    2.61193479  -0.49805383  -3.31662611
| 43> H    1.54601881   1.41936496  -0.66742403
| 44> H    3.82740782   0.37862052  -1.77717569
| 45> H    3.34272498  -0.88236997  -4.01217492
| 46> H   -0.87915249  -3.16813972  -0.14270532
| 47> H   -0.68981374  -2.41542889   2.46491686
| 48> H    1.85920252  -1.64810806   2.91305518
| 49> O    1.31252992   2.43359132   0.26896681
| 50> O    0.53949307   0.89893012   1.69286600
| 51> C    0.91368269   2.09579132   1.38135579
| 52> C    0.86171922   3.07997521   2.51547698
| 53> H    0.81648395   4.09802712   2.13839766
| 54> H    1.77146292   2.98482659   3.11158133
| 55> H    0.02047559   2.88926069   3.17852484
| 56> H    3.22468419  -1.91690837   0.62735916
| 57> H    1.53167380  -2.85117805  -1.26833820
| 58> *
| 59>
| 60>                          ****END OF INPUT****
 Total Charge           Charge          ....    1
 Multiplicity           Mult            ....    1
 Number of Electrons    NEL             ....  164
Dispersion correction           -0.030856465
FINAL SINGLE POINT ENERGY     -1288.393407858297
Dispersion correction            ... done
Dispersion correction           -0.030836301
FINAL SINGLE POINT ENERGY     -1288.393394225504
Dispersion correction            ... done
Dispersion correction           -0.030768960
FINAL SINGLE POINT ENERGY     -1288.393238185418
Dispersion correction            ... done
FINAL SINGLE POINT ENERGY     -1288.393299111630
FINAL SINGLE POINT ENERGY     -1288.393305642787
Dispersion correction            ... done
Dispersion correction           -0.030821365
FINAL SINGLE POINT ENERGY     -1288.393430549225
Dispersion correction            ... done
Dispersion correction           -0.030831439
FINAL SINGLE POINT ENERGY     -1288.393431758042
Dispersion correction            ... done
                    ***********************HURRAY********************

CARTESIAN COORDINATES (ANGSTROEM)
---------------------------------
  Ir     0.566553   -0.738766    0.498369
  C      0.011046   -2.814890    0.357867
  C      0.094336   -2.377633    1.731146
  C      2.178891   -2.153941    0.782995
  C      1.275315   -2.646681   -0.232914
  C      1.464205   -2.028746    1.985969
  N     -1.040673    0.164333   -0.507131
  C     -2.319029    0.498781    0.141477
  C     -3.131630    1.538236   -0.613567
  H     -3.967900    1.850915    0.010150
  H     -3.562101    1.152148   -1.538954
  H     -2.547341    2.430232   -0.841785
  C     -3.121318   -0.774147    0.381331
  H     -2.036436    0.919246    1.108252
  H     -4.041986   -0.531110    0.909596
  H     -3.394614   -1.253671   -0.559585
  H     -2.579132   -1.492757    0.994398
  C     -0.824679    0.367372   -1.749337
  C      0.527940    0.156469   -2.218906
  H     -1.603729    0.719777   -2.419716
  C      1.637982    0.555436   -1.485838
  C      2.835121    0.152313   -2.142980
  S      0.938781   -0.628518   -3.683497
  C      2.610911   -0.485261   -3.323489
  H      1.545014    1.419654   -0.658539
  H      3.826046    0.376578   -1.775520
  H      3.342031   -0.863090   -4.022253
  H     -0.879960   -3.168595   -0.140686
  H     -0.695193   -2.417034    2.467427
  H      1.853216   -1.650150    2.920240
  O      1.320752    2.427561    0.265600
  O      0.538926    0.900977    1.693148
  C      0.918383    2.094414    1.379160
  C      0.869507    3.083660    2.508674
  H      0.824868    4.100171    2.127382
  H      1.780347    2.990005    3.103366
  H      0.029234    2.896522    3.173906
  H      3.222912   -1.918908    0.637060
  H      1.532771   -2.851707   -1.262075

 Multiplicity           Mult            ....    1
 Number of Electrons    NEL             ....  164
 Basis Dimension        Dim             ....  358

ORBITAL ENERGIES
----------------

  NO   OCC          E(Eh)            E(eV)
   0   2.0000     -89.756939     -2442.4105
   1   2.0000     -19.625488      -534.0367
   2   2.0000     -19.588228      -533.0228
   3   2.0000     -14.840374      -403.8271
   4   2.0000     -10.682686      -290.6907
   5   2.0000     -10.661417      -290.1119
   6   2.0000     -10.639477      -289.5149
   7   2.0000     -10.637881      -289.4715
   8   2.0000     -10.635743      -289.4133
   9   2.0000     -10.634860      -289.3893
  10   2.0000     -10.633504      -289.3523
  11   2.0000     -10.627332      -289.1844
  12   2.0000     -10.616693      -288.8949
  13   2.0000     -10.606722      -288.6236
  14   2.0000     -10.579029      -287.8700
  15   2.0000     -10.576879      -287.8115
  16   2.0000     -10.557563      -287.2859
  17   2.0000     -10.552326      -287.1434
  18   2.0000     -10.533424      -286.6290
  19   2.0000      -8.396253      -228.4737
  20   2.0000      -6.286364      -171.0607
  21   2.0000      -6.282739      -170.9620
  22   2.0000      -6.280920      -170.9125
  23   2.0000      -4.032437      -109.7282
  24   2.0000      -2.352062       -64.0029
  25   2.0000      -2.317419       -63.0602
  26   2.0000      -2.315670       -63.0126
  27   2.0000      -1.306991       -35.5650
  28   2.0000      -1.212971       -33.0066
  29   2.0000      -1.210197       -32.9311
  30   2.0000      -1.176463       -32.0132
  31   2.0000      -1.121647       -30.5216
  32   2.0000      -1.026034       -27.9198
  33   2.0000      -0.991408       -26.9776
  34   2.0000      -0.981364       -26.7043
  35   2.0000      -0.961861       -26.1736
  36   2.0000      -0.955603       -26.0033
  37   2.0000      -0.927898       -25.2494
  38   2.0000      -0.903842       -24.5948
  39   2.0000      -0.871938       -23.7266
  40   2.0000      -0.796295       -21.6683
  41   2.0000      -0.792114       -21.5545
  42   2.0000      -0.790286       -21.5048
  43   2.0000      -0.779542       -21.2124
  44   2.0000      -0.773851       -21.0576
  45   2.0000      -0.757790       -20.6205
  46   2.0000      -0.744085       -20.2476
  47   2.0000      -0.722220       -19.6526
  48   2.0000      -0.694883       -18.9087
  49   2.0000      -0.673334       -18.3224
  50   2.0000      -0.664959       -18.0945
  51   2.0000      -0.652434       -17.7536
  52   2.0000      -0.649974       -17.6867
  53   2.0000      -0.641680       -17.4610
  54   2.0000      -0.638635       -17.3781
  55   2.0000      -0.631101       -17.1731
  56   2.0000      -0.624281       -16.9875
  57   2.0000      -0.612459       -16.6658
  58   2.0000      -0.611508       -16.6400
  59   2.0000      -0.608302       -16.5527
  60   2.0000      -0.595481       -16.2039
  61   2.0000      -0.586341       -15.9552
  62   2.0000      -0.574560       -15.6346
  63   2.0000      -0.568524       -15.4703
  64   2.0000      -0.562542       -15.3075
  65   2.0000      -0.554814       -15.0973
  66   2.0000      -0.552711       -15.0400
  67   2.0000      -0.548494       -14.9253
  68   2.0000      -0.539627       -14.6840
  69   2.0000      -0.534011       -14.5312
  70   2.0000      -0.527640       -14.3578
  71   2.0000      -0.522046       -14.2056
  72   2.0000      -0.516460       -14.0536
  73   2.0000      -0.508895       -13.8477
  74   2.0000      -0.490867       -13.3572
  75   2.0000      -0.480761       -13.0822
  76   2.0000      -0.462226       -12.5778
  77   2.0000      -0.452610       -12.3161
  78   2.0000      -0.441061       -12.0019
  79   2.0000      -0.421729       -11.4758
  80   2.0000      -0.417031       -11.3480
  81   2.0000      -0.403672       -10.9845
  82   0.0000      -0.200992        -5.4693
  83   0.0000      -0.166833        -4.5398
  84   0.0000      -0.141864        -3.8603
  85   0.0000      -0.099680        -2.7124
  86   0.0000      -0.076631        -2.0852

MULLIKEN ATOMIC CHARGES
-----------------------
   0 Ir:    0.624844
   1 C :   -0.207451
   2 C :   -0.297891
   3 C :   -0.229163
   4 C :   -0.244080
   5 C :   -0.166817
   6 N :   -0.429505
   7 C :   -0.115775
   8 C :   -0.695806
   9 H :    0.273084
  10 H :    0.226666
  11 H :    0.260599
  12 C :   -0.640108
  13 H :    0.280047
  14 H :    0.265355
  15 H :    0.231047
  16 H :    0.232576
  17 C :    0.066413
  18 C :   -0.229382
  19 H :    0.291777
  20 C :   -0.383116
  21 C :   -0.151589
  22 S :    0.287578
  23 C :   -0.426364
  24 H :    0.498116
  25 H :    0.264951
  26 H :    0.295387
  27 H :    0.293695
  28 H :    0.295251
  29 H :    0.307698
  30 O :   -0.487711
  31 O :   -0.543502
  32 C :    0.615691
  33 C :   -0.746452
  34 H :    0.269553
  35 H :    0.266205
  36 H :    0.252762
  37 H :    0.297984
  38 H :    0.297433
Sum of atomic charges:    1.0000000

LOEWDIN ATOMIC CHARGES
----------------------
   0 Ir:   -0.203031
   1 C :   -0.039325
   2 C :   -0.052283
   3 C :   -0.043785
   4 C :   -0.052991
   5 C :   -0.027720
   6 N :   -0.011225
   7 C :   -0.068013
   8 C :   -0.364982
   9 H :    0.157600
  10 H :    0.134222
  11 H :    0.146887
  12 C :   -0.343580
  13 H :    0.155970
  14 H :    0.153287
  15 H :    0.137389
  16 H :    0.134274
  17 C :    0.037680
  18 C :   -0.196655
  19 H :    0.162678
  20 C :   -0.184660
  21 C :   -0.149482
  22 S :    0.450604
  23 C :   -0.261989
  24 H :    0.283462
  25 H :    0.160983
  26 H :    0.166845
  27 H :    0.186592
  28 H :    0.187099
  29 H :    0.194305
  30 O :   -0.278065
  31 O :   -0.208338
  32 C :    0.156822
  33 C :   -0.376479
  34 H :    0.159685
  35 H :    0.167047
  36 H :    0.153045
  37 H :    0.189047
  38 H :    0.187078

  Mayer bond orders larger than 0.100000
B(  0-Ir,  1-C ) :   0.4229 B(  0-Ir,  2-C ) :   0.5639 B(  0-Ir,  3-C ) :   0.4642
B(  0-Ir,  4-C ) :   0.4551 B(  0-Ir,  5-C ) :   0.4041 B(  0-Ir,  6-N ) :   0.4672
B(  0-Ir, 20-C ) :   0.2000 B(  0-Ir, 31-O ) :   0.5900 B(  1-C ,  2-C ) :   1.1101
B(  1-C ,  4-C ) :   1.2460 B(  1-C , 27-H ) :   0.9024 B(  2-C ,  5-C ) :   1.1264
B(  2-C , 28-H ) :   0.9057 B(  3-C ,  4-C ) :   1.1029 B(  3-C ,  5-C ) :   1.2369
B(  3-C , 37-H ) :   0.9017 B(  4-C , 38-H ) :   0.8968 B(  5-C , 29-H ) :   0.8974
B(  6-N ,  7-C ) :   0.8906 B(  6-N , 17-C ) :   1.6970 B(  7-C ,  8-C ) :   0.9929
B(  7-C , 12-C ) :   0.9697 B(  7-C , 13-H ) :   0.8722 B(  8-C ,  9-H ) :   0.9032
B(  8-C , 10-H ) :   0.9122 B(  8-C , 11-H ) :   0.9079 B( 12-C , 14-H ) :   0.9061
B( 12-C , 15-H ) :   0.9152 B( 12-C , 16-H ) :   0.9107 B( 17-C , 18-C ) :   1.0500
B( 17-C , 19-H ) :   0.8736 B( 18-C , 20-C ) :   1.3150 B( 18-C , 22-S ) :   1.2042
B( 20-C , 21-C ) :   1.2700 B( 20-C , 24-H ) :   0.4992 B( 21-C , 23-C ) :   1.5443
B( 21-C , 25-H ) :   0.9046 B( 22-S , 23-C ) :   1.2032 B( 23-C , 26-H ) :   0.8932
B( 24-H , 30-O ) :   0.2172 B( 30-O , 32-C ) :   1.6976 B( 31-O , 32-C ) :   1.2689
B( 32-C , 33-C ) :   0.9475 B( 33-C , 34-H ) :   0.9052 B( 33-C , 35-H ) :   0.8987
B( 33-C , 36-H ) :   0.9095

Dispersion correction           -0.030832202
FINAL SINGLE POINT ENERGY     -1288.393435163270

DIPOLE MOMENT
-------------
                                X             Y             Z
Electronic contribution:     32.86106     -68.84454      76.85629
Nuclear contribution   :    -33.50124      67.58252     -76.98316
                        -----------------------------------------
Total Dipole Moment    :     -0.64018      -1.26202      -0.12687
                        -----------------------------------------
Magnitude (a.u.)       :      1.42078
Magnitude (Debye)      :      3.61134

Rotational constants in cm-1:     0.010686     0.009011     0.008216
Rotational constants in MHz :   320.352361   270.137131   246.314891

                             ****ORCA TERMINATED NORMALLY****
TOTAL RUN TIME: 0 days 1 hours 9 minutes 23 seconds 969 msec
