                         Program Version 5.0.3 -  RELEASE  -
|  1> ! Opt PBEh-3c
|  2> %geom Constraints
|  3> { B 0 20 2.0428571428571427 C }
|  4> { B 24 30 1.3142857142857143 C }
|  5>     end
|  6> end
|  7> %output
|  8> xyzfile=True
|  9> end
| 10> %scf
| 11> maxiter 250
| 12> end
| 13> %output
| 14> Print[P_Hirshfeld] = 1
| 15> end
| 16> % maxcore
| 17> 4000
| 18> %pal nprocs 2
| 19> end
| 20> *xyz 1 1
| 21> Ir   0.61123082  -0.74515893   0.41449092
| 22> C    0.15931605  -2.85820339   0.34170356
| 23> C   -0.12066721  -2.41756627   1.68528894
| 24> C    2.12407858  -2.05774342   1.25655050
| 25> C    1.53999261  -2.66454313   0.09701421
| 26> C    1.08742341  -1.94170461   2.23137693
| 27> N   -1.07887720   0.10005231  -0.50629784
| 28> C   -2.35275917   0.27401235   0.20758427
| 29> C   -3.14113734   1.49930943  -0.23279853
| 30> H   -3.97450758   1.64639876   0.45231704
| 31> H   -3.57207488   1.39259029  -1.22919616
| 32> H   -2.53343091   2.40415856  -0.20870504
| 33> C   -3.18116338  -0.99934944   0.07831476
| 34> H   -2.07596321   0.40981921   1.25425932
| 35> H   -4.08558724  -0.91857518   0.68005105
| 36> H   -3.48240322  -1.16782165  -0.95638714
| 37> H   -2.63639693  -1.87837186   0.41912244
| 38> C   -0.93120503   0.48222151  -1.72241158
| 39> C    0.38315544   0.31891962  -2.26154182
| 40> H   -1.74268891   0.92653242  -2.28952137
| 41> C    1.40330143   0.00088464  -1.36490427
| 42> C    2.62372070  -0.20080190  -2.08048825
| 43> S    0.89500203   0.39880376  -3.87885765
| 44> C    2.49221871  -0.01189720  -3.42423696
| 45> H    1.64610232   1.18477130  -0.67446941
| 46> H    3.57209597  -0.42198895  -1.61230065
| 47> H    3.26323360  -0.07650853  -4.17701074
| 48> H   -0.54311016  -3.31092574  -0.34267319
| 49> H   -1.06909986  -2.47344269   2.19707536
| 50> H    1.19822955  -1.49308719   3.20843833
| 51> O    1.76748261   2.29925993   0.03847096
| 52> O    0.60575429   1.04891792   1.46787616
| 53> C    1.17658981   2.12370307   1.13233586
| 54> C    1.17069453   3.25477845   2.11558960
| 55> H    1.04457064   4.20735512   1.60592623
| 56> H    2.13643315   3.28644299   2.62305313
| 57> H    0.39535230   3.12527806   2.86502581
| 58> H    3.16733118  -1.82741381   1.40715429
| 59> H    2.05713263  -2.91991583  -0.81647899
| 60> *
| 61>
| 62>                          ****END OF INPUT****
 Total Charge           Charge          ....    1
 Multiplicity           Mult            ....    1
 Number of Electrons    NEL             ....  164
Dispersion correction           -0.030735121
FINAL SINGLE POINT ENERGY     -1288.405054195894
Dispersion correction            ... done
Dispersion correction           -0.030704251
FINAL SINGLE POINT ENERGY     -1288.405286093634
Dispersion correction            ... done
Dispersion correction           -0.030695442
FINAL SINGLE POINT ENERGY     -1288.405380103141
Dispersion correction            ... done
FINAL SINGLE POINT ENERGY     -1288.405444075456
FINAL SINGLE POINT ENERGY     -1288.405497377533
FINAL SINGLE POINT ENERGY     -1288.405528862925
FINAL SINGLE POINT ENERGY     -1288.405548357398
FINAL SINGLE POINT ENERGY     -1288.405562406235
FINAL SINGLE POINT ENERGY     -1288.405574445221
FINAL SINGLE POINT ENERGY     -1288.405584839896
FINAL SINGLE POINT ENERGY     -1288.405592924322
FINAL SINGLE POINT ENERGY     -1288.405599426144
FINAL SINGLE POINT ENERGY     -1288.405603969310
Dispersion correction            ... done
Dispersion correction           -0.030662057
FINAL SINGLE POINT ENERGY     -1288.405607506379
Dispersion correction            ... done
Dispersion correction           -0.030662132
FINAL SINGLE POINT ENERGY     -1288.405610890718
Dispersion correction            ... done
                    ***********************HURRAY********************

CARTESIAN COORDINATES (ANGSTROEM)
---------------------------------
  Ir     0.610762   -0.751006    0.399030
  C      0.186563   -2.866335    0.331467
  C     -0.144178   -2.439968    1.669682
  C      2.104591   -2.037444    1.315511
  C      1.575988   -2.658483    0.141063
  C      1.029263   -1.943882    2.257326
  N     -1.089005    0.092023   -0.502915
  C     -2.361776    0.246593    0.216752
  C     -3.144792    1.489443   -0.181421
  H     -3.978741    1.615976    0.507121
  H     -3.574531    1.419945   -1.181641
  H     -2.532955    2.389994   -0.124849
  C     -3.194631   -1.018841    0.045166
  H     -2.084400    0.346115    1.267378
  H     -4.093812   -0.960135    0.657274
  H     -3.505026   -1.145677   -0.992759
  H     -2.648425   -1.911960    0.344935
  C     -0.945064    0.496647   -1.712566
  C      0.367243    0.334599   -2.254221
  H     -1.756711    0.953548   -2.269191
  C      1.370580   -0.045825   -1.361271
  C      2.596753   -0.229304   -2.074242
  S      0.899643    0.488528   -3.860338
  C      2.483450    0.030471   -3.408707
  H      1.667473    1.209429   -0.722978
  H      3.536128   -0.492032   -1.609248
  H      3.262724   -0.009317   -4.154672
  H     -0.481562   -3.337961   -0.374042
  H     -1.111537   -2.505498    2.143514
  H      1.097824   -1.495756    3.238318
  O      1.796248    2.308129   -0.013315
  O      0.633922    1.065545    1.424977
  C      1.207665    2.133257    1.086872
  C      1.218497    3.269094    2.063819
  H      1.096004    4.220724    1.551530
  H      2.188021    3.294964    2.564439
  H      0.447472    3.148000    2.819014
  H      3.138672   -1.794770    1.505107
  H      2.131028   -2.909640   -0.751178

 Multiplicity           Mult            ....    1
 Number of Electrons    NEL             ....  164
 Basis Dimension        Dim             ....  358

ORBITAL ENERGIES
----------------

  NO   OCC          E(Eh)            E(eV)
   0   2.0000     -89.760984     -2442.5205
   1   2.0000     -19.644389      -534.5510
   2   2.0000     -19.643613      -534.5299
   3   2.0000     -14.829243      -403.5242
   4   2.0000     -10.709009      -291.4069
   5   2.0000     -10.651180      -289.8333
   6   2.0000     -10.620302      -288.9931
   7   2.0000     -10.619986      -288.9845
   8   2.0000     -10.619530      -288.9721
   9   2.0000     -10.616318      -288.8847
  10   2.0000     -10.611191      -288.7452
  11   2.0000     -10.610473      -288.7257
  12   2.0000     -10.609458      -288.6980
  13   2.0000     -10.606358      -288.6137
  14   2.0000     -10.591476      -288.2087
  15   2.0000     -10.588164      -288.1186
  16   2.0000     -10.551796      -287.1290
  17   2.0000     -10.551229      -287.1135
  18   2.0000     -10.549504      -287.0666
  19   2.0000      -8.400331      -228.5846
  20   2.0000      -6.290215      -171.1655
  21   2.0000      -6.286735      -171.0708
  22   2.0000      -6.285247      -171.0303
  23   2.0000      -4.015731      -109.2736
  24   2.0000      -2.332035       -63.4579
  25   2.0000      -2.303048       -62.6691
  26   2.0000      -2.298798       -62.5535
  27   2.0000      -1.338382       -36.4192
  28   2.0000      -1.240454       -33.7545
  29   2.0000      -1.203431       -32.7470
  30   2.0000      -1.154604       -31.4184
  31   2.0000      -1.125625       -30.6298
  32   2.0000      -1.022462       -27.8226
  33   2.0000      -0.968723       -26.3603
  34   2.0000      -0.967148       -26.3174
  35   2.0000      -0.960624       -26.1399
  36   2.0000      -0.956151       -26.0182
  37   2.0000      -0.947798       -25.7909
  38   2.0000      -0.898458       -24.4483
  39   2.0000      -0.869462       -23.6593
  40   2.0000      -0.795781       -21.6543
  41   2.0000      -0.780505       -21.2386
  42   2.0000      -0.773621       -21.0513
  43   2.0000      -0.771401       -20.9909
  44   2.0000      -0.768062       -20.9000
  45   2.0000      -0.756222       -20.5779
  46   2.0000      -0.740763       -20.1572
  47   2.0000      -0.721317       -19.6280
  48   2.0000      -0.702257       -19.1094
  49   2.0000      -0.683255       -18.5923
  50   2.0000      -0.669552       -18.2194
  51   2.0000      -0.664070       -18.0703
  52   2.0000      -0.652974       -17.7683
  53   2.0000      -0.637330       -17.3426
  54   2.0000      -0.628130       -17.0923
  55   2.0000      -0.622434       -16.9373
  56   2.0000      -0.618990       -16.8436
  57   2.0000      -0.609079       -16.5739
  58   2.0000      -0.598881       -16.2964
  59   2.0000      -0.593434       -16.1482
  60   2.0000      -0.591523       -16.0962
  61   2.0000      -0.589205       -16.0331
  62   2.0000      -0.577353       -15.7106
  63   2.0000      -0.575685       -15.6652
  64   2.0000      -0.562019       -15.2933
  65   2.0000      -0.560414       -15.2497
  66   2.0000      -0.560040       -15.2395
  67   2.0000      -0.544170       -14.8076
  68   2.0000      -0.542554       -14.7636
  69   2.0000      -0.536029       -14.5861
  70   2.0000      -0.529662       -14.4128
  71   2.0000      -0.518201       -14.1010
  72   2.0000      -0.512498       -13.9458
  73   2.0000      -0.506370       -13.7790
  74   2.0000      -0.502402       -13.6710
  75   2.0000      -0.489594       -13.3225
  76   2.0000      -0.474036       -12.8992
  77   2.0000      -0.453836       -12.3495
  78   2.0000      -0.442236       -12.0339
  79   2.0000      -0.415822       -11.3151
  80   2.0000      -0.412913       -11.2359
  81   2.0000      -0.390875       -10.6363
  82   0.0000      -0.198057        -5.3894
  83   0.0000      -0.143055        -3.8927
  84   0.0000      -0.119189        -3.2433
  85   0.0000      -0.084863        -2.3092
  86   0.0000      -0.078724        -2.1422

MULLIKEN ATOMIC CHARGES
-----------------------
   0 Ir:    0.609380
   1 C :   -0.271475
   2 C :   -0.243752
   3 C :   -0.284542
   4 C :   -0.210487
   5 C :   -0.151671
   6 N :   -0.438781
   7 C :   -0.126250
   8 C :   -0.676493
   9 H :    0.267615
  10 H :    0.224301
  11 H :    0.250937
  12 C :   -0.631762
  13 H :    0.273362
  14 H :    0.256224
  15 H :    0.233155
  16 H :    0.234467
  17 C :    0.071227
  18 C :   -0.127685
  19 H :    0.282739
  20 C :   -0.556331
  21 C :   -0.106534
  22 S :    0.341821
  23 C :   -0.420882
  24 H :    0.478985
  25 H :    0.266249
  26 H :    0.297504
  27 H :    0.282797
  28 H :    0.278227
  29 H :    0.292089
  30 O :   -0.489635
  31 O :   -0.489251
  32 C :    0.637592
  33 C :   -0.743714
  34 H :    0.275886
  35 H :    0.279205
  36 H :    0.266489
  37 H :    0.278125
  38 H :    0.290870
Sum of atomic charges:    1.0000000

LOEWDIN ATOMIC CHARGES
----------------------
   0 Ir:   -0.266781
   1 C :   -0.070014
   2 C :   -0.096836
   3 C :   -0.106264
   4 C :   -0.035788
   5 C :   -0.025571
   6 N :   -0.007723
   7 C :   -0.069132
   8 C :   -0.361271
   9 H :    0.155414
  10 H :    0.132644
  11 H :    0.142044
  12 C :   -0.344297
  13 H :    0.151641
  14 H :    0.149597
  15 H :    0.138274
  16 H :    0.133556
  17 C :    0.029139
  18 C :   -0.205079
  19 H :    0.159109
  20 C :   -0.208262
  21 C :   -0.138283
  22 S :    0.493705
  23 C :   -0.254619
  24 H :    0.382234
  25 H :    0.161553
  26 H :    0.169298
  27 H :    0.180978
  28 H :    0.176937
  29 H :    0.184471
  30 O :   -0.251727
  31 O :   -0.164010
  32 C :    0.172731
  33 C :   -0.370359
  34 H :    0.166463
  35 H :    0.174429
  36 H :    0.158693
  37 H :    0.179714
  38 H :    0.183392

  Mayer bond orders larger than 0.100000
B(  0-Ir,  1-C ) :   0.4774 B(  0-Ir,  2-C ) :   0.3522 B(  0-Ir,  3-C ) :   0.4787
B(  0-Ir,  4-C ) :   0.4143 B(  0-Ir,  5-C ) :   0.3364 B(  0-Ir,  6-N ) :   0.4662
B(  0-Ir, 20-C ) :   0.5852 B(  0-Ir, 31-O ) :   0.4878 B(  1-C ,  2-C ) :   1.1215
B(  1-C ,  4-C ) :   1.2052 B(  1-C , 27-H ) :   0.9109 B(  2-C ,  5-C ) :   1.2737
B(  2-C , 28-H ) :   0.9100 B(  3-C ,  4-C ) :   1.1618 B(  3-C ,  5-C ) :   1.1426
B(  3-C , 37-H ) :   0.9154 B(  4-C , 38-H ) :   0.9000 B(  5-C , 29-H ) :   0.9036
B(  6-N ,  7-C ) :   0.8973 B(  6-N , 17-C ) :   1.6376 B(  7-C ,  8-C ) :   0.9898
B(  7-C , 12-C ) :   0.9679 B(  7-C , 13-H ) :   0.8806 B(  8-C ,  9-H ) :   0.9054
B(  8-C , 10-H ) :   0.9133 B(  8-C , 11-H ) :   0.9137 B( 12-C , 14-H ) :   0.9083
B( 12-C , 15-H ) :   0.9151 B( 12-C , 16-H ) :   0.9122 B( 17-C , 18-C ) :   1.1270
B( 17-C , 19-H ) :   0.8771 B( 18-C , 20-C ) :   1.2283 B( 18-C , 22-S ) :   1.2207
B( 20-C , 21-C ) :   1.2656 B( 20-C , 24-H ) :   0.2555 B( 21-C , 23-C ) :   1.5240
B( 21-C , 25-H ) :   0.9025 B( 22-S , 23-C ) :   1.2319 B( 23-C , 26-H ) :   0.8919
B( 24-H , 30-O ) :   0.4182 B( 30-O , 32-C ) :   1.4879 B( 31-O , 32-C ) :   1.4410
B( 32-C , 33-C ) :   0.9456 B( 33-C , 34-H ) :   0.8979 B( 33-C , 35-H ) :   0.8905
B( 33-C , 36-H ) :   0.9067

Dispersion correction           -0.030662161
FINAL SINGLE POINT ENERGY     -1288.405613911705

DIPOLE MOMENT
-------------
                                X             Y             Z
Electronic contribution:     37.27028     -76.60483      69.05098
Nuclear contribution   :    -37.79301      76.48245     -69.16340
                        -----------------------------------------
Total Dipole Moment    :     -0.52273      -0.12238      -0.11242
                        -----------------------------------------
Magnitude (a.u.)       :      0.54851
Magnitude (Debye)      :      1.39420

Rotational constants in cm-1:     0.010602     0.008783     0.008221
Rotational constants in MHz :   317.836684   263.313764   246.469504

                             ****ORCA TERMINATED NORMALLY****
TOTAL RUN TIME: 0 days 3 hours 16 minutes 46 seconds 579 msec
