                         Program Version 5.0.3 -  RELEASE  -
|  1> ! Opt PBEh-3c
|  2> %geom Constraints
|  3> { B 0 20 2.1714285714285713 C }
|  4> { B 24 30 1.3571428571428572 C }
|  5>     end
|  6> end
|  7> %output
|  8> xyzfile=True
|  9> end
| 10> %scf
| 11> maxiter 250
| 12> end
| 13> %output
| 14> Print[P_Hirshfeld] = 1
| 15> end
| 16> % maxcore
| 17> 4000
| 18> *xyz 1 1
| 19> Ir   0.60843925  -0.72933678   0.44948612
| 20> C    0.11810029  -2.83757970   0.35550994
| 21> C   -0.06412993  -2.37165123   1.70578841
| 22> C    2.15911754  -2.08457294   1.13549747
| 23> C    1.47397790  -2.66154948   0.00819913
| 24> C    1.20574498  -1.93669616   2.17341001
| 25> N   -1.05986181   0.11991111  -0.50765075
| 26> C   -2.33775847   0.33180452   0.19082281
| 27> C   -3.12956548   1.52388411  -0.32786733
| 28> H   -3.96252565   1.71356921   0.34737001
| 29> H   -3.56232653   1.34953902  -1.31389187
| 30> H   -2.52524663   2.43052955  -0.36445785
| 31> C   -3.16211740  -0.94964338   0.13728694
| 32> H   -2.06408691   0.53176180   1.22778153
| 33> H   -4.07367359  -0.82918158   0.72126460
| 34> H   -3.45153088  -1.18831535  -0.88695598
| 35> H   -2.62202476  -1.80216548   0.54587473
| 36> C   -0.90259154   0.44708059  -1.73698741
| 37> C    0.41754195   0.28115901  -2.27034134
| 38> H   -1.71433225   0.85569521  -2.33083227
| 39> C    1.48484331   0.14160956  -1.38802025
| 40> C    2.68523472  -0.12140291  -2.11130737
| 41> S    0.86663377   0.12504995  -3.90153587
| 42> C    2.49806445  -0.15062553  -3.46060742
| 43> H    1.63302228   1.15120964  -0.59255447
| 44> H    3.65792996  -0.22437212  -1.65265836
| 45> H    3.24188383  -0.29974729  -4.22851135
| 46> H   -0.64600426  -3.25664727  -0.28289445
| 47> H   -0.97272076  -2.41369075   2.28707664
| 48> H    1.39775450  -1.49563612   3.14142039
| 49> O    1.72780510   2.29143680   0.16356362
| 50> O    0.54784192   1.01396984   1.55150793
| 51> C    1.11888406   2.10708425   1.23296114
| 52> C    1.06180305   3.21782852   2.23969158
| 53> H    0.94328795   4.17761999   1.74189145
| 54> H    2.00814186   3.25162696   2.78218246
| 55> H    0.26210575   3.06822390   2.95958490
| 56> H    3.21303527  -1.86306901   1.20254477
| 57> H    1.91867330  -2.91552052  -0.94290214
| 58> *
| 59>
| 60>                          ****END OF INPUT****
 Total Charge           Charge          ....    1
 Multiplicity           Mult            ....    1
 Number of Electrons    NEL             ....  164
Dispersion correction           -0.030734207
FINAL SINGLE POINT ENERGY     -1288.402673904823
Dispersion correction            ... done
Dispersion correction           -0.030690950
FINAL SINGLE POINT ENERGY     -1288.402922601970
Dispersion correction            ... done
Dispersion correction           -0.030670570
FINAL SINGLE POINT ENERGY     -1288.403005130652
Dispersion correction            ... done
FINAL SINGLE POINT ENERGY     -1288.403051834411
FINAL SINGLE POINT ENERGY     -1288.403081321620
FINAL SINGLE POINT ENERGY     -1288.403092391469
FINAL SINGLE POINT ENERGY     -1288.403097387933
FINAL SINGLE POINT ENERGY     -1288.403098780602
FINAL SINGLE POINT ENERGY     -1288.403100092684
FINAL SINGLE POINT ENERGY     -1288.403101733726
FINAL SINGLE POINT ENERGY     -1288.403104386731
FINAL SINGLE POINT ENERGY     -1288.403107893537
Dispersion correction            ... done
Dispersion correction           -0.030607829
FINAL SINGLE POINT ENERGY     -1288.403111477060
Dispersion correction            ... done
Dispersion correction           -0.030609668
FINAL SINGLE POINT ENERGY     -1288.403114438864
Dispersion correction            ... done
                    ***********************HURRAY********************

CARTESIAN COORDINATES (ANGSTROEM)
---------------------------------
  Ir     0.607866   -0.731358    0.438937
  C      0.133581   -2.842933    0.352369
  C     -0.087859   -2.381496    1.698538
  C      2.146546   -2.070171    1.184716
  C      1.499517   -2.659914    0.044323
  C      1.159958   -1.930253    2.196879
  N     -1.068133    0.112580   -0.508659
  C     -2.345749    0.308576    0.194253
  C     -3.138353    1.511462   -0.297594
  H     -3.972244    1.684463    0.380860
  H     -3.569440    1.359985   -1.288113
  H     -2.534485    2.419034   -0.312306
  C     -3.169116   -0.972046    0.112563
  H     -2.072662    0.486364    1.235477
  H     -4.079518   -0.867020    0.701341
  H     -3.460268   -1.186655   -0.916496
  H     -2.626664   -1.833580    0.498548
  C     -0.914623    0.459691   -1.733568
  C      0.402739    0.297728   -2.270619
  H     -1.727613    0.879354   -2.317644
  C      1.455480    0.092006   -1.382800
  C      2.661385   -0.148156   -2.105950
  S      0.870643    0.230020   -3.902230
  C      2.490992   -0.096433   -3.457056
  H      1.636422    1.143770   -0.601566
  H      3.626724   -0.293874   -1.643220
  H      3.243090   -0.213941   -4.222400
  H     -0.607161   -3.275269   -0.304359
  H     -1.012032   -2.428681    2.254079
  H      1.319982   -1.483337    3.168011
  O      1.762748    2.278613    0.131926
  O      0.559778    1.029741    1.525049
  C      1.147647    2.108850    1.204449
  C      1.111856    3.230290    2.199417
  H      0.990751    4.185649    1.693608
  H      2.066495    3.265208    2.727045
  H      0.321583    3.091729    2.931591
  H      3.197092   -1.845007    1.283924
  H      1.972416   -2.915801   -0.892587

 Multiplicity           Mult            ....    1
 Number of Electrons    NEL             ....  164
 Basis Dimension        Dim             ....  358

ORBITAL ENERGIES
----------------

  NO   OCC          E(Eh)            E(eV)
   0   2.0000     -89.761761     -2442.5417
   1   2.0000     -19.636080      -534.3249
   2   2.0000     -19.622737      -533.9618
   3   2.0000     -14.833027      -403.6272
   4   2.0000     -10.697952      -291.1061
   5   2.0000     -10.654155      -289.9143
   6   2.0000     -10.626938      -289.1737
   7   2.0000     -10.624705      -289.1129
   8   2.0000     -10.623808      -289.0885
   9   2.0000     -10.623120      -289.0698
  10   2.0000     -10.617083      -288.9055
  11   2.0000     -10.613751      -288.8149
  12   2.0000     -10.612479      -288.7802
  13   2.0000     -10.608822      -288.6807
  14   2.0000     -10.588456      -288.1265
  15   2.0000     -10.586895      -288.0841
  16   2.0000     -10.553194      -287.1670
  17   2.0000     -10.550212      -287.0859
  18   2.0000     -10.545110      -286.9470
  19   2.0000      -8.401162      -228.6072
  20   2.0000      -6.291051      -171.1882
  21   2.0000      -6.287506      -171.0917
  22   2.0000      -6.286119      -171.0540
  23   2.0000      -4.021476      -109.4299
  24   2.0000      -2.338758       -63.6408
  25   2.0000      -2.307312       -62.7851
  26   2.0000      -2.304366       -62.7050
  27   2.0000      -1.326660       -36.1003
  28   2.0000      -1.227793       -33.4100
  29   2.0000      -1.205734       -32.8097
  30   2.0000      -1.161760       -31.6131
  31   2.0000      -1.125748       -30.6332
  32   2.0000      -1.023300       -27.8454
  33   2.0000      -0.974529       -26.5183
  34   2.0000      -0.968164       -26.3451
  35   2.0000      -0.966456       -26.2986
  36   2.0000      -0.957795       -26.0629
  37   2.0000      -0.940450       -25.5909
  38   2.0000      -0.899834       -24.4857
  39   2.0000      -0.870912       -23.6987
  40   2.0000      -0.796924       -21.6854
  41   2.0000      -0.780758       -21.2455
  42   2.0000      -0.777743       -21.1635
  43   2.0000      -0.777353       -21.1528
  44   2.0000      -0.763125       -20.7657
  45   2.0000      -0.761750       -20.7283
  46   2.0000      -0.741567       -20.1791
  47   2.0000      -0.721787       -19.6408
  48   2.0000      -0.692980       -18.8569
  49   2.0000      -0.683713       -18.6048
  50   2.0000      -0.662780       -18.0352
  51   2.0000      -0.660690       -17.9783
  52   2.0000      -0.648529       -17.6474
  53   2.0000      -0.638236       -17.3673
  54   2.0000      -0.631689       -17.1891
  55   2.0000      -0.628948       -17.1145
  56   2.0000      -0.621469       -16.9110
  57   2.0000      -0.609329       -16.5807
  58   2.0000      -0.598375       -16.2826
  59   2.0000      -0.598137       -16.2761
  60   2.0000      -0.597348       -16.2547
  61   2.0000      -0.590613       -16.0714
  62   2.0000      -0.578070       -15.7301
  63   2.0000      -0.568688       -15.4748
  64   2.0000      -0.564723       -15.3669
  65   2.0000      -0.561542       -15.2803
  66   2.0000      -0.555397       -15.1131
  67   2.0000      -0.546240       -14.8639
  68   2.0000      -0.541974       -14.7479
  69   2.0000      -0.534955       -14.5569
  70   2.0000      -0.528940       -14.3932
  71   2.0000      -0.517832       -14.0909
  72   2.0000      -0.512889       -13.9564
  73   2.0000      -0.501285       -13.6407
  74   2.0000      -0.495954       -13.4956
  75   2.0000      -0.483480       -13.1562
  76   2.0000      -0.478291       -13.0149
  77   2.0000      -0.450019       -12.2456
  78   2.0000      -0.444696       -12.1008
  79   2.0000      -0.417217       -11.3531
  80   2.0000      -0.416579       -11.3357
  81   2.0000      -0.395450       -10.7608
  82   0.0000      -0.201830        -5.4921
  83   0.0000      -0.142896        -3.8884
  84   0.0000      -0.135395        -3.6843
  85   0.0000      -0.085664        -2.3310
  86   0.0000      -0.073028        -1.9872

MULLIKEN ATOMIC CHARGES
-----------------------
   0 Ir:    0.603442
   1 C :   -0.240563
   2 C :   -0.264442
   3 C :   -0.267372
   4 C :   -0.224733
   5 C :   -0.154677
   6 N :   -0.436007
   7 C :   -0.126001
   8 C :   -0.681371
   9 H :    0.269015
  10 H :    0.224385
  11 H :    0.253926
  12 C :   -0.633631
  13 H :    0.278811
  14 H :    0.258845
  15 H :    0.232494
  16 H :    0.232685
  17 C :    0.069153
  18 C :   -0.130146
  19 H :    0.284574
  20 C :   -0.537876
  21 C :   -0.109863
  22 S :    0.338141
  23 C :   -0.426676
  24 H :    0.474577
  25 H :    0.265758
  26 H :    0.297391
  27 H :    0.285912
  28 H :    0.282751
  29 H :    0.298597
  30 O :   -0.482997
  31 O :   -0.509550
  32 C :    0.632461
  33 C :   -0.744311
  34 H :    0.273326
  35 H :    0.275522
  36 H :    0.261635
  37 H :    0.283334
  38 H :    0.293480
Sum of atomic charges:    1.0000000

LOEWDIN ATOMIC CHARGES
----------------------
   0 Ir:   -0.256691
   1 C :   -0.057340
   2 C :   -0.093855
   3 C :   -0.093372
   4 C :   -0.040007
   5 C :   -0.015960
   6 N :   -0.006523
   7 C :   -0.069182
   8 C :   -0.362126
   9 H :    0.156024
  10 H :    0.132722
  11 H :    0.143442
  12 C :   -0.343955
  13 H :    0.154393
  14 H :    0.150695
  15 H :    0.137898
  16 H :    0.132783
  17 C :    0.029792
  18 C :   -0.192409
  19 H :    0.159849
  20 C :   -0.217673
  21 C :   -0.129896
  22 S :    0.492564
  23 C :   -0.257928
  24 H :    0.354595
  25 H :    0.161617
  26 H :    0.168901
  27 H :    0.182446
  28 H :    0.180083
  29 H :    0.188651
  30 O :   -0.261884
  31 O :   -0.181961
  32 C :    0.165703
  33 C :   -0.371692
  34 H :    0.165112
  35 H :    0.172177
  36 H :    0.155724
  37 H :    0.182325
  38 H :    0.184959

  Mayer bond orders larger than 0.100000
B(  0-Ir,  1-C ) :   0.4402 B(  0-Ir,  2-C ) :   0.4259 B(  0-Ir,  3-C ) :   0.4668
B(  0-Ir,  4-C ) :   0.4302 B(  0-Ir,  5-C ) :   0.3799 B(  0-Ir,  6-N ) :   0.4656
B(  0-Ir, 20-C ) :   0.4546 B(  0-Ir, 31-O ) :   0.5226 B(  1-C ,  2-C ) :   1.1265
B(  1-C ,  4-C ) :   1.2265 B(  1-C , 27-H ) :   0.9078 B(  2-C ,  5-C ) :   1.2004
B(  2-C , 28-H ) :   0.9102 B(  3-C ,  4-C ) :   1.1350 B(  3-C ,  5-C ) :   1.1816
B(  3-C , 37-H ) :   0.9123 B(  4-C , 38-H ) :   0.8997 B(  5-C , 29-H ) :   0.9008
B(  6-N ,  7-C ) :   0.8955 B(  6-N , 17-C ) :   1.6483 B(  7-C ,  8-C ) :   0.9904
B(  7-C , 12-C ) :   0.9669 B(  7-C , 13-H ) :   0.8773 B(  8-C ,  9-H ) :   0.9048
B(  8-C , 10-H ) :   0.9131 B(  8-C , 11-H ) :   0.9121 B( 12-C , 14-H ) :   0.9078
B( 12-C , 15-H ) :   0.9153 B( 12-C , 16-H ) :   0.9123 B( 17-C , 18-C ) :   1.1120
B( 17-C , 19-H ) :   0.8764 B( 18-C , 20-C ) :   1.2404 B( 18-C , 22-S ) :   1.2344
B( 20-C , 21-C ) :   1.2776 B( 20-C , 24-H ) :   0.3447 B( 21-C , 23-C ) :   1.5401
B( 21-C , 25-H ) :   0.9031 B( 22-S , 23-C ) :   1.2200 B( 23-C , 26-H ) :   0.8915
B( 24-H , 30-O ) :   0.3417 B( 30-O , 32-C ) :   1.5644 B( 31-O , 32-C ) :   1.3779
B( 32-C , 33-C ) :   0.9454 B( 33-C , 34-H ) :   0.8997 B( 33-C , 35-H ) :   0.8933
B( 33-C , 36-H ) :   0.9081

Dispersion correction           -0.030612374
FINAL SINGLE POINT ENERGY     -1288.403116833873

DIPOLE MOMENT
-------------
                                X             Y             Z
Electronic contribution:     36.99147     -73.25589      72.76806
Nuclear contribution   :    -37.59619      72.74137     -72.97796
                        -----------------------------------------
Total Dipole Moment    :     -0.60472      -0.51452      -0.20990
                        -----------------------------------------
Magnitude (a.u.)       :      0.82126
Magnitude (Debye)      :      2.08748

Rotational constants in cm-1:     0.010540     0.008800     0.008197
Rotational constants in MHz :   315.992998   263.825332   245.753928

                             ****ORCA TERMINATED NORMALLY****
TOTAL RUN TIME: 0 days 1 hours 49 minutes 39 seconds 229 msec
