                         Program Version 5.0.3 -  RELEASE  -
|  1> ! Opt PBEh-3c
|  2> %geom Constraints
|  3> { B 0 20 2.4714285714285715 C }
|  4> { B 24 30 1.5 C }
|  5>     end
|  6> end
|  7> %output
|  8> xyzfile=True
|  9> end
| 10> %scf
| 11> maxiter 250
| 12> end
| 13> %output
| 14> Print[P_Hirshfeld] = 1
| 15> end
| 16> % maxcore
| 17> 4000
| 18> %pal nprocs 2
| 19> end
| 20> *xyz 1 1
| 21> Ir   0.59241033  -0.72022230   0.44229484
| 22> C    0.03671389  -2.80223360   0.32843433
| 23> C    0.13060355  -2.35241952   1.69690505
| 24> C    2.20661593  -2.13372482   0.72772501
| 25> C    1.29626971  -2.64111527  -0.27438551
| 26> C    1.50056629  -1.99675247   1.93519944
| 27> N   -1.04282940   0.18418567  -0.52280442
| 28> C   -2.30876643   0.52682550   0.14277778
| 29> C   -3.13321335   1.55649756  -0.61198057
| 30> H   -3.96342114   1.87213612   0.01827768
| 31> H   -3.57263336   1.15977975  -1.52875690
| 32> H   -2.55477753   2.44863653  -0.85429082
| 33> C   -3.10491164  -0.74450081   0.41015659
| 34> H   -2.00867373   0.95714689   1.09971354
| 35> H   -4.01400052  -0.49667369   0.95589588
| 36> H   -3.39829616  -1.23203461  -0.52052441
| 37> H   -2.54897709  -1.45733208   1.01753241
| 38> C   -0.83319911   0.39008987  -1.76373946
| 39> C    0.52045518   0.14513721  -2.22136839
| 40> H   -1.60267790   0.76120825  -2.43457600
| 41> C    1.62918421   0.53077723  -1.47648934
| 42> C    2.82999730   0.08850603  -2.10454978
| 43> S    0.93766614  -0.69353438  -3.64900845
| 44> C    2.60947934  -0.57597260  -3.26883751
| 45> H    1.55107412   1.39608159  -0.71155046
| 46> H    3.81836894   0.30554145  -1.72639952
| 47> H    3.34147466  -0.98802359  -3.94688378
| 48> H   -0.85782385  -3.16297125  -0.15862593
| 49> H   -0.65198705  -2.38546721   2.44075384
| 50> H    1.89588017  -1.60508875   2.86143949
| 51> O    1.26009285   2.48319319   0.28017443
| 52> O    0.53930038   0.89272041   1.66978741
| 53> C    0.87994706   2.10976113   1.38309905
| 54> C    0.80455679   3.05896477   2.54748769
| 55> H    0.74267922   4.08656159   2.19969621
| 56> H    1.71219067   2.96288585   3.14649700
| 57> H   -0.03673757   2.83527345   3.20033774
| 58> H    3.25007564  -1.90239008   0.57308255
| 59> H    1.54669344  -2.86226304  -1.30175666
| 60> *
| 61>
| 62>                          ****END OF INPUT****
 Total Charge           Charge          ....    1
 Multiplicity           Mult            ....    1
 Number of Electrons    NEL             ....  164
Dispersion correction           -0.031074871
FINAL SINGLE POINT ENERGY     -1288.399558480703
Dispersion correction            ... done
Dispersion correction           -0.031078973
FINAL SINGLE POINT ENERGY     -1288.398723134259
Dispersion correction            ... done
Dispersion correction           -0.031030177
FINAL SINGLE POINT ENERGY     -1288.399631726814
Dispersion correction            ... done
FINAL SINGLE POINT ENERGY     -1288.398933400846
FINAL SINGLE POINT ENERGY     -1288.399675936379
Dispersion correction            ... done
Dispersion correction           -0.030984623
FINAL SINGLE POINT ENERGY     -1288.399679341802
Dispersion correction            ... done
Dispersion correction           -0.030989446
FINAL SINGLE POINT ENERGY     -1288.399692738930
Dispersion correction            ... done
                    ***********************HURRAY********************

CARTESIAN COORDINATES (ANGSTROEM)
---------------------------------
  Ir     0.597474   -0.716057    0.431843
  C      0.040927   -2.799542    0.330194
  C      0.133250   -2.345910    1.696762
  C      2.210398   -2.129266    0.727601
  C      1.301293   -2.641591   -0.272865
  C      1.501885   -1.986590    1.933528
  N     -1.045206    0.182936   -0.527136
  C     -2.309918    0.521240    0.142598
  C     -3.134581    1.557234   -0.603345
  H     -3.963518    1.869157    0.030455
  H     -3.575942    1.167922   -1.522370
  H     -2.555539    2.450513   -0.839953
  C     -3.106628   -0.751581    0.401279
  H     -2.008223    0.944111    1.102302
  H     -4.014663   -0.507316    0.950378
  H     -3.401746   -1.231628   -0.532726
  H     -2.550017   -1.469442    1.002004
  C     -0.840138    0.391553   -1.768581
  C      0.512942    0.148437   -2.226767
  H     -1.611215    0.763535   -2.436967
  C      1.616635    0.505781   -1.459289
  C      2.820693    0.068224   -2.085693
  S      0.937639   -0.663326   -3.665559
  C      2.606854   -0.568270   -3.266481
  H      1.545564    1.381462   -0.701209
  H      3.806820    0.269509   -1.693175
  H      3.342062   -0.970624   -3.946857
  H     -0.853001   -3.162330   -0.156494
  H     -0.649862   -2.376408    2.440048
  H      1.896043   -1.590173    2.858239
  O      1.276205    2.486716    0.276472
  O      0.535663    0.899616    1.659079
  C      0.886309    2.113884    1.376881
  C      0.810028    3.062935    2.541338
  H      0.757048    4.091264    2.194277
  H      1.713197    2.960158    3.145964
  H     -0.036849    2.844035    3.188573
  H      3.254708   -1.900957    0.574690
  H      1.552777   -2.870024   -1.298296

 Multiplicity           Mult            ....    1
 Number of Electrons    NEL             ....  164
 Basis Dimension        Dim             ....  358

ORBITAL ENERGIES
----------------

  NO   OCC          E(Eh)            E(eV)
   0   2.0000     -89.765014     -2442.6302
   1   2.0000     -19.619260      -533.8672
   2   2.0000     -19.580078      -532.8010
   3   2.0000     -14.843282      -403.9062
   4   2.0000     -10.674761      -290.4750
   5   2.0000     -10.664208      -290.1879
   6   2.0000     -10.638405      -289.4857
   7   2.0000     -10.637204      -289.4530
   8   2.0000     -10.634675      -289.3842
   9   2.0000     -10.634184      -289.3709
  10   2.0000     -10.632412      -289.3226
  11   2.0000     -10.631365      -289.2941
  12   2.0000     -10.616947      -288.9018
  13   2.0000     -10.612185      -288.7722
  14   2.0000     -10.586830      -288.0823
  15   2.0000     -10.585696      -288.0514
  16   2.0000     -10.557751      -287.2910
  17   2.0000     -10.552746      -287.1548
  18   2.0000     -10.529386      -286.5191
  19   2.0000      -8.404294      -228.6925
  20   2.0000      -6.294388      -171.2790
  21   2.0000      -6.290720      -171.1792
  22   2.0000      -6.289004      -171.1325
  23   2.0000      -4.030797      -109.6836
  24   2.0000      -2.349859       -63.9429
  25   2.0000      -2.315763       -63.0151
  26   2.0000      -2.314472       -62.9800
  27   2.0000      -1.298289       -35.3282
  28   2.0000      -1.216061       -33.0907
  29   2.0000      -1.202165       -32.7126
  30   2.0000      -1.174297       -31.9542
  31   2.0000      -1.129619       -30.7385
  32   2.0000      -1.028949       -27.9991
  33   2.0000      -0.989101       -26.9148
  34   2.0000      -0.979430       -26.6516
  35   2.0000      -0.968245       -26.3473
  36   2.0000      -0.962610       -26.1940
  37   2.0000      -0.922332       -25.0979
  38   2.0000      -0.904433       -24.6109
  39   2.0000      -0.875801       -23.8318
  40   2.0000      -0.799277       -21.7494
  41   2.0000      -0.790352       -21.5066
  42   2.0000      -0.788699       -21.4616
  43   2.0000      -0.783093       -21.3090
  44   2.0000      -0.773952       -21.0603
  45   2.0000      -0.755113       -20.5477
  46   2.0000      -0.743812       -20.2402
  47   2.0000      -0.723712       -19.6932
  48   2.0000      -0.695431       -18.9236
  49   2.0000      -0.671154       -18.2630
  50   2.0000      -0.665366       -18.1055
  51   2.0000      -0.652318       -17.7505
  52   2.0000      -0.647331       -17.6148
  53   2.0000      -0.641030       -17.4433
  54   2.0000      -0.634506       -17.2658
  55   2.0000      -0.625962       -17.0333
  56   2.0000      -0.623792       -16.9743
  57   2.0000      -0.613265       -16.6878
  58   2.0000      -0.609817       -16.5940
  59   2.0000      -0.608976       -16.5711
  60   2.0000      -0.598843       -16.2954
  61   2.0000      -0.589889       -16.0517
  62   2.0000      -0.580103       -15.7854
  63   2.0000      -0.574376       -15.6296
  64   2.0000      -0.564933       -15.3726
  65   2.0000      -0.553855       -15.0712
  66   2.0000      -0.551976       -15.0200
  67   2.0000      -0.548731       -14.9317
  68   2.0000      -0.539262       -14.6741
  69   2.0000      -0.535744       -14.5783
  70   2.0000      -0.528221       -14.3736
  71   2.0000      -0.521930       -14.2024
  72   2.0000      -0.516416       -14.0524
  73   2.0000      -0.505686       -13.7604
  74   2.0000      -0.487107       -13.2549
  75   2.0000      -0.481695       -13.1076
  76   2.0000      -0.467329       -12.7167
  77   2.0000      -0.448479       -12.2037
  78   2.0000      -0.439973       -11.9723
  79   2.0000      -0.425550       -11.5798
  80   2.0000      -0.416782       -11.3412
  81   2.0000      -0.404858       -11.0167
  82   0.0000      -0.201433        -5.4813
  83   0.0000      -0.164672        -4.4809
  84   0.0000      -0.142631        -3.8812
  85   0.0000      -0.104511        -2.8439
  86   0.0000      -0.078097        -2.1251

MULLIKEN ATOMIC CHARGES
-----------------------
   0 Ir:    0.616377
   1 C :   -0.208131
   2 C :   -0.293461
   3 C :   -0.233201
   4 C :   -0.247347
   5 C :   -0.163260
   6 N :   -0.420362
   7 C :   -0.116378
   8 C :   -0.696363
   9 H :    0.273921
  10 H :    0.225818
  11 H :    0.261400
  12 C :   -0.640527
  13 H :    0.282788
  14 H :    0.265560
  15 H :    0.230778
  16 H :    0.233972
  17 C :    0.069370
  18 C :   -0.210333
  19 H :    0.294502
  20 C :   -0.425808
  21 C :   -0.129256
  22 S :    0.297491
  23 C :   -0.431994
  24 H :    0.493278
  25 H :    0.269945
  26 H :    0.298516
  27 H :    0.292195
  28 H :    0.293611
  29 H :    0.307737
  30 O :   -0.473923
  31 O :   -0.547117
  32 C :    0.606738
  33 C :   -0.745446
  34 H :    0.267527
  35 H :    0.263612
  36 H :    0.249459
  37 H :    0.294442
  38 H :    0.293867
Sum of atomic charges:    1.0000000

LOEWDIN ATOMIC CHARGES
----------------------
   0 Ir:   -0.218931
   1 C :   -0.038473
   2 C :   -0.058796
   3 C :   -0.049627
   4 C :   -0.058256
   5 C :   -0.024091
   6 N :   -0.001190
   7 C :   -0.068375
   8 C :   -0.365043
   9 H :    0.158106
  10 H :    0.133978
  11 H :    0.147281
  12 C :   -0.343254
  13 H :    0.157623
  14 H :    0.153515
  15 H :    0.137261
  16 H :    0.134886
  17 C :    0.035807
  18 C :   -0.178570
  19 H :    0.164209
  20 C :   -0.179057
  21 C :   -0.137222
  22 S :    0.465543
  23 C :   -0.263499
  24 H :    0.272202
  25 H :    0.163905
  26 H :    0.168428
  27 H :    0.185738
  28 H :    0.186403
  29 H :    0.194279
  30 O :   -0.276111
  31 O :   -0.214537
  32 C :    0.146889
  33 C :   -0.378064
  34 H :    0.158291
  35 H :    0.165211
  36 H :    0.151279
  37 H :    0.187349
  38 H :    0.184917

  Mayer bond orders larger than 0.100000
B(  0-Ir,  1-C ) :   0.4178 B(  0-Ir,  2-C ) :   0.5389 B(  0-Ir,  3-C ) :   0.4644
B(  0-Ir,  4-C ) :   0.4471 B(  0-Ir,  5-C ) :   0.4010 B(  0-Ir,  6-N ) :   0.4589
B(  0-Ir, 20-C ) :   0.2315 B(  0-Ir, 31-O ) :   0.5986 B(  1-C ,  2-C ) :   1.1157
B(  1-C ,  4-C ) :   1.2493 B(  1-C , 27-H ) :   0.9031 B(  2-C ,  5-C ) :   1.1341
B(  2-C , 28-H ) :   0.9069 B(  3-C ,  4-C ) :   1.1038 B(  3-C ,  5-C ) :   1.2335
B(  3-C , 37-H ) :   0.9034 B(  4-C , 38-H ) :   0.8980 B(  5-C , 29-H ) :   0.8973
B(  6-N ,  7-C ) :   0.8909 B(  6-N , 17-C ) :   1.7057 B(  7-C ,  8-C ) :   0.9925
B(  7-C , 12-C ) :   0.9695 B(  7-C , 13-H ) :   0.8696 B(  8-C ,  9-H ) :   0.9030
B(  8-C , 10-H ) :   0.9122 B(  8-C , 11-H ) :   0.9075 B( 12-C , 14-H ) :   0.9061
B( 12-C , 15-H ) :   0.9152 B( 12-C , 16-H ) :   0.9103 B( 17-C , 18-C ) :   1.0381
B( 17-C , 19-H ) :   0.8734 B( 18-C , 20-C ) :   1.2993 B( 18-C , 22-S ) :   1.2288
B( 20-C , 21-C ) :   1.2510 B( 20-C , 24-H ) :   0.5258 B( 21-C , 23-C ) :   1.5535
B( 21-C , 25-H ) :   0.9029 B( 22-S , 23-C ) :   1.1972 B( 23-C , 26-H ) :   0.8920
B( 24-H , 30-O ) :   0.2117 B( 30-O , 32-C ) :   1.7383 B( 31-O , 32-C ) :   1.2471
B( 32-C , 33-C ) :   0.9447 B( 33-C , 34-H ) :   0.9063 B( 33-C , 35-H ) :   0.9006
B( 33-C , 36-H ) :   0.9107

Dispersion correction           -0.030994286
FINAL SINGLE POINT ENERGY     -1288.399695846463

DIPOLE MOMENT
-------------
                                X             Y             Z
Electronic contribution:     35.98205     -66.66662      70.25229
Nuclear contribution   :    -36.62054      65.31620     -70.61372
                        -----------------------------------------
Total Dipole Moment    :     -0.63849      -1.35042      -0.36143
                        -----------------------------------------
Magnitude (a.u.)       :      1.53685
Magnitude (Debye)      :      3.90637

Rotational constants in cm-1:     0.010853     0.009151     0.008289
Rotational constants in MHz :   325.371417   274.345803   248.506322

                             ****ORCA TERMINATED NORMALLY****
TOTAL RUN TIME: 0 days 2 hours 9 minutes 43 seconds 500 msec
