                         Program Version 5.0.3 -  RELEASE  -
|  1> ! Opt PBEh-3c
|  2> %geom Constraints
|  3> { B 0 20 2.1285714285714286 C }
|  4> { B 24 30 1.457142857142857 C }
|  5>     end
|  6> end
|  7> %output
|  8> xyzfile=True
|  9> end
| 10> %scf
| 11> maxiter 250
| 12> end
| 13> %output
| 14> Print[P_Hirshfeld] = 1
| 15> end
| 16> % maxcore
| 17> 4000
| 18> *xyz 1 1
| 19> Ir   0.63267475  -0.71565371   0.41752851
| 20> C    0.14257583  -2.83091768   0.31181943
| 21> C    0.01580946  -2.37992623   1.67261214
| 22> C    2.21096177  -2.07878052   1.01400206
| 23> C    1.47990432  -2.64536032  -0.09195495
| 24> C    1.30443120  -1.94686544   2.09304694
| 25> N   -1.04969241   0.13463060  -0.51599180
| 26> C   -2.30880848   0.39631337   0.19793679
| 27> C   -3.08520476   1.58467751  -0.35023319
| 28> H   -3.90371098   1.81507649   0.33025995
| 29> H   -3.53683537   1.38408468  -1.32267444
| 30> H   -2.46371010   2.47698558  -0.42795932
| 31> C   -3.15497907  -0.87201908   0.20886941
| 32> H   -2.00813669   0.62570278   1.22096769
| 33> H   -4.04785724  -0.71434810   0.81222257
| 34> H   -3.47601000  -1.14089354  -0.79830255
| 35> H   -2.61681236  -1.71782372   0.63417537
| 36> C   -0.90339839   0.40421912  -1.75936959
| 37> C    0.42220050   0.20207069  -2.27552605
| 38> H   -1.71087195   0.79667719  -2.36951087
| 39> C    1.48513571   0.17932074  -1.36780990
| 40> C    2.70115514  -0.12566254  -2.05645741
| 41> S    0.88710240  -0.13505971  -3.86877333
| 42> C    2.52648516  -0.31699749  -3.39083426
| 43> H    1.53640179   1.17633093  -0.66450929
| 44> H    3.67177016  -0.14503441  -1.58248347
| 45> H    3.27828586  -0.53177518  -4.13500183
| 46> H   -0.64909090  -3.24127445  -0.29821354
| 47> H   -0.86890853  -2.42904961   2.28922322
| 48> H    1.53634392  -1.51731885   3.05741284
| 49> O    1.47908459   2.41094191   0.13395957
| 50> O    0.56296798   0.97938195   1.57276038
| 51> C    1.00139043   2.13780386   1.24001043
| 52> C    0.93523217   3.18601943   2.31458509
| 53> H    0.88782632   4.18151754   1.88136868
| 54> H    1.84340007   3.12990034   2.91767837
| 55> H    0.09008190   3.02598039   2.97994715
| 56> H    3.26610511  -1.85400365   1.03859593
| 57> H    1.88607068  -2.88968094  -1.06263667
| 58> *
| 59>
| 60>                          ****END OF INPUT****
 Total Charge           Charge          ....    1
 Multiplicity           Mult            ....    1
 Number of Electrons    NEL             ....  164
Dispersion correction           -0.031014720
FINAL SINGLE POINT ENERGY     -1288.398940353869
Dispersion correction            ... done
Dispersion correction           -0.030942337
FINAL SINGLE POINT ENERGY     -1288.398910985865
Dispersion correction            ... done
Dispersion correction           -0.030951316
FINAL SINGLE POINT ENERGY     -1288.398566739177
Dispersion correction            ... done
FINAL SINGLE POINT ENERGY     -1288.399253812297
FINAL SINGLE POINT ENERGY     -1288.399299907368
FINAL SINGLE POINT ENERGY     -1288.399352299112
FINAL SINGLE POINT ENERGY     -1288.399378124571
FINAL SINGLE POINT ENERGY     -1288.399380114869
FINAL SINGLE POINT ENERGY     -1288.399381464516
FINAL SINGLE POINT ENERGY     -1288.399384530895
FINAL SINGLE POINT ENERGY     -1288.399384995037
FINAL SINGLE POINT ENERGY     -1288.399379143202
FINAL SINGLE POINT ENERGY     -1288.399373503649
Dispersion correction            ... done
Dispersion correction           -0.030814518
FINAL SINGLE POINT ENERGY     -1288.399375362726
Dispersion correction            ... done
Dispersion correction           -0.030810448
FINAL SINGLE POINT ENERGY     -1288.399379413409
Dispersion correction            ... done
                    ***********************HURRAY********************

CARTESIAN COORDINATES (ANGSTROEM)
---------------------------------
  Ir     0.621572   -0.713691    0.412106
  C      0.134102   -2.832153    0.337007
  C     -0.018533   -2.370576    1.691363
  C      2.187713   -2.066948    1.067289
  C      1.480354   -2.650912   -0.042883
  C      1.257220   -1.925327    2.127671
  N     -1.063585    0.134470   -0.519226
  C     -2.330457    0.360730    0.192136
  C     -3.133009    1.537694   -0.343276
  H     -3.958291    1.739263    0.337935
  H     -3.577680    1.338018   -1.319216
  H     -2.533465    2.445921   -0.408122
  C     -3.151229   -0.924536    0.180357
  H     -2.040033    0.582994    1.219956
  H     -4.054181   -0.791901    0.774838
  H     -3.455209   -1.187750   -0.833574
  H     -2.602192   -1.764980    0.601641
  C     -0.912077    0.452905   -1.751224
  C      0.409691    0.263182   -2.272797
  H     -1.718239    0.868956   -2.346907
  C      1.458088    0.119786   -1.358875
  C      2.671577   -0.162864   -2.063571
  S      0.884685    0.070449   -3.886717
  C      2.508622   -0.214179   -3.412673
  H      1.596035    1.130488   -0.644120
  H      3.635505   -0.260905   -1.585608
  H      3.263620   -0.381194   -4.165775
  H     -0.643175   -3.255178   -0.282672
  H     -0.913940   -2.415248    2.292400
  H      1.469268   -1.481487    3.090179
  O      1.665413    2.348450    0.152762
  O      0.551396    1.008592    1.538503
  C      1.087582    2.127092    1.225287
  C      1.015987    3.205210    2.268882
  H      1.018899    4.189201    1.807182
  H      1.899357    3.137461    2.906299
  H      0.140751    3.091429    2.903625
  H      3.242366   -1.843246    1.112335
  H      1.904858   -2.910028   -1.001776

 Multiplicity           Mult            ....    1
 Number of Electrons    NEL             ....  164
 Basis Dimension        Dim             ....  358

ORBITAL ENERGIES
----------------

  NO   OCC          E(Eh)            E(eV)
   0   2.0000     -89.768264     -2442.7187
   1   2.0000     -19.627755      -534.0984
   2   2.0000     -19.606464      -533.5190
   3   2.0000     -14.837661      -403.7533
   4   2.0000     -10.687285      -290.8158
   5   2.0000     -10.657557      -290.0069
   6   2.0000     -10.631537      -289.2988
   7   2.0000     -10.627561      -289.1907
   8   2.0000     -10.626101      -289.1509
   9   2.0000     -10.624510      -289.1076
  10   2.0000     -10.617935      -288.9287
  11   2.0000     -10.615859      -288.8722
  12   2.0000     -10.613841      -288.8173
  13   2.0000     -10.612601      -288.7836
  14   2.0000     -10.591819      -288.2181
  15   2.0000     -10.590242      -288.1751
  16   2.0000     -10.554636      -287.2063
  17   2.0000     -10.551241      -287.1139
  18   2.0000     -10.538633      -286.7708
  19   2.0000      -8.407656      -228.7840
  20   2.0000      -6.297515      -171.3641
  21   2.0000      -6.293927      -171.2665
  22   2.0000      -6.292685      -171.2327
  23   2.0000      -4.022493      -109.4576
  24   2.0000      -2.339948       -63.6732
  25   2.0000      -2.308434       -62.8157
  26   2.0000      -2.305863       -62.7457
  27   2.0000      -1.313906       -35.7532
  28   2.0000      -1.215939       -33.0874
  29   2.0000      -1.209982       -32.9253
  30   2.0000      -1.162844       -31.6426
  31   2.0000      -1.131062       -30.7778
  32   2.0000      -1.026527       -27.9332
  33   2.0000      -0.975630       -26.5482
  34   2.0000      -0.972953       -26.4754
  35   2.0000      -0.968830       -26.3632
  36   2.0000      -0.961621       -26.1670
  37   2.0000      -0.932374       -25.3712
  38   2.0000      -0.901325       -24.5263
  39   2.0000      -0.874735       -23.8028
  40   2.0000      -0.800594       -21.7853
  41   2.0000      -0.784431       -21.3455
  42   2.0000      -0.778971       -21.1969
  43   2.0000      -0.778262       -21.1776
  44   2.0000      -0.763635       -20.7796
  45   2.0000      -0.755738       -20.5647
  46   2.0000      -0.743780       -20.2393
  47   2.0000      -0.723438       -19.6857
  48   2.0000      -0.690994       -18.8029
  49   2.0000      -0.681245       -18.5376
  50   2.0000      -0.664472       -18.0812
  51   2.0000      -0.652409       -17.7529
  52   2.0000      -0.646812       -17.6007
  53   2.0000      -0.635147       -17.2832
  54   2.0000      -0.632892       -17.2219
  55   2.0000      -0.628933       -17.1142
  56   2.0000      -0.622496       -16.9390
  57   2.0000      -0.613061       -16.6822
  58   2.0000      -0.601973       -16.3805
  59   2.0000      -0.599248       -16.3064
  60   2.0000      -0.598486       -16.2856
  61   2.0000      -0.592448       -16.1213
  62   2.0000      -0.581500       -15.8234
  63   2.0000      -0.571579       -15.5534
  64   2.0000      -0.563505       -15.3338
  65   2.0000      -0.561558       -15.2808
  66   2.0000      -0.552057       -15.0222
  67   2.0000      -0.547847       -14.9077
  68   2.0000      -0.541976       -14.7479
  69   2.0000      -0.536424       -14.5968
  70   2.0000      -0.529054       -14.3963
  71   2.0000      -0.518844       -14.1185
  72   2.0000      -0.513948       -13.9852
  73   2.0000      -0.498407       -13.5623
  74   2.0000      -0.490877       -13.3575
  75   2.0000      -0.485527       -13.2119
  76   2.0000      -0.478235       -13.0134
  77   2.0000      -0.446809       -12.1583
  78   2.0000      -0.443506       -12.0684
  79   2.0000      -0.421735       -11.4760
  80   2.0000      -0.415659       -11.3106
  81   2.0000      -0.395831       -10.7711
  82   0.0000      -0.208997        -5.6871
  83   0.0000      -0.143422        -3.9027
  84   0.0000      -0.136447        -3.7129
  85   0.0000      -0.090083        -2.4513
  86   0.0000      -0.076407        -2.0791

MULLIKEN ATOMIC CHARGES
-----------------------
   0 Ir:    0.605284
   1 C :   -0.232128
   2 C :   -0.264039
   3 C :   -0.264235
   4 C :   -0.231089
   5 C :   -0.154647
   6 N :   -0.428850
   7 C :   -0.126423
   8 C :   -0.684753
   9 H :    0.270484
  10 H :    0.224209
  11 H :    0.256281
  12 C :   -0.634622
  13 H :    0.282914
  14 H :    0.260567
  15 H :    0.231969
  16 H :    0.233465
  17 C :    0.070596
  18 C :   -0.126734
  19 H :    0.287772
  20 C :   -0.565507
  21 C :   -0.093756
  22 S :    0.342758
  23 C :   -0.430827
  24 H :    0.473166
  25 H :    0.269028
  26 H :    0.299372
  27 H :    0.285955
  28 H :    0.283775
  29 H :    0.300479
  30 O :   -0.470100
  31 O :   -0.523287
  32 C :    0.622461
  33 C :   -0.743393
  34 H :    0.270835
  35 H :    0.270479
  36 H :    0.256386
  37 H :    0.283707
  38 H :    0.292445
Sum of atomic charges:    1.0000000

LOEWDIN ATOMIC CHARGES
----------------------
   0 Ir:   -0.254971
   1 C :   -0.053270
   2 C :   -0.093254
   3 C :   -0.088538
   4 C :   -0.046925
   5 C :   -0.015435
   6 N :    0.001137
   7 C :   -0.069781
   8 C :   -0.362805
   9 H :    0.156779
  10 H :    0.132859
  11 H :    0.144573
  12 C :   -0.343476
  13 H :    0.156680
  14 H :    0.151520
  15 H :    0.137646
  16 H :    0.133419
  17 C :    0.028038
  18 C :   -0.177224
  19 H :    0.161635
  20 C :   -0.217141
  21 C :   -0.119777
  22 S :    0.502009
  23 C :   -0.260046
  24 H :    0.336310
  25 H :    0.163723
  26 H :    0.169871
  27 H :    0.182261
  28 H :    0.180653
  29 H :    0.189747
  30 O :   -0.264555
  31 O :   -0.195841
  32 C :    0.155772
  33 C :   -0.373424
  34 H :    0.161569
  35 H :    0.169459
  36 H :    0.154270
  37 H :    0.182409
  38 H :    0.184124

  Mayer bond orders larger than 0.100000
B(  0-Ir,  1-C ) :   0.4279 B(  0-Ir,  2-C ) :   0.4274 B(  0-Ir,  3-C ) :   0.4650
B(  0-Ir,  4-C ) :   0.4291 B(  0-Ir,  5-C ) :   0.3808 B(  0-Ir,  6-N ) :   0.4627
B(  0-Ir, 20-C ) :   0.4480 B(  0-Ir, 31-O ) :   0.5461 B(  1-C ,  2-C ) :   1.1289
B(  1-C ,  4-C ) :   1.2356 B(  1-C , 27-H ) :   0.9072 B(  2-C ,  5-C ) :   1.1910
B(  2-C , 28-H ) :   0.9101 B(  3-C ,  4-C ) :   1.1267 B(  3-C ,  5-C ) :   1.1911
B(  3-C , 37-H ) :   0.9119 B(  4-C , 38-H ) :   0.8996 B(  5-C , 29-H ) :   0.9002
B(  6-N ,  7-C ) :   0.8950 B(  6-N , 17-C ) :   1.6559 B(  7-C ,  8-C ) :   0.9906
B(  7-C , 12-C ) :   0.9660 B(  7-C , 13-H ) :   0.8738 B(  8-C ,  9-H ) :   0.9043
B(  8-C , 10-H ) :   0.9130 B(  8-C , 11-H ) :   0.9109 B( 12-C , 14-H ) :   0.9074
B( 12-C , 15-H ) :   0.9153 B( 12-C , 16-H ) :   0.9117 B( 17-C , 18-C ) :   1.1005
B( 17-C , 19-H ) :   0.8759 B( 18-C , 20-C ) :   1.2242 B( 18-C , 22-S ) :   1.2585
B( 20-C , 21-C ) :   1.2519 B( 20-C , 24-H ) :   0.4074 B( 21-C , 23-C ) :   1.5548
B( 21-C , 25-H ) :   0.9018 B( 22-S , 23-C ) :   1.2068 B( 23-C , 26-H ) :   0.8910
B( 24-H , 30-O ) :   0.2961 B( 30-O , 32-C ) :   1.6383 B( 31-O , 32-C ) :   1.3262
B( 32-C , 33-C ) :   0.9434 B( 33-C , 34-H ) :   0.9031 B( 33-C , 35-H ) :   0.8964
B( 33-C , 36-H ) :   0.9088

Dispersion correction           -0.030808653
FINAL SINGLE POINT ENERGY     -1288.399378825708

DIPOLE MOMENT
-------------
                                X             Y             Z
Electronic contribution:     38.25111     -70.80828      69.96412
Nuclear contribution   :    -38.90795      70.04356     -70.38323
                        -----------------------------------------
Total Dipole Moment    :     -0.65683      -0.76472      -0.41911
                        -----------------------------------------
Magnitude (a.u.)       :      1.09174
Magnitude (Debye)      :      2.77497

Rotational constants in cm-1:     0.010522     0.009014     0.008248
Rotational constants in MHz :   315.431077   270.233600   247.272017

                             ****ORCA TERMINATED NORMALLY****
TOTAL RUN TIME: 0 days 1 hours 57 minutes 48 seconds 123 msec
