                         Program Version 5.0.3 -  RELEASE  -
|  1> ! Opt PBEh-3c
|  2> %geom Constraints
|  3> { B 0 20 2.1285714285714286 C }
|  4> { B 24 30 1.3285714285714287 C }
|  5>     end
|  6> end
|  7> %output
|  8> xyzfile=True
|  9> end
| 10> %scf
| 11> maxiter 250
| 12> end
| 13> %output
| 14> Print[P_Hirshfeld] = 1
| 15> end
| 16> % maxcore
| 17> 4000
| 18> *xyz 1 1
| 19> Ir   0.60640051  -0.73351626   0.44045555
| 20> C    0.13862217  -2.84486855   0.35227736
| 21> C   -0.09905720  -2.38558545   1.69664258
| 22> C    2.13982790  -2.06606684   1.20754230
| 23> C    1.50834384  -2.65889497   0.06096454
| 24> C    1.14022286  -1.92970833   2.20877264
| 25> N   -1.07022278   0.10819497  -0.50764465
| 26> C   -2.34878447   0.29922293   0.19507263
| 27> C   -3.13935523   1.50734808  -0.28719306
| 28> H   -3.97413057   1.67522245   0.39145117
| 29> H   -3.56891503   1.36559996  -1.27980190
| 30> H   -2.53421599   2.41416992  -0.29274355
| 31> C   -3.17322032  -0.97981968   0.10121223
| 32> H   -2.07740015   0.46805775   1.23824308
| 33> H   -4.08358866  -0.88003486   0.69097310
| 34> H   -3.46439933  -1.18440294  -0.92988139
| 35> H   -2.63118661  -1.84550262   0.47849870
| 36> C   -0.91775077   0.45918278  -1.73175222
| 37> C    0.39862179   0.30080854  -2.27141828
| 38> H   -1.73214339   0.87936734  -2.31353010
| 39> C    1.45041024   0.08174213  -1.38659214
| 40> C    2.65637239  -0.14958497  -2.11146119
| 41> S    0.86790418   0.25741587  -3.90416623
| 42> C    2.48696008  -0.07733990  -3.46212161
| 43> H    1.63882858   1.15020947  -0.60164161
| 44> H    3.62110886  -0.30475797  -1.65053477
| 45> H    3.23975085  -0.18499754  -4.22825038
| 46> H   -0.59253548  -3.28116928  -0.31248408
| 47> H   -1.02967664  -2.43474135   2.24110860
| 48> H    1.28720864  -1.48200075   3.18159331
| 49> O    1.77298891   2.27350994   0.12186538
| 50> O    0.56435900   1.03508539   1.51909696
| 51> C    1.15741570   2.10879627   1.19712135
| 52> C    1.13210243   3.23406692   2.18745070
| 53> H    1.01030089   4.18796249   1.67899674
| 54> H    2.09049193   3.26822503   2.70830595
| 55> H    0.34628395   3.10028799   2.92520833
| 56> H    3.18866972  -1.83903918   1.31958138
| 57> H    1.99275722  -2.91325479  -0.87047741
| 58> *
| 59>
| 60>                          ****END OF INPUT****
 Total Charge           Charge          ....    1
 Multiplicity           Mult            ....    1
 Number of Electrons    NEL             ....  164
Dispersion correction           -0.030687178
FINAL SINGLE POINT ENERGY     -1288.404451243013
Dispersion correction            ... done
Dispersion correction           -0.030652130
FINAL SINGLE POINT ENERGY     -1288.404721438612
Dispersion correction            ... done
Dispersion correction           -0.030634400
FINAL SINGLE POINT ENERGY     -1288.404842295179
Dispersion correction            ... done
FINAL SINGLE POINT ENERGY     -1288.404915827693
FINAL SINGLE POINT ENERGY     -1288.404975128611
FINAL SINGLE POINT ENERGY     -1288.405002768898
FINAL SINGLE POINT ENERGY     -1288.405014656866
Dispersion correction            ... done
Dispersion correction           -0.030604426
FINAL SINGLE POINT ENERGY     -1288.405020082379
Dispersion correction            ... done
Dispersion correction           -0.030602545
FINAL SINGLE POINT ENERGY     -1288.405024223858
Dispersion correction            ... done
                    ***********************HURRAY********************

CARTESIAN COORDINATES (ANGSTROEM)
---------------------------------
  Ir     0.607711   -0.743672    0.428243
  C      0.127603   -2.852550    0.364159
  C     -0.106419   -2.394043    1.709306
  C      2.131964   -2.077895    1.213266
  C      1.499631   -2.675327    0.071175
  C      1.131263   -1.936401    2.215791
  N     -1.072135    0.104480   -0.509368
  C     -2.349281    0.287567    0.197076
  C     -3.143826    1.497653   -0.273650
  H     -3.978423    1.656778    0.407279
  H     -3.573595    1.363682   -1.267245
  H     -2.541625    2.406515   -0.271326
  C     -3.171444   -0.992223    0.095072
  H     -2.076031    0.448888    1.241069
  H     -4.082427   -0.897580    0.684769
  H     -3.461341   -1.190939   -0.937497
  H     -2.628158   -1.859142    0.467462
  C     -0.918023    0.477084   -1.727572
  C      0.398464    0.317011   -2.264572
  H     -1.728543    0.914134   -2.301847
  C      1.431337    0.037491   -1.372379
  C      2.646036   -0.173605   -2.091499
  S      0.893889    0.352903   -3.889325
  C      2.499906   -0.026983   -3.439127
  H      1.652944    1.172622   -0.632060
  H      3.600971   -0.369850   -1.625684
  H      3.264176   -0.106050   -4.197365
  H     -0.604694   -3.290885   -0.298022
  H     -1.037134   -2.437945    2.253822
  H      1.280773   -1.485193    3.186579
  O      1.769507    2.286614    0.082459
  O      0.583445    1.039299    1.493581
  C      1.163168    2.114446    1.166179
  C      1.142715    3.243488    2.151558
  H      1.009808    4.195130    1.641624
  H      2.106464    3.284476    2.662001
  H      0.365581    3.106944    2.897832
  H      3.182033   -1.857503    1.326811
  H      1.983079   -2.940226   -0.857837

 Multiplicity           Mult            ....    1
 Number of Electrons    NEL             ....  164
 Basis Dimension        Dim             ....  358

ORBITAL ENERGIES
----------------

  NO   OCC          E(Eh)            E(eV)
   0   2.0000     -89.760926     -2442.5190
   1   2.0000     -19.639948      -534.4301
   2   2.0000     -19.633231      -534.2474
   3   2.0000     -14.831278      -403.5796
   4   2.0000     -10.703544      -291.2582
   5   2.0000     -10.652657      -289.8735
   6   2.0000     -10.624321      -289.1025
   7   2.0000     -10.622463      -289.0519
   8   2.0000     -10.621310      -289.0205
   9   2.0000     -10.621163      -289.0165
  10   2.0000     -10.613521      -288.8086
  11   2.0000     -10.611804      -288.7619
  12   2.0000     -10.610717      -288.7323
  13   2.0000     -10.608429      -288.6700
  14   2.0000     -10.588843      -288.1371
  15   2.0000     -10.586801      -288.0815
  16   2.0000     -10.552212      -287.1403
  17   2.0000     -10.549904      -287.0775
  18   2.0000     -10.548534      -287.0402
  19   2.0000      -8.400301      -228.5838
  20   2.0000      -6.290187      -171.1647
  21   2.0000      -6.286665      -171.0688
  22   2.0000      -6.285251      -171.0304
  23   2.0000      -4.019029      -109.3633
  24   2.0000      -2.335913       -63.5634
  25   2.0000      -2.305331       -62.7313
  26   2.0000      -2.301805       -62.6353
  27   2.0000      -1.332733       -36.2655
  28   2.0000      -1.234180       -33.5837
  29   2.0000      -1.204254       -32.7694
  30   2.0000      -1.158844       -31.5337
  31   2.0000      -1.125030       -30.6136
  32   2.0000      -1.022580       -27.8258
  33   2.0000      -0.971623       -26.4392
  34   2.0000      -0.966682       -26.3048
  35   2.0000      -0.964679       -26.2502
  36   2.0000      -0.956900       -26.0386
  37   2.0000      -0.944296       -25.6956
  38   2.0000      -0.899253       -24.4699
  39   2.0000      -0.869823       -23.6691
  40   2.0000      -0.795987       -21.6599
  41   2.0000      -0.780008       -21.2251
  42   2.0000      -0.775613       -21.1055
  43   2.0000      -0.774818       -21.0839
  44   2.0000      -0.766029       -20.8447
  45   2.0000      -0.759818       -20.6757
  46   2.0000      -0.740924       -20.1616
  47   2.0000      -0.721302       -19.6276
  48   2.0000      -0.696635       -18.9564
  49   2.0000      -0.683922       -18.6105
  50   2.0000      -0.665050       -18.0969
  51   2.0000      -0.663120       -18.0444
  52   2.0000      -0.650574       -17.7030
  53   2.0000      -0.638076       -17.3629
  54   2.0000      -0.629801       -17.1377
  55   2.0000      -0.626538       -17.0490
  56   2.0000      -0.620443       -16.8831
  57   2.0000      -0.608748       -16.5649
  58   2.0000      -0.598060       -16.2740
  59   2.0000      -0.595723       -16.2104
  60   2.0000      -0.594850       -16.1867
  61   2.0000      -0.589960       -16.0536
  62   2.0000      -0.577413       -15.7122
  63   2.0000      -0.572069       -15.5668
  64   2.0000      -0.562613       -15.3095
  65   2.0000      -0.560646       -15.2559
  66   2.0000      -0.557744       -15.1770
  67   2.0000      -0.545298       -14.8383
  68   2.0000      -0.542149       -14.7526
  69   2.0000      -0.535195       -14.5634
  70   2.0000      -0.528904       -14.3922
  71   2.0000      -0.517654       -14.0861
  72   2.0000      -0.512288       -13.9401
  73   2.0000      -0.503870       -13.7110
  74   2.0000      -0.498122       -13.5546
  75   2.0000      -0.486317       -13.2333
  76   2.0000      -0.477017       -12.9803
  77   2.0000      -0.451793       -12.2939
  78   2.0000      -0.444001       -12.0819
  79   2.0000      -0.415947       -11.3185
  80   2.0000      -0.414984       -11.2923
  81   2.0000      -0.393518       -10.7082
  82   0.0000      -0.199963        -5.4413
  83   0.0000      -0.142777        -3.8852
  84   0.0000      -0.128980        -3.5097
  85   0.0000      -0.084561        -2.3010
  86   0.0000      -0.074974        -2.0401

MULLIKEN ATOMIC CHARGES
-----------------------
   0 Ir:    0.606360
   1 C :   -0.248022
   2 C :   -0.258945
   3 C :   -0.272500
   4 C :   -0.222538
   5 C :   -0.153652
   6 N :   -0.437383
   7 C :   -0.125015
   8 C :   -0.681038
   9 H :    0.268721
  10 H :    0.224701
  11 H :    0.252331
  12 C :   -0.633284
  13 H :    0.276860
  14 H :    0.257819
  15 H :    0.232800
  16 H :    0.233411
  17 C :    0.068626
  18 C :   -0.124471
  19 H :    0.283842
  20 C :   -0.550117
  21 C :   -0.108150
  22 S :    0.339939
  23 C :   -0.424726
  24 H :    0.476598
  25 H :    0.265266
  26 H :    0.297088
  27 H :    0.284874
  28 H :    0.280792
  29 H :    0.296005
  30 O :   -0.487153
  31 O :   -0.500304
  32 C :    0.635569
  33 C :   -0.744024
  34 H :    0.274598
  35 H :    0.277468
  36 H :    0.264141
  37 H :    0.280959
  38 H :    0.292555
Sum of atomic charges:    1.0000000

LOEWDIN ATOMIC CHARGES
----------------------
   0 Ir:   -0.261887
   1 C :   -0.059331
   2 C :   -0.098822
   3 C :   -0.098177
   4 C :   -0.039987
   5 C :   -0.017864
   6 N :   -0.007352
   7 C :   -0.069086
   8 C :   -0.362149
   9 H :    0.155819
  10 H :    0.132830
  11 H :    0.142664
  12 C :   -0.344002
  13 H :    0.153422
  14 H :    0.150220
  15 H :    0.138098
  16 H :    0.133072
  17 C :    0.029301
  18 C :   -0.197291
  19 H :    0.159472
  20 C :   -0.218366
  21 C :   -0.132802
  22 S :    0.492867
  23 C :   -0.256944
  24 H :    0.367828
  25 H :    0.161210
  26 H :    0.168880
  27 H :    0.181856
  28 H :    0.178938
  29 H :    0.187093
  30 O :   -0.257067
  31 O :   -0.173447
  32 C :    0.169714
  33 C :   -0.370874
  34 H :    0.165941
  35 H :    0.173339
  36 H :    0.157179
  37 H :    0.181191
  38 H :    0.184513

  Mayer bond orders larger than 0.100000
B(  0-Ir,  1-C ) :   0.4511 B(  0-Ir,  2-C ) :   0.3999 B(  0-Ir,  3-C ) :   0.4687
B(  0-Ir,  4-C ) :   0.4277 B(  0-Ir,  5-C ) :   0.3695 B(  0-Ir,  6-N ) :   0.4660
B(  0-Ir, 20-C ) :   0.5020 B(  0-Ir, 31-O ) :   0.5059 B(  1-C ,  2-C ) :   1.1277
B(  1-C ,  4-C ) :   1.2189 B(  1-C , 27-H ) :   0.9084 B(  2-C ,  5-C ) :   1.2206
B(  2-C , 28-H ) :   0.9105 B(  3-C ,  4-C ) :   1.1424 B(  3-C ,  5-C ) :   1.1707
B(  3-C , 37-H ) :   0.9136 B(  4-C , 38-H ) :   0.9002 B(  5-C , 29-H ) :   0.9019
B(  6-N ,  7-C ) :   0.8967 B(  6-N , 17-C ) :   1.6436 B(  7-C ,  8-C ) :   0.9903
B(  7-C , 12-C ) :   0.9672 B(  7-C , 13-H ) :   0.8782 B(  8-C ,  9-H ) :   0.9050
B(  8-C , 10-H ) :   0.9130 B(  8-C , 11-H ) :   0.9128 B( 12-C , 14-H ) :   0.9080
B( 12-C , 15-H ) :   0.9153 B( 12-C , 16-H ) :   0.9121 B( 17-C , 18-C ) :   1.1182
B( 17-C , 19-H ) :   0.8766 B( 18-C , 20-C ) :   1.2338 B( 18-C , 22-S ) :   1.2294
B( 20-C , 21-C ) :   1.2770 B( 20-C , 24-H ) :   0.3053 B( 21-C , 23-C ) :   1.5344
B( 21-C , 25-H ) :   0.9030 B( 22-S , 23-C ) :   1.2247 B( 23-C , 26-H ) :   0.8917
B( 24-H , 30-O ) :   0.3747 B( 30-O , 32-C ) :   1.5262 B( 31-O , 32-C ) :   1.4083
B( 32-C , 33-C ) :   0.9459 B( 33-C , 34-H ) :   0.8987 B( 33-C , 35-H ) :   0.8919
B( 33-C , 36-H ) :   0.9074

Dispersion correction           -0.030600516
FINAL SINGLE POINT ENERGY     -1288.405026867109

DIPOLE MOMENT
-------------
                                X             Y             Z
Electronic contribution:     36.90134     -75.11324      71.79131
Nuclear contribution   :    -37.46470      74.78592     -71.95036
                        -----------------------------------------
Total Dipole Moment    :     -0.56336      -0.32732      -0.15905
                        -----------------------------------------
Magnitude (a.u.)       :      0.67067
Magnitude (Debye)      :      1.70472

Rotational constants in cm-1:     0.010567     0.008779     0.008188
Rotational constants in MHz :   316.796649   263.181846   245.484821

                             ****ORCA TERMINATED NORMALLY****
TOTAL RUN TIME: 0 days 1 hours 18 minutes 46 seconds 754 msec
