                         Program Version 5.0.3 -  RELEASE  -
|  1> ! Opt PBEh-3c
|  2> %geom Constraints
|  3> { B 0 20 2.5142857142857142 C }
|  4> { B 24 30 1.4428571428571428 C }
|  5>     end
|  6> end
|  7> %output
|  8> xyzfile=True
|  9> end
| 10> %scf
| 11> maxiter 250
| 12> end
| 13> %output
| 14> Print[P_Hirshfeld] = 1
| 15> end
| 16> % maxcore
| 17> 4000
| 18> *xyz 1 1
| 19> Ir   0.58069978  -0.72777212   0.46403274
| 20> C    0.02551423  -2.80741380   0.33741267
| 21> C    0.11758616  -2.36326449   1.70811085
| 22> C    2.19508246  -2.14164473   0.74395824
| 23> C    1.28576721  -2.64253617  -0.26254950
| 24> C    1.48812749  -2.01080539   1.95117422
| 25> N   -1.04245626   0.17838155  -0.51664051
| 26> C   -2.31305431   0.51977160   0.14165967
| 27> C   -3.13552263   1.54717490  -0.61850671
| 28> H   -3.96885171   1.86274731   0.00764324
| 29> H   -3.57038333   1.14835815  -1.53649525
| 30> H   -2.55732192   2.43965283  -0.86009659
| 31> C   -3.10931461  -0.75192703   0.40679981
| 32> H   -2.01918567   0.95232995   1.09961007
| 33> H   -4.02260584  -0.50418654   0.94552721
| 34> H   -3.39548705  -1.24219353  -0.52470349
| 35> H   -2.55694372  -1.46259601   1.01997016
| 36> C   -0.82815020   0.38340744  -1.75744421
| 37> C    0.52595725   0.14920415  -2.21786811
| 38> H   -1.59954292   0.74905604  -2.42927491
| 39> C    1.63594989   0.54918602  -1.48399312
| 40> C    2.83514226   0.11816272  -2.12144103
| 41> S    0.93994191  -0.68090771  -3.65380723
| 42> C    2.61244294  -0.54696261  -3.28565928
| 43> H    1.55006265   1.40892800  -0.69506393
| 44> H    3.82469805   0.34298066  -1.75090204
| 45> H    3.34380860  -0.95092898  -3.96928413
| 46> H   -0.86851719  -3.16511892  -0.15279348
| 47> H   -0.66639342  -2.39969700   2.45041432
| 48> H    1.88256840  -1.62519480   2.88030726
| 49> O    1.28181700   2.46075456   0.27703198
| 50> O    0.53825034   0.89325662   1.68060394
| 51> C    0.89338443   2.10232380   1.38367586
| 52> C    0.82731819   3.06564168   2.53612009
| 53> H    0.77664568   4.08979493   2.17662694
| 54> H    1.73355648   2.96663246   3.13681799
| 55> H   -0.01672841   2.85791193   3.19063206
| 56> H    3.23820743  -1.90764479   0.59057204
| 57> H    1.53730030  -2.85567263  -1.29143778
| 58> *
| 59>
| 60>                          ****END OF INPUT****
 Total Charge           Charge          ....    1
 Multiplicity           Mult            ....    1
 Number of Electrons    NEL             ....  164
Dispersion correction           -0.031023372
FINAL SINGLE POINT ENERGY     -1288.397251256727
Dispersion correction            ... done
Dispersion correction           -0.031017492
FINAL SINGLE POINT ENERGY     -1288.396134184279
Dispersion correction            ... done
Dispersion correction           -0.030966741
FINAL SINGLE POINT ENERGY     -1288.397336397584
Dispersion correction            ... done
FINAL SINGLE POINT ENERGY     -1288.395998451649
FINAL SINGLE POINT ENERGY     -1288.397392274259
FINAL SINGLE POINT ENERGY     -1288.397407123512
FINAL SINGLE POINT ENERGY     -1288.397421038570
FINAL SINGLE POINT ENERGY     -1288.397427697901
Dispersion correction            ... done
Dispersion correction           -0.030911699
FINAL SINGLE POINT ENERGY     -1288.397434657452
Dispersion correction            ... done
Dispersion correction           -0.030906275
FINAL SINGLE POINT ENERGY     -1288.397445081149
Dispersion correction            ... done
                    ***********************HURRAY********************

CARTESIAN COORDINATES (ANGSTROEM)
---------------------------------
  Ir     0.585188   -0.725200    0.463236
  C      0.029395   -2.805531    0.345374
  C      0.113712   -2.358816    1.714854
  C      2.197096   -2.139039    0.760221
  C      1.293167   -2.643528   -0.249224
  C      1.482021   -2.003029    1.962677
  N     -1.043408    0.171015   -0.518555
  C     -2.314698    0.503999    0.143080
  C     -3.130277    1.551039   -0.597980
  H     -3.961287    1.860974    0.034121
  H     -3.568554    1.173295   -1.523213
  H     -2.545273    2.443352   -0.823130
  C     -3.117295   -0.769382    0.379717
  H     -2.022254    0.915987    1.110405
  H     -4.031388   -0.528815    0.920375
  H     -3.402100   -1.239512   -0.562501
  H     -2.569672   -1.494756    0.979773
  C     -0.837390    0.376886   -1.761372
  C      0.514372    0.153424   -2.228121
  H     -1.615761    0.736276   -2.428463
  C      1.618664    0.514225   -1.464816
  C      2.821926    0.099199   -2.104864
  S      0.938166   -0.626213   -3.686953
  C      2.607244   -0.519430   -3.296226
  H      1.538262    1.387830   -0.675531
  H      3.809032    0.302608   -1.715852
  H      3.342693   -0.901693   -3.987912
  H     -0.861780   -3.164408   -0.149226
  H     -0.674342   -2.392870    2.452804
  H      1.871414   -1.613624    2.892367
  O      1.302929    2.455523    0.266002
  O      0.536349    0.904340    1.674429
  C      0.904231    2.106473    1.373843
  C      0.844966    3.079311    2.518198
  H      0.799303    4.101024    2.151246
  H      1.751833    2.979818    3.117924
  H      0.000922    2.880563    3.175408
  H      3.242013   -1.908866    0.613958
  H      1.549954   -2.863263   -1.275332

 Multiplicity           Mult            ....    1
 Number of Electrons    NEL             ....  164
 Basis Dimension        Dim             ....  358

ORBITAL ENERGIES
----------------

  NO   OCC          E(Eh)            E(eV)
   0   2.0000     -89.761691     -2442.5398
   1   2.0000     -19.622170      -533.9464
   2   2.0000     -19.584347      -532.9172
   3   2.0000     -14.841707      -403.8634
   4   2.0000     -10.678550      -290.5781
   5   2.0000     -10.662735      -290.1478
   6   2.0000     -10.638603      -289.4911
   7   2.0000     -10.635518      -289.4072
   8   2.0000     -10.634664      -289.3839
   9   2.0000     -10.633142      -289.3425
  10   2.0000     -10.632569      -289.3269
  11   2.0000     -10.632021      -289.3120
  12   2.0000     -10.616641      -288.8935
  13   2.0000     -10.609866      -288.7091
  14   2.0000     -10.583616      -287.9948
  15   2.0000     -10.581948      -287.9494
  16   2.0000     -10.557554      -287.2856
  17   2.0000     -10.552418      -287.1459
  18   2.0000     -10.531366      -286.5730
  19   2.0000      -8.401000      -228.6028
  20   2.0000      -6.291087      -171.1892
  21   2.0000      -6.287440      -171.0899
  22   2.0000      -6.285711      -171.0429
  23   2.0000      -4.031188      -109.6942
  24   2.0000      -2.350460       -63.9593
  25   2.0000      -2.316133       -63.0252
  26   2.0000      -2.314657       -62.9850
  27   2.0000      -1.302585       -35.4451
  28   2.0000      -1.214125       -33.0380
  29   2.0000      -1.206222       -32.8230
  30   2.0000      -1.174913       -31.9710
  31   2.0000      -1.126277       -30.6475
  32   2.0000      -1.027473       -27.9590
  33   2.0000      -0.989756       -26.9326
  34   2.0000      -0.979931       -26.6653
  35   2.0000      -0.965429       -26.2707
  36   2.0000      -0.959672       -26.1140
  37   2.0000      -0.925064       -25.1723
  38   2.0000      -0.903971       -24.5983
  39   2.0000      -0.874064       -23.7845
  40   2.0000      -0.797953       -21.7134
  41   2.0000      -0.790805       -21.5189
  42   2.0000      -0.789076       -21.4719
  43   2.0000      -0.781232       -21.2584
  44   2.0000      -0.774044       -21.0628
  45   2.0000      -0.755295       -20.5526
  46   2.0000      -0.744362       -20.2551
  47   2.0000      -0.722749       -19.6670
  48   2.0000      -0.694830       -18.9073
  49   2.0000      -0.672375       -18.2963
  50   2.0000      -0.665496       -18.1091
  51   2.0000      -0.651981       -17.7413
  52   2.0000      -0.648413       -17.6442
  53   2.0000      -0.641066       -17.4443
  54   2.0000      -0.636461       -17.3190
  55   2.0000      -0.628386       -17.0992
  56   2.0000      -0.624037       -16.9809
  57   2.0000      -0.612235       -16.6598
  58   2.0000      -0.610286       -16.6067
  59   2.0000      -0.609042       -16.5729
  60   2.0000      -0.597381       -16.2556
  61   2.0000      -0.588505       -16.0140
  62   2.0000      -0.577613       -15.7176
  63   2.0000      -0.571425       -15.5493
  64   2.0000      -0.563932       -15.3454
  65   2.0000      -0.554046       -15.0764
  66   2.0000      -0.552703       -15.0398
  67   2.0000      -0.548547       -14.9267
  68   2.0000      -0.539083       -14.6692
  69   2.0000      -0.535189       -14.5632
  70   2.0000      -0.528254       -14.3745
  71   2.0000      -0.521704       -14.1963
  72   2.0000      -0.516314       -14.0496
  73   2.0000      -0.506921       -13.7940
  74   2.0000      -0.488476       -13.2921
  75   2.0000      -0.481341       -13.0980
  76   2.0000      -0.465195       -12.6586
  77   2.0000      -0.450014       -12.2455
  78   2.0000      -0.440645       -11.9906
  79   2.0000      -0.423898       -11.5349
  80   2.0000      -0.417229       -11.3534
  81   2.0000      -0.404384       -11.0039
  82   0.0000      -0.201048        -5.4708
  83   0.0000      -0.165574        -4.5055
  84   0.0000      -0.142082        -3.8662
  85   0.0000      -0.101612        -2.7650
  86   0.0000      -0.077080        -2.0974

MULLIKEN ATOMIC CHARGES
-----------------------
   0 Ir:    0.619616
   1 C :   -0.208158
   2 C :   -0.294623
   3 C :   -0.231872
   4 C :   -0.245990
   5 C :   -0.165217
   6 N :   -0.425131
   7 C :   -0.116949
   8 C :   -0.695465
   9 H :    0.273286
  10 H :    0.226037
  11 H :    0.261085
  12 C :   -0.639890
  13 H :    0.281657
  14 H :    0.265292
  15 H :    0.230852
  16 H :    0.233116
  17 C :    0.068008
  18 C :   -0.213847
  19 H :    0.292930
  20 C :   -0.414184
  21 C :   -0.138570
  22 S :    0.295325
  23 C :   -0.429840
  24 H :    0.496885
  25 H :    0.267460
  26 H :    0.297238
  27 H :    0.292697
  28 H :    0.294104
  29 H :    0.307507
  30 O :   -0.480159
  31 O :   -0.544645
  32 C :    0.611811
  33 C :   -0.745825
  34 H :    0.268506
  35 H :    0.264888
  36 H :    0.251195
  37 H :    0.295618
  38 H :    0.295253
Sum of atomic charges:    1.0000000

LOEWDIN ATOMIC CHARGES
----------------------
   0 Ir:   -0.213169
   1 C :   -0.038851
   2 C :   -0.056982
   3 C :   -0.047635
   4 C :   -0.056022
   5 C :   -0.025617
   6 N :   -0.005780
   7 C :   -0.068359
   8 C :   -0.364924
   9 H :    0.157777
  10 H :    0.133962
  11 H :    0.147112
  12 C :   -0.343432
  13 H :    0.156857
  14 H :    0.153365
  15 H :    0.137281
  16 H :    0.134459
  17 C :    0.036425
  18 C :   -0.186492
  19 H :    0.163380
  20 C :   -0.183252
  21 C :   -0.141857
  22 S :    0.460933
  23 C :   -0.262844
  24 H :    0.279440
  25 H :    0.162592
  26 H :    0.167779
  27 H :    0.185989
  28 H :    0.186612
  29 H :    0.194171
  30 O :   -0.277326
  31 O :   -0.211247
  32 C :    0.151638
  33 C :   -0.377159
  34 H :    0.158979
  35 H :    0.166138
  36 H :    0.152217
  37 H :    0.187943
  38 H :    0.185899

  Mayer bond orders larger than 0.100000
B(  0-Ir,  1-C ) :   0.4201 B(  0-Ir,  2-C ) :   0.5481 B(  0-Ir,  3-C ) :   0.4637
B(  0-Ir,  4-C ) :   0.4507 B(  0-Ir,  5-C ) :   0.4026 B(  0-Ir,  6-N ) :   0.4629
B(  0-Ir, 20-C ) :   0.2225 B(  0-Ir, 31-O ) :   0.5930 B(  1-C ,  2-C ) :   1.1138
B(  1-C ,  4-C ) :   1.2474 B(  1-C , 27-H ) :   0.9028 B(  2-C ,  5-C ) :   1.1310
B(  2-C , 28-H ) :   0.9065 B(  3-C ,  4-C ) :   1.1039 B(  3-C ,  5-C ) :   1.2348
B(  3-C , 37-H ) :   0.9029 B(  4-C , 38-H ) :   0.8979 B(  5-C , 29-H ) :   0.8974
B(  6-N ,  7-C ) :   0.8909 B(  6-N , 17-C ) :   1.6996 B(  7-C ,  8-C ) :   0.9926
B(  7-C , 12-C ) :   0.9695 B(  7-C , 13-H ) :   0.8710 B(  8-C ,  9-H ) :   0.9032
B(  8-C , 10-H ) :   0.9123 B(  8-C , 11-H ) :   0.9077 B( 12-C , 14-H ) :   0.9062
B( 12-C , 15-H ) :   0.9153 B( 12-C , 16-H ) :   0.9107 B( 17-C , 18-C ) :   1.0463
B( 17-C , 19-H ) :   0.8736 B( 18-C , 20-C ) :   1.3045 B( 18-C , 22-S ) :   1.2196
B( 20-C , 21-C ) :   1.2616 B( 20-C , 24-H ) :   0.5047 B( 21-C , 23-C ) :   1.5485
B( 21-C , 25-H ) :   0.9039 B( 22-S , 23-C ) :   1.2009 B( 23-C , 26-H ) :   0.8924
B( 24-H , 30-O ) :   0.2203 B( 30-O , 32-C ) :   1.7152 B( 31-O , 32-C ) :   1.2598
B( 32-C , 33-C ) :   0.9461 B( 33-C , 34-H ) :   0.9058 B( 33-C , 35-H ) :   0.8996
B( 33-C , 36-H ) :   0.9100

Dispersion correction           -0.030904394
FINAL SINGLE POINT ENERGY     -1288.397447157638

DIPOLE MOMENT
-------------
                                X             Y             Z
Electronic contribution:     34.74717     -67.66514      73.45000
Nuclear contribution   :    -35.38232      66.36684     -73.71590
                        -----------------------------------------
Total Dipole Moment    :     -0.63516      -1.29830      -0.26590
                        -----------------------------------------
Magnitude (a.u.)       :      1.46959
Magnitude (Debye)      :      3.73541

Rotational constants in cm-1:     0.010755     0.009089     0.008254
Rotational constants in MHz :   322.435854   272.476721   247.444858

                             ****ORCA TERMINATED NORMALLY****
TOTAL RUN TIME: 0 days 1 hours 27 minutes 55 seconds 839 msec
