                         Program Version 5.0.3 -  RELEASE  -
|  1> ! Opt PBEh-3c
|  2> %geom Constraints
|  3> { B 0 20 2.3857142857142857 C }
|  4> { B 24 30 1.4142857142857144 C }
|  5>     end
|  6> end
|  7> %output
|  8> xyzfile=True
|  9> end
| 10> %scf
| 11> maxiter 250
| 12> end
| 13> %output
| 14> Print[P_Hirshfeld] = 1
| 15> end
| 16> % maxcore
| 17> 4000
| 18> *xyz 1 1
| 19> Ir   0.59504962  -0.71926728   0.45741928
| 20> C    0.04375178  -2.80446167   0.35494725
| 21> C    0.10171744  -2.35150090   1.72199108
| 22> C    2.20251791  -2.12821046   0.80122443
| 23> C    1.31810118  -2.64402852  -0.21926769
| 24> C    1.46182616  -1.98400940   1.98872274
| 25> N   -1.04546580   0.15972417  -0.52025035
| 26> C   -2.31737117   0.47316211   0.15003663
| 27> C   -3.12038914   1.55983325  -0.54707908
| 28> H   -3.94890119   1.85273536   0.09639616
| 29> H   -3.56175429   1.22675405  -1.48776171
| 30> H   -2.52376930   2.45314863  -0.73412139
| 31> C   -3.13079390  -0.80366724   0.32463841
| 32> H   -2.02739852   0.83859159   1.13646399
| 33> H   -4.04494017  -0.58217777   0.87338454
| 34> H   -3.41529288  -1.22728466  -0.63942729
| 35> H   -2.58910749  -1.56020271   0.89051677
| 36> C   -0.85428544   0.37480662  -1.76502726
| 37> C    0.49237893   0.16519698  -2.24355976
| 38> H   -1.64270532   0.73255142  -2.42088171
| 39> C    1.58799133   0.43992634  -1.43157413
| 40> C    2.79536363   0.04994182  -2.07991254
| 41> S    0.92796910  -0.51308024  -3.74480703
| 42> C    2.59092997  -0.47158798  -3.31905622
| 43> H    1.52911057   1.34299783  -0.64862601
| 44> H    3.77904648   0.20325041  -1.66042486
| 45> H    3.33127085  -0.81456779  -4.02594968
| 46> H   -0.83638854  -3.17072475  -0.15381460
| 47> H   -0.69934108  -2.38327929   2.44561928
| 48> H    1.83251603  -1.58476606   2.92191989
| 49> O    1.34819451   2.44535912   0.24181506
| 50> O    0.53385590   0.92639605   1.65651443
| 51> C    0.92744854   2.11507002   1.35037292
| 52> C    0.87312257   3.10628202   2.47838471
| 53> H    0.83854963   4.12292615   2.09648797
| 54> H    1.77735876   3.00700853   3.08214299
| 55> H    0.02493397   2.92431185   3.13492011
| 56> H    3.25111713  -1.90299075   0.67636423
| 57> H    1.59315229  -2.87497679  -1.23800150
| 58> *
| 59>
| 60>                          ****END OF INPUT****
 Total Charge           Charge          ....    1
 Multiplicity           Mult            ....    1
 Number of Electrons    NEL             ....  164
Dispersion correction           -0.030980229
FINAL SINGLE POINT ENERGY     -1288.398786547262
Dispersion correction            ... done
Dispersion correction           -0.031039621
FINAL SINGLE POINT ENERGY     -1288.396626380537
Dispersion correction            ... done
Dispersion correction           -0.030955788
FINAL SINGLE POINT ENERGY     -1288.398899771942
Dispersion correction            ... done
FINAL SINGLE POINT ENERGY     -1288.397208304741
FINAL SINGLE POINT ENERGY     -1288.398976075690
FINAL SINGLE POINT ENERGY     -1288.399001059339
FINAL SINGLE POINT ENERGY     -1288.399028816582
FINAL SINGLE POINT ENERGY     -1288.399046397174
FINAL SINGLE POINT ENERGY     -1288.399058019257
Dispersion correction            ... done
Dispersion correction           -0.030824928
FINAL SINGLE POINT ENERGY     -1288.399066114765
Dispersion correction            ... done
Dispersion correction           -0.030821799
FINAL SINGLE POINT ENERGY     -1288.399065707554
Dispersion correction            ... done
                    ***********************HURRAY********************

CARTESIAN COORDINATES (ANGSTROEM)
---------------------------------
  Ir     0.598773   -0.719818    0.459650
  C      0.048091   -2.807769    0.367460
  C      0.081781   -2.348567    1.732157
  C      2.199070   -2.127143    0.845470
  C      1.332669   -2.650837   -0.185933
  C      1.435140   -1.975003    2.018289
  N     -1.044396    0.151224   -0.520713
  C     -2.317898    0.449049    0.154342
  C     -3.116427    1.557287   -0.513952
  H     -3.944781    1.835685    0.136124
  H     -3.557687    1.250862   -1.463598
  H     -2.516055    2.452789   -0.676542
  C     -3.135674   -0.830004    0.289808
  H     -2.030952    0.785562    1.151817
  H     -4.050942   -0.622289    0.842161
  H     -3.418277   -1.224900   -0.686912
  H     -2.597182   -1.604150    0.834313
  C     -0.861032    0.380234   -1.765286
  C      0.480915    0.183338   -2.255071
  H     -1.656272    0.740835   -2.411100
  C      1.572166    0.387038   -1.416252
  C      2.779730    0.020982   -2.077616
  S      0.920258   -0.402424   -3.791965
  C      2.578730   -0.414973   -3.350573
  H      1.533545    1.308455   -0.629687
  H      3.762011    0.131266   -1.641674
  H      3.320553   -0.722418   -4.072097
  H     -0.821996   -3.179149   -0.154677
  H     -0.731695   -2.376726    2.441787
  H      1.788715   -1.568416    2.955002
  O      1.393394    2.426990    0.224385
  O      0.533788    0.940595    1.645563
  C      0.949839    2.116785    1.332460
  C      0.898027    3.126230    2.443612
  H      0.874819    4.137242    2.046222
  H      1.798301    3.028053    3.053425
  H      0.044515    2.961081    3.097502
  H      3.250757   -1.906750    0.740422
  H      1.625050   -2.891057   -1.197583

 Multiplicity           Mult            ....    1
 Number of Electrons    NEL             ....  164
 Basis Dimension        Dim             ....  358

ORBITAL ENERGIES
----------------

  NO   OCC          E(Eh)            E(eV)
   0   2.0000     -89.763275     -2442.5829
   1   2.0000     -19.624670      -534.0144
   2   2.0000     -19.593422      -533.1641
   3   2.0000     -14.839531      -403.8042
   4   2.0000     -10.682877      -290.6958
   5   2.0000     -10.660574      -290.0890
   6   2.0000     -10.635054      -289.3945
   7   2.0000     -10.632371      -289.3215
   8   2.0000     -10.631101      -289.2870
   9   2.0000     -10.629302      -289.2380
  10   2.0000     -10.628862      -289.2260
  11   2.0000     -10.628009      -289.2028
  12   2.0000     -10.615254      -288.8558
  13   2.0000     -10.610101      -288.7155
  14   2.0000     -10.585572      -288.0481
  15   2.0000     -10.583382      -287.9885
  16   2.0000     -10.556430      -287.2551
  17   2.0000     -10.551622      -287.1242
  18   2.0000     -10.534413      -286.6560
  19   2.0000      -8.402665      -228.6481
  20   2.0000      -6.292650      -171.2317
  21   2.0000      -6.289029      -171.1332
  22   2.0000      -6.287518      -171.0921
  23   2.0000      -4.027760      -109.6009
  24   2.0000      -2.346541       -63.8526
  25   2.0000      -2.312714       -62.9321
  26   2.0000      -2.311150       -62.8896
  27   2.0000      -1.308287       -35.6003
  28   2.0000      -1.212682       -32.9988
  29   2.0000      -1.210130       -32.9293
  30   2.0000      -1.170992       -31.8643
  31   2.0000      -1.127122       -30.6706
  32   2.0000      -1.026366       -27.9288
  33   2.0000      -0.985330       -26.8122
  34   2.0000      -0.976127       -26.5618
  35   2.0000      -0.966521       -26.3004
  36   2.0000      -0.959832       -26.1184
  37   2.0000      -0.928615       -25.2689
  38   2.0000      -0.902674       -24.5630
  39   2.0000      -0.873654       -23.7733
  40   2.0000      -0.798335       -21.7238
  41   2.0000      -0.786905       -21.4128
  42   2.0000      -0.785766       -21.3818
  43   2.0000      -0.781304       -21.2604
  44   2.0000      -0.770846       -20.9758
  45   2.0000      -0.756173       -20.5765
  46   2.0000      -0.743492       -20.2314
  47   2.0000      -0.722956       -19.6726
  48   2.0000      -0.692794       -18.8519
  49   2.0000      -0.675644       -18.3852
  50   2.0000      -0.664836       -18.0911
  51   2.0000      -0.650484       -17.7006
  52   2.0000      -0.648000       -17.6330
  53   2.0000      -0.638818       -17.3831
  54   2.0000      -0.636617       -17.3232
  55   2.0000      -0.630595       -17.1594
  56   2.0000      -0.623055       -16.9542
  57   2.0000      -0.611592       -16.6423
  58   2.0000      -0.606692       -16.5089
  59   2.0000      -0.605938       -16.4884
  60   2.0000      -0.598172       -16.2771
  61   2.0000      -0.589593       -16.0436
  62   2.0000      -0.578565       -15.7435
  63   2.0000      -0.570591       -15.5266
  64   2.0000      -0.563512       -15.3339
  65   2.0000      -0.556788       -15.1510
  66   2.0000      -0.552091       -15.0232
  67   2.0000      -0.548453       -14.9242
  68   2.0000      -0.539585       -14.6828
  69   2.0000      -0.535892       -14.5824
  70   2.0000      -0.528018       -14.3681
  71   2.0000      -0.519865       -14.1462
  72   2.0000      -0.515403       -14.0248
  73   2.0000      -0.504177       -13.7194
  74   2.0000      -0.489489       -13.3197
  75   2.0000      -0.480987       -13.0883
  76   2.0000      -0.468949       -12.7607
  77   2.0000      -0.447774       -12.1845
  78   2.0000      -0.442711       -12.0468
  79   2.0000      -0.422686       -11.5019
  80   2.0000      -0.417319       -11.3558
  81   2.0000      -0.402004       -10.9391
  82   0.0000      -0.202508        -5.5105
  83   0.0000      -0.158402        -4.3103
  84   0.0000      -0.141383        -3.8472
  85   0.0000      -0.095755        -2.6056
  86   0.0000      -0.075686        -2.0595

MULLIKEN ATOMIC CHARGES
-----------------------
   0 Ir:    0.611591
   1 C :   -0.211607
   2 C :   -0.286237
   3 C :   -0.238611
   4 C :   -0.245396
   5 C :   -0.165188
   6 N :   -0.428852
   7 C :   -0.122021
   8 C :   -0.690780
   9 H :    0.271692
  10 H :    0.225212
  11 H :    0.259995
  12 C :   -0.637175
  13 H :    0.282093
  14 H :    0.263621
  15 H :    0.230945
  16 H :    0.232101
  17 C :    0.070706
  18 C :   -0.175214
  19 H :    0.290348
  20 C :   -0.471312
  21 C :   -0.126800
  22 S :    0.312700
  23 C :   -0.431159
  24 H :    0.497583
  25 H :    0.265986
  26 H :    0.297631
  27 H :    0.290589
  28 H :    0.290992
  29 H :    0.305099
  30 O :   -0.481362
  31 O :   -0.536187
  32 C :    0.618368
  33 C :   -0.744948
  34 H :    0.269760
  35 H :    0.266791
  36 H :    0.253770
  37 H :    0.291364
  38 H :    0.293913
Sum of atomic charges:    1.0000000

LOEWDIN ATOMIC CHARGES
----------------------
   0 Ir:   -0.230003
   1 C :   -0.040502
   2 C :   -0.069873
   3 C :   -0.057669
   4 C :   -0.056132
   5 C :   -0.022578
   6 N :   -0.005175
   7 C :   -0.069217
   8 C :   -0.364107
   9 H :    0.157145
  10 H :    0.133388
  11 H :    0.146501
  12 C :   -0.343556
  13 H :    0.156600
  14 H :    0.152736
  15 H :    0.137233
  16 H :    0.133616
  17 C :    0.033939
  18 C :   -0.182709
  19 H :    0.162336
  20 C :   -0.200512
  21 C :   -0.133867
  22 S :    0.476369
  23 C :   -0.262625
  24 H :    0.302215
  25 H :    0.162234
  26 H :    0.168232
  27 H :    0.184638
  28 H :    0.184982
  29 H :    0.192779
  30 O :   -0.274783
  31 O :   -0.204375
  32 C :    0.155368
  33 C :   -0.375383
  34 H :    0.159957
  35 H :    0.167445
  36 H :    0.153602
  37 H :    0.186000
  38 H :    0.185751

  Mayer bond orders larger than 0.100000
B(  0-Ir,  1-C ) :   0.4190 B(  0-Ir,  2-C ) :   0.5149 B(  0-Ir,  3-C ) :   0.4601
B(  0-Ir,  4-C ) :   0.4501 B(  0-Ir,  5-C ) :   0.4015 B(  0-Ir,  6-N ) :   0.4641
B(  0-Ir, 20-C ) :   0.2890 B(  0-Ir, 31-O ) :   0.5720 B(  1-C ,  2-C ) :   1.1219
B(  1-C ,  4-C ) :   1.2429 B(  1-C , 27-H ) :   0.9036 B(  2-C ,  5-C ) :   1.1406
B(  2-C , 28-H ) :   0.9082 B(  3-C ,  4-C ) :   1.1084 B(  3-C ,  5-C ) :   1.2289
B(  3-C , 37-H ) :   0.9059 B(  4-C , 38-H ) :   0.9005 B(  5-C , 29-H ) :   0.8984
B(  6-N ,  7-C ) :   0.8921 B(  6-N , 17-C ) :   1.6815 B(  7-C ,  8-C ) :   0.9916
B(  7-C , 12-C ) :   0.9684 B(  7-C , 13-H ) :   0.8725 B(  8-C ,  9-H ) :   0.9038
B(  8-C , 10-H ) :   0.9127 B(  8-C , 11-H ) :   0.9087 B( 12-C , 14-H ) :   0.9066
B( 12-C , 15-H ) :   0.9155 B( 12-C , 16-H ) :   0.9118 B( 17-C , 18-C ) :   1.0675
B( 17-C , 19-H ) :   0.8746 B( 18-C , 20-C ) :   1.2807 B( 18-C , 22-S ) :   1.2347
B( 20-C , 21-C ) :   1.2666 B( 20-C , 24-H ) :   0.4501 B( 21-C , 23-C ) :   1.5481
B( 21-C , 25-H ) :   0.9044 B( 22-S , 23-C ) :   1.2052 B( 23-C , 26-H ) :   0.8919
B( 24-H , 30-O ) :   0.2573 B( 30-O , 32-C ) :   1.6734 B( 31-O , 32-C ) :   1.2905
B( 32-C , 33-C ) :   0.9464 B( 33-C , 34-H ) :   0.9047 B( 33-C , 35-H ) :   0.8983
B( 33-C , 36-H ) :   0.9093

Dispersion correction           -0.030819663
FINAL SINGLE POINT ENERGY     -1288.399066787386

DIPOLE MOMENT
-------------
                                X             Y             Z
Electronic contribution:     36.14479     -68.50384      73.85143
Nuclear contribution   :    -36.76817      67.37784     -74.15242
                        -----------------------------------------
Total Dipole Moment    :     -0.62338      -1.12601      -0.30099
                        -----------------------------------------
Magnitude (a.u.)       :      1.32178
Magnitude (Debye)      :      3.35969

Rotational constants in cm-1:     0.010634     0.009056     0.008219
Rotational constants in MHz :   318.785126   271.497756   246.389929

                             ****ORCA TERMINATED NORMALLY****
TOTAL RUN TIME: 0 days 1 hours 35 minutes 40 seconds 842 msec
