                         Program Version 5.0.3 -  RELEASE  -
|  1> ! Opt PBEh-3c
|  2> %geom Constraints
|  3> { B 0 20 2.3857142857142857 C }
|  4> { B 24 30 1.4714285714285715 C }
|  5>     end
|  6> end
|  7> %output
|  8> xyzfile=True
|  9> end
| 10> %scf
| 11> maxiter 250
| 12> end
| 13> %output
| 14> Print[P_Hirshfeld] = 1
| 15> end
| 16> % maxcore
| 17> 4000
| 18> *xyz 1 1
| 19> Ir   0.60181640  -0.71310481   0.43596439
| 20> C    0.05067323  -2.79961775   0.33887682
| 21> C    0.12604393  -2.34425677   1.70494822
| 22> C    2.21405483  -2.12174187   0.75763219
| 23> C    1.31741066  -2.63979863  -0.25111039
| 24> C    1.48965344  -1.97720952   1.95468085
| 25> N   -1.04628367   0.17229364  -0.52589704
| 26> C   -2.31256987   0.49801569   0.14774499
| 27> C   -3.12264992   1.56777856  -0.56645882
| 28> H   -3.94885300   1.87042107   0.07544601
| 29> H   -3.56751466   1.21457835  -1.49821425
| 30> H   -2.53039158   2.45961368  -0.77366050
| 31> C   -3.12110183  -0.77677033   0.35590404
| 32> H   -2.01425687   0.88434420   1.12362591
| 33> H   -4.03037016  -0.54563753   0.90868496
| 34> H   -3.41402325  -1.22057296  -0.59649002
| 35> H   -2.57256779  -1.52032993   0.93239147
| 36> C   -0.85234254   0.38117615  -1.76997253
| 37> C    0.49729956   0.15079151  -2.23760129
| 38> H   -1.63293062   0.74516139  -2.43166763
| 39> C    1.59505662   0.46442770  -1.44149405
| 40> C    2.80263171   0.04673349  -2.07416732
| 41> S    0.93110496  -0.60337218  -3.70224024
| 42> C    2.59639244  -0.53735879  -3.28354027
| 43> H    1.53166717   1.35501453  -0.68501016
| 44> H    3.78632723   0.22473100  -1.66465226
| 45> H    3.33528418  -0.91445408  -3.97432699
| 46> H   -0.83610658  -3.16653447  -0.15772698
| 47> H   -0.66572464  -2.37459889   2.43887459
| 48> H    1.87202738  -1.57646947   2.88248902
| 49> O    1.30033727   2.47876349   0.25892931
| 50> O    0.53475562   0.91474639   1.65306159
| 51> C    0.90026782   2.12040794   1.36231641
| 52> C    0.83317327   3.08363937   2.51512426
| 53> H    0.78996435   4.10854550   2.15689479
| 54> H    1.73561490   2.97869264   3.12052535
| 55> H   -0.01556460   2.87941881   3.16463829
| 56> H    3.26060534  -1.89514976   0.61867617
| 57> H    1.58045928  -2.87312740  -1.27245885
| 58> *
| 59>
| 60>                          ****END OF INPUT****
 Total Charge           Charge          ....    1
 Multiplicity           Mult            ....    1
 Number of Electrons    NEL             ....  164
Dispersion correction           -0.031075470
FINAL SINGLE POINT ENERGY     -1288.399807824739
Dispersion correction            ... done
Dispersion correction           -0.031093784
FINAL SINGLE POINT ENERGY     -1288.398752580993
Dispersion correction            ... done
Dispersion correction           -0.031037038
FINAL SINGLE POINT ENERGY     -1288.399895155796
Dispersion correction            ... done
FINAL SINGLE POINT ENERGY     -1288.398557554866
FINAL SINGLE POINT ENERGY     -1288.399973063964
FINAL SINGLE POINT ENERGY     -1288.399976735534
FINAL SINGLE POINT ENERGY     -1288.400006665874
FINAL SINGLE POINT ENERGY     -1288.400015069315
FINAL SINGLE POINT ENERGY     -1288.400021870192
Dispersion correction            ... done
Dispersion correction           -0.030959846
FINAL SINGLE POINT ENERGY     -1288.400033416469
Dispersion correction            ... done
Dispersion correction           -0.030959108
FINAL SINGLE POINT ENERGY     -1288.400034957505
Dispersion correction            ... done
                    ***********************HURRAY********************

CARTESIAN COORDINATES (ANGSTROEM)
---------------------------------
  Ir     0.605556   -0.711489    0.435384
  C      0.057760   -2.800726    0.343173
  C      0.116846   -2.344470    1.708700
  C      2.215371   -2.116892    0.782866
  C      1.330982   -2.640038   -0.233757
  C      1.475180   -1.970324    1.970981
  N     -1.047291    0.165708   -0.525513
  C     -2.314107    0.481114    0.152231
  C     -3.117567    1.571075   -0.538937
  H     -3.943266    1.863825    0.108207
  H     -3.562780    1.241132   -1.478931
  H     -2.519707    2.463672   -0.725450
  C     -3.128420   -0.795072    0.327800
  H     -2.017361    0.842984    1.137844
  H     -4.037651   -0.574249    0.884875
  H     -3.421306   -1.214115   -0.635735
  H     -2.582991   -1.554764    0.885846
  C     -0.860695    0.379735   -1.770540
  C      0.486261    0.157597   -2.244674
  H     -1.646533    0.743048   -2.426234
  C      1.578303    0.425020   -1.423040
  C      2.788390    0.023476   -2.061893
  S      0.927004   -0.538521   -3.733614
  C      2.588615   -0.506313   -3.297348
  H      1.525309    1.331879   -0.668842
  H      3.769871    0.174555   -1.636522
  H      3.330586   -0.860125   -3.997101
  H     -0.822116   -3.171441   -0.162813
  H     -0.682983   -2.375162    2.433657
  H      1.845842   -1.565484    2.901785
  O      1.325374    2.469490    0.242733
  O      0.534222    0.926262    1.644457
  C      0.913832    2.123749    1.347895
  C      0.851357    3.099880    2.489555
  H      0.815744    4.121347    2.120880
  H      1.752309    2.994882    3.097182
  H      0.000200    2.907557    3.139435
  H      3.263967   -1.892285    0.657378
  H      1.605263   -2.877326   -1.251181

 Multiplicity           Mult            ....    1
 Number of Electrons    NEL             ....  164
 Basis Dimension        Dim             ....  358

ORBITAL ENERGIES
----------------

  NO   OCC          E(Eh)            E(eV)
   0   2.0000     -89.766250     -2442.6638
   1   2.0000     -19.620803      -533.9092
   2   2.0000     -19.585496      -532.9484
   3   2.0000     -14.841863      -403.8676
   4   2.0000     -10.677517      -290.5500
   5   2.0000     -10.662831      -290.1504
   6   2.0000     -10.636221      -289.4263
   7   2.0000     -10.636182      -289.4252
   8   2.0000     -10.632933      -289.3368
   9   2.0000     -10.630774      -289.2781
  10   2.0000     -10.629656      -289.2477
  11   2.0000     -10.629171      -289.2345
  12   2.0000     -10.615992      -288.8758
  13   2.0000     -10.612279      -288.7748
  14   2.0000     -10.587969      -288.1133
  15   2.0000     -10.585660      -288.0505
  16   2.0000     -10.557115      -287.2737
  17   2.0000     -10.552092      -287.1370
  18   2.0000     -10.531187      -286.5682
  19   2.0000      -8.405591      -228.7278
  20   2.0000      -6.295607      -171.3122
  21   2.0000      -6.291952      -171.2127
  22   2.0000      -6.290415      -171.1709
  23   2.0000      -4.028615      -109.6242
  24   2.0000      -2.347410       -63.8763
  25   2.0000      -2.313556       -62.9550
  26   2.0000      -2.312287       -62.9205
  27   2.0000      -1.301934       -35.4274
  28   2.0000      -1.214713       -33.0540
  29   2.0000      -1.205063       -32.7914
  30   2.0000      -1.171918       -31.8895
  31   2.0000      -1.130091       -30.7513
  32   2.0000      -1.028204       -27.9789
  33   2.0000      -0.986395       -26.8412
  34   2.0000      -0.977137       -26.5892
  35   2.0000      -0.969046       -26.3691
  36   2.0000      -0.962370       -26.1874
  37   2.0000      -0.924534       -25.1579
  38   2.0000      -0.903471       -24.5847
  39   2.0000      -0.875594       -23.8261
  40   2.0000      -0.799662       -21.7599
  41   2.0000      -0.787961       -21.4415
  42   2.0000      -0.786808       -21.4101
  43   2.0000      -0.783164       -21.3110
  44   2.0000      -0.771907       -21.0046
  45   2.0000      -0.754985       -20.5442
  46   2.0000      -0.743814       -20.2402
  47   2.0000      -0.723835       -19.6965
  48   2.0000      -0.693756       -18.8781
  49   2.0000      -0.672645       -18.3036
  50   2.0000      -0.665729       -18.1154
  51   2.0000      -0.651065       -17.7164
  52   2.0000      -0.646521       -17.5927
  53   2.0000      -0.639654       -17.4059
  54   2.0000      -0.635188       -17.2843
  55   2.0000      -0.627466       -17.0742
  56   2.0000      -0.623342       -16.9620
  57   2.0000      -0.613352       -16.6902
  58   2.0000      -0.607632       -16.5345
  59   2.0000      -0.606939       -16.5156
  60   2.0000      -0.599518       -16.3137
  61   2.0000      -0.590599       -16.0710
  62   2.0000      -0.580612       -15.7993
  63   2.0000      -0.573666       -15.6103
  64   2.0000      -0.564670       -15.3654
  65   2.0000      -0.554086       -15.0774
  66   2.0000      -0.552460       -15.0332
  67   2.0000      -0.548500       -14.9255
  68   2.0000      -0.539597       -14.6832
  69   2.0000      -0.536166       -14.5898
  70   2.0000      -0.527979       -14.3671
  71   2.0000      -0.520600       -14.1662
  72   2.0000      -0.516057       -14.0426
  73   2.0000      -0.503971       -13.7138
  74   2.0000      -0.487308       -13.2603
  75   2.0000      -0.481553       -13.1037
  76   2.0000      -0.469619       -12.7790
  77   2.0000      -0.447188       -12.1686
  78   2.0000      -0.441154       -12.0044
  79   2.0000      -0.424980       -11.5643
  80   2.0000      -0.416795       -11.3416
  81   2.0000      -0.403090       -10.9686
  82   0.0000      -0.203320        -5.5326
  83   0.0000      -0.160118        -4.3570
  84   0.0000      -0.141938        -3.8623
  85   0.0000      -0.100423        -2.7327
  86   0.0000      -0.077493        -2.1087

MULLIKEN ATOMIC CHARGES
-----------------------
   0 Ir:    0.611253
   1 C :   -0.210293
   2 C :   -0.286748
   3 C :   -0.237468
   4 C :   -0.247049
   5 C :   -0.164141
   6 N :   -0.422978
   7 C :   -0.121318
   8 C :   -0.692149
   9 H :    0.272509
  10 H :    0.224951
  11 H :    0.261329
  12 C :   -0.637939
  13 H :    0.283088
  14 H :    0.264495
  15 H :    0.230698
  16 H :    0.232912
  17 C :    0.071232
  18 C :   -0.182643
  19 H :    0.292563
  20 C :   -0.468765
  21 C :   -0.120966
  22 S :    0.308703
  23 C :   -0.433308
  24 H :    0.497473
  25 H :    0.268758
  26 H :    0.298731
  27 H :    0.290840
  28 H :    0.291811
  29 H :    0.306210
  30 O :   -0.475788
  31 O :   -0.541728
  32 C :    0.611465
  33 C :   -0.744908
  34 H :    0.268323
  35 H :    0.264653
  36 H :    0.251206
  37 H :    0.291774
  38 H :    0.293215
Sum of atomic charges:    1.0000000

LOEWDIN ATOMIC CHARGES
----------------------
   0 Ir:   -0.229410
   1 C :   -0.039808
   2 C :   -0.066322
   3 C :   -0.055705
   4 C :   -0.057969
   5 C :   -0.022549
   6 N :   -0.000943
   7 C :   -0.069240
   8 C :   -0.364321
   9 H :    0.157574
  10 H :    0.133405
  11 H :    0.147205
  12 C :   -0.343349
  13 H :    0.157345
  14 H :    0.153151
  15 H :    0.137141
  16 H :    0.134180
  17 C :    0.034335
  18 C :   -0.175789
  19 H :    0.163480
  20 C :   -0.192321
  21 C :   -0.131459
  22 S :    0.476018
  23 C :   -0.263836
  24 H :    0.287910
  25 H :    0.163646
  26 H :    0.168671
  27 H :    0.184826
  28 H :    0.185471
  29 H :    0.193400
  30 O :   -0.275672
  31 O :   -0.210202
  32 C :    0.149695
  33 C :   -0.376848
  34 H :    0.158862
  35 H :    0.165984
  36 H :    0.152282
  37 H :    0.186154
  38 H :    0.185007

  Mayer bond orders larger than 0.100000
B(  0-Ir,  1-C ) :   0.4173 B(  0-Ir,  2-C ) :   0.5175 B(  0-Ir,  3-C ) :   0.4624
B(  0-Ir,  4-C ) :   0.4478 B(  0-Ir,  5-C ) :   0.4004 B(  0-Ir,  6-N ) :   0.4603
B(  0-Ir, 20-C ) :   0.2743 B(  0-Ir, 31-O ) :   0.5849 B(  1-C ,  2-C ) :   1.1210
B(  1-C ,  4-C ) :   1.2459 B(  1-C , 27-H ) :   0.9036 B(  2-C ,  5-C ) :   1.1402
B(  2-C , 28-H ) :   0.9078 B(  3-C ,  4-C ) :   1.1063 B(  3-C ,  5-C ) :   1.2298
B(  3-C , 37-H ) :   0.9053 B(  4-C , 38-H ) :   0.8996 B(  5-C , 29-H ) :   0.8979
B(  6-N ,  7-C ) :   0.8915 B(  6-N , 17-C ) :   1.6928 B(  7-C ,  8-C ) :   0.9917
B(  7-C , 12-C ) :   0.9686 B(  7-C , 13-H ) :   0.8711 B(  8-C ,  9-H ) :   0.9035
B(  8-C , 10-H ) :   0.9127 B(  8-C , 11-H ) :   0.9080 B( 12-C , 14-H ) :   0.9064
B( 12-C , 15-H ) :   0.9154 B( 12-C , 16-H ) :   0.9114 B( 17-C , 18-C ) :   1.0535
B( 17-C , 19-H ) :   0.8741 B( 18-C , 20-C ) :   1.2813 B( 18-C , 22-S ) :   1.2405
B( 20-C , 21-C ) :   1.2538 B( 20-C , 24-H ) :   0.4860 B( 21-C , 23-C ) :   1.5533
B( 21-C , 25-H ) :   0.9033 B( 22-S , 23-C ) :   1.1992 B( 23-C , 26-H ) :   0.8917
B( 24-H , 30-O ) :   0.2363 B( 30-O , 32-C ) :   1.7096 B( 31-O , 32-C ) :   1.2674
B( 32-C , 33-C ) :   0.9452 B( 33-C , 34-H ) :   0.9057 B( 33-C , 35-H ) :   0.8998
B( 33-C , 36-H ) :   0.9101

Dispersion correction           -0.030957386
FINAL SINGLE POINT ENERGY     -1288.400035694850

DIPOLE MOMENT
-------------
                                X             Y             Z
Electronic contribution:     36.84877     -66.94976      71.06781
Nuclear contribution   :    -37.47922      65.69727     -71.45216
                        -----------------------------------------
Total Dipole Moment    :     -0.63045      -1.25249      -0.38436
                        -----------------------------------------
Magnitude (a.u.)       :      1.45393
Magnitude (Debye)      :      3.69561

Rotational constants in cm-1:     0.010746     0.009146     0.008273
Rotational constants in MHz :   322.145049   274.190989   248.031784

                             ****ORCA TERMINATED NORMALLY****
TOTAL RUN TIME: 0 days 1 hours 38 minutes 17 seconds 836 msec
