                         Program Version 5.0.3 -  RELEASE  -
|  1> ! Opt PBEh-3c
|  2> %geom Constraints
|  3> { B 0 20 2.3 C }
|  4> { B 24 30 1.3285714285714287 C }
|  5>     end
|  6> end
|  7> %output
|  8> xyzfile=True
|  9> end
| 10> %scf
| 11> maxiter 250
| 12> end
| 13> %output
| 14> Print[P_Hirshfeld] = 1
| 15> end
| 16> % maxcore
| 17> 4000
| 18> *xyz 1 1
| 19> Ir   0.60495142  -0.73649238   0.48254225
| 20> C    0.08074882  -2.83098167   0.37437400
| 21> C   -0.01585231  -2.36593841   1.73370857
| 22> C    2.17534445  -2.12301228   1.04254752
| 23> C    1.41272006  -2.66778400  -0.05498938
| 24> C    1.29588990  -1.96822732   2.13542670
| 25> N   -1.04026496   0.12113319  -0.50405599
| 26> C   -2.31925818   0.37318162   0.18129769
| 27> C   -3.09575968   1.55115328  -0.38942331
| 28> H   -3.92675551   1.78123083   0.27591292
| 29> H   -3.53067487   1.33945166  -1.36708694
| 30> H   -2.48014719   2.44768848  -0.46534623
| 31> C   -3.15633955  -0.90077846   0.18240560
| 32> H   -2.04547307   0.61302726   1.20969516
| 33> H   -4.07030500  -0.74235336   0.75326221
| 34> H   -3.44179363  -1.18549400  -0.83115621
| 35> H   -2.62810019  -1.73724417   0.63731533
| 36> C   -0.87588540   0.39177403  -1.74548812
| 37> C    0.45046077   0.22671516  -2.27282118
| 38> H   -1.68906819   0.76424876  -2.36159351
| 39> C    1.54412857   0.26314574  -1.41683910
| 40> C    2.74033505  -0.02837412  -2.13059674
| 41> S    0.87337758  -0.11300915  -3.88713579
| 42> C    2.52697731  -0.24317695  -3.45934440
| 43> H    1.57768349   1.24290600  -0.59234325
| 44> H    3.72608202  -0.02248728  -1.68872492
| 45> H    3.26162486  -0.45071087  -4.22260225
| 46> H   -0.73016528  -3.22226730  -0.22283539
| 47> H   -0.88982343  -2.39947537   2.36680921
| 48> H    1.55468076  -1.54537590   3.09590496
| 49> O    1.54275040   2.34895486   0.16838070
| 50> O    0.55139627   0.97589860   1.61434947
| 51> C    1.02989051   2.10963535   1.27415589
| 52> C    0.98137720   3.18700371   2.31700107
| 53> H    0.93414199   4.17032207   1.85649482
| 54> H    1.89737636   3.14422818   2.90940907
| 55> H    0.14324306   3.04885999   2.99549059
| 56> H    3.23256704  -1.90607050   1.04100267
| 57> H    1.79728858  -2.91211519  -1.03436354
| 58> *
| 59>
| 60>                          ****END OF INPUT****
 Total Charge           Charge          ....    1
 Multiplicity           Mult            ....    1
 Number of Electrons    NEL             ....  164
Dispersion correction           -0.030685768
FINAL SINGLE POINT ENERGY     -1288.400856425688
Dispersion correction            ... done
Dispersion correction           -0.030643502
FINAL SINGLE POINT ENERGY     -1288.401033388923
Dispersion correction            ... done
Dispersion correction           -0.030602034
FINAL SINGLE POINT ENERGY     -1288.401163202017
Dispersion correction            ... done
FINAL SINGLE POINT ENERGY     -1288.401221809581
FINAL SINGLE POINT ENERGY     -1288.401261908013
FINAL SINGLE POINT ENERGY     -1288.401277644423
FINAL SINGLE POINT ENERGY     -1288.401285321301
FINAL SINGLE POINT ENERGY     -1288.401295193451
FINAL SINGLE POINT ENERGY     -1288.401295884229
FINAL SINGLE POINT ENERGY     -1288.401297688028
FINAL SINGLE POINT ENERGY     -1288.401302963846
FINAL SINGLE POINT ENERGY     -1288.401306921625
FINAL SINGLE POINT ENERGY     -1288.401311108827
FINAL SINGLE POINT ENERGY     -1288.401316338481
FINAL SINGLE POINT ENERGY     -1288.401320775503
Dispersion correction            ... done
Dispersion correction           -0.030472796
FINAL SINGLE POINT ENERGY     -1288.401324406127
Dispersion correction            ... done
Dispersion correction           -0.030472728
FINAL SINGLE POINT ENERGY     -1288.401326633650
Dispersion correction            ... done
                    ***********************HURRAY********************

CARTESIAN COORDINATES (ANGSTROEM)
---------------------------------
  Ir     0.599778   -0.736610    0.480023
  C      0.105224   -2.838621    0.371905
  C     -0.075559   -2.368534    1.721468
  C      2.150004   -2.096997    1.154674
  C      1.460766   -2.665393    0.024425
  C      1.200119   -1.944803    2.192232
  N     -1.053215    0.112782   -0.500383
  C     -2.337876    0.326459    0.187079
  C     -3.120789    1.522598   -0.336300
  H     -3.957463    1.716100    0.333303
  H     -3.547557    1.351643   -1.325480
  H     -2.511588    2.426122   -0.368298
  C     -3.166076   -0.951786    0.124393
  H     -2.074086    0.524920    1.226861
  H     -4.083220   -0.829233    0.699151
  H     -3.445947   -1.188830   -0.902916
  H     -2.633176   -1.806739    0.537576
  C     -0.892403    0.427053   -1.732782
  C      0.426973    0.275363   -2.273635
  H     -1.709129    0.819096   -2.331594
  C      1.515963    0.186069   -1.417151
  C      2.704866   -0.074395   -2.153827
  S      0.846959    0.086679   -3.913652
  C      2.490563   -0.142812   -3.499064
  H      1.644769    1.181432   -0.567164
  H      3.688242   -0.148933   -1.712939
  H      3.221975   -0.297894   -4.277714
  H     -0.661294   -3.251254   -0.267789
  H     -0.983847   -2.408463    2.303631
  H      1.394899   -1.507959    3.161607
  O      1.724531    2.278393    0.178100
  O      0.543936    1.009863    1.574656
  C      1.116868    2.099070    1.251334
  C      1.068344    3.214268    2.252260
  H      0.952508    4.172488    1.750816
  H      2.016689    3.246041    2.791495
  H      0.270423    3.070906    2.975339
  H      3.204115   -1.875070    1.217894
  H      1.904085   -2.913831   -0.928794

 Multiplicity           Mult            ....    1
 Number of Electrons    NEL             ....  164
 Basis Dimension        Dim             ....  358

ORBITAL ENERGIES
----------------

  NO   OCC          E(Eh)            E(eV)
   0   2.0000     -89.758328     -2442.4483
   1   2.0000     -19.635541      -534.3102
   2   2.0000     -19.618546      -533.8478
   3   2.0000     -14.832856      -403.6225
   4   2.0000     -10.697209      -291.0859
   5   2.0000     -10.654613      -289.9268
   6   2.0000     -10.630052      -289.2584
   7   2.0000     -10.627598      -289.1917
   8   2.0000     -10.626928      -289.1734
   9   2.0000     -10.622013      -289.0397
  10   2.0000     -10.620934      -289.0103
  11   2.0000     -10.618243      -288.9371
  12   2.0000     -10.612757      -288.7878
  13   2.0000     -10.606727      -288.6237
  14   2.0000     -10.585008      -288.0327
  15   2.0000     -10.583248      -287.9848
  16   2.0000     -10.553832      -287.1844
  17   2.0000     -10.550169      -287.0847
  18   2.0000     -10.543983      -286.9164
  19   2.0000      -8.397797      -228.5157
  20   2.0000      -6.287711      -171.0973
  21   2.0000      -6.284161      -171.0007
  22   2.0000      -6.282714      -170.9613
  23   2.0000      -4.023853      -109.4946
  24   2.0000      -2.341826       -63.7243
  25   2.0000      -2.309142       -62.8349
  26   2.0000      -2.306556       -62.7646
  27   2.0000      -1.325631       -36.0723
  28   2.0000      -1.227245       -33.3950
  29   2.0000      -1.204917       -32.7875
  30   2.0000      -1.165521       -31.7154
  31   2.0000      -1.122816       -30.5534
  32   2.0000      -1.022245       -27.8167
  33   2.0000      -0.978775       -26.6338
  34   2.0000      -0.971155       -26.4265
  35   2.0000      -0.963169       -26.2092
  36   2.0000      -0.956048       -26.0154
  37   2.0000      -0.939608       -25.5680
  38   2.0000      -0.899955       -24.4890
  39   2.0000      -0.869722       -23.6663
  40   2.0000      -0.795616       -21.6498
  41   2.0000      -0.781366       -21.2621
  42   2.0000      -0.780729       -21.2447
  43   2.0000      -0.778220       -21.1764
  44   2.0000      -0.765816       -20.8389
  45   2.0000      -0.763776       -20.7834
  46   2.0000      -0.740786       -20.1578
  47   2.0000      -0.722080       -19.6488
  48   2.0000      -0.691281       -18.8107
  49   2.0000      -0.681687       -18.5496
  50   2.0000      -0.662174       -18.0187
  51   2.0000      -0.659397       -17.9431
  52   2.0000      -0.648250       -17.6398
  53   2.0000      -0.639011       -17.3884
  54   2.0000      -0.634168       -17.2566
  55   2.0000      -0.631956       -17.1964
  56   2.0000      -0.621467       -16.9110
  57   2.0000      -0.607883       -16.5413
  58   2.0000      -0.601359       -16.3638
  59   2.0000      -0.600658       -16.3447
  60   2.0000      -0.596004       -16.2181
  61   2.0000      -0.589228       -16.0337
  62   2.0000      -0.576478       -15.6868
  63   2.0000      -0.567937       -15.4544
  64   2.0000      -0.562785       -15.3142
  65   2.0000      -0.561080       -15.2678
  66   2.0000      -0.554975       -15.1016
  67   2.0000      -0.546700       -14.8765
  68   2.0000      -0.541145       -14.7253
  69   2.0000      -0.534190       -14.5360
  70   2.0000      -0.528090       -14.3701
  71   2.0000      -0.517918       -14.0933
  72   2.0000      -0.513384       -13.9699
  73   2.0000      -0.502396       -13.6709
  74   2.0000      -0.496592       -13.5130
  75   2.0000      -0.479433       -13.0460
  76   2.0000      -0.474649       -12.9158
  77   2.0000      -0.447985       -12.1903
  78   2.0000      -0.445890       -12.1333
  79   2.0000      -0.418325       -11.3832
  80   2.0000      -0.416378       -11.3302
  81   2.0000      -0.397901       -10.8274
  82   0.0000      -0.199232        -5.4214
  83   0.0000      -0.146390        -3.9835
  84   0.0000      -0.141716        -3.8563
  85   0.0000      -0.085379        -2.3233
  86   0.0000      -0.071824        -1.9544

MULLIKEN ATOMIC CHARGES
-----------------------
   0 Ir:    0.603725
   1 C :   -0.230629
   2 C :   -0.276603
   3 C :   -0.256942
   4 C :   -0.228817
   5 C :   -0.159924
   6 N :   -0.438896
   7 C :   -0.126331
   8 C :   -0.681627
   9 H :    0.268847
  10 H :    0.224613
  11 H :    0.254830
  12 C :   -0.634019
  13 H :    0.278802
  14 H :    0.259720
  15 H :    0.232155
  16 H :    0.231228
  17 C :    0.070200
  18 C :   -0.149645
  19 H :    0.284271
  20 C :   -0.489209
  21 C :   -0.128759
  22 S :    0.328743
  23 C :   -0.425537
  24 H :    0.481040
  25 H :    0.263705
  26 H :    0.296388
  27 H :    0.287808
  28 H :    0.285584
  29 H :    0.301084
  30 O :   -0.489709
  31 O :   -0.515232
  32 C :    0.632980
  33 C :   -0.744762
  34 H :    0.273143
  35 H :    0.274803
  36 H :    0.260764
  37 H :    0.287007
  38 H :    0.295201
Sum of atomic charges:    1.0000000

LOEWDIN ATOMIC CHARGES
----------------------
   0 Ir:   -0.245368
   1 C :   -0.053190
   2 C :   -0.085588
   3 C :   -0.083393
   4 C :   -0.040324
   5 C :   -0.015566
   6 N :   -0.011279
   7 C :   -0.069047
   8 C :   -0.362216
   9 H :    0.155920
  10 H :    0.132763
  11 H :    0.143905
  12 C :   -0.344078
  13 H :    0.154349
  14 H :    0.151030
  15 H :    0.137718
  16 H :    0.132199
  17 C :    0.031933
  18 C :   -0.196496
  19 H :    0.159426
  20 C :   -0.215468
  21 C :   -0.135770
  22 S :    0.482890
  23 C :   -0.258868
  24 H :    0.343106
  25 H :    0.160491
  26 H :    0.168103
  27 H :    0.183433
  28 H :    0.181852
  29 H :    0.190286
  30 O :   -0.265506
  31 O :   -0.185122
  32 C :    0.167441
  33 C :   -0.371991
  34 H :    0.164816
  35 H :    0.171910
  36 H :    0.155355
  37 H :    0.184057
  38 H :    0.186288

  Mayer bond orders larger than 0.100000
B(  0-Ir,  1-C ) :   0.4317 B(  0-Ir,  2-C ) :   0.4716 B(  0-Ir,  3-C ) :   0.4634
B(  0-Ir,  4-C ) :   0.4407 B(  0-Ir,  5-C ) :   0.3961 B(  0-Ir,  6-N ) :   0.4671
B(  0-Ir, 20-C ) :   0.3827 B(  0-Ir, 31-O ) :   0.5312 B(  1-C ,  2-C ) :   1.1239
B(  1-C ,  4-C ) :   1.2327 B(  1-C , 27-H ) :   0.9063 B(  2-C ,  5-C ) :   1.1706
B(  2-C , 28-H ) :   0.9097 B(  3-C ,  4-C ) :   1.1242 B(  3-C ,  5-C ) :   1.2009
B(  3-C , 37-H ) :   0.9100 B(  4-C , 38-H ) :   0.8999 B(  5-C , 29-H ) :   0.8997
B(  6-N ,  7-C ) :   0.8943 B(  6-N , 17-C ) :   1.6534 B(  7-C ,  8-C ) :   0.9906
B(  7-C , 12-C ) :   0.9673 B(  7-C , 13-H ) :   0.8777 B(  8-C ,  9-H ) :   0.9048
B(  8-C , 10-H ) :   0.9131 B(  8-C , 11-H ) :   0.9117 B( 12-C , 14-H ) :   0.9077
B( 12-C , 15-H ) :   0.9155 B( 12-C , 16-H ) :   0.9128 B( 17-C , 18-C ) :   1.1045
B( 17-C , 19-H ) :   0.8762 B( 18-C , 20-C ) :   1.2664 B( 18-C , 22-S ) :   1.2234
B( 20-C , 21-C ) :   1.2911 B( 20-C , 24-H ) :   0.3621 B( 21-C , 23-C ) :   1.5363
B( 21-C , 25-H ) :   0.9044 B( 22-S , 23-C ) :   1.2219 B( 23-C , 26-H ) :   0.8916
B( 24-H , 30-O ) :   0.3246 B( 30-O , 32-C ) :   1.5740 B( 31-O , 32-C ) :   1.3658
B( 32-C , 33-C ) :   0.9473 B( 33-C , 34-H ) :   0.9001 B( 33-C , 35-H ) :   0.8936
B( 33-C , 36-H ) :   0.9083

Dispersion correction           -0.030472335
FINAL SINGLE POINT ENERGY     -1288.401328096433

DIPOLE MOMENT
-------------
                                X             Y             Z
Electronic contribution:     36.32265     -72.85743      76.72111
Nuclear contribution   :    -36.93427      72.20563     -76.86044
                        -----------------------------------------
Total Dipole Moment    :     -0.61162      -0.65180      -0.13932
                        -----------------------------------------
Magnitude (a.u.)       :      0.90462
Magnitude (Debye)      :      2.29936

Rotational constants in cm-1:     0.010536     0.008718     0.008126
Rotational constants in MHz :   315.848035   261.349725   243.604154

                             ****ORCA TERMINATED NORMALLY****
TOTAL RUN TIME: 0 days 2 hours 12 minutes 20 seconds 165 msec
