                         Program Version 5.0.3 -  RELEASE  -
|  1> ! Opt PBEh-3c
|  2> %geom Constraints
|  3> { B 0 20 2.5571428571428574 C }
|  4> { B 24 30 1.3142857142857143 C }
|  5>     end
|  6> end
|  7> %output
|  8> xyzfile=True
|  9> end
| 10> %scf
| 11> maxiter 250
| 12> end
| 13> %output
| 14> Print[P_Hirshfeld] = 1
| 15> end
| 16> % maxcore
| 17> 4000
| 18> *xyz 1 1
| 19> Ir   0.56123367  -0.74582072   0.53013097
| 20> C    0.00630947  -2.82068758   0.38748778
| 21> C    0.05759698  -2.38047197   1.76049168
| 22> C    2.16552138  -2.16166974   0.86101829
| 23> C    1.28455807  -2.65501534  -0.17426127
| 24> C    1.42121223  -2.03124568   2.04570310
| 25> N   -1.03579088   0.14284363  -0.49857778
| 26> C   -2.32257426   0.45843542   0.14553396
| 27> C   -3.11562544   1.53802022  -0.57437140
| 28> H   -3.95271009   1.83776372   0.05471509
| 29> H   -3.54436876   1.19561733  -1.51744925
| 30> H   -2.51640703   2.42915499  -0.76333411
| 31> C   -3.13908435  -0.81669428   0.31698691
| 32> H   -2.05376621   0.83472050   1.13415741
| 33> H   -4.06716289  -0.58966530   0.83954670
| 34> H   -3.39903278  -1.25329679  -0.64828125
| 35> H   -2.61231932  -1.56561846   0.90671062
| 36> C   -0.82871692   0.34790300  -1.74406345
| 37> C    0.51679327   0.16752441  -2.23438166
| 38> H   -1.62294993   0.68400014  -2.40516287
| 39> C    1.62986500   0.51125059  -1.47929651
| 40> C    2.82236054   0.15393598  -2.16728772
| 41> S    0.92029027  -0.50692679  -3.75578379
| 42> C    2.59190419  -0.39229479  -3.39337194
| 43> H    1.54998900   1.39706499  -0.61377120
| 44> H    3.81615257   0.34708839  -1.78991607
| 45> H    3.32008136  -0.71708521  -4.12134099
| 46> H   -0.87229570  -3.17562490  -0.13175901
| 47> H   -0.74938203  -2.41736208   2.47763721
| 48> H    1.78842386  -1.65093848   2.98808260
| 49> O    1.38729888   2.39455712   0.24857640
| 50> O    0.53902218   0.92174582   1.69461111
| 51> C    0.95468575   2.09325259   1.36521338
| 52> C    0.91968619   3.11427577   2.46490696
| 53> H    0.85659215   4.11907972   2.05585646
| 54> H    1.84651170   3.04790434   3.03832610
| 55> H    0.09705053   2.93706003   3.15382745
| 56> H    3.21369790  -1.93110581   0.74054211
| 57> H    1.56471947  -2.86248475  -1.19691190
| 58> *
| 59>
| 60>                          ****END OF INPUT****
 Total Charge           Charge          ....    1
 Multiplicity           Mult            ....    1
 Number of Electrons    NEL             ....  164
Dispersion correction           -0.030728647
FINAL SINGLE POINT ENERGY     -1288.391656827108
Dispersion correction            ... done
Dispersion correction           -0.030685494
FINAL SINGLE POINT ENERGY     -1288.391814763054
Dispersion correction            ... done
Dispersion correction           -0.030660454
FINAL SINGLE POINT ENERGY     -1288.391877701905
Dispersion correction            ... done
FINAL SINGLE POINT ENERGY     -1288.391902317411
FINAL SINGLE POINT ENERGY     -1288.391914490447
FINAL SINGLE POINT ENERGY     -1288.391923721831
FINAL SINGLE POINT ENERGY     -1288.391930463041
FINAL SINGLE POINT ENERGY     -1288.391940241951
FINAL SINGLE POINT ENERGY     -1288.391946525132
FINAL SINGLE POINT ENERGY     -1288.391955075867
Dispersion correction            ... done
Dispersion correction           -0.030535814
FINAL SINGLE POINT ENERGY     -1288.391959797405
Dispersion correction            ... done
Dispersion correction           -0.030528609
FINAL SINGLE POINT ENERGY     -1288.391961406272
Dispersion correction            ... done
                    ***********************HURRAY********************

CARTESIAN COORDINATES (ANGSTROEM)
---------------------------------
  Ir     0.570000   -0.747393    0.533043
  C      0.017401   -2.825357    0.405162
  C      0.025561   -2.369446    1.773079
  C      2.162380   -2.160274    0.936129
  C      1.313400   -2.667606   -0.118441
  C      1.378307   -2.013645    2.094074
  N     -1.032204    0.128758   -0.497998
  C     -2.321121    0.422389    0.153629
  C     -3.101852    1.541955   -0.517823
  H     -3.938287    1.821124    0.121534
  H     -3.530542    1.246544   -1.476526
  H     -2.492532    2.434007   -0.664800
  C     -3.148278   -0.853485    0.257459
  H     -2.057238    0.748185    1.161166
  H     -4.075859   -0.647708    0.789768
  H     -3.409276   -1.237387   -0.729680
  H     -2.627077   -1.636335    0.806430
  C     -0.838248    0.350427   -1.743947
  C      0.499305    0.187595   -2.253853
  H     -1.643600    0.688167   -2.390568
  C      1.615807    0.446722   -1.471790
  C      2.803675    0.120373   -2.180958
  S      0.894988   -0.371465   -3.821996
  C      2.566044   -0.320460   -3.448343
  H      1.566590    1.351103   -0.590766
  H      3.799962    0.262039   -1.787794
  H      3.290577   -0.600215   -4.198273
  H     -0.843347   -3.189354   -0.137127
  H     -0.802887   -2.398743    2.465526
  H      1.714858   -1.618992    3.042094
  O      1.453108    2.370677    0.230779
  O      0.540245    0.939606    1.678245
  C      0.985413    2.094627    1.343383
  C      0.946399    3.138274    2.420643
  H      0.890484    4.135109    1.991447
  H      1.869395    3.080230    3.001065
  H      0.117883    2.977190    3.106240
  H      3.215249   -1.937090    0.849040
  H      1.624690   -2.890958   -1.128511

 Multiplicity           Mult            ....    1
 Number of Electrons    NEL             ....  164
 Basis Dimension        Dim             ....  358

ORBITAL ENERGIES
----------------

  NO   OCC          E(Eh)            E(eV)
   0   2.0000     -89.753399     -2442.3142
   1   2.0000     -19.631581      -534.2025
   2   2.0000     -19.602212      -533.4033
   3   2.0000     -14.835801      -403.7027
   4   2.0000     -10.691357      -290.9266
   5   2.0000     -10.657503      -290.0054
   6   2.0000     -10.636706      -289.4395
   7   2.0000     -10.634811      -289.3879
   8   2.0000     -10.634061      -289.3675
   9   2.0000     -10.632118      -289.3146
  10   2.0000     -10.631096      -289.2868
  11   2.0000     -10.620331      -288.9939
  12   2.0000     -10.614893      -288.8459
  13   2.0000     -10.603839      -288.5451
  14   2.0000     -10.576536      -287.8022
  15   2.0000     -10.575117      -287.7636
  16   2.0000     -10.556204      -287.2489
  17   2.0000     -10.551004      -287.1074
  18   2.0000     -10.538678      -286.7720
  19   2.0000      -8.392839      -228.3808
  20   2.0000      -6.282868      -170.9655
  21   2.0000      -6.279294      -170.8683
  22   2.0000      -6.277592      -170.8220
  23   2.0000      -4.030199      -109.6673
  24   2.0000      -2.349599       -63.9358
  25   2.0000      -2.315251       -63.0012
  26   2.0000      -2.313039       -62.9410
  27   2.0000      -1.317445       -35.8495
  28   2.0000      -1.221047       -33.2264
  29   2.0000      -1.206950       -32.8428
  30   2.0000      -1.174068       -31.9480
  31   2.0000      -1.118024       -30.4230
  32   2.0000      -1.022801       -27.8318
  33   2.0000      -0.988719       -26.9044
  34   2.0000      -0.978948       -26.6385
  35   2.0000      -0.959027       -26.0964
  36   2.0000      -0.952202       -25.9107
  37   2.0000      -0.934183       -25.4204
  38   2.0000      -0.901874       -24.5412
  39   2.0000      -0.869103       -23.6495
  40   2.0000      -0.794650       -21.6235
  41   2.0000      -0.789588       -21.4858
  42   2.0000      -0.788134       -21.4462
  43   2.0000      -0.777089       -21.1457
  44   2.0000      -0.771636       -20.9973
  45   2.0000      -0.763041       -20.7634
  46   2.0000      -0.741352       -20.1732
  47   2.0000      -0.722473       -19.6595
  48   2.0000      -0.692101       -18.8330
  49   2.0000      -0.675640       -18.3851
  50   2.0000      -0.662706       -18.0331
  51   2.0000      -0.654573       -17.8118
  52   2.0000      -0.649112       -17.6632
  53   2.0000      -0.640980       -17.4419
  54   2.0000      -0.640334       -17.4244
  55   2.0000      -0.634795       -17.2737
  56   2.0000      -0.622981       -16.9522
  57   2.0000      -0.609829       -16.5943
  58   2.0000      -0.609297       -16.5798
  59   2.0000      -0.606404       -16.5011
  60   2.0000      -0.594124       -16.1669
  61   2.0000      -0.585365       -15.9286
  62   2.0000      -0.572995       -15.5920
  63   2.0000      -0.566368       -15.4117
  64   2.0000      -0.560606       -15.2549
  65   2.0000      -0.557464       -15.1694
  66   2.0000      -0.553057       -15.0494
  67   2.0000      -0.548267       -14.9191
  68   2.0000      -0.539923       -14.6920
  69   2.0000      -0.533171       -14.5083
  70   2.0000      -0.527083       -14.3427
  71   2.0000      -0.520076       -14.1520
  72   2.0000      -0.515702       -14.0330
  73   2.0000      -0.508021       -13.8239
  74   2.0000      -0.494621       -13.4593
  75   2.0000      -0.480065       -13.0632
  76   2.0000      -0.462205       -12.5772
  77   2.0000      -0.451354       -12.2820
  78   2.0000      -0.443864       -12.0782
  79   2.0000      -0.418618       -11.3912
  80   2.0000      -0.416259       -11.3270
  81   2.0000      -0.400691       -10.9033
  82   0.0000      -0.199625        -5.4321
  83   0.0000      -0.164175        -4.4674
  84   0.0000      -0.141158        -3.8411
  85   0.0000      -0.090471        -2.4618
  86   0.0000      -0.074323        -2.0224

MULLIKEN ATOMIC CHARGES
-----------------------
   0 Ir:    0.619316
   1 C :   -0.211591
   2 C :   -0.295163
   3 C :   -0.233471
   4 C :   -0.240978
   5 C :   -0.168076
   6 N :   -0.440181
   7 C :   -0.122173
   8 C :   -0.689144
   9 H :    0.270532
  10 H :    0.226071
  11 H :    0.259068
  12 C :   -0.636442
  13 H :    0.278661
  14 H :    0.263227
  15 H :    0.231458
  16 H :    0.229756
  17 C :    0.069187
  18 C :   -0.202679
  19 H :    0.287041
  20 C :   -0.405112
  21 C :   -0.155356
  22 S :    0.299958
  23 C :   -0.423734
  24 H :    0.499290
  25 H :    0.261080
  26 H :    0.294302
  27 H :    0.292632
  28 H :    0.293200
  29 H :    0.305867
  30 O :   -0.496014
  31 O :   -0.533022
  32 C :    0.626185
  33 C :   -0.746032
  34 H :    0.271835
  35 H :    0.269954
  36 H :    0.256716
  37 H :    0.295841
  38 H :    0.297990
Sum of atomic charges:    1.0000000

LOEWDIN ATOMIC CHARGES
----------------------
   0 Ir:   -0.211095
   1 C :   -0.042126
   2 C :   -0.060896
   3 C :   -0.052113
   4 C :   -0.048936
   5 C :   -0.024944
   6 N :   -0.017659
   7 C :   -0.068597
   8 C :   -0.363796
   9 H :    0.156485
  10 H :    0.133600
  11 H :    0.146077
  12 C :   -0.343950
  13 H :    0.154644
  14 H :    0.152436
  15 H :    0.137463
  16 H :    0.132429
  17 C :    0.036557
  18 C :   -0.203470
  19 H :    0.160437
  20 C :   -0.202305
  21 C :   -0.149407
  22 S :    0.457425
  23 C :   -0.260168
  24 H :    0.309513
  25 H :    0.159068
  26 H :    0.166521
  27 H :    0.185818
  28 H :    0.185983
  29 H :    0.193184
  30 O :   -0.274548
  31 O :   -0.197610
  32 C :    0.165627
  33 C :   -0.374053
  34 H :    0.161792
  35 H :    0.169553
  36 H :    0.154682
  37 H :    0.188114
  38 H :    0.188264

  Mayer bond orders larger than 0.100000
B(  0-Ir,  1-C ) :   0.4247 B(  0-Ir,  2-C ) :   0.5504 B(  0-Ir,  3-C ) :   0.4591
B(  0-Ir,  4-C ) :   0.4585 B(  0-Ir,  5-C ) :   0.4048 B(  0-Ir,  6-N ) :   0.4731
B(  0-Ir, 20-C ) :   0.2467 B(  0-Ir, 31-O ) :   0.5632 B(  1-C ,  2-C ) :   1.1135
B(  1-C ,  4-C ) :   1.2406 B(  1-C , 27-H ) :   0.9029 B(  2-C ,  5-C ) :   1.1296
B(  2-C , 28-H ) :   0.9067 B(  3-C ,  4-C ) :   1.1063 B(  3-C ,  5-C ) :   1.2352
B(  3-C , 37-H ) :   0.9038 B(  4-C , 38-H ) :   0.8997 B(  5-C , 29-H ) :   0.8980
B(  6-N ,  7-C ) :   0.8915 B(  6-N , 17-C ) :   1.6716 B(  7-C ,  8-C ) :   0.9920
B(  7-C , 12-C ) :   0.9689 B(  7-C , 13-H ) :   0.8757 B(  8-C ,  9-H ) :   0.9040
B(  8-C , 10-H ) :   0.9127 B(  8-C , 11-H ) :   0.9093 B( 12-C , 14-H ) :   0.9067
B( 12-C , 15-H ) :   0.9155 B( 12-C , 16-H ) :   0.9125 B( 17-C , 18-C ) :   1.0791
B( 17-C , 19-H ) :   0.8749 B( 18-C , 20-C ) :   1.3067 B( 18-C , 22-S ) :   1.2023
B( 20-C , 21-C ) :   1.2898 B( 20-C , 24-H ) :   0.4317 B( 21-C , 23-C ) :   1.5363
B( 21-C , 25-H ) :   0.9061 B( 22-S , 23-C ) :   1.2138 B( 23-C , 26-H ) :   0.8929
B( 24-H , 30-O ) :   0.2611 B( 30-O , 32-C ) :   1.6355 B( 31-O , 32-C ) :   1.3128
B( 32-C , 33-C ) :   0.9493 B( 33-C , 34-H ) :   0.9031 B( 33-C , 35-H ) :   0.8961
B( 33-C , 36-H ) :   0.9085

Dispersion correction           -0.030526328
FINAL SINGLE POINT ENERGY     -1288.391961577871

DIPOLE MOMENT
-------------
                                X             Y             Z
Electronic contribution:     33.35526     -71.14804      81.21457
Nuclear contribution   :    -33.97564      70.09038     -81.23081
                        -----------------------------------------
Total Dipole Moment    :     -0.62038      -1.05767      -0.01624
                        -----------------------------------------
Magnitude (a.u.)       :      1.22629
Magnitude (Debye)      :      3.11698

Rotational constants in cm-1:     0.010552     0.008788     0.008083
Rotational constants in MHz :   316.345597   263.456478   242.327088

                             ****ORCA TERMINATED NORMALLY****
TOTAL RUN TIME: 0 days 1 hours 36 minutes 21 seconds 230 msec
