                         Program Version 5.0.3 -  RELEASE  -
|  1> ! Opt PBEh-3c
|  2> %geom Constraints
|  3> { B 0 20 2.5142857142857142 C }
|  4> { B 24 30 1.4714285714285715 C }
|  5>     end
|  6> end
|  7> %output
|  8> xyzfile=True
|  9> end
| 10> %scf
| 11> maxiter 250
| 12> end
| 13> %output
| 14> Print[P_Hirshfeld] = 1
| 15> end
| 16> % maxcore
| 17> 4000
| 18> *xyz 1 1
| 19> Ir   0.58508211  -0.72545888   0.45763754
| 20> C    0.03157865  -2.80620948   0.33040182
| 21> C    0.12375612  -2.36106471   1.70103928
| 22> C    2.20065745  -2.13815547   0.73633080
| 23> C    1.29152403  -2.64068160  -0.26957909
| 24> C    1.49411202  -2.00778373   1.94380135
| 25> N   -1.04087817   0.18257406  -0.51717727
| 26> C   -2.30935866   0.52700111   0.14329156
| 27> C   -3.13151270   1.55467310  -0.61669320
| 28> H   -3.96336558   1.87219627   0.01042731
| 29> H   -3.56846074   1.15538719  -1.53350720
| 30> H   -2.55224707   2.44597162  -0.86007251
| 31> C   -3.10638643  -0.74358323   0.41142260
| 32> H   -2.01275430   0.96002913   1.10014822
| 33> H   -4.01762078  -0.49442866   0.95296093
| 34> H   -3.39612513  -1.23387552  -0.51895867
| 35> H   -2.55285379  -1.45469417   1.02306145
| 36> C   -0.82725152   0.38626383  -1.75783459
| 37> C    0.52657656   0.14378758  -2.21687536
| 38> H   -1.59676606   0.75482949  -2.43018001
| 39> C    1.63894410   0.55187354  -1.49089431
| 40> C    2.83688365   0.11115559  -2.12416794
| 41> S    0.93744278  -0.70836837  -3.64044974
| 42> C    2.61109950  -0.57045499  -3.27793119
| 43> H    1.55396719   1.40839911  -0.71378517
| 44> H    3.82708836   0.34065947  -1.75838235
| 45> H    3.34057275  -0.98540111  -3.95695697
| 46> H   -0.86220964  -3.16529869  -0.15921143
| 47> H   -0.66006002  -2.39725236   2.44355458
| 48> H    1.88827150  -1.62097805   2.87256827
| 49> O    1.25640231   2.47165833   0.28033852
| 50> O    0.54181389   0.88828832   1.68136254
| 51> C    0.88056263   2.10418222   1.38682588
| 52> C    0.80909366   3.05963701   2.54603165
| 53> H    0.74437888   4.08514732   2.19264392
| 54> H    1.71963760   2.96819261   3.14135393
| 55> H   -0.02889606   2.83853972   3.20396938
| 56> H    3.24356858  -1.90342341   0.58260753
| 57> H    1.54310235  -2.85414418  -1.29838200
| 58> *
| 59>
| 60>                          ****END OF INPUT****
 Total Charge           Charge          ....    1
 Multiplicity           Mult            ....    1
 Number of Electrons    NEL             ....  164
Dispersion correction           -0.031057217
FINAL SINGLE POINT ENERGY     -1288.398167688750
Dispersion correction            ... done
Dispersion correction           -0.031025943
FINAL SINGLE POINT ENERGY     -1288.397317722276
Dispersion correction            ... done
Dispersion correction           -0.030974124
FINAL SINGLE POINT ENERGY     -1288.398263807047
Dispersion correction            ... done
FINAL SINGLE POINT ENERGY     -1288.397716230834
FINAL SINGLE POINT ENERGY     -1288.398304874896
Dispersion correction            ... done
Dispersion correction           -0.030942105
FINAL SINGLE POINT ENERGY     -1288.398313526629
Dispersion correction            ... done
Dispersion correction           -0.030949662
FINAL SINGLE POINT ENERGY     -1288.398319717439
Dispersion correction            ... done
                    ***********************HURRAY********************

CARTESIAN COORDINATES (ANGSTROEM)
---------------------------------
  Ir     0.588300   -0.722474    0.448865
  C      0.032250   -2.803696    0.334301
  C      0.123433   -2.354925    1.703012
  C      2.201611   -2.136063    0.737888
  C      1.293067   -2.642427   -0.266330
  C      1.492901   -1.999224    1.943911
  N     -1.043887    0.179872   -0.521649
  C     -2.311863    0.519154    0.142195
  C     -3.135641    1.551054   -0.610447
  H     -3.966938    1.864261    0.019604
  H     -3.573564    1.157357   -1.529212
  H     -2.557289    2.444244   -0.849051
  C     -3.108339   -0.753247    0.403457
  H     -2.014416    0.946585    1.101290
  H     -4.019169   -0.507473    0.947230
  H     -3.398714   -1.238074   -0.529577
  H     -2.553991   -1.467743    1.010292
  C     -0.834149    0.387080   -1.762748
  C      0.519412    0.149902   -2.222511
  H     -1.605770    0.755452   -2.432662
  C      1.626016    0.527006   -1.470400
  C      2.827889    0.094313   -2.102774
  S      0.939277   -0.667162   -3.661993
  C      2.610096   -0.552835   -3.277599
  H      1.546751    1.395347   -0.694053
  H      3.815682    0.306143   -1.720079
  H      3.343704   -0.953778   -3.960574
  H     -0.861401   -3.163777   -0.154884
  H     -0.660656   -2.388361    2.445232
  H      1.886524   -1.608155    2.871120
  O      1.282877    2.470476    0.275260
  O      0.536673    0.896580    1.669910
  C      0.892029    2.106898    1.379291
  C      0.821916    3.065347    2.535839
  H      0.771357    4.091028    2.180708
  H      1.726506    2.964464    3.138689
  H     -0.023838    2.854132    3.187048
  H      3.245470   -1.905018    0.585525
  H      1.545256   -2.863075   -1.293384

 Multiplicity           Mult            ....    1
 Number of Electrons    NEL             ....  164
 Basis Dimension        Dim             ....  358

ORBITAL ENERGIES
----------------

  NO   OCC          E(Eh)            E(eV)
   0   2.0000     -89.762788     -2442.5697
   1   2.0000     -19.620744      -533.9076
   2   2.0000     -19.581614      -532.8428
   3   2.0000     -14.842708      -403.8906
   4   2.0000     -10.676512      -290.5227
   5   2.0000     -10.663636      -290.1723
   6   2.0000     -10.638845      -289.4977
   7   2.0000     -10.635778      -289.4142
   8   2.0000     -10.634819      -289.3881
   9   2.0000     -10.634658      -289.3838
  10   2.0000     -10.633285      -289.3464
  11   2.0000     -10.632103      -289.3142
  12   2.0000     -10.617003      -288.9033
  13   2.0000     -10.610792      -288.7343
  14   2.0000     -10.584702      -288.0244
  15   2.0000     -10.583491      -287.9914
  16   2.0000     -10.557780      -287.2918
  17   2.0000     -10.552718      -287.1541
  18   2.0000     -10.530261      -286.5430
  19   2.0000      -8.402069      -228.6319
  20   2.0000      -6.292176      -171.2188
  21   2.0000      -6.288518      -171.1193
  22   2.0000      -6.286756      -171.0713
  23   2.0000      -4.031435      -109.7009
  24   2.0000      -2.350681       -63.9653
  25   2.0000      -2.316402       -63.0325
  26   2.0000      -2.315000       -62.9944
  27   2.0000      -1.300190       -35.3800
  28   2.0000      -1.215282       -33.0695
  29   2.0000      -1.204072       -32.7645
  30   2.0000      -1.175079       -31.9755
  31   2.0000      -1.127538       -30.6819
  32   2.0000      -1.028281       -27.9810
  33   2.0000      -0.989951       -26.9379
  34   2.0000      -0.980138       -26.6709
  35   2.0000      -0.966423       -26.2977
  36   2.0000      -0.960933       -26.1483
  37   2.0000      -0.923580       -25.1319
  38   2.0000      -0.904385       -24.6096
  39   2.0000      -0.874849       -23.8058
  40   2.0000      -0.798446       -21.7268
  41   2.0000      -0.791026       -21.5249
  42   2.0000      -0.789264       -21.4770
  43   2.0000      -0.781977       -21.2787
  44   2.0000      -0.774345       -21.0710
  45   2.0000      -0.755086       -20.5469
  46   2.0000      -0.744430       -20.2570
  47   2.0000      -0.723080       -19.6760
  48   2.0000      -0.695460       -18.9244
  49   2.0000      -0.671633       -18.2761
  50   2.0000      -0.665575       -18.1112
  51   2.0000      -0.652346       -17.7512
  52   2.0000      -0.648159       -17.6373
  53   2.0000      -0.641255       -17.4494
  54   2.0000      -0.635538       -17.2939
  55   2.0000      -0.627153       -17.0657
  56   2.0000      -0.624084       -16.9822
  57   2.0000      -0.612722       -16.6730
  58   2.0000      -0.610437       -16.6108
  59   2.0000      -0.609333       -16.5808
  60   2.0000      -0.597855       -16.2685
  61   2.0000      -0.588962       -16.0265
  62   2.0000      -0.578499       -15.7418
  63   2.0000      -0.572780       -15.5861
  64   2.0000      -0.564461       -15.3598
  65   2.0000      -0.553988       -15.0748
  66   2.0000      -0.552349       -15.0302
  67   2.0000      -0.548682       -14.9304
  68   2.0000      -0.539086       -14.6693
  69   2.0000      -0.535392       -14.5688
  70   2.0000      -0.528354       -14.3773
  71   2.0000      -0.522114       -14.2075
  72   2.0000      -0.516388       -14.0516
  73   2.0000      -0.506749       -13.7894
  74   2.0000      -0.487878       -13.2758
  75   2.0000      -0.481543       -13.1035
  76   2.0000      -0.465748       -12.6737
  77   2.0000      -0.449637       -12.2352
  78   2.0000      -0.440124       -11.9764
  79   2.0000      -0.424730       -11.5575
  80   2.0000      -0.417077       -11.3492
  81   2.0000      -0.404926       -11.0186
  82   0.0000      -0.200875        -5.4661
  83   0.0000      -0.165827        -4.5124
  84   0.0000      -0.142377        -3.8743
  85   0.0000      -0.103755        -2.8233
  86   0.0000      -0.077576        -2.1110

MULLIKEN ATOMIC CHARGES
-----------------------
   0 Ir:    0.619587
   1 C :   -0.207916
   2 C :   -0.295444
   3 C :   -0.231891
   4 C :   -0.246328
   5 C :   -0.163964
   6 N :   -0.422349
   7 C :   -0.115810
   8 C :   -0.696526
   9 H :    0.273832
  10 H :    0.226120
  11 H :    0.261191
  12 C :   -0.640663
  13 H :    0.282064
  14 H :    0.265613
  15 H :    0.230876
  16 H :    0.233738
  17 C :    0.068106
  18 C :   -0.218858
  19 H :    0.293971
  20 C :   -0.409461
  21 C :   -0.136477
  22 S :    0.293782
  23 C :   -0.430325
  24 H :    0.493862
  25 H :    0.268739
  26 H :    0.297695
  27 H :    0.292678
  28 H :    0.294196
  29 H :    0.307919
  30 O :   -0.477097
  31 O :   -0.546717
  32 C :    0.608874
  33 C :   -0.745825
  34 H :    0.267976
  35 H :    0.264173
  36 H :    0.250159
  37 H :    0.295638
  38 H :    0.294861
Sum of atomic charges:    1.0000000

LOEWDIN ATOMIC CHARGES
----------------------
   0 Ir:   -0.213577
   1 C :   -0.038697
   2 C :   -0.056352
   3 C :   -0.047677
   4 C :   -0.056775
   5 C :   -0.025073
   6 N :   -0.003717
   7 C :   -0.068184
   8 C :   -0.365076
   9 H :    0.158033
  10 H :    0.134105
  11 H :    0.147182
  12 C :   -0.343311
  13 H :    0.157225
  14 H :    0.153494
  15 H :    0.137315
  16 H :    0.134806
  17 C :    0.036500
  18 C :   -0.183873
  19 H :    0.163877
  20 C :   -0.178620
  21 C :   -0.141168
  22 S :    0.460583
  23 C :   -0.263002
  24 H :    0.273266
  25 H :    0.163188
  26 H :    0.168000
  27 H :    0.186038
  28 H :    0.186660
  29 H :    0.194389
  30 O :   -0.276835
  31 O :   -0.213341
  32 C :    0.149149
  33 C :   -0.377766
  34 H :    0.158587
  35 H :    0.165607
  36 H :    0.151669
  37 H :    0.187924
  38 H :    0.185449

  Mayer bond orders larger than 0.100000
B(  0-Ir,  1-C ) :   0.4190 B(  0-Ir,  2-C ) :   0.5482 B(  0-Ir,  3-C ) :   0.4646
B(  0-Ir,  4-C ) :   0.4489 B(  0-Ir,  5-C ) :   0.4019 B(  0-Ir,  6-N ) :   0.4609
B(  0-Ir, 20-C ) :   0.2178 B(  0-Ir, 31-O ) :   0.5982 B(  1-C ,  2-C ) :   1.1136
B(  1-C ,  4-C ) :   1.2491 B(  1-C , 27-H ) :   0.9029 B(  2-C ,  5-C ) :   1.1313
B(  2-C , 28-H ) :   0.9065 B(  3-C ,  4-C ) :   1.1033 B(  3-C ,  5-C ) :   1.2347
B(  3-C , 37-H ) :   0.9028 B(  4-C , 38-H ) :   0.8974 B(  5-C , 29-H ) :   0.8972
B(  6-N ,  7-C ) :   0.8907 B(  6-N , 17-C ) :   1.7051 B(  7-C ,  8-C ) :   0.9927
B(  7-C , 12-C ) :   0.9697 B(  7-C , 13-H ) :   0.8702 B(  8-C ,  9-H ) :   0.9030
B(  8-C , 10-H ) :   0.9122 B(  8-C , 11-H ) :   0.9076 B( 12-C , 14-H ) :   0.9061
B( 12-C , 15-H ) :   0.9152 B( 12-C , 16-H ) :   0.9103 B( 17-C , 18-C ) :   1.0396
B( 17-C , 19-H ) :   0.8734 B( 18-C , 20-C ) :   1.3060 B( 18-C , 22-S ) :   1.2209
B( 20-C , 21-C ) :   1.2564 B( 20-C , 24-H ) :   0.5222 B( 21-C , 23-C ) :   1.5508
B( 21-C , 25-H ) :   0.9034 B( 22-S , 23-C ) :   1.1988 B( 23-C , 26-H ) :   0.8923
B( 24-H , 30-O ) :   0.2117 B( 30-O , 32-C ) :   1.7304 B( 31-O , 32-C ) :   1.2503
B( 32-C , 33-C ) :   0.9454 B( 33-C , 34-H ) :   0.9061 B( 33-C , 35-H ) :   0.9002
B( 33-C , 36-H ) :   0.9104

Dispersion correction           -0.030958392
FINAL SINGLE POINT ENERGY     -1288.398322468355

DIPOLE MOMENT
-------------
                                X             Y             Z
Electronic contribution:     35.05039     -67.19533      71.88779
Nuclear contribution   :    -35.69035      65.86111     -72.18642
                        -----------------------------------------
Total Dipole Moment    :     -0.63996      -1.33422      -0.29863
                        -----------------------------------------
Magnitude (a.u.)       :      1.50960
Magnitude (Debye)      :      3.83709

Rotational constants in cm-1:     0.010818     0.009121     0.008276
Rotational constants in MHz :   324.319694   273.441343   248.110568

                             ****ORCA TERMINATED NORMALLY****
TOTAL RUN TIME: 0 days 1 hours 7 minutes 3 seconds 460 msec
