                         Program Version 5.0.3 -  RELEASE  -
|  1> ! Opt PBEh-3c
|  2> %geom Constraints
|  3> { B 0 20 2.3857142857142857 C }
|  4> { B 24 30 1.3857142857142857 C }
|  5>     end
|  6> end
|  7> %output
|  8> xyzfile=True
|  9> end
| 10> %scf
| 11> maxiter 250
| 12> end
| 13> %output
| 14> Print[P_Hirshfeld] = 1
| 15> end
| 16> % maxcore
| 17> 4000
| 18> *xyz 1 1
| 19> Ir   0.59177155  -0.72367262   0.47035645
| 20> C    0.03836184  -2.80809762   0.36946273
| 21> C    0.08323181  -2.35261259   1.73576289
| 22> C    2.19393564  -2.13399978   0.83519141
| 23> C    1.31870664  -2.65053046  -0.19267754
| 24> C    1.44090693  -1.98569823   2.01465850
| 25> N   -1.04355701   0.15173989  -0.51779807
| 26> C   -2.31913017   0.45576090   0.15092017
| 27> C   -3.11903231   1.55286255  -0.53378665
| 28> H   -3.94893894   1.83824347   0.11127321
| 29> H   -3.55831529   1.23284717  -1.47989897
| 30> H   -2.52067312   2.44763070  -0.70764867
| 31> C   -3.13472760  -0.82264055   0.30327434
| 32> H   -2.03460912   0.80713010   1.14404522
| 33> H   -4.05230991  -0.60809632   0.84911678
| 34> H   -3.41328982  -1.23306180  -0.66820703
| 35> H   -2.59718999  -1.58726967   0.86205406
| 36> C   -0.85431155   0.37452676  -1.76245082
| 37> C    0.48944108   0.17854915  -2.24971597
| 38> H   -1.64792266   0.73046262  -2.41303187
| 39> C    1.58539586   0.41895674  -1.42834523
| 40> C    2.79090098   0.04847600  -2.08975995
| 41> S    0.92303047  -0.43985110  -3.77757868
| 42> C    2.58475423  -0.42218020  -3.34965951
| 43> H    1.53495037   1.33031405  -0.62773523
| 44> H    3.77541908   0.18006432  -1.66487722
| 45> H    3.32443918  -0.73983734  -4.06898614
| 46> H   -0.83679343  -3.17481600  -0.14748071
| 47> H   -0.72499006  -2.38219805   2.45143012
| 48> H    1.80282109  -1.58498799   2.95068612
| 49> O    1.38466180   2.42410147   0.23310299
| 50> O    0.53367019   0.93434513   1.65666473
| 51> C    0.94633302   2.11185860   1.34263331
| 52> C    0.89721840   3.11982896   2.45505746
| 53> H    0.86872749   4.13109946   2.05863995
| 54> H    1.80116789   3.02416212   3.05985155
| 55> H    0.04785928   2.95148328   3.11351312
| 56> H    3.24429269  -1.91151931   0.72086161
| 57> H    1.60316339  -2.88418375  -1.20817840
| 58> *
| 59>
| 60>                          ****END OF INPUT****
 Total Charge           Charge          ....    1
 Multiplicity           Mult            ....    1
 Number of Electrons    NEL             ....  164
Dispersion correction           -0.030897349
FINAL SINGLE POINT ENERGY     -1288.398370421167
Dispersion correction            ... done
Dispersion correction           -0.030984027
FINAL SINGLE POINT ENERGY     -1288.395346788085
Dispersion correction            ... done
Dispersion correction           -0.030884541
FINAL SINGLE POINT ENERGY     -1288.398485184727
Dispersion correction            ... done
FINAL SINGLE POINT ENERGY     -1288.396539154499
FINAL SINGLE POINT ENERGY     -1288.398564737960
FINAL SINGLE POINT ENERGY     -1288.398596829896
FINAL SINGLE POINT ENERGY     -1288.398625331018
FINAL SINGLE POINT ENERGY     -1288.398649665981
FINAL SINGLE POINT ENERGY     -1288.398656118706
FINAL SINGLE POINT ENERGY     -1288.398659368863
FINAL SINGLE POINT ENERGY     -1288.398658894425
FINAL SINGLE POINT ENERGY     -1288.398661298326
FINAL SINGLE POINT ENERGY     -1288.398664504322
FINAL SINGLE POINT ENERGY     -1288.398665417699
Dispersion correction            ... done
Dispersion correction           -0.030715246
FINAL SINGLE POINT ENERGY     -1288.398665375276
Dispersion correction            ... done
Dispersion correction           -0.030712678
FINAL SINGLE POINT ENERGY     -1288.398665110614
Dispersion correction            ... done
                    ***********************HURRAY********************

CARTESIAN COORDINATES (ANGSTROEM)
---------------------------------
  Ir     0.601508   -0.726321    0.473430
  C      0.070914   -2.819075    0.361483
  C      0.035997   -2.358098    1.725801
  C      2.193095   -2.119784    0.941397
  C      1.380433   -2.653341   -0.127383
  C      1.369265   -1.972282    2.075010
  N     -1.041528    0.137676   -0.510419
  C     -2.316869    0.417165    0.170237
  C     -3.098563    1.565412   -0.449828
  H     -3.927308    1.823986    0.207874
  H     -3.537484    1.307814   -1.414709
  H     -2.485549    2.459064   -0.568768
  C     -3.148728   -0.858425    0.236604
  H     -2.035309    0.702735    1.184808
  H     -4.061043   -0.673815    0.802004
  H     -3.436759   -1.194854   -0.760227
  H     -2.616103   -1.668212    0.733000
  C     -0.869082    0.376969   -1.755524
  C      0.465872    0.193471   -2.264609
  H     -1.674374    0.737292   -2.389100
  C      1.563481    0.350590   -1.425649
  C      2.763538    0.009031   -2.111832
  S      0.890368   -0.316894   -3.832850
  C      2.550536   -0.361069   -3.404427
  H      1.546657    1.283740   -0.619721
  H      3.749960    0.090176   -1.678927
  H      3.286098   -0.636794   -4.144905
  H     -0.768758   -3.201660   -0.200715
  H     -0.809843   -2.392671    2.396229
  H      1.672691   -1.559393    3.026598
  O      1.448523    2.397175    0.199325
  O      0.542642    0.954365    1.635545
  C      0.981111    2.115282    1.308217
  C      0.929439    3.151707    2.393338
  H      0.890919    4.152244    1.971105
  H      1.838683    3.079732    2.993395
  H      0.085166    2.993089    3.060287
  H      3.248067   -1.897059    0.889254
  H      1.721707   -2.889781   -1.124608

 Multiplicity           Mult            ....    1
 Number of Electrons    NEL             ....  164
 Basis Dimension        Dim             ....  358

ORBITAL ENERGIES
----------------

  NO   OCC          E(Eh)            E(eV)
   0   2.0000     -89.761405     -2442.5320
   1   2.0000     -19.627281      -534.0855
   2   2.0000     -19.598740      -533.3088
   3   2.0000     -14.837861      -403.7587
   4   2.0000     -10.686335      -290.7900
   5   2.0000     -10.659198      -290.0515
   6   2.0000     -10.633371      -289.3487
   7   2.0000     -10.632536      -289.3260
   8   2.0000     -10.629119      -289.2330
   9   2.0000     -10.628439      -289.2145
  10   2.0000     -10.628034      -289.2035
  11   2.0000     -10.625841      -289.1438
  12   2.0000     -10.614702      -288.8407
  13   2.0000     -10.608744      -288.6786
  14   2.0000     -10.584161      -288.0097
  15   2.0000     -10.582562      -287.9662
  16   2.0000     -10.556006      -287.2435
  17   2.0000     -10.551168      -287.1119
  18   2.0000     -10.536616      -286.7159
  19   2.0000      -8.400822      -228.5980
  20   2.0000      -6.290794      -171.1812
  21   2.0000      -6.287191      -171.0832
  22   2.0000      -6.285682      -171.0421
  23   2.0000      -4.027195      -109.5856
  24   2.0000      -2.345921       -63.8357
  25   2.0000      -2.312175       -62.9175
  26   2.0000      -2.310393       -62.8690
  27   2.0000      -1.312393       -35.7120
  28   2.0000      -1.215272       -33.0692
  29   2.0000      -1.209596       -32.9148
  30   2.0000      -1.170224       -31.8434
  31   2.0000      -1.125336       -30.6219
  32   2.0000      -1.025116       -27.8948
  33   2.0000      -0.984360       -26.7858
  34   2.0000      -0.975386       -26.5416
  35   2.0000      -0.964985       -26.2586
  36   2.0000      -0.958264       -26.0757
  37   2.0000      -0.931265       -25.3410
  38   2.0000      -0.901914       -24.5423
  39   2.0000      -0.872553       -23.7434
  40   2.0000      -0.797505       -21.7012
  41   2.0000      -0.785987       -21.3878
  42   2.0000      -0.784938       -21.3592
  43   2.0000      -0.780250       -21.2317
  44   2.0000      -0.770062       -20.9544
  45   2.0000      -0.757809       -20.6210
  46   2.0000      -0.742822       -20.2132
  47   2.0000      -0.722621       -19.6635
  48   2.0000      -0.691861       -18.8265
  49   2.0000      -0.677148       -18.4261
  50   2.0000      -0.663862       -18.0646
  51   2.0000      -0.651508       -17.7284
  52   2.0000      -0.648184       -17.6380
  53   2.0000      -0.638236       -17.3673
  54   2.0000      -0.637265       -17.3409
  55   2.0000      -0.632003       -17.1977
  56   2.0000      -0.622801       -16.9473
  57   2.0000      -0.610560       -16.6142
  58   2.0000      -0.605869       -16.4865
  59   2.0000      -0.605127       -16.4663
  60   2.0000      -0.597324       -16.2540
  61   2.0000      -0.589393       -16.0382
  62   2.0000      -0.577445       -15.7131
  63   2.0000      -0.568904       -15.4807
  64   2.0000      -0.563005       -15.3201
  65   2.0000      -0.558588       -15.2000
  66   2.0000      -0.551971       -15.0199
  67   2.0000      -0.548295       -14.9199
  68   2.0000      -0.539953       -14.6929
  69   2.0000      -0.535323       -14.5669
  70   2.0000      -0.528044       -14.3688
  71   2.0000      -0.519402       -14.1336
  72   2.0000      -0.514976       -14.0132
  73   2.0000      -0.503962       -13.7135
  74   2.0000      -0.491035       -13.3617
  75   2.0000      -0.480552       -13.0765
  76   2.0000      -0.468731       -12.7548
  77   2.0000      -0.447626       -12.1805
  78   2.0000      -0.443951       -12.0805
  79   2.0000      -0.421148       -11.4600
  80   2.0000      -0.417701       -11.3662
  81   2.0000      -0.401238       -10.9182
  82   0.0000      -0.201820        -5.4918
  83   0.0000      -0.157042        -4.2733
  84   0.0000      -0.141318        -3.8455
  85   0.0000      -0.092910        -2.5282
  86   0.0000      -0.074518        -2.0278

MULLIKEN ATOMIC CHARGES
-----------------------
   0 Ir:    0.611834
   1 C :   -0.216321
   2 C :   -0.285497
   3 C :   -0.243637
   4 C :   -0.240028
   5 C :   -0.163636
   6 N :   -0.431458
   7 C :   -0.125636
   8 C :   -0.686402
   9 H :    0.270432
  10 H :    0.224760
  11 H :    0.259281
  12 C :   -0.635535
  13 H :    0.281314
  14 H :    0.262661
  15 H :    0.231285
  16 H :    0.231168
  17 C :    0.070504
  18 C :   -0.171220
  19 H :    0.288333
  20 C :   -0.470464
  21 C :   -0.130328
  22 S :    0.315741
  23 C :   -0.429614
  24 H :    0.495099
  25 H :    0.264708
  26 H :    0.297050
  27 H :    0.289922
  28 H :    0.290005
  29 H :    0.304889
  30 O :   -0.484236
  31 O :   -0.532454
  32 C :    0.622434
  33 C :   -0.745064
  34 H :    0.270579
  35 H :    0.268598
  36 H :    0.255263
  37 H :    0.290854
  38 H :    0.294817
Sum of atomic charges:    1.0000000

LOEWDIN ATOMIC CHARGES
----------------------
   0 Ir:   -0.230709
   1 C :   -0.044688
   2 C :   -0.072156
   3 C :   -0.064515
   4 C :   -0.050420
   5 C :   -0.019477
   6 N :   -0.007486
   7 C :   -0.069501
   8 C :   -0.363223
   9 H :    0.156667
  10 H :    0.133101
  11 H :    0.146151
  12 C :   -0.343642
  13 H :    0.155890
  14 H :    0.152351
  15 H :    0.137326
  16 H :    0.132903
  17 C :    0.034175
  18 C :   -0.186903
  19 H :    0.161390
  20 C :   -0.204931
  21 C :   -0.135131
  22 S :    0.476711
  23 C :   -0.261755
  24 H :    0.310870
  25 H :    0.161590
  26 H :    0.168023
  27 H :    0.184377
  28 H :    0.184349
  29 H :    0.192550
  30 O :   -0.273404
  31 O :   -0.200385
  32 C :    0.158735
  33 C :   -0.374535
  34 H :    0.160823
  35 H :    0.168589
  36 H :    0.154133
  37 H :    0.185855
  38 H :    0.186302

  Mayer bond orders larger than 0.100000
B(  0-Ir,  1-C ) :   0.4207 B(  0-Ir,  2-C ) :   0.5124 B(  0-Ir,  3-C ) :   0.4611
B(  0-Ir,  4-C ) :   0.4488 B(  0-Ir,  5-C ) :   0.4009 B(  0-Ir,  6-N ) :   0.4656
B(  0-Ir, 20-C ) :   0.3005 B(  0-Ir, 31-O ) :   0.5638 B(  1-C ,  2-C ) :   1.1206
B(  1-C ,  4-C ) :   1.2425 B(  1-C , 27-H ) :   0.9043 B(  2-C ,  5-C ) :   1.1445
B(  2-C , 28-H ) :   0.9084 B(  3-C ,  4-C ) :   1.1101 B(  3-C ,  5-C ) :   1.2247
B(  3-C , 37-H ) :   0.9070 B(  4-C , 38-H ) :   0.9002 B(  5-C , 29-H ) :   0.8982
B(  6-N ,  7-C ) :   0.8919 B(  6-N , 17-C ) :   1.6749 B(  7-C ,  8-C ) :   0.9913
B(  7-C , 12-C ) :   0.9681 B(  7-C , 13-H ) :   0.8744 B(  8-C ,  9-H ) :   0.9042
B(  8-C , 10-H ) :   0.9130 B(  8-C , 11-H ) :   0.9094 B( 12-C , 14-H ) :   0.9069
B( 12-C , 15-H ) :   0.9156 B( 12-C , 16-H ) :   0.9124 B( 17-C , 18-C ) :   1.0773
B( 17-C , 19-H ) :   0.8752 B( 18-C , 20-C ) :   1.2802 B( 18-C , 22-S ) :   1.2307
B( 20-C , 21-C ) :   1.2748 B( 20-C , 24-H ) :   0.4306 B( 21-C , 23-C ) :   1.5451
B( 21-C , 25-H ) :   0.9049 B( 22-S , 23-C ) :   1.2090 B( 23-C , 26-H ) :   0.8919
B( 24-H , 30-O ) :   0.2700 B( 30-O , 32-C ) :   1.6517 B( 31-O , 32-C ) :   1.3053
B( 32-C , 33-C ) :   0.9471 B( 33-C , 34-H ) :   0.9039 B( 33-C , 35-H ) :   0.8972
B( 33-C , 36-H ) :   0.9089

Dispersion correction           -0.030711463
FINAL SINGLE POINT ENERGY     -1288.398665517487

DIPOLE MOMENT
-------------
                                X             Y             Z
Electronic contribution:     36.53835     -69.55441      75.53515
Nuclear contribution   :    -37.16359      68.51630     -75.77272
                        -----------------------------------------
Total Dipole Moment    :     -0.62524      -1.03811      -0.23757
                        -----------------------------------------
Magnitude (a.u.)       :      1.23492
Magnitude (Debye)      :      3.13893

Rotational constants in cm-1:     0.010582     0.008980     0.008174
Rotational constants in MHz :   317.226885   269.205457   245.036006

                             ****ORCA TERMINATED NORMALLY****
TOTAL RUN TIME: 0 days 2 hours 8 minutes 50 seconds 313 msec
