                         Program Version 5.0.3 -  RELEASE  -
|  1> ! Opt PBEh-3c
|  2> %geom Constraints
|  3> { B 0 20 2.5142857142857142 C }
|  4> { B 24 30 1.342857142857143 C }
|  5>     end
|  6> end
|  7> %output
|  8> xyzfile=True
|  9> end
| 10> %scf
| 11> maxiter 250
| 12> end
| 13> %output
| 14> Print[P_Hirshfeld] = 1
| 15> end
| 16> % maxcore
| 17> 4000
| 18> *xyz 1 1
| 19> Ir   0.57150526  -0.73731227   0.50718691
| 20> C    0.01956378  -2.81540190   0.37358444
| 21> C    0.07352400  -2.37153019   1.74518277
| 22> C    2.17849385  -2.14972641   0.83817132
| 23> C    1.29599299  -2.64959473  -0.19248605
| 24> C    1.43644759  -2.01700620   2.02456937
| 25> N   -1.04015924   0.14876636  -0.50389729
| 26> C   -2.32241285   0.46412893   0.14800821
| 27> C   -3.11645091   1.54808551  -0.56384767
| 28> H   -3.95105938   1.84615936   0.06928997
| 29> H   -3.54864235   1.21033012  -1.50704874
| 30> H   -2.51637648   2.43913352  -0.75048356
| 31> C   -3.13907294  -0.81121998   0.31762061
| 32> H   -2.04732429   0.83471184   1.13696323
| 33> H   -4.06215714  -0.58659905   0.84992400
| 34> H   -3.40791328  -1.24088372  -0.64830156
| 35> H   -2.60741134  -1.56455575   0.89726586
| 36> C   -0.83689032   0.35568414  -1.74887046
| 37> C    0.51030145   0.16428659  -2.23359650
| 38> H   -1.62825628   0.69880515  -2.40963370
| 39> C    1.61912830   0.50230829  -1.46887140
| 40> C    2.81602546   0.12707793  -2.14137147
| 41> S    0.92219174  -0.53358710  -3.73977429
| 42> C    2.59255155  -0.43094447  -3.36252701
| 43> H    1.54250390   1.38916298  -0.62836429
| 44> H    3.80728603   0.31627719  -1.75551378
| 45> H    3.32421999  -0.77057406  -4.08009645
| 46> H   -0.85973359  -3.17408498  -0.14192113
| 47> H   -0.73103427  -2.40840005   2.46497627
| 48> H    1.80512912  -1.63185055   2.96442214
| 49> O    1.37012659   2.41185148   0.24698194
| 50> O    0.53763496   0.92177922   1.68363395
| 51> C    0.94395769   2.09999566   1.36153810
| 52> C    0.90296977   3.11037761   2.47151066
| 53> H    0.84420202   4.11926302   2.07207977
| 54> H    1.82518849   3.03660068   3.05138397
| 55> H    0.07510147   2.92804523   3.15297661
| 56> H    3.22625506  -1.91900856   0.71489607
| 57> H    1.57396357  -2.86136085  -1.21482070
| 58> *
| 59>
| 60>                          ****END OF INPUT****
 Total Charge           Charge          ....    1
 Multiplicity           Mult            ....    1
 Number of Electrons    NEL             ....  164
Dispersion correction           -0.030814545
FINAL SINGLE POINT ENERGY     -1288.393951315759
Dispersion correction            ... done
Dispersion correction           -0.030764010
FINAL SINGLE POINT ENERGY     -1288.394112773695
Dispersion correction            ... done
Dispersion correction           -0.030734616
FINAL SINGLE POINT ENERGY     -1288.394180346003
Dispersion correction            ... done
FINAL SINGLE POINT ENERGY     -1288.394206691065
FINAL SINGLE POINT ENERGY     -1288.394219785232
FINAL SINGLE POINT ENERGY     -1288.394226042355
FINAL SINGLE POINT ENERGY     -1288.394230816618
FINAL SINGLE POINT ENERGY     -1288.394238861103
FINAL SINGLE POINT ENERGY     -1288.394243912793
FINAL SINGLE POINT ENERGY     -1288.394250201880
Dispersion correction            ... done
Dispersion correction           -0.030630654
FINAL SINGLE POINT ENERGY     -1288.394252848901
Dispersion correction            ... done
Dispersion correction           -0.030624702
FINAL SINGLE POINT ENERGY     -1288.394253381651
Dispersion correction            ... done
                    ***********************HURRAY********************

CARTESIAN COORDINATES (ANGSTROEM)
---------------------------------
  Ir     0.578015   -0.738320    0.510160
  C      0.028317   -2.819082    0.386675
  C      0.046363   -2.365040    1.754942
  C      2.175471   -2.148247    0.899743
  C      1.319636   -2.658583   -0.147710
  C      1.399990   -2.004289    2.064308
  N     -1.037326    0.137505   -0.503702
  C     -2.321203    0.434938    0.154497
  C     -3.106886    1.549144   -0.519641
  H     -3.940931    1.830386    0.121908
  H     -3.539273    1.247505   -1.474787
  H     -2.499893    2.441566   -0.674022
  C     -3.145555   -0.841542    0.272223
  H     -2.049717    0.767005    1.157906
  H     -4.068747   -0.633735    0.811256
  H     -3.414341   -1.231273   -0.710507
  H     -2.618394   -1.620364    0.821279
  C     -0.845393    0.357839   -1.749357
  C      0.495053    0.181890   -2.250392
  H     -1.646430    0.701454   -2.398002
  C      1.604500    0.443273   -1.457529
  C      2.799038    0.096112   -2.147296
  S      0.904505   -0.411762   -3.799572
  C      2.572842   -0.367272   -3.407823
  H      1.551965    1.348879   -0.607048
  H      3.791272    0.238958   -1.744487
  H      3.303027   -0.666425   -4.144639
  H     -0.836119   -3.184683   -0.148680
  H     -0.776212   -2.396852    2.454162
  H      1.743144   -1.608472    3.009471
  O      1.422978    2.391424    0.229450
  O      0.538976    0.937319    1.670918
  C      0.969904    2.101451    1.342376
  C      0.928554    3.131915    2.432967
  H      0.876856    4.134027    2.015838
  H      1.848094    3.063908    3.017753
  H      0.096436    2.964824    3.112947
  H      3.227367   -1.923664    0.805067
  H      1.623487   -2.882526   -1.159908

 Multiplicity           Mult            ....    1
 Number of Electrons    NEL             ....  164
 Basis Dimension        Dim             ....  358

ORBITAL ENERGIES
----------------

  NO   OCC          E(Eh)            E(eV)
   0   2.0000     -89.756332     -2442.3939
   1   2.0000     -19.629231      -534.1385
   2   2.0000     -19.598554      -533.3038
   3   2.0000     -14.837230      -403.7415
   4   2.0000     -10.688375      -290.8455
   5   2.0000     -10.658732      -290.0388
   6   2.0000     -10.636459      -289.4328
   7   2.0000     -10.634295      -289.3739
   8   2.0000     -10.633164      -289.3431
   9   2.0000     -10.631457      -289.2967
  10   2.0000     -10.630521      -289.2712
  11   2.0000     -10.623841      -289.0894
  12   2.0000     -10.615151      -288.8529
  13   2.0000     -10.605756      -288.5973
  14   2.0000     -10.579118      -287.8724
  15   2.0000     -10.577375      -287.8250
  16   2.0000     -10.556421      -287.2548
  17   2.0000     -10.551268      -287.1146
  18   2.0000     -10.537086      -286.7287
  19   2.0000      -8.395746      -228.4599
  20   2.0000      -6.285773      -171.0446
  21   2.0000      -6.282179      -170.9468
  22   2.0000      -6.280519      -170.9016
  23   2.0000      -4.029740      -109.6548
  24   2.0000      -2.349000       -63.9195
  25   2.0000      -2.314760       -62.9878
  26   2.0000      -2.312739       -62.9328
  27   2.0000      -1.314171       -35.7604
  28   2.0000      -1.217666       -33.1344
  29   2.0000      -1.208624       -32.8883
  30   2.0000      -1.173469       -31.9317
  31   2.0000      -1.120782       -30.4980
  32   2.0000      -1.024026       -27.8652
  33   2.0000      -0.988075       -26.8869
  34   2.0000      -0.978394       -26.6235
  35   2.0000      -0.961092       -26.1527
  36   2.0000      -0.954553       -25.9747
  37   2.0000      -0.932266       -25.3683
  38   2.0000      -0.902241       -24.5512
  39   2.0000      -0.870605       -23.6904
  40   2.0000      -0.795702       -21.6521
  41   2.0000      -0.789102       -21.4726
  42   2.0000      -0.787661       -21.4333
  43   2.0000      -0.778030       -21.1713
  44   2.0000      -0.772042       -21.0083
  45   2.0000      -0.760538       -20.6953
  46   2.0000      -0.742202       -20.1963
  47   2.0000      -0.722435       -19.6584
  48   2.0000      -0.692493       -18.8437
  49   2.0000      -0.675875       -18.3915
  50   2.0000      -0.663424       -18.0527
  51   2.0000      -0.652922       -17.7669
  52   2.0000      -0.649079       -17.6623
  53   2.0000      -0.640403       -17.4263
  54   2.0000      -0.639306       -17.3964
  55   2.0000      -0.633609       -17.2414
  56   2.0000      -0.623156       -16.9569
  57   2.0000      -0.609799       -16.5935
  58   2.0000      -0.608863       -16.5680
  59   2.0000      -0.607100       -16.5200
  60   2.0000      -0.595245       -16.1975
  61   2.0000      -0.586678       -15.9643
  62   2.0000      -0.574452       -15.6316
  63   2.0000      -0.567088       -15.4313
  64   2.0000      -0.561713       -15.2850
  65   2.0000      -0.557513       -15.1707
  66   2.0000      -0.552527       -15.0350
  67   2.0000      -0.548437       -14.9237
  68   2.0000      -0.539834       -14.6896
  69   2.0000      -0.533861       -14.5271
  70   2.0000      -0.527601       -14.3567
  71   2.0000      -0.520158       -14.1542
  72   2.0000      -0.515599       -14.0302
  73   2.0000      -0.507162       -13.8006
  74   2.0000      -0.492888       -13.4122
  75   2.0000      -0.480363       -13.0713
  76   2.0000      -0.463535       -12.6134
  77   2.0000      -0.450627       -12.2622
  78   2.0000      -0.443333       -12.0637
  79   2.0000      -0.419838       -11.4244
  80   2.0000      -0.417099       -11.3498
  81   2.0000      -0.401642       -10.9292
  82   0.0000      -0.199973        -5.4416
  83   0.0000      -0.163326        -4.4443
  84   0.0000      -0.141220        -3.8428
  85   0.0000      -0.092864        -2.5270
  86   0.0000      -0.074588        -2.0296

MULLIKEN ATOMIC CHARGES
-----------------------
   0 Ir:    0.618113
   1 C :   -0.211427
   2 C :   -0.293490
   3 C :   -0.234762
   4 C :   -0.242047
   5 C :   -0.167094
   6 N :   -0.435804
   7 C :   -0.122110
   8 C :   -0.689673
   9 H :    0.270967
  10 H :    0.225785
  11 H :    0.259553
  12 C :   -0.636736
  13 H :    0.279690
  14 H :    0.263510
  15 H :    0.231275
  16 H :    0.230528
  17 C :    0.069200
  18 C :   -0.197829
  19 H :    0.288296
  20 C :   -0.421474
  21 C :   -0.147750
  22 S :    0.301973
  23 C :   -0.426128
  24 H :    0.500474
  25 H :    0.262575
  26 H :    0.295272
  27 H :    0.292136
  28 H :    0.292757
  29 H :    0.305880
  30 O :   -0.491843
  31 O :   -0.534751
  32 C :    0.623573
  33 C :   -0.745861
  34 H :    0.271070
  35 H :    0.268826
  36 H :    0.255636
  37 H :    0.294823
  38 H :    0.296867
Sum of atomic charges:    1.0000000

LOEWDIN ATOMIC CHARGES
----------------------
   0 Ir:   -0.215244
   1 C :   -0.041680
   2 C :   -0.062508
   3 C :   -0.053172
   4 C :   -0.050801
   5 C :   -0.024261
   6 N :   -0.013584
   7 C :   -0.068796
   8 C :   -0.363890
   9 H :    0.156732
  10 H :    0.133548
  11 H :    0.146320
  12 C :   -0.343805
  13 H :    0.155241
  14 H :    0.152601
  15 H :    0.137383
  16 H :    0.132849
  17 C :    0.036121
  18 C :   -0.197333
  19 H :    0.161121
  20 C :   -0.200440
  21 C :   -0.145438
  22 S :    0.461702
  23 C :   -0.261127
  24 H :    0.305519
  25 H :    0.160049
  26 H :    0.166984
  27 H :    0.185554
  28 H :    0.185802
  29 H :    0.193204
  30 O :   -0.275516
  31 O :   -0.200247
  32 C :    0.162302
  33 C :   -0.374597
  34 H :    0.161149
  35 H :    0.168822
  36 H :    0.154230
  37 H :    0.187663
  38 H :    0.187539

  Mayer bond orders larger than 0.100000
B(  0-Ir,  1-C ) :   0.4231 B(  0-Ir,  2-C ) :   0.5431 B(  0-Ir,  3-C ) :   0.4599
B(  0-Ir,  4-C ) :   0.4559 B(  0-Ir,  5-C ) :   0.4039 B(  0-Ir,  6-N ) :   0.4700
B(  0-Ir, 20-C ) :   0.2520 B(  0-Ir, 31-O ) :   0.5679 B(  1-C ,  2-C ) :   1.1151
B(  1-C ,  4-C ) :   1.2419 B(  1-C , 27-H ) :   0.9031 B(  2-C ,  5-C ) :   1.1321
B(  2-C , 28-H ) :   0.9071 B(  3-C ,  4-C ) :   1.1065 B(  3-C ,  5-C ) :   1.2337
B(  3-C , 37-H ) :   0.9042 B(  4-C , 38-H ) :   0.8996 B(  5-C , 29-H ) :   0.8980
B(  6-N ,  7-C ) :   0.8915 B(  6-N , 17-C ) :   1.6774 B(  7-C ,  8-C ) :   0.9920
B(  7-C , 12-C ) :   0.9689 B(  7-C , 13-H ) :   0.8747 B(  8-C ,  9-H ) :   0.9039
B(  8-C , 10-H ) :   0.9127 B(  8-C , 11-H ) :   0.9090 B( 12-C , 14-H ) :   0.9066
B( 12-C , 15-H ) :   0.9155 B( 12-C , 16-H ) :   0.9123 B( 17-C , 18-C ) :   1.0729
B( 17-C , 19-H ) :   0.8747 B( 18-C , 20-C ) :   1.3014 B( 18-C , 22-S ) :   1.2111
B( 20-C , 21-C ) :   1.2821 B( 20-C , 24-H ) :   0.4396 B( 21-C , 23-C ) :   1.5401
B( 21-C , 25-H ) :   0.9056 B( 22-S , 23-C ) :   1.2106 B( 23-C , 26-H ) :   0.8927
B( 24-H , 30-O ) :   0.2570 B( 30-O , 32-C ) :   1.6497 B( 31-O , 32-C ) :   1.3034
B( 32-C , 33-C ) :   0.9485 B( 33-C , 34-H ) :   0.9037 B( 33-C , 35-H ) :   0.8969
B( 33-C , 36-H ) :   0.9088

Dispersion correction           -0.030622987
FINAL SINGLE POINT ENERGY     -1288.394253279448

DIPOLE MOMENT
-------------
                                X             Y             Z
Electronic contribution:     34.13559     -70.08099      78.83143
Nuclear contribution   :    -34.75873      68.98636     -78.93168
                        -----------------------------------------
Total Dipole Moment    :     -0.62314      -1.09463      -0.10025
                        -----------------------------------------
Magnitude (a.u.)       :      1.26355
Magnitude (Debye)      :      3.21169

Rotational constants in cm-1:     0.010575     0.008892     0.008140
Rotational constants in MHz :   317.035647   266.590271   244.038105

                             ****ORCA TERMINATED NORMALLY****
TOTAL RUN TIME: 0 days 1 hours 34 minutes 14 seconds 838 msec
