                         Program Version 5.0.3 -  RELEASE  -
|  1> ! Opt PBEh-3c
|  2> %geom Constraints
|  3> { B 0 20 2.428571428571429 C }
|  4> { B 24 30 1.4142857142857144 C }
|  5>     end
|  6> end
|  7> %output
|  8> xyzfile=True
|  9> end
| 10> %scf
| 11> maxiter 250
| 12> end
| 13> %output
| 14> Print[P_Hirshfeld] = 1
| 15> end
| 16> % maxcore
| 17> 4000
| 18> *xyz 1 1
| 19> Ir   0.58947290  -0.72234522   0.46306459
| 20> C    0.03654111  -2.80496876   0.35200263
| 21> C    0.10628100  -2.35539138   1.72046726
| 22> C    2.19938216  -2.13337523   0.78478511
| 23> C    1.30611507  -2.64321429  -0.23126184
| 24> C    1.47032615  -1.99364567   1.97916036
| 25> N   -1.04464398   0.16338953  -0.51849653
| 26> C   -2.31702675   0.48507783   0.14699463
| 27> C   -3.12382257   1.55651021  -0.56883350
| 28> H   -3.95334530   1.85733286   0.06965049
| 29> H   -3.56395734   1.20572053  -1.50368605
| 30> H   -2.53086011   2.44897108  -0.77118054
| 31> C   -3.12679325  -0.79041227   0.34567192
| 32> H   -2.02709166   0.86932115   1.12633161
| 33> H   -4.04162254  -0.56082802   0.88990344
| 34> H   -3.41018330  -1.23299996  -0.61018016
| 35> H   -2.58379474  -1.53466320   0.92646588
| 36> C   -0.84688529   0.37304979  -1.76273258
| 37> C    0.50207860   0.15922601  -2.23661702
| 38> H   -1.63169152   0.72944701  -2.42378866
| 39> C    1.60204895   0.47542311  -1.44690922
| 40> C    2.80741783   0.07528924  -2.09229541
| 41> S    0.93200477  -0.56488468  -3.72010998
| 42> C    2.59799428  -0.49101281  -3.31067928
| 43> H    1.53189964   1.36499322  -0.65743413
| 44> H    3.79295259   0.25282732  -1.68693519
| 45> H    3.33606889  -0.85088437  -4.01153080
| 46> H   -0.84859611  -3.16750134  -0.15071979
| 47> H   -0.68901219  -2.38872919   2.45049686
| 48> H    1.84949711  -1.59967702   2.91116577
| 49> O    1.33046716   2.44785543   0.25231898
| 50> O    0.53469004   0.91731717   1.66603048
| 51> C    0.91903036   2.11085027   1.36122085
| 52> C    0.86361492   3.09570550   2.49491636
| 53> H    0.82278119   4.11401345   2.11807161
| 54> H    1.77025219   2.99802750   3.09532729
| 55> H    0.01857573   2.90666481   3.15356907
| 56> H    3.24627155  -1.90544798   0.65018323
| 57> H    1.57293239  -2.86784158  -1.25366769
| 58> *
| 59>
| 60>                          ****END OF INPUT****
 Total Charge           Charge          ....    1
 Multiplicity           Mult            ....    1
 Number of Electrons    NEL             ....  164
Dispersion correction           -0.030978136
FINAL SINGLE POINT ENERGY     -1288.398026678574
Dispersion correction            ... done
Dispersion correction           -0.031025819
FINAL SINGLE POINT ENERGY     -1288.396198316733
Dispersion correction            ... done
Dispersion correction           -0.030952936
FINAL SINGLE POINT ENERGY     -1288.398114370799
Dispersion correction            ... done
FINAL SINGLE POINT ENERGY     -1288.396335538035
FINAL SINGLE POINT ENERGY     -1288.398198640843
FINAL SINGLE POINT ENERGY     -1288.398217537306
FINAL SINGLE POINT ENERGY     -1288.398243353218
FINAL SINGLE POINT ENERGY     -1288.398255087629
FINAL SINGLE POINT ENERGY     -1288.398264192598
Dispersion correction            ... done
Dispersion correction           -0.030845439
FINAL SINGLE POINT ENERGY     -1288.398276375727
Dispersion correction            ... done
Dispersion correction           -0.030840908
FINAL SINGLE POINT ENERGY     -1288.398278284520
Dispersion correction            ... done
                    ***********************HURRAY********************

CARTESIAN COORDINATES (ANGSTROEM)
---------------------------------
  Ir     0.593477   -0.721298    0.463629
  C      0.041691   -2.806214    0.361150
  C      0.093061   -2.352469    1.728011
  C      2.198721   -2.130548    0.817302
  C      1.318979   -2.646637   -0.207022
  C      1.451866   -1.984978    2.000906
  N     -1.044718    0.155898   -0.518834
  C     -2.318339    0.464929    0.150724
  C     -3.119501    1.557026   -0.540234
  H     -3.948704    1.846342    0.103976
  H     -3.559814    1.230598   -1.483705
  H     -2.521775    2.450950   -0.720604
  C     -3.133065   -0.812596    0.314186
  H     -2.030956    0.823251    1.140520
  H     -4.048710   -0.594535    0.861840
  H     -3.414973   -1.229355   -0.653623
  H     -2.593379   -1.573413    0.876168
  C     -0.854535    0.374260   -1.763623
  C      0.490816    0.171004   -2.246244
  H     -1.645426    0.730984   -2.417069
  C      1.586544    0.430442   -1.429852
  C      2.793100    0.049400   -2.084246
  S      0.925523   -0.480082   -3.759907
  C      2.587944   -0.449241   -3.333042
  H      1.531226    1.337449   -0.638598
  H      3.777159    0.192975   -1.662196
  H      3.328007   -0.780705   -4.045708
  H     -0.835900   -3.172764   -0.151782
  H     -0.711548   -2.383631    2.447693
  H      1.818081   -1.585194    2.935647
  O      1.365014    2.435312    0.237345
  O      0.533871    0.930171    1.656710
  C      0.936405    2.113567    1.346624
  C      0.884629    3.112936    2.467111
  H      0.852083    4.126968    2.078139
  H      1.789217    3.016063    3.070748
  H      0.036433    2.937042    3.125191
  H      3.248139   -1.906351    0.697698
  H      1.598727   -2.878365   -1.224292

 Multiplicity           Mult            ....    1
 Number of Electrons    NEL             ....  164
 Basis Dimension        Dim             ....  358

ORBITAL ENERGIES
----------------

  NO   OCC          E(Eh)            E(eV)
   0   2.0000     -89.762480     -2442.5613
   1   2.0000     -19.624180      -534.0011
   2   2.0000     -19.590921      -533.0961
   3   2.0000     -14.840066      -403.8187
   4   2.0000     -10.681949      -290.6706
   5   2.0000     -10.661164      -290.1050
   6   2.0000     -10.636277      -289.4278
   7   2.0000     -10.633193      -289.3439
   8   2.0000     -10.631370      -289.2943
   9   2.0000     -10.631264      -289.2914
  10   2.0000     -10.630102      -289.2598
  11   2.0000     -10.629645      -289.2473
  12   2.0000     -10.615648      -288.8665
  13   2.0000     -10.609800      -288.7073
  14   2.0000     -10.584627      -288.0223
  15   2.0000     -10.582407      -287.9619
  16   2.0000     -10.556778      -287.2645
  17   2.0000     -10.551819      -287.1296
  18   2.0000     -10.533636      -286.6348
  19   2.0000      -8.401850      -228.6260
  20   2.0000      -6.291866      -171.2104
  21   2.0000      -6.288235      -171.1116
  22   2.0000      -6.286662      -171.0688
  23   2.0000      -4.028888      -109.6316
  24   2.0000      -2.347851       -63.8883
  25   2.0000      -2.313844       -62.9629
  26   2.0000      -2.312282       -62.9204
  27   2.0000      -1.307007       -35.5655
  28   2.0000      -1.212834       -33.0029
  29   2.0000      -1.209568       -32.9140
  30   2.0000      -1.172345       -31.9011
  31   2.0000      -1.126547       -30.6549
  32   2.0000      -1.026576       -27.9345
  33   2.0000      -0.986868       -26.8540
  34   2.0000      -0.977419       -26.5969
  35   2.0000      -0.965851       -26.2821
  36   2.0000      -0.959496       -26.1092
  37   2.0000      -0.927799       -25.2467
  38   2.0000      -0.903023       -24.5725
  39   2.0000      -0.873628       -23.7726
  40   2.0000      -0.798079       -21.7168
  41   2.0000      -0.788237       -21.4490
  42   2.0000      -0.786885       -21.4122
  43   2.0000      -0.781085       -21.2544
  44   2.0000      -0.771978       -21.0066
  45   2.0000      -0.756139       -20.5756
  46   2.0000      -0.743786       -20.2394
  47   2.0000      -0.722916       -19.6715
  48   2.0000      -0.693327       -18.8664
  49   2.0000      -0.674729       -18.3603
  50   2.0000      -0.665041       -18.0967
  51   2.0000      -0.650828       -17.7099
  52   2.0000      -0.648156       -17.6372
  53   2.0000      -0.639703       -17.4072
  54   2.0000      -0.636930       -17.3318
  55   2.0000      -0.630225       -17.1493
  56   2.0000      -0.623356       -16.9624
  57   2.0000      -0.611597       -16.6424
  58   2.0000      -0.607958       -16.5434
  59   2.0000      -0.607094       -16.5199
  60   2.0000      -0.597775       -16.2663
  61   2.0000      -0.589087       -16.0299
  62   2.0000      -0.578078       -15.7303
  63   2.0000      -0.570591       -15.5266
  64   2.0000      -0.563553       -15.3351
  65   2.0000      -0.555908       -15.1270
  66   2.0000      -0.552310       -15.0291
  67   2.0000      -0.548491       -14.9252
  68   2.0000      -0.539389       -14.6775
  69   2.0000      -0.535656       -14.5759
  70   2.0000      -0.528076       -14.3697
  71   2.0000      -0.520348       -14.1594
  72   2.0000      -0.515746       -14.0341
  73   2.0000      -0.505212       -13.7475
  74   2.0000      -0.489345       -13.3158
  75   2.0000      -0.481104       -13.0915
  76   2.0000      -0.467304       -12.7160
  77   2.0000      -0.448652       -12.2084
  78   2.0000      -0.442110       -12.0304
  79   2.0000      -0.422962       -11.5094
  80   2.0000      -0.417295       -11.3552
  81   2.0000      -0.402776       -10.9601
  82   0.0000      -0.201733        -5.4894
  83   0.0000      -0.161156        -4.3853
  84   0.0000      -0.141491        -3.8502
  85   0.0000      -0.097360        -2.6493
  86   0.0000      -0.076026        -2.0688

MULLIKEN ATOMIC CHARGES
-----------------------
   0 Ir:    0.613933
   1 C :   -0.210251
   2 C :   -0.289260
   3 C :   -0.236010
   4 C :   -0.245706
   5 C :   -0.165657
   6 N :   -0.428120
   7 C :   -0.120729
   8 C :   -0.692018
   9 H :    0.272089
  10 H :    0.225440
  11 H :    0.260421
  12 C :   -0.637817
  13 H :    0.281805
  14 H :    0.264137
  15 H :    0.230870
  16 H :    0.232255
  17 C :    0.070069
  18 C :   -0.187001
  19 H :    0.291020
  20 C :   -0.453828
  21 C :   -0.131291
  22 S :    0.306615
  23 C :   -0.430745
  24 H :    0.499904
  25 H :    0.266127
  26 H :    0.297385
  27 H :    0.291343
  28 H :    0.292061
  29 H :    0.305832
  30 O :   -0.482276
  31 O :   -0.538573
  32 C :    0.617003
  33 C :   -0.745298
  34 H :    0.269494
  35 H :    0.266286
  36 H :    0.253166
  37 H :    0.292823
  38 H :    0.294502
Sum of atomic charges:    1.0000000

LOEWDIN ATOMIC CHARGES
----------------------
   0 Ir:   -0.224501
   1 C :   -0.039841
   2 C :   -0.065511
   3 C :   -0.054009
   4 C :   -0.055998
   5 C :   -0.023755
   6 N :   -0.005772
   7 C :   -0.069002
   8 C :   -0.364339
   9 H :    0.157295
  10 H :    0.133532
  11 H :    0.146737
  12 C :   -0.343540
  13 H :    0.156580
  14 H :    0.152936
  15 H :    0.137225
  16 H :    0.133809
  17 C :    0.034833
  18 C :   -0.184261
  19 H :    0.162592
  20 C :   -0.196093
  21 C :   -0.136789
  22 S :    0.470969
  23 C :   -0.262824
  24 H :    0.296056
  25 H :    0.162186
  26 H :    0.168014
  27 H :    0.185098
  28 H :    0.185555
  29 H :    0.193215
  30 O :   -0.276126
  31 O :   -0.206076
  32 C :    0.154886
  33 C :   -0.375839
  34 H :    0.159753
  35 H :    0.167122
  36 H :    0.153253
  37 H :    0.186681
  38 H :    0.185948

  Mayer bond orders larger than 0.100000
B(  0-Ir,  1-C ) :   0.4196 B(  0-Ir,  2-C ) :   0.5265 B(  0-Ir,  3-C ) :   0.4610
B(  0-Ir,  4-C ) :   0.4512 B(  0-Ir,  5-C ) :   0.4021 B(  0-Ir,  6-N ) :   0.4641
B(  0-Ir, 20-C ) :   0.2667 B(  0-Ir, 31-O ) :   0.5776 B(  1-C ,  2-C ) :   1.1193
B(  1-C ,  4-C ) :   1.2439 B(  1-C , 27-H ) :   0.9033 B(  2-C ,  5-C ) :   1.1369
B(  2-C , 28-H ) :   0.9076 B(  3-C ,  4-C ) :   1.1068 B(  3-C ,  5-C ) :   1.2314
B(  3-C , 37-H ) :   0.9049 B(  4-C , 38-H ) :   0.8997 B(  5-C , 29-H ) :   0.8981
B(  6-N ,  7-C ) :   0.8917 B(  6-N , 17-C ) :   1.6868 B(  7-C ,  8-C ) :   0.9919
B(  7-C , 12-C ) :   0.9687 B(  7-C , 13-H ) :   0.8723 B(  8-C ,  9-H ) :   0.9036
B(  8-C , 10-H ) :   0.9126 B(  8-C , 11-H ) :   0.9084 B( 12-C , 14-H ) :   0.9065
B( 12-C , 15-H ) :   0.9155 B( 12-C , 16-H ) :   0.9116 B( 17-C , 18-C ) :   1.0612
B( 17-C , 19-H ) :   0.8743 B( 18-C , 20-C ) :   1.2887 B( 18-C , 22-S ) :   1.2295
B( 20-C , 21-C ) :   1.2657 B( 20-C , 24-H ) :   0.4624 B( 21-C , 23-C ) :   1.5479
B( 21-C , 25-H ) :   0.9044 B( 22-S , 23-C ) :   1.2039 B( 23-C , 26-H ) :   0.8921
B( 24-H , 30-O ) :   0.2474 B( 30-O , 32-C ) :   1.6830 B( 31-O , 32-C ) :   1.2827
B( 32-C , 33-C ) :   0.9466 B( 33-C , 34-H ) :   0.9049 B( 33-C , 35-H ) :   0.8986
B( 33-C , 36-H ) :   0.9095

Dispersion correction           -0.030838145
FINAL SINGLE POINT ENERGY     -1288.398279994174

DIPOLE MOMENT
-------------
                                X             Y             Z
Electronic contribution:     35.61138     -68.15782      74.00587
Nuclear contribution   :    -36.23768      66.97854     -74.28519
                        -----------------------------------------
Total Dipole Moment    :     -0.62630      -1.17927      -0.27932
                        -----------------------------------------
Magnitude (a.u.)       :      1.36417
Magnitude (Debye)      :      3.46744

Rotational constants in cm-1:     0.010664     0.009065     0.008232
Rotational constants in MHz :   319.687724   271.758273   246.783652

                             ****ORCA TERMINATED NORMALLY****
TOTAL RUN TIME: 0 days 1 hours 35 minutes 58 seconds 353 msec
