                         Program Version 5.0.3 -  RELEASE  -
|  1> ! Opt PBEh-3c
|  2> %geom Constraints
|  3> { B 0 20 2.085714285714286 C }
|  4> { B 24 30 1.4857142857142858 C }
|  5>     end
|  6> end
|  7> %output
|  8> xyzfile=True
|  9> end
| 10> %scf
| 11> maxiter 250
| 12> end
| 13> %output
| 14> Print[P_Hirshfeld] = 1
| 15> end
| 16> % maxcore
| 17> 4000
| 18> *xyz 1 1
| 19> Ir   0.63792339  -0.71340253   0.40458402
| 20> C    0.15375194  -2.83379541   0.30447447
| 21> C    0.01949852  -2.38582181   1.66523666
| 22> C    2.21575724  -2.07233366   1.01501048
| 23> C    1.49292244  -2.64477911  -0.09250601
| 24> C    1.30194417  -1.94445712   2.09008172
| 25> N   -1.05088839   0.13588351  -0.51834208
| 26> C   -2.30607174   0.39820787   0.20144308
| 27> C   -3.08213287   1.58996561  -0.33971535
| 28> H   -3.89787607   1.81923409   0.34444951
| 29> H   -3.53743045   1.39364145  -1.31132775
| 30> H   -2.45925028   2.48140523  -0.41628845
| 31> C   -3.15445030  -0.86881722   0.21143117
| 32> H   -2.00044771   0.62314289   1.22397089
| 33> H   -4.04352047  -0.71217169   0.82062614
| 34> H   -3.48166396  -1.13256468  -0.79510200
| 35> H   -2.61498468  -1.71728896   0.62971277
| 36> C   -0.90836317   0.40896353  -1.76168634
| 37> C    0.41575619   0.20001296  -2.27670423
| 38> H   -1.71481685   0.80794922  -2.36865217
| 39> C    1.46939483   0.14826895  -1.35524375
| 40> C    2.69048119  -0.15133725  -2.04217608
| 41> S    0.89239763  -0.10931697  -3.86979215
| 42> C    2.52674572  -0.31424838  -3.38086792
| 43> H    1.53224933   1.15825488  -0.68313033
| 44> H    3.65686186  -0.18616895  -1.56040638
| 45> H    3.28350568  -0.51953285  -4.12266001
| 46> H   -0.63295254  -3.24908594  -0.30858895
| 47> H   -0.86816671  -2.43750561   2.27726731
| 48> H    1.52715696  -1.51252444   3.05495775
| 49> O    1.46803285   2.42279103   0.12112373
| 50> O    0.56793431   0.98155893   1.56097729
| 51> C    0.99750179   2.14385893   1.22772170
| 52> C    0.92857573   3.18839700   2.30644293
| 53> H    0.88181472   4.18551639   1.87696019
| 54> H    1.83505945   3.12997829   2.91180364
| 55> H    0.08180962   3.02573942   2.96918801
| 56> H    3.27055757  -1.84700442   1.04669024
| 57> H    1.90475314  -2.89142322  -1.06022363
| 58> *
| 59>
| 60>                          ****END OF INPUT****
 Total Charge           Charge          ....    1
 Multiplicity           Mult            ....    1
 Number of Electrons    NEL             ....  164
Dispersion correction           -0.031061009
FINAL SINGLE POINT ENERGY     -1288.396819190642
Dispersion correction            ... done
Dispersion correction           -0.030988157
FINAL SINGLE POINT ENERGY     -1288.396833310042
Dispersion correction            ... done
Dispersion correction           -0.030996813
FINAL SINGLE POINT ENERGY     -1288.396524140907
Dispersion correction            ... done
FINAL SINGLE POINT ENERGY     -1288.397143828557
FINAL SINGLE POINT ENERGY     -1288.397187486433
FINAL SINGLE POINT ENERGY     -1288.397253910543
FINAL SINGLE POINT ENERGY     -1288.397254354822
FINAL SINGLE POINT ENERGY     -1288.397255603341
FINAL SINGLE POINT ENERGY     -1288.397257565482
FINAL SINGLE POINT ENERGY     -1288.397255585834
FINAL SINGLE POINT ENERGY     -1288.397252687986
FINAL SINGLE POINT ENERGY     -1288.397248532957
FINAL SINGLE POINT ENERGY     -1288.397249123750
FINAL SINGLE POINT ENERGY     -1288.397251601985
Dispersion correction            ... done
Dispersion correction           -0.030859766
FINAL SINGLE POINT ENERGY     -1288.397251473430
Dispersion correction            ... done
Dispersion correction           -0.030857088
FINAL SINGLE POINT ENERGY     -1288.397249184008
Dispersion correction            ... done
                    ***********************HURRAY********************

CARTESIAN COORDINATES (ANGSTROEM)
---------------------------------
  Ir     0.626684   -0.712747    0.397563
  C      0.146852   -2.835245    0.325985
  C     -0.017731   -2.379090    1.680925
  C      2.190897   -2.060101    1.072580
  C      1.496335   -2.649534   -0.041682
  C      1.249434   -1.925356    2.126433
  N     -1.065513    0.136328   -0.521057
  C     -2.328131    0.361413    0.197289
  C     -3.131699    1.541576   -0.329415
  H     -3.954446    1.740292    0.355660
  H     -3.579796    1.347030   -1.304832
  H     -2.531644    2.449656   -0.391742
  C     -3.150082   -0.923185    0.183212
  H     -2.032221    0.578565    1.224624
  H     -4.048720   -0.793238    0.784773
  H     -3.461259   -1.180045   -0.830142
  H     -2.598721   -1.766601    0.595370
  C     -0.917717    0.461999   -1.751889
  C      0.402895    0.264610   -2.272201
  H     -1.722185    0.886686   -2.343352
  C      1.440550    0.091508   -1.346283
  C      2.658801   -0.189374   -2.049161
  S      0.890829    0.098520   -3.882832
  C      2.508169   -0.212857   -3.399558
  H      1.592876    1.117342   -0.670558
  H      3.617635   -0.304707   -1.564702
  H      3.268246   -0.372257   -4.149177
  H     -0.622545   -3.264134   -0.299414
  H     -0.918385   -2.426619    2.273748
  H      1.451080   -1.480054    3.090480
  O      1.661237    2.363195    0.135994
  O      0.559398    1.011852    1.521296
  C      1.088500    2.134870    1.208492
  C      1.011917    3.208615    2.256977
  H      1.012689    4.194441    1.799207
  H      1.894340    3.140619    2.895631
  H      0.135977    3.089952    2.889892
  H      3.244769   -1.835390    1.128903
  H      1.930055   -2.909344   -0.996298

 Multiplicity           Mult            ....    1
 Number of Electrons    NEL             ....  164
 Basis Dimension        Dim             ....  358

ORBITAL ENERGIES
----------------

  NO   OCC          E(Eh)            E(eV)
   0   2.0000     -89.770387     -2442.7764
   1   2.0000     -19.626569      -534.0661
   2   2.0000     -19.605080      -533.4814
   3   2.0000     -14.838505      -403.7762
   4   2.0000     -10.685870      -290.7773
   5   2.0000     -10.657941      -290.0173
   6   2.0000     -10.633631      -289.3558
   7   2.0000     -10.626595      -289.1643
   8   2.0000     -10.625082      -289.1232
   9   2.0000     -10.623843      -289.0895
  10   2.0000     -10.616611      -288.8927
  11   2.0000     -10.614595      -288.8378
  12   2.0000     -10.614030      -288.8224
  13   2.0000     -10.613818      -288.8167
  14   2.0000     -10.593708      -288.2695
  15   2.0000     -10.591321      -288.2045
  16   2.0000     -10.554711      -287.2083
  17   2.0000     -10.551423      -287.1188
  18   2.0000     -10.537901      -286.7509
  19   2.0000      -8.409756      -228.8411
  20   2.0000      -6.299598      -171.4208
  21   2.0000      -6.296007      -171.3231
  22   2.0000      -6.294815      -171.2906
  23   2.0000      -4.021863      -109.4405
  24   2.0000      -2.339164       -63.6519
  25   2.0000      -2.308231       -62.8102
  26   2.0000      -2.305289       -62.7301
  27   2.0000      -1.312061       -35.7030
  28   2.0000      -1.214537       -33.0492
  29   2.0000      -1.210617       -32.9426
  30   2.0000      -1.161730       -31.6123
  31   2.0000      -1.132690       -30.8221
  32   2.0000      -1.027366       -27.9560
  33   2.0000      -0.975142       -26.5350
  34   2.0000      -0.974393       -26.5146
  35   2.0000      -0.968260       -26.3477
  36   2.0000      -0.962287       -26.1852
  37   2.0000      -0.931240       -25.3403
  38   2.0000      -0.901538       -24.5321
  39   2.0000      -0.875737       -23.8300
  40   2.0000      -0.801699       -21.8153
  41   2.0000      -0.785574       -21.3765
  42   2.0000      -0.778084       -21.1727
  43   2.0000      -0.777291       -21.1512
  44   2.0000      -0.762720       -20.7547
  45   2.0000      -0.754968       -20.5437
  46   2.0000      -0.744128       -20.2488
  47   2.0000      -0.723853       -19.6970
  48   2.0000      -0.691016       -18.8035
  49   2.0000      -0.681066       -18.5327
  50   2.0000      -0.664996       -18.0955
  51   2.0000      -0.651543       -17.7294
  52   2.0000      -0.646533       -17.5931
  53   2.0000      -0.634231       -17.2583
  54   2.0000      -0.632413       -17.2088
  55   2.0000      -0.627823       -17.0839
  56   2.0000      -0.622682       -16.9440
  57   2.0000      -0.614232       -16.7141
  58   2.0000      -0.603300       -16.4166
  59   2.0000      -0.598494       -16.2859
  60   2.0000      -0.597594       -16.2614
  61   2.0000      -0.592975       -16.1357
  62   2.0000      -0.582442       -15.8491
  63   2.0000      -0.572877       -15.5888
  64   2.0000      -0.563902       -15.3446
  65   2.0000      -0.560949       -15.2642
  66   2.0000      -0.551850       -15.0166
  67   2.0000      -0.547949       -14.9105
  68   2.0000      -0.542125       -14.7520
  69   2.0000      -0.536773       -14.6063
  70   2.0000      -0.529478       -14.4078
  71   2.0000      -0.519087       -14.1251
  72   2.0000      -0.514081       -13.9889
  73   2.0000      -0.497828       -13.5466
  74   2.0000      -0.489888       -13.3305
  75   2.0000      -0.487752       -13.2724
  76   2.0000      -0.477712       -12.9992
  77   2.0000      -0.446726       -12.1560
  78   2.0000      -0.442598       -12.0437
  79   2.0000      -0.422818       -11.5055
  80   2.0000      -0.414756       -11.2861
  81   2.0000      -0.394643       -10.7388
  82   0.0000      -0.211467        -5.7543
  83   0.0000      -0.143777        -3.9124
  84   0.0000      -0.133489        -3.6324
  85   0.0000      -0.090812        -2.4711
  86   0.0000      -0.077732        -2.1152

MULLIKEN ATOMIC CHARGES
-----------------------
   0 Ir:    0.607296
   1 C :   -0.235373
   2 C :   -0.260074
   3 C :   -0.267725
   4 C :   -0.229656
   5 C :   -0.152958
   6 N :   -0.426967
   7 C :   -0.126881
   8 C :   -0.684706
   9 H :    0.270658
  10 H :    0.224076
  11 H :    0.256359
  12 C :   -0.634517
  13 H :    0.283509
  14 H :    0.260523
  15 H :    0.232077
  16 H :    0.234034
  17 C :    0.070798
  18 C :   -0.121280
  19 H :    0.288271
  20 C :   -0.584014
  21 C :   -0.086093
  22 S :    0.346859
  23 C :   -0.431157
  24 H :    0.470928
  25 H :    0.270493
  26 H :    0.299984
  27 H :    0.285258
  28 H :    0.282953
  29 H :    0.299906
  30 O :   -0.466425
  31 O :   -0.524088
  32 C :    0.620282
  33 C :   -0.743078
  34 H :    0.270322
  35 H :    0.270112
  36 H :    0.255720
  37 H :    0.282664
  38 H :    0.291913
Sum of atomic charges:    1.0000000

LOEWDIN ATOMIC CHARGES
----------------------
   0 Ir:   -0.256719
   1 C :   -0.055058
   2 C :   -0.095282
   3 C :   -0.091556
   4 C :   -0.047016
   5 C :   -0.015672
   6 N :    0.003867
   7 C :   -0.069936
   8 C :   -0.362779
   9 H :    0.156885
  10 H :    0.132839
  11 H :    0.144613
  12 C :   -0.343367
  13 H :    0.157025
  14 H :    0.151544
  15 H :    0.137700
  16 H :    0.133679
  17 C :    0.026945
  18 C :   -0.173723
  19 H :    0.162024
  20 C :   -0.218663
  21 C :   -0.116636
  22 S :    0.506715
  23 C :   -0.259995
  24 H :    0.337244
  25 H :    0.164427
  26 H :    0.170288
  27 H :    0.181901
  28 H :    0.180077
  29 H :    0.189335
  30 O :   -0.263586
  31 O :   -0.197073
  32 C :    0.153801
  33 C :   -0.373666
  34 H :    0.161190
  35 H :    0.169173
  36 H :    0.153931
  37 H :    0.181902
  38 H :    0.183621

  Mayer bond orders larger than 0.100000
B(  0-Ir,  1-C ) :   0.4307 B(  0-Ir,  2-C ) :   0.4120 B(  0-Ir,  3-C ) :   0.4662
B(  0-Ir,  4-C ) :   0.4250 B(  0-Ir,  5-C ) :   0.3737 B(  0-Ir,  6-N ) :   0.4618
B(  0-Ir, 20-C ) :   0.4756 B(  0-Ir, 31-O ) :   0.5466 B(  1-C ,  2-C ) :   1.1288
B(  1-C ,  4-C ) :   1.2344 B(  1-C , 27-H ) :   0.9078 B(  2-C ,  5-C ) :   1.2016
B(  2-C , 28-H ) :   0.9100 B(  3-C ,  4-C ) :   1.1295 B(  3-C ,  5-C ) :   1.1851
B(  3-C , 37-H ) :   0.9126 B(  4-C , 38-H ) :   0.8994 B(  5-C , 29-H ) :   0.9004
B(  6-N ,  7-C ) :   0.8952 B(  6-N , 17-C ) :   1.6545 B(  7-C ,  8-C ) :   0.9905
B(  7-C , 12-C ) :   0.9657 B(  7-C , 13-H ) :   0.8733 B(  8-C ,  9-H ) :   0.9043
B(  8-C , 10-H ) :   0.9130 B(  8-C , 11-H ) :   0.9108 B( 12-C , 14-H ) :   0.9073
B( 12-C , 15-H ) :   0.9153 B( 12-C , 16-H ) :   0.9114 B( 17-C , 18-C ) :   1.1019
B( 17-C , 19-H ) :   0.8759 B( 18-C , 20-C ) :   1.2111 B( 18-C , 22-S ) :   1.2662
B( 20-C , 21-C ) :   1.2416 B( 20-C , 24-H ) :   0.4145 B( 21-C , 23-C ) :   1.5589
B( 21-C , 25-H ) :   0.9009 B( 22-S , 23-C ) :   1.2035 B( 23-C , 26-H ) :   0.8908
B( 24-H , 30-O ) :   0.2917 B( 30-O , 32-C ) :   1.6483 B( 31-O , 32-C ) :   1.3218
B( 32-C , 33-C ) :   0.9424 B( 33-C , 34-H ) :   0.9034 B( 33-C , 35-H ) :   0.8967
B( 33-C , 36-H ) :   0.9089

Dispersion correction           -0.030856754
FINAL SINGLE POINT ENERGY     -1288.397247833683

DIPOLE MOMENT
-------------
                                X             Y             Z
Electronic contribution:     38.71741     -70.92940      68.55207
Nuclear contribution   :    -39.38328      70.17051     -69.02631
                        -----------------------------------------
Total Dipole Moment    :     -0.66587      -0.75889      -0.47424
                        -----------------------------------------
Magnitude (a.u.)       :      1.11544
Magnitude (Debye)      :      2.83522

Rotational constants in cm-1:     0.010515     0.009065     0.008264
Rotational constants in MHz :   315.230468   271.750813   247.761979

                             ****ORCA TERMINATED NORMALLY****
TOTAL RUN TIME: 0 days 2 hours 4 minutes 34 seconds 568 msec
