                         Program Version 5.0.3 -  RELEASE  -
|  1> ! Opt PBEh-3c
|  2> %geom Constraints
|  3> { B 0 20 2.3857142857142857 C }
|  4> { B 24 30 1.3714285714285714 C }
|  5>     end
|  6> end
|  7> %output
|  8> xyzfile=True
|  9> end
| 10> %scf
| 11> maxiter 250
| 12> end
| 13> %output
| 14> Print[P_Hirshfeld] = 1
| 15> end
| 16> % maxcore
| 17> 4000
| 18> *xyz 1 1
| 19> Ir   0.59031038  -0.72631981   0.47702389
| 20> C    0.03626324  -2.81059635   0.37783158
| 21> C    0.07122394  -2.35252387   1.74336281
| 22> C    2.18904384  -2.13685406   0.85786968
| 23> C    1.32094720  -2.65486714  -0.17518538
| 24> C    1.42683428  -1.98541445   2.03118526
| 25> N   -1.04233348   0.14710980  -0.51665706
| 26> C   -2.31986880   0.44497988   0.15173213
| 27> C   -3.11794309   1.54914429  -0.52397554
| 28> H   -3.94859134   1.82921952   0.12245364
| 29> H   -3.55608382   1.23813451  -1.47357195
| 30> H   -2.51853175   2.44486935  -0.68888625
| 31> C   -3.13684286  -0.83429267   0.28933895
| 32> H   -2.03835916   0.78664689   1.14909744
| 33> H   -4.05613311  -0.62456885   0.83423709
| 34> H   -3.41245931  -1.23528634  -0.68690880
| 35> H   -2.60156479  -1.60467092   0.84226599
| 36> C   -0.85455503   0.37526378  -1.76108281
| 37> C    0.48721585   0.18694939  -2.25385406
| 38> H   -1.65122558   0.73088237  -2.40810497
| 39> C    1.58385085   0.40580914  -1.42800118
| 40> C    2.78779978   0.04670388  -2.09744132
| 41> S    0.91873217  -0.39534612  -3.79674459
| 42> C    2.57981411  -0.39308908  -3.36862897
| 43> H    1.54000209   1.32229421  -0.61741635
| 44> H    3.77302020   0.16469072  -1.67020209
| 45> H    3.31867191  -0.69584584  -4.09520069
| 46> H   -0.83493274  -3.17841426  -0.14495954
| 47> H   -0.74224498  -2.38042151   2.45310598
| 48> H    1.78193832  -1.58282631   2.96903346
| 49> O    1.40719665   2.41216592   0.22801044
| 50> O    0.53382912   0.93924391   1.65540195
| 51> C    0.95808218   2.11015206   1.33751628
| 52> C    0.91124848   3.12735521   2.44112438
| 53> H    0.88595952   4.13551633   2.03662171
| 54> H    1.81487651   3.03401408   3.04676549
| 55> H    0.06108271   2.96637468   3.10026375
| 56> H    3.24056433  -1.91608835   0.75140751
| 57> H    1.61253217  -2.89090394  -1.18808774
| 58> *
| 59>
| 60>                          ****END OF INPUT****
 Total Charge           Charge          ....    1
 Multiplicity           Mult            ....    1
 Number of Electrons    NEL             ....  164
Dispersion correction           -0.030845263
FINAL SINGLE POINT ENERGY     -1288.398209453114
Dispersion correction            ... done
Dispersion correction           -0.030943304
FINAL SINGLE POINT ENERGY     -1288.394674117082
Dispersion correction            ... done
Dispersion correction           -0.030837997
FINAL SINGLE POINT ENERGY     -1288.398325066822
Dispersion correction            ... done
FINAL SINGLE POINT ENERGY     -1288.396214583128
FINAL SINGLE POINT ENERGY     -1288.398406330511
FINAL SINGLE POINT ENERGY     -1288.398438906292
FINAL SINGLE POINT ENERGY     -1288.398469374202
FINAL SINGLE POINT ENERGY     -1288.398497154819
FINAL SINGLE POINT ENERGY     -1288.398500433482
FINAL SINGLE POINT ENERGY     -1288.398504351385
FINAL SINGLE POINT ENERGY     -1288.398505246219
FINAL SINGLE POINT ENERGY     -1288.398509672016
FINAL SINGLE POINT ENERGY     -1288.398514736170
FINAL SINGLE POINT ENERGY     -1288.398515975639
Dispersion correction            ... done
Dispersion correction           -0.030661523
FINAL SINGLE POINT ENERGY     -1288.398515745512
Dispersion correction            ... done
Dispersion correction           -0.030658480
FINAL SINGLE POINT ENERGY     -1288.398514992035
Dispersion correction            ... done
                    ***********************HURRAY********************

CARTESIAN COORDINATES (ANGSTROEM)
---------------------------------
  Ir     0.601719   -0.729771    0.480098
  C      0.077681   -2.823592    0.361934
  C      0.016225   -2.362035    1.725210
  C      2.187766   -2.118967    0.981275
  C      1.396376   -2.655668   -0.101350
  C      1.341016   -1.972048    2.098522
  N     -1.040468    0.131586   -0.506731
  C     -2.317116    0.403341    0.175179
  C     -3.094137    1.564200   -0.427674
  H     -3.923520    1.814537    0.232396
  H     -3.531572    1.323821   -1.397603
  H     -2.478015    2.457629   -0.530993
  C     -3.152972   -0.870681    0.217142
  H     -2.038468    0.671753    1.195181
  H     -4.065117   -0.694788    0.785642
  H     -3.441433   -1.186905   -0.786168
  H     -2.622714   -1.691821    0.697169
  C     -0.871463    0.376986   -1.751583
  C      0.460417    0.200200   -2.268427
  H     -1.680585    0.737873   -2.380004
  C      1.560246    0.332476   -1.428957
  C      2.757239    0.004530   -2.126097
  S      0.879378   -0.269436   -3.851260
  C      2.539697   -0.329939   -3.428119
  H      1.554890    1.272230   -0.612153
  H      3.745156    0.070213   -1.693994
  H      3.272889   -0.588310   -4.177148
  H     -0.749804   -3.209692   -0.215664
  H     -0.841678   -2.398450    2.380020
  H      1.625138   -1.556954    3.055152
  O      1.478655    2.381246    0.191021
  O      0.545505    0.960557    1.631455
  C      0.997011    2.113287    1.298985
  C      0.945954    3.162280    2.371494
  H      0.904167    4.157731    1.937576
  H      1.857543    3.099797    2.969030
  H      0.103898    3.009401    3.042385
  H      3.243460   -1.896125    0.949981
  H      1.756403   -2.891303   -1.092181

 Multiplicity           Mult            ....    1
 Number of Electrons    NEL             ....  164
 Basis Dimension        Dim             ....  358

ORBITAL ENERGIES
----------------

  NO   OCC          E(Eh)            E(eV)
   0   2.0000     -89.760426     -2442.5054
   1   2.0000     -19.628646      -534.1226
   2   2.0000     -19.601654      -533.3881
   3   2.0000     -14.836991      -403.7351
   4   2.0000     -10.688173      -290.8400
   5   2.0000     -10.658458      -290.0314
   6   2.0000     -10.632640      -289.3288
   7   2.0000     -10.632491      -289.3248
   8   2.0000     -10.629147      -289.2338
   9   2.0000     -10.627965      -289.2016
  10   2.0000     -10.626449      -289.1604
  11   2.0000     -10.624918      -289.1187
  12   2.0000     -10.614426      -288.8332
  13   2.0000     -10.608083      -288.6606
  14   2.0000     -10.583480      -287.9911
  15   2.0000     -10.582270      -287.9582
  16   2.0000     -10.555739      -287.2363
  17   2.0000     -10.550976      -287.1067
  18   2.0000     -10.537779      -286.7475
  19   2.0000      -8.399858      -228.5718
  20   2.0000      -6.289823      -171.1548
  21   2.0000      -6.286231      -171.0570
  22   2.0000      -6.284720      -171.0159
  23   2.0000      -4.026915      -109.5779
  24   2.0000      -2.345601       -63.8270
  25   2.0000      -2.311913       -62.9104
  26   2.0000      -2.310011       -62.8586
  27   2.0000      -1.314558       -35.7709
  28   2.0000      -1.217220       -33.1222
  29   2.0000      -1.208758       -32.8920
  30   2.0000      -1.169839       -31.8329
  31   2.0000      -1.124442       -30.5976
  32   2.0000      -1.024491       -27.8778
  33   2.0000      -0.983884       -26.7729
  34   2.0000      -0.975016       -26.5315
  35   2.0000      -0.964224       -26.2379
  36   2.0000      -0.957510       -26.0552
  37   2.0000      -0.932650       -25.3787
  38   2.0000      -0.901560       -24.5327
  39   2.0000      -0.871939       -23.7267
  40   2.0000      -0.797059       -21.6891
  41   2.0000      -0.785565       -21.3763
  42   2.0000      -0.784535       -21.3483
  43   2.0000      -0.779674       -21.2160
  44   2.0000      -0.769664       -20.9436
  45   2.0000      -0.758856       -20.6495
  46   2.0000      -0.742366       -20.2008
  47   2.0000      -0.722493       -19.6600
  48   2.0000      -0.691540       -18.8178
  49   2.0000      -0.677844       -18.4451
  50   2.0000      -0.663401       -18.0521
  51   2.0000      -0.652547       -17.7567
  52   2.0000      -0.648046       -17.6342
  53   2.0000      -0.638167       -17.3654
  54   2.0000      -0.637415       -17.3449
  55   2.0000      -0.632543       -17.2124
  56   2.0000      -0.622652       -16.9432
  57   2.0000      -0.609992       -16.5987
  58   2.0000      -0.605466       -16.4756
  59   2.0000      -0.604717       -16.4552
  60   2.0000      -0.596858       -16.2413
  61   2.0000      -0.589185       -16.0325
  62   2.0000      -0.576900       -15.6982
  63   2.0000      -0.568123       -15.4594
  64   2.0000      -0.562698       -15.3118
  65   2.0000      -0.559462       -15.2237
  66   2.0000      -0.552164       -15.0252
  67   2.0000      -0.548152       -14.9160
  68   2.0000      -0.540133       -14.6978
  69   2.0000      -0.534998       -14.5580
  70   2.0000      -0.528054       -14.3691
  71   2.0000      -0.519177       -14.1275
  72   2.0000      -0.514773       -14.0077
  73   2.0000      -0.503940       -13.7129
  74   2.0000      -0.491927       -13.3860
  75   2.0000      -0.480376       -13.0717
  76   2.0000      -0.468731       -12.7548
  77   2.0000      -0.447561       -12.1787
  78   2.0000      -0.444567       -12.0973
  79   2.0000      -0.420402       -11.4397
  80   2.0000      -0.417791       -11.3687
  81   2.0000      -0.400812       -10.9067
  82   0.0000      -0.201334        -5.4786
  83   0.0000      -0.156361        -4.2548
  84   0.0000      -0.141284        -3.8445
  85   0.0000      -0.091438        -2.4881
  86   0.0000      -0.073937        -2.0119

MULLIKEN ATOMIC CHARGES
-----------------------
   0 Ir:    0.611724
   1 C :   -0.218246
   2 C :   -0.285066
   3 C :   -0.245371
   4 C :   -0.238002
   5 C :   -0.163321
   6 N :   -0.433074
   7 C :   -0.126521
   8 C :   -0.684966
   9 H :    0.269964
  10 H :    0.224695
  11 H :    0.258728
  12 C :   -0.635067
  13 H :    0.280834
  14 H :    0.262215
  15 H :    0.231400
  16 H :    0.230914
  17 C :    0.070408
  18 C :   -0.169419
  19 H :    0.287446
  20 C :   -0.469270
  21 C :   -0.132351
  22 S :    0.317083
  23 C :   -0.428754
  24 H :    0.493612
  25 H :    0.264180
  26 H :    0.296760
  27 H :    0.289690
  28 H :    0.289532
  29 H :    0.304604
  30 O :   -0.485782
  31 O :   -0.530354
  32 C :    0.624397
  33 C :   -0.745057
  34 H :    0.271031
  35 H :    0.269504
  36 H :    0.256079
  37 H :    0.290615
  38 H :    0.295203
Sum of atomic charges:    1.0000000

LOEWDIN ATOMIC CHARGES
----------------------
   0 Ir:   -0.231233
   1 C :   -0.046228
   2 C :   -0.073321
   3 C :   -0.067138
   4 C :   -0.048200
   5 C :   -0.018561
   6 N :   -0.008796
   7 C :   -0.069515
   8 C :   -0.362943
   9 H :    0.156470
  10 H :    0.133022
  11 H :    0.145869
  12 C :   -0.343722
  13 H :    0.155554
  14 H :    0.152159
  15 H :    0.137365
  16 H :    0.132662
  17 C :    0.034167
  18 C :   -0.189222
  19 H :    0.160954
  20 C :   -0.206828
  21 C :   -0.135949
  22 S :    0.476654
  23 C :   -0.261230
  24 H :    0.315351
  25 H :    0.161259
  26 H :    0.167918
  27 H :    0.184295
  28 H :    0.184072
  29 H :    0.192364
  30 O :   -0.272525
  31 O :   -0.198284
  32 C :    0.160494
  33 C :   -0.374092
  34 H :    0.161270
  35 H :    0.169150
  36 H :    0.154459
  37 H :    0.185760
  38 H :    0.186521

  Mayer bond orders larger than 0.100000
B(  0-Ir,  1-C ) :   0.4220 B(  0-Ir,  2-C ) :   0.5106 B(  0-Ir,  3-C ) :   0.4612
B(  0-Ir,  4-C ) :   0.4484 B(  0-Ir,  5-C ) :   0.4009 B(  0-Ir,  6-N ) :   0.4664
B(  0-Ir, 20-C ) :   0.3070 B(  0-Ir, 31-O ) :   0.5593 B(  1-C ,  2-C ) :   1.1204
B(  1-C ,  4-C ) :   1.2416 B(  1-C , 27-H ) :   0.9046 B(  2-C ,  5-C ) :   1.1463
B(  2-C , 28-H ) :   0.9085 B(  3-C ,  4-C ) :   1.1114 B(  3-C ,  5-C ) :   1.2227
B(  3-C , 37-H ) :   0.9073 B(  4-C , 38-H ) :   0.9002 B(  5-C , 29-H ) :   0.8983
B(  6-N ,  7-C ) :   0.8920 B(  6-N , 17-C ) :   1.6714 B(  7-C ,  8-C ) :   0.9911
B(  7-C , 12-C ) :   0.9680 B(  7-C , 13-H ) :   0.8752 B(  8-C ,  9-H ) :   0.9043
B(  8-C , 10-H ) :   0.9131 B(  8-C , 11-H ) :   0.9097 B( 12-C , 14-H ) :   0.9070
B( 12-C , 15-H ) :   0.9156 B( 12-C , 16-H ) :   0.9126 B( 17-C , 18-C ) :   1.0821
B( 17-C , 19-H ) :   0.8755 B( 18-C , 20-C ) :   1.2800 B( 18-C , 22-S ) :   1.2282
B( 20-C , 21-C ) :   1.2792 B( 20-C , 24-H ) :   0.4205 B( 21-C , 23-C ) :   1.5434
B( 21-C , 25-H ) :   0.9050 B( 22-S , 23-C ) :   1.2111 B( 23-C , 26-H ) :   0.8919
B( 24-H , 30-O ) :   0.2769 B( 30-O , 32-C ) :   1.6400 B( 31-O , 32-C ) :   1.3135
B( 32-C , 33-C ) :   0.9474 B( 33-C , 34-H ) :   0.9034 B( 33-C , 35-H ) :   0.8966
B( 33-C , 36-H ) :   0.9087

Dispersion correction           -0.030656943
FINAL SINGLE POINT ENERGY     -1288.398515430542

DIPOLE MOMENT
-------------
                                X             Y             Z
Electronic contribution:     36.59074     -70.13004      76.33051
Nuclear contribution   :    -37.21487      69.14009     -76.53764
                        -----------------------------------------
Total Dipole Moment    :     -0.62413      -0.98995      -0.20712
                        -----------------------------------------
Magnitude (a.u.)       :      1.18846
Magnitude (Debye)      :      3.02082

Rotational constants in cm-1:     0.010564     0.008934     0.008152
Rotational constants in MHz :   316.701897   267.841076   244.376757

                             ****ORCA TERMINATED NORMALLY****
TOTAL RUN TIME: 0 days 2 hours 7 minutes 59 seconds 503 msec
