                         Program Version 5.0.3 -  RELEASE  -
|  1> ! Opt PBEh-3c
|  2> %geom Constraints
|  3> { B 0 20 2.3857142857142857 C }
|  4> { B 24 30 1.457142857142857 C }
|  5>     end
|  6> end
|  7> %output
|  8> xyzfile=True
|  9> end
| 10> %scf
| 11> maxiter 250
| 12> end
| 13> %output
| 14> Print[P_Hirshfeld] = 1
| 15> end
| 16> % maxcore
| 17> 4000
| 18> *xyz 1 1
| 19> Ir   0.59993733  -0.71448564   0.44061246
| 20> C    0.04849705  -2.80053235   0.34216818
| 21> C    0.12127055  -2.34619940   1.70855332
| 22> C    2.21128737  -2.12340691   0.76529764
| 23> C    1.31642197  -2.64050905  -0.24547590
| 24> C    1.48439095  -1.97923573   1.96095288
| 25> N   -1.04635035   0.16969533  -0.52482102
| 26> C   -2.31384793   0.49321989   0.14787029
| 27> C   -3.12304576   1.56524213  -0.56407524
| 28> H   -3.94986371   1.86616283   0.07785464
| 29> H   -3.56703821   1.21488555  -1.49730063
| 30> H   -2.53043114   2.45755152  -0.76815719
| 31> C   -3.12296424  -0.78202985   0.35093965
| 32> H   -2.01722653   0.87668182   1.12541367
| 33> H   -4.03330094  -0.55238208   0.90259145
| 34> H   -3.41405099  -1.22312335  -0.60327435
| 35> H   -2.57564139  -1.52728523   0.92636226
| 36> C   -0.85264724   0.37969214  -1.76902576
| 37> C    0.49659297   0.15388368  -2.23854521
| 38> H   -1.63469836   0.74228554  -2.42976763
| 39> C    1.59343719   0.46006574  -1.43857519
| 40> C    2.80134779   0.04838524  -2.07413816
| 41> S    0.93151790  -0.58460932  -3.71091476
| 42> C    2.59618099  -0.52302762  -3.28998308
| 43> H    1.53020201   1.35307286  -0.67599372
| 44> H    3.78482487   0.22161320  -1.66203485
| 45> H    3.33577981  -0.89289062  -3.98393134
| 46> H   -0.83736667  -3.16693045  -0.15645795
| 47> H   -0.67189184  -2.37710311   2.44092991
| 48> H    1.86508276  -1.57923135   2.88977073
| 49> O    1.31090044   2.47093466   0.25534612
| 50> O    0.53404725   0.91697473   1.65409557
| 51> C    0.90616980   2.11883347   1.35997215
| 52> C    0.84233472   3.08825294   2.50742008
| 53> H    0.80243784   4.11148452   2.14407865
| 54> H    1.74463235   2.98338916   3.11307035
| 55> H   -0.00694153   2.88982421   3.15797893
| 56> H    3.25816347  -1.89700628   0.62851047
| 57> H    1.58121942  -2.87295281  -1.26657740
| 58> *
| 59>
| 60>                          ****END OF INPUT****
 Total Charge           Charge          ....    1
 Multiplicity           Mult            ....    1
 Number of Electrons    NEL             ....  164
Dispersion correction           -0.031057670
FINAL SINGLE POINT ENERGY     -1288.399543225198
Dispersion correction            ... done
Dispersion correction           -0.031083740
FINAL SINGLE POINT ENERGY     -1288.398289919145
Dispersion correction            ... done
Dispersion correction           -0.031021606
FINAL SINGLE POINT ENERGY     -1288.399636857593
Dispersion correction            ... done
FINAL SINGLE POINT ENERGY     -1288.398198777595
FINAL SINGLE POINT ENERGY     -1288.399716262618
FINAL SINGLE POINT ENERGY     -1288.399723967336
FINAL SINGLE POINT ENERGY     -1288.399754288691
FINAL SINGLE POINT ENERGY     -1288.399764339532
FINAL SINGLE POINT ENERGY     -1288.399772187240
Dispersion correction            ... done
Dispersion correction           -0.030935203
FINAL SINGLE POINT ENERGY     -1288.399784472858
Dispersion correction            ... done
Dispersion correction           -0.030933438
FINAL SINGLE POINT ENERGY     -1288.399786152163
Dispersion correction            ... done
                    ***********************HURRAY********************

CARTESIAN COORDINATES (ANGSTROEM)
---------------------------------
  Ir     0.603773   -0.713215    0.441056
  C      0.055280   -2.802022    0.347951
  C      0.110149   -2.346097    1.713590
  C      2.211901   -2.119211    0.794363
  C      1.330429   -2.641713   -0.225069
  C      1.467720   -1.972235    1.980034
  N     -1.046868    0.162564   -0.524266
  C     -2.315182    0.474662    0.152588
  C     -3.117473    1.568110   -0.534595
  H     -3.943777    1.858316    0.112924
  H     -3.561792    1.242562   -1.476518
  H     -2.519008    2.461220   -0.716588
  C     -3.130260   -0.802103    0.320456
  H     -2.020595    0.831850    1.140568
  H     -4.040874   -0.583667    0.876235
  H     -3.420789   -1.216766   -0.645686
  H     -2.586387   -1.564443    0.876362
  C     -0.860812    0.378981   -1.769335
  C      0.485297    0.162415   -2.246420
  H     -1.648647    0.741112   -2.423293
  C      1.576738    0.417848   -1.420574
  C      2.786718    0.023900   -2.063687
  S      0.926570   -0.511639   -3.745452
  C      2.587406   -0.487500   -3.307279
  H      1.525504    1.327755   -0.659337
  H      3.768166    0.167327   -1.635587
  H      3.329752   -0.831732   -4.011414
  H     -0.823040   -3.172389   -0.160989
  H     -0.691988   -2.376768    2.435973
  H      1.835624   -1.567753    2.912092
  O      1.338784    2.460101    0.238546
  O      0.533908    0.929167    1.645504
  C      0.921146    2.122102    1.344872
  C      0.861640    3.105780    2.479801
  H      0.828830    4.124996    2.104698
  H      1.762650    3.002123    3.087588
  H      0.010171    2.919664    3.131004
  H      3.261051   -1.895295    0.672364
  H      1.607654   -2.878812   -1.241739

 Multiplicity           Mult            ....    1
 Number of Electrons    NEL             ....  164
 Basis Dimension        Dim             ....  358

ORBITAL ENERGIES
----------------

  NO   OCC          E(Eh)            E(eV)
   0   2.0000     -89.765594     -2442.6460
   1   2.0000     -19.621662      -533.9326
   2   2.0000     -19.587197      -532.9947
   3   2.0000     -14.841369      -403.8542
   4   2.0000     -10.678709      -290.5824
   5   2.0000     -10.662347      -290.1372
   6   2.0000     -10.635967      -289.4194
   7   2.0000     -10.635087      -289.3954
   8   2.0000     -10.632804      -289.3333
   9   2.0000     -10.630481      -289.2701
  10   2.0000     -10.629484      -289.2430
  11   2.0000     -10.628970      -289.2290
  12   2.0000     -10.615838      -288.8716
  13   2.0000     -10.611792      -288.7615
  14   2.0000     -10.587416      -288.0982
  15   2.0000     -10.585050      -288.0339
  16   2.0000     -10.556971      -287.2698
  17   2.0000     -10.551995      -287.1344
  18   2.0000     -10.531892      -286.5873
  19   2.0000      -8.404946      -228.7102
  20   2.0000      -6.294954      -171.2944
  21   2.0000      -6.291306      -171.1951
  22   2.0000      -6.289777      -171.1535
  23   2.0000      -4.028439      -109.6194
  24   2.0000      -2.347238       -63.8716
  25   2.0000      -2.313379       -62.9503
  26   2.0000      -2.312054       -62.9142
  27   2.0000      -1.303356       -35.4661
  28   2.0000      -1.214146       -33.0386
  29   2.0000      -1.206330       -32.8259
  30   2.0000      -1.171739       -31.8846
  31   2.0000      -1.129420       -30.7331
  32   2.0000      -1.027808       -27.9681
  33   2.0000      -0.986186       -26.8355
  34   2.0000      -0.976936       -26.5838
  35   2.0000      -0.968468       -26.3534
  36   2.0000      -0.961795       -26.1718
  37   2.0000      -0.925445       -25.1826
  38   2.0000      -0.903305       -24.5802
  39   2.0000      -0.875169       -23.8146
  40   2.0000      -0.799373       -21.7520
  41   2.0000      -0.787749       -21.4357
  42   2.0000      -0.786594       -21.4043
  43   2.0000      -0.782754       -21.2998
  44   2.0000      -0.771693       -20.9988
  45   2.0000      -0.755083       -20.5468
  46   2.0000      -0.743898       -20.2425
  47   2.0000      -0.723621       -19.6907
  48   2.0000      -0.693543       -18.8723
  49   2.0000      -0.673334       -18.3224
  50   2.0000      -0.665615       -18.1123
  51   2.0000      -0.650858       -17.7108
  52   2.0000      -0.646841       -17.6014
  53   2.0000      -0.639486       -17.4013
  54   2.0000      -0.635578       -17.2950
  55   2.0000      -0.628199       -17.0942
  56   2.0000      -0.623318       -16.9613
  57   2.0000      -0.612983       -16.6801
  58   2.0000      -0.607446       -16.5294
  59   2.0000      -0.606740       -16.5102
  60   2.0000      -0.599217       -16.3055
  61   2.0000      -0.590353       -16.0643
  62   2.0000      -0.580127       -15.7861
  63   2.0000      -0.572962       -15.5911
  64   2.0000      -0.564422       -15.3587
  65   2.0000      -0.554655       -15.0929
  66   2.0000      -0.552372       -15.0308
  67   2.0000      -0.548477       -14.9248
  68   2.0000      -0.539516       -14.6810
  69   2.0000      -0.536198       -14.5907
  70   2.0000      -0.528007       -14.3678
  71   2.0000      -0.520434       -14.1617
  72   2.0000      -0.515933       -14.0393
  73   2.0000      -0.504046       -13.7158
  74   2.0000      -0.487724       -13.2716
  75   2.0000      -0.481462       -13.1012
  76   2.0000      -0.469444       -12.7742
  77   2.0000      -0.447364       -12.1734
  78   2.0000      -0.441487       -12.0135
  79   2.0000      -0.424505       -11.5514
  80   2.0000      -0.416927       -11.3452
  81   2.0000      -0.402865       -10.9625
  82   0.0000      -0.203157        -5.5282
  83   0.0000      -0.159777        -4.3478
  84   0.0000      -0.141780        -3.8580
  85   0.0000      -0.099408        -2.7050
  86   0.0000      -0.077104        -2.0981

MULLIKEN ATOMIC CHARGES
-----------------------
   0 Ir:    0.611385
   1 C :   -0.210462
   2 C :   -0.286621
   3 C :   -0.237607
   4 C :   -0.246747
   5 C :   -0.164496
   6 N :   -0.424270
   7 C :   -0.121447
   8 C :   -0.691880
   9 H :    0.272338
  10 H :    0.225011
  11 H :    0.261053
  12 C :   -0.637781
  13 H :    0.282861
  14 H :    0.264323
  15 H :    0.230729
  16 H :    0.232756
  17 C :    0.071108
  18 C :   -0.181025
  19 H :    0.292090
  20 C :   -0.469691
  21 C :   -0.122279
  22 S :    0.309424
  23 C :   -0.432877
  24 H :    0.497986
  25 H :    0.268115
  26 H :    0.298477
  27 H :    0.290799
  28 H :    0.291653
  29 H :    0.305952
  30 O :   -0.477169
  31 O :   -0.540505
  32 C :    0.613082
  33 C :   -0.744936
  34 H :    0.268645
  35 H :    0.265115
  36 H :    0.251788
  37 H :    0.291707
  38 H :    0.293396
Sum of atomic charges:    1.0000000

LOEWDIN ATOMIC CHARGES
----------------------
   0 Ir:   -0.229482
   1 C :   -0.039880
   2 C :   -0.067022
   3 C :   -0.055951
   4 C :   -0.057629
   5 C :   -0.022675
   6 N :   -0.001874
   7 C :   -0.069241
   8 C :   -0.364283
   9 H :    0.157482
  10 H :    0.133403
  11 H :    0.147059
  12 C :   -0.343396
  13 H :    0.157177
  14 H :    0.153068
  15 H :    0.137151
  16 H :    0.134075
  17 C :    0.034262
  18 C :   -0.177317
  19 H :    0.163237
  20 C :   -0.194249
  21 C :   -0.132011
  22 S :    0.476017
  23 C :   -0.263617
  24 H :    0.291133
  25 H :    0.163323
  26 H :    0.168566
  27 H :    0.184792
  28 H :    0.185377
  29 H :    0.193262
  30 O :   -0.275660
  31 O :   -0.208897
  32 C :    0.151001
  33 C :   -0.376516
  34 H :    0.159102
  35 H :    0.166305
  36 H :    0.152589
  37 H :    0.186131
  38 H :    0.185186

  Mayer bond orders larger than 0.100000
B(  0-Ir,  1-C ) :   0.4177 B(  0-Ir,  2-C ) :   0.5170 B(  0-Ir,  3-C ) :   0.4619
B(  0-Ir,  4-C ) :   0.4484 B(  0-Ir,  5-C ) :   0.4007 B(  0-Ir,  6-N ) :   0.4612
B(  0-Ir, 20-C ) :   0.2771 B(  0-Ir, 31-O ) :   0.5821 B(  1-C ,  2-C ) :   1.1212
B(  1-C ,  4-C ) :   1.2452 B(  1-C , 27-H ) :   0.9036 B(  2-C ,  5-C ) :   1.1402
B(  2-C , 28-H ) :   0.9079 B(  3-C ,  4-C ) :   1.1067 B(  3-C ,  5-C ) :   1.2297
B(  3-C , 37-H ) :   0.9054 B(  4-C , 38-H ) :   0.8998 B(  5-C , 29-H ) :   0.8980
B(  6-N ,  7-C ) :   0.8917 B(  6-N , 17-C ) :   1.6904 B(  7-C ,  8-C ) :   0.9917
B(  7-C , 12-C ) :   0.9686 B(  7-C , 13-H ) :   0.8714 B(  8-C ,  9-H ) :   0.9036
B(  8-C , 10-H ) :   0.9127 B(  8-C , 11-H ) :   0.9081 B( 12-C , 14-H ) :   0.9064
B( 12-C , 15-H ) :   0.9155 B( 12-C , 16-H ) :   0.9115 B( 17-C , 18-C ) :   1.0565
B( 17-C , 19-H ) :   0.8742 B( 18-C , 20-C ) :   1.2811 B( 18-C , 22-S ) :   1.2393
B( 20-C , 21-C ) :   1.2566 B( 20-C , 24-H ) :   0.4774 B( 21-C , 23-C ) :   1.5522
B( 21-C , 25-H ) :   0.9036 B( 22-S , 23-C ) :   1.2004 B( 23-C , 26-H ) :   0.8917
B( 24-H , 30-O ) :   0.2411 B( 30-O , 32-C ) :   1.7013 B( 31-O , 32-C ) :   1.2725
B( 32-C , 33-C ) :   0.9455 B( 33-C , 34-H ) :   0.9055 B( 33-C , 35-H ) :   0.8995
B( 33-C , 36-H ) :   0.9099

Dispersion correction           -0.030931557
FINAL SINGLE POINT ENERGY     -1288.399787129325

DIPOLE MOMENT
-------------
                                X             Y             Z
Electronic contribution:     36.66160     -67.25698      71.70395
Nuclear contribution   :    -37.29054      66.03171     -72.06982
                        -----------------------------------------
Total Dipole Moment    :     -0.62893      -1.22527      -0.36587
                        -----------------------------------------
Magnitude (a.u.)       :      1.42503
Magnitude (Debye)      :      3.62213

Rotational constants in cm-1:     0.010718     0.009131     0.008264
Rotational constants in MHz :   321.330142   273.726631   247.743026

                             ****ORCA TERMINATED NORMALLY****
TOTAL RUN TIME: 0 days 1 hours 40 minutes 59 seconds 995 msec
