                         Program Version 5.0.3 -  RELEASE  -
|  1> ! Opt PBEh-3c
|  2> %geom Constraints
|  3> { B 0 20 2.5571428571428574 C }
|  4> { B 24 30 1.342857142857143 C }
|  5>     end
|  6> end
|  7> %output
|  8> xyzfile=True
|  9> end
| 10> %scf
| 11> maxiter 250
| 12> end
| 13> %output
| 14> Print[P_Hirshfeld] = 1
| 15> end
| 16> % maxcore
| 17> 4000
| 18> *xyz 1 1
| 19> Ir   0.56321364  -0.74206417   0.50977823
| 20> C    0.00593504  -2.81675074   0.36934733
| 21> C    0.08261438  -2.37993238   1.74272589
| 22> C    2.17267536  -2.15857170   0.80502808
| 23> C    1.27349764  -2.64982899  -0.21544328
| 24> C    1.45140834  -2.03184081   2.00405815
| 25> N   -1.03967328   0.15654190  -0.50453176
| 26> C   -2.32126261   0.48525355   0.14146851
| 27> C   -3.12864987   1.53499904  -0.60530948
| 28> H   -3.96554175   1.84421878   0.01933899
| 29> H   -3.55817940   1.16012035  -1.53569364
| 30> H   -2.54058879   2.42708104  -0.82316887
| 31> C   -3.12734492  -0.78864668   0.36299319
| 32> H   -2.04363805   0.89469254   1.11442166
| 33> H   -4.05102493  -0.54973248   0.88791905
| 34> H   -3.39526727  -1.25788100  -0.58462586
| 35> H   -2.59018328  -1.51460182   0.97178307
| 36> C   -0.82539165   0.36012390  -1.74768849
| 37> C    0.52562163   0.16093654  -2.22282748
| 38> H   -1.60919547   0.70642334  -2.41579107
| 39> C    1.63517351   0.54283022  -1.48018369
| 40> C    2.83174823   0.15624329  -2.14752742
| 41> S    0.93596538  -0.58755391  -3.70696219
| 42> C    2.60755691  -0.45056321  -3.34471739
| 43> H    1.54336483   1.41895534  -0.63903014
| 44> H    3.82318158   0.37113804  -1.77575529
| 45> H    3.33889413  -0.80914929  -4.05337175
| 46> H   -0.88276586  -3.16948428  -0.13399534
| 47> H   -0.71076619  -2.41864764   2.47484240
| 48> H    1.83612872  -1.65376295   2.94031147
| 49> O    1.34277744   2.41663926   0.25887198
| 50> O    0.53923507   0.90826497   1.69383099
| 51> C    0.93145696   2.09349364   1.37463774
| 52> C    0.89050884   3.09416479   2.49357776
| 53> H    0.84486836   4.10697944   2.10269773
| 54> H    1.80538970   3.00539778   3.08286265
| 55> H    0.05424266   2.91399730   3.16558266
| 56> H    3.21784844  -1.92533235   0.66469568
| 57> H    1.53553652  -2.85496065  -1.24340994
| 58> *
| 59>
| 60>                          ****END OF INPUT****
 Total Charge           Charge          ....    1
 Multiplicity           Mult            ....    1
 Number of Electrons    NEL             ....  164
Dispersion correction           -0.030853321
FINAL SINGLE POINT ENERGY     -1288.392609458497
Dispersion correction            ... done
Dispersion correction           -0.030801774
FINAL SINGLE POINT ENERGY     -1288.392769109057
Dispersion correction            ... done
Dispersion correction           -0.030773623
FINAL SINGLE POINT ENERGY     -1288.392825497154
Dispersion correction            ... done
FINAL SINGLE POINT ENERGY     -1288.392845119146
FINAL SINGLE POINT ENERGY     -1288.392862016649
FINAL SINGLE POINT ENERGY     -1288.392870205427
FINAL SINGLE POINT ENERGY     -1288.392878985524
FINAL SINGLE POINT ENERGY     -1288.392887320908
FINAL SINGLE POINT ENERGY     -1288.392895201562
FINAL SINGLE POINT ENERGY     -1288.392902217078
Dispersion correction            ... done
Dispersion correction           -0.030678467
FINAL SINGLE POINT ENERGY     -1288.392906906685
Dispersion correction            ... done
Dispersion correction           -0.030671395
FINAL SINGLE POINT ENERGY     -1288.392909289259
Dispersion correction            ... done
                    ***********************HURRAY********************

CARTESIAN COORDINATES (ANGSTROEM)
---------------------------------
  Ir     0.570584   -0.740125    0.515634
  C      0.017882   -2.817933    0.383307
  C      0.061010   -2.371440    1.754186
  C      2.173885   -2.153217    0.863803
  C      1.299126   -2.654324   -0.172779
  C      1.421770   -2.017090    2.043598
  N     -1.038043    0.142742   -0.501989
  C     -2.322450    0.452430    0.149208
  C     -3.112229    1.546375   -0.552361
  H     -3.947360    1.839900    0.082227
  H     -3.543435    1.220059   -1.499982
  H     -2.509137    2.437519   -0.728309
  C     -3.142384   -0.823166    0.300708
  H     -2.050874    0.810971    1.143547
  H     -4.067197   -0.603253    0.832031
  H     -3.408181   -1.240930   -0.671265
  H     -2.614285   -1.584414    0.873166
  C     -0.837280    0.352622   -1.747493
  C      0.507422    0.170048   -2.239047
  H     -1.632805    0.693029   -2.404698
  C      1.617818    0.487256   -1.468255
  C      2.812716    0.126351   -2.150950
  S      0.915883   -0.489045   -3.763748
  C      2.586257   -0.399396   -3.386345
  H      1.547184    1.379193   -0.615966
  H      3.805140    0.303221   -1.762245
  H      3.316471   -0.721829   -4.113278
  H     -0.857191   -3.177451   -0.138747
  H     -0.749416   -2.406343    2.467439
  H      1.782975   -1.630132    2.985626
  O      1.392084    2.400450    0.242081
  O      0.538117    0.927013    1.683207
  C      0.955276    2.098668    1.356849
  C      0.916108    3.118698    2.457532
  H      0.857262    4.124194    2.049596
  H      1.839475    3.049735    3.036182
  H      0.089152    2.942169    3.141494
  H      3.223054   -1.924615    0.749123
  H      1.584987   -2.868753   -1.192346

 Multiplicity           Mult            ....    1
 Number of Electrons    NEL             ....  164
 Basis Dimension        Dim             ....  358

ORBITAL ENERGIES
----------------

  NO   OCC          E(Eh)            E(eV)
   0   2.0000     -89.755530     -2442.3721
   1   2.0000     -19.628775      -534.1261
   2   2.0000     -19.596094      -533.2368
   3   2.0000     -14.837889      -403.7595
   4   2.0000     -10.687510      -290.8219
   5   2.0000     -10.659296      -290.0542
   6   2.0000     -10.637765      -289.4683
   7   2.0000     -10.635389      -289.4037
   8   2.0000     -10.634792      -289.3874
   9   2.0000     -10.632691      -289.3302
  10   2.0000     -10.632234      -289.3178
  11   2.0000     -10.623890      -289.0907
  12   2.0000     -10.615606      -288.8653
  13   2.0000     -10.605385      -288.5872
  14   2.0000     -10.578082      -287.8442
  15   2.0000     -10.575998      -287.7875
  16   2.0000     -10.556802      -287.2652
  17   2.0000     -10.551517      -287.1214
  18   2.0000     -10.536320      -286.7078
  19   2.0000      -8.394921      -228.4374
  20   2.0000      -6.284975      -171.0229
  21   2.0000      -6.281375      -170.9249
  22   2.0000      -6.279657      -170.8782
  23   2.0000      -4.030894      -109.6862
  24   2.0000      -2.350352       -63.9563
  25   2.0000      -2.315916       -63.0193
  26   2.0000      -2.313923       -62.9650
  27   2.0000      -1.312884       -35.7254
  28   2.0000      -1.216750       -33.1095
  29   2.0000      -1.209217       -32.9045
  30   2.0000      -1.174823       -31.9686
  31   2.0000      -1.120040       -30.4778
  32   2.0000      -1.024304       -27.8727
  33   2.0000      -0.989584       -26.9279
  34   2.0000      -0.979711       -26.6593
  35   2.0000      -0.960579       -26.1387
  36   2.0000      -0.953946       -25.9582
  37   2.0000      -0.931463       -25.3464
  38   2.0000      -0.902660       -24.5626
  39   2.0000      -0.870565       -23.6893
  40   2.0000      -0.795556       -21.6482
  41   2.0000      -0.790418       -21.5084
  42   2.0000      -0.788832       -21.4652
  43   2.0000      -0.778203       -21.1760
  44   2.0000      -0.772623       -21.0241
  45   2.0000      -0.760486       -20.6939
  46   2.0000      -0.742567       -20.2063
  47   2.0000      -0.722469       -19.6594
  48   2.0000      -0.693095       -18.8601
  49   2.0000      -0.675023       -18.3683
  50   2.0000      -0.663707       -18.0604
  51   2.0000      -0.652775       -17.7629
  52   2.0000      -0.649637       -17.6775
  53   2.0000      -0.641198       -17.4479
  54   2.0000      -0.639561       -17.4033
  55   2.0000      -0.633479       -17.2378
  56   2.0000      -0.623512       -16.9666
  57   2.0000      -0.610746       -16.6193
  58   2.0000      -0.610065       -16.6007
  59   2.0000      -0.607431       -16.5290
  60   2.0000      -0.594985       -16.1904
  61   2.0000      -0.586064       -15.9476
  62   2.0000      -0.573901       -15.6166
  63   2.0000      -0.567150       -15.4329
  64   2.0000      -0.561640       -15.2830
  65   2.0000      -0.556543       -15.1443
  66   2.0000      -0.552581       -15.0365
  67   2.0000      -0.548481       -14.9249
  68   2.0000      -0.539800       -14.6887
  69   2.0000      -0.533709       -14.5230
  70   2.0000      -0.527399       -14.3512
  71   2.0000      -0.520737       -14.1700
  72   2.0000      -0.516062       -14.0428
  73   2.0000      -0.508162       -13.8278
  74   2.0000      -0.492739       -13.4081
  75   2.0000      -0.480392       -13.0721
  76   2.0000      -0.462389       -12.5822
  77   2.0000      -0.451864       -12.2959
  78   2.0000      -0.442711       -12.0468
  79   2.0000      -0.419953       -11.4275
  80   2.0000      -0.416854       -11.3432
  81   2.0000      -0.402024       -10.9396
  82   0.0000      -0.200236        -5.4487
  83   0.0000      -0.165099        -4.4926
  84   0.0000      -0.141350        -3.8463
  85   0.0000      -0.094433        -2.5696
  86   0.0000      -0.075249        -2.0476

MULLIKEN ATOMIC CHARGES
-----------------------
   0 Ir:    0.620918
   1 C :   -0.209598
   2 C :   -0.295612
   3 C :   -0.231917
   4 C :   -0.242650
   5 C :   -0.167859
   6 N :   -0.435071
   7 C :   -0.120384
   8 C :   -0.691396
   9 H :    0.271480
  10 H :    0.226120
  11 H :    0.259974
  12 C :   -0.637540
  13 H :    0.279477
  14 H :    0.264124
  15 H :    0.231176
  16 H :    0.230808
  17 C :    0.068284
  18 C :   -0.209812
  19 H :    0.289066
  20 C :   -0.404974
  21 C :   -0.151587
  22 S :    0.295651
  23 C :   -0.425558
  24 H :    0.501986
  25 H :    0.262700
  26 H :    0.294924
  27 H :    0.292926
  28 H :    0.293888
  29 H :    0.306440
  30 O :   -0.492628
  31 O :   -0.537264
  32 C :    0.621989
  33 C :   -0.746166
  34 H :    0.270784
  35 H :    0.268321
  36 H :    0.255073
  37 H :    0.296377
  38 H :    0.297530
Sum of atomic charges:    1.0000000

LOEWDIN ATOMIC CHARGES
----------------------
   0 Ir:   -0.209428
   1 C :   -0.040663
   2 C :   -0.058123
   3 C :   -0.048808
   4 C :   -0.051170
   5 C :   -0.026164
   6 N :   -0.014137
   7 C :   -0.068565
   8 C :   -0.364220
   9 H :    0.156923
  10 H :    0.133750
  11 H :    0.146553
  12 C :   -0.343792
  13 H :    0.155265
  14 H :    0.152828
  15 H :    0.137368
  16 H :    0.133147
  17 C :    0.036896
  18 C :   -0.199011
  19 H :    0.161442
  20 C :   -0.196595
  21 C :   -0.148272
  22 S :    0.456048
  23 C :   -0.261284
  24 H :    0.299855
  25 H :    0.159959
  26 H :    0.166739
  27 H :    0.186017
  28 H :    0.186392
  29 H :    0.193568
  30 O :   -0.276706
  31 O :   -0.202093
  32 C :    0.161871
  33 C :   -0.375028
  34 H :    0.160905
  35 H :    0.168513
  36 H :    0.153927
  37 H :    0.188354
  38 H :    0.187739

  Mayer bond orders larger than 0.100000
B(  0-Ir,  1-C ) :   0.4236 B(  0-Ir,  2-C ) :   0.5532 B(  0-Ir,  3-C ) :   0.4609
B(  0-Ir,  4-C ) :   0.4572 B(  0-Ir,  5-C ) :   0.4043 B(  0-Ir,  6-N ) :   0.4704
B(  0-Ir, 20-C ) :   0.2312 B(  0-Ir, 31-O ) :   0.5736 B(  1-C ,  2-C ) :   1.1129
B(  1-C ,  4-C ) :   1.2426 B(  1-C , 27-H ) :   0.9027 B(  2-C ,  5-C ) :   1.1288
B(  2-C , 28-H ) :   0.9065 B(  3-C ,  4-C ) :   1.1050 B(  3-C ,  5-C ) :   1.2359
B(  3-C , 37-H ) :   0.9031 B(  4-C , 38-H ) :   0.8987 B(  5-C , 29-H ) :   0.8979
B(  6-N ,  7-C ) :   0.8911 B(  6-N , 17-C ) :   1.6822 B(  7-C ,  8-C ) :   0.9923
B(  7-C , 12-C ) :   0.9691 B(  7-C , 13-H ) :   0.8744 B(  8-C ,  9-H ) :   0.9037
B(  8-C , 10-H ) :   0.9126 B(  8-C , 11-H ) :   0.9087 B( 12-C , 14-H ) :   0.9065
B( 12-C , 15-H ) :   0.9154 B( 12-C , 16-H ) :   0.9120 B( 17-C , 18-C ) :   1.0670
B( 17-C , 19-H ) :   0.8744 B( 18-C , 20-C ) :   1.3075 B( 18-C , 22-S ) :   1.2061
B( 20-C , 21-C ) :   1.2798 B( 20-C , 24-H ) :   0.4545 B( 21-C , 23-C ) :   1.5406
B( 21-C , 25-H ) :   0.9055 B( 22-S , 23-C ) :   1.2086 B( 23-C , 26-H ) :   0.8930
B( 24-H , 30-O ) :   0.2447 B( 30-O , 32-C ) :   1.6600 B( 31-O , 32-C ) :   1.2953
B( 32-C , 33-C ) :   0.9486 B( 33-C , 34-H ) :   0.9040 B( 33-C , 35-H ) :   0.8972
B( 33-C , 36-H ) :   0.9090

Dispersion correction           -0.030668280
FINAL SINGLE POINT ENERGY     -1288.392910447254

DIPOLE MOMENT
-------------
                                X             Y             Z
Electronic contribution:     33.35669     -69.77035      79.09635
Nuclear contribution   :    -33.98445      68.62378     -79.17525
                        -----------------------------------------
Total Dipole Moment    :     -0.62776      -1.14657      -0.07890
                        -----------------------------------------
Magnitude (a.u.)       :      1.30956
Magnitude (Debye)      :      3.32863

Rotational constants in cm-1:     0.010591     0.008911     0.008156
Rotational constants in MHz :   317.500068   267.149700   244.524950

                             ****ORCA TERMINATED NORMALLY****
TOTAL RUN TIME: 0 days 1 hours 31 minutes 29 seconds 606 msec
