                         Program Version 5.0.3 -  RELEASE  -
|  1> ! Opt PBEh-3c
|  2> %geom Constraints
|  3> { B 0 20 2.0 C }
|  4> { B 24 30 1.3857142857142857 C }
|  5>     end
|  6> end
|  7> %output
|  8> xyzfile=True
|  9> end
| 10> %scf
| 11> maxiter 250
| 12> end
| 13> %output
| 14> Print[P_Hirshfeld] = 1
| 15> end
| 16> % maxcore
| 17> 4000
| 18> *xyz 1 1
| 19> Ir   0.62048681  -0.73443435   0.39611871
| 20> C    0.17042637  -2.85527340   0.31943966
| 21> C   -0.08707185  -2.42097027   1.66927539
| 22> C    2.14847359  -2.05339680   1.20323802
| 23> C    1.54467388  -2.65688923   0.05079205
| 24> C    1.12981765  -1.94545115   2.19663885
| 25> N   -1.07667808   0.11348678  -0.50987197
| 26> C   -2.34225819   0.30340745   0.21320466
| 27> C   -3.13344811   1.52068902  -0.24349992
| 28> H   -3.96102590   1.68107978   0.44563967
| 29> H   -3.57285246   1.39473996  -1.23396584
| 30> H   -2.52544962   2.42566863  -0.24147094
| 31> C   -3.17250590  -0.97193210   0.11547804
| 32> H   -2.05352216   0.45726475   1.25408047
| 33> H   -4.07063913  -0.87837324   0.72464942
| 34> H   -3.48443496  -1.15936125  -0.91276188
| 35> H   -2.62502233  -1.84451933   0.46803437
| 36> C   -0.93267098   0.48369431  -1.72979256
| 37> C    0.38310363   0.30283321  -2.26108500
| 38> H   -1.74036887   0.92954495  -2.30064729
| 39> C    1.39720508   0.00997219  -1.34049666
| 40> C    2.62311226  -0.21709150  -2.04933672
| 41> S    0.90283790   0.32549396  -3.87265040
| 42> C    2.49973334  -0.07511325  -3.39694341
| 43> H    1.61393981   1.14354812  -0.70058840
| 44> H    3.56945865  -0.41641424  -1.56728874
| 45> H    3.27387087  -0.16371582  -4.14398286
| 46> H   -0.54377979  -3.30539293  -0.35438728
| 47> H   -1.02617774  -2.48126250   2.19749428
| 48> H    1.25708584  -1.50079513   3.17350670
| 49> O    1.72085564   2.32455416   0.04358479
| 50> O    0.60069937   1.03631437   1.47279903
| 51> C    1.14724079   2.13083789   1.13476263
| 52> C    1.11470427   3.24686987   2.13752298
| 53> H    1.00537658   4.20764751   1.64000794
| 54> H    2.06504244   3.26642986   2.67382655
| 55> H    0.31877590   3.10802168   2.86373451
| 56> H    3.19387789  -1.82269736   1.33759211
| 57> H    2.04647749  -2.90982465  -0.87191087
| 58> *
| 59>
| 60>                          ****END OF INPUT****
 Total Charge           Charge          ....    1
 Multiplicity           Mult            ....    1
 Number of Electrons    NEL             ....  164
Dispersion correction           -0.030892931
FINAL SINGLE POINT ENERGY     -1288.397546016105
Dispersion correction            ... done
Dispersion correction           -0.030848582
FINAL SINGLE POINT ENERGY     -1288.397550298027
Dispersion correction            ... done
Dispersion correction           -0.030872062
FINAL SINGLE POINT ENERGY     -1288.396481713056
Dispersion correction            ... done
FINAL SINGLE POINT ENERGY     -1288.397873746613
FINAL SINGLE POINT ENERGY     -1288.397918924164
FINAL SINGLE POINT ENERGY     -1288.397962928913
FINAL SINGLE POINT ENERGY     -1288.398041180826
FINAL SINGLE POINT ENERGY     -1288.398055211386
FINAL SINGLE POINT ENERGY     -1288.398063007015
FINAL SINGLE POINT ENERGY     -1288.398067720267
FINAL SINGLE POINT ENERGY     -1288.398069499961
FINAL SINGLE POINT ENERGY     -1288.398071421728
FINAL SINGLE POINT ENERGY     -1288.398073583492
FINAL SINGLE POINT ENERGY     -1288.398077826539
Dispersion correction            ... done
Dispersion correction           -0.030801775
FINAL SINGLE POINT ENERGY     -1288.398081636377
Dispersion correction            ... done
Dispersion correction           -0.030802754
FINAL SINGLE POINT ENERGY     -1288.398083968809
Dispersion correction            ... done
                    ***********************HURRAY********************

CARTESIAN COORDINATES (ANGSTROEM)
---------------------------------
  Ir     0.620946   -0.741089    0.383411
  C      0.190597   -2.863721    0.311508
  C     -0.106483   -2.444656    1.659479
  C      2.133013   -2.041555    1.251687
  C      1.572981   -2.655208    0.086042
  C      1.083031   -1.954491    2.220572
  N     -1.084326    0.104801   -0.506289
  C     -2.348242    0.280396    0.222711
  C     -3.132209    1.515232   -0.197492
  H     -3.960010    1.659125    0.495016
  H     -3.570528    1.423027   -1.192152
  H     -2.518653    2.415912   -0.166695
  C     -3.184617   -0.987566    0.088606
  H     -2.058330    0.402748    1.267464
  H     -4.078793   -0.911005    0.705957
  H     -3.503325   -1.139727   -0.943373
  H     -2.637840   -1.873493    0.407712
  C     -0.944292    0.491915   -1.721861
  C      0.370109    0.312250   -2.254257
  H     -1.752189    0.947603   -2.284379
  C      1.367930   -0.032826   -1.331343
  C      2.602189   -0.237786   -2.036204
  S      0.912938    0.408698   -3.855726
  C      2.498310   -0.029003   -3.377149
  H      1.611731    1.164282   -0.751556
  H      3.540251   -0.471186   -1.553158
  H      3.282583   -0.089443   -4.116415
  H     -0.496792   -3.328001   -0.380279
  H     -1.061185   -2.513439    2.157829
  H      1.177029   -1.511951    3.202026
  O      1.720228    2.334232   -0.016948
  O      0.629559    1.047962    1.438486
  C      1.165766    2.139570    1.088042
  C      1.155062    3.260940    2.084691
  H      1.051920    4.221221    1.585140
  H      2.109864    3.270926    2.613441
  H      0.364032    3.132549    2.818131
  H      3.172043   -1.803407    1.418645
  H      2.105072   -2.904646   -0.820582

 Multiplicity           Mult            ....    1
 Number of Electrons    NEL             ....  164
 Basis Dimension        Dim             ....  358

ORBITAL ENERGIES
----------------

  NO   OCC          E(Eh)            E(eV)
   0   2.0000     -89.766285     -2442.6648
   1   2.0000     -19.637392      -534.3606
   2   2.0000     -19.630598      -534.1757
   3   2.0000     -14.833449      -403.6387
   4   2.0000     -10.700680      -291.1803
   5   2.0000     -10.653837      -289.9056
   6   2.0000     -10.626944      -289.1739
   7   2.0000     -10.620247      -288.9916
   8   2.0000     -10.619812      -288.9798
   9   2.0000     -10.617261      -288.9104
  10   2.0000     -10.612591      -288.7833
  11   2.0000     -10.612207      -288.7728
  12   2.0000     -10.610231      -288.7191
  13   2.0000     -10.606832      -288.6266
  14   2.0000     -10.592654      -288.2408
  15   2.0000     -10.592045      -288.2242
  16   2.0000     -10.552577      -287.1502
  17   2.0000     -10.550487      -287.0933
  18   2.0000     -10.546883      -286.9953
  19   2.0000      -8.405611      -228.7283
  20   2.0000      -6.295474      -171.3085
  21   2.0000      -6.291957      -171.2128
  22   2.0000      -6.290583      -171.1755
  23   2.0000      -4.016735      -109.3009
  24   2.0000      -2.333181       -63.4891
  25   2.0000      -2.304475       -62.7079
  26   2.0000      -2.300096       -62.5888
  27   2.0000      -1.328575       -36.1524
  28   2.0000      -1.230527       -33.4843
  29   2.0000      -1.207292       -32.8521
  30   2.0000      -1.154905       -31.4266
  31   2.0000      -1.129911       -30.7464
  32   2.0000      -1.025253       -27.8986
  33   2.0000      -0.972644       -26.4670
  34   2.0000      -0.968488       -26.3539
  35   2.0000      -0.962259       -26.1844
  36   2.0000      -0.957802       -26.0631
  37   2.0000      -0.941928       -25.6312
  38   2.0000      -0.899812       -24.4851
  39   2.0000      -0.872883       -23.7524
  40   2.0000      -0.799185       -21.7469
  41   2.0000      -0.783524       -21.3208
  42   2.0000      -0.772559       -21.0224
  43   2.0000      -0.771498       -20.9935
  44   2.0000      -0.761857       -20.7312
  45   2.0000      -0.756450       -20.5841
  46   2.0000      -0.743054       -20.2195
  47   2.0000      -0.720842       -19.6151
  48   2.0000      -0.699895       -19.0451
  49   2.0000      -0.685050       -18.6412
  50   2.0000      -0.664983       -18.0951
  51   2.0000      -0.662229       -18.0202
  52   2.0000      -0.649722       -17.6798
  53   2.0000      -0.638307       -17.3692
  54   2.0000      -0.628777       -17.1099
  55   2.0000      -0.622763       -16.9462
  56   2.0000      -0.620158       -16.8754
  57   2.0000      -0.612202       -16.6589
  58   2.0000      -0.601908       -16.3787
  59   2.0000      -0.594629       -16.1807
  60   2.0000      -0.591820       -16.1042
  61   2.0000      -0.590285       -16.0625
  62   2.0000      -0.579634       -15.7727
  63   2.0000      -0.570591       -15.5266
  64   2.0000      -0.566650       -15.4193
  65   2.0000      -0.562601       -15.3091
  66   2.0000      -0.556294       -15.1375
  67   2.0000      -0.545746       -14.8505
  68   2.0000      -0.542205       -14.7541
  69   2.0000      -0.534998       -14.5580
  70   2.0000      -0.532440       -14.4884
  71   2.0000      -0.518348       -14.1050
  72   2.0000      -0.512629       -13.9494
  73   2.0000      -0.502561       -13.6754
  74   2.0000      -0.498343       -13.5606
  75   2.0000      -0.491495       -13.3743
  76   2.0000      -0.474188       -12.9033
  77   2.0000      -0.453502       -12.3404
  78   2.0000      -0.441759       -12.0209
  79   2.0000      -0.419388       -11.4121
  80   2.0000      -0.412247       -11.2178
  81   2.0000      -0.390941       -10.6380
  82   0.0000      -0.205186        -5.5834
  83   0.0000      -0.143713        -3.9106
  84   0.0000      -0.119355        -3.2478
  85   0.0000      -0.087557        -2.3825
  86   0.0000      -0.076255        -2.0750

MULLIKEN ATOMIC CHARGES
-----------------------
   0 Ir:    0.618896
   1 C :   -0.266040
   2 C :   -0.243983
   3 C :   -0.285856
   4 C :   -0.213688
   5 C :   -0.148858
   6 N :   -0.432739
   7 C :   -0.127902
   8 C :   -0.677915
   9 H :    0.268603
  10 H :    0.224080
  11 H :    0.252656
  12 C :   -0.632276
  13 H :    0.277012
  14 H :    0.257602
  15 H :    0.232918
  16 H :    0.235232
  17 C :    0.071133
  18 C :   -0.117562
  19 H :    0.284956
  20 C :   -0.597581
  21 C :   -0.088518
  22 S :    0.348434
  23 C :   -0.423618
  24 H :    0.471897
  25 H :    0.269290
  26 H :    0.298904
  27 H :    0.282361
  28 H :    0.278189
  29 H :    0.293337
  30 O :   -0.478235
  31 O :   -0.500691
  32 C :    0.632416
  33 C :   -0.743412
  34 H :    0.273321
  35 H :    0.276410
  36 H :    0.262778
  37 H :    0.277943
  38 H :    0.290505
Sum of atomic charges:    1.0000000

LOEWDIN ATOMIC CHARGES
----------------------
   0 Ir:   -0.262757
   1 C :   -0.068660
   2 C :   -0.099198
   3 C :   -0.106033
   4 C :   -0.039410
   5 C :   -0.023681
   6 N :   -0.000625
   7 C :   -0.069564
   8 C :   -0.361464
   9 H :    0.155965
  10 H :    0.132683
  11 H :    0.142880
  12 C :   -0.343830
  13 H :    0.153536
  14 H :    0.150275
  15 H :    0.138165
  16 H :    0.134023
  17 C :    0.027099
  18 C :   -0.191505
  19 H :    0.160449
  20 C :   -0.215009
  21 C :   -0.127429
  22 S :    0.502885
  23 C :   -0.255600
  24 H :    0.372525
  25 H :    0.163402
  26 H :    0.170133
  27 H :    0.180624
  28 H :    0.176880
  29 H :    0.185088
  30 O :   -0.257391
  31 O :   -0.174955
  32 C :    0.165285
  33 C :   -0.371361
  34 H :    0.164240
  35 H :    0.172825
  36 H :    0.156999
  37 H :    0.179704
  38 H :    0.182809

  Mayer bond orders larger than 0.100000
B(  0-Ir,  1-C ) :   0.4686 B(  0-Ir,  2-C ) :   0.3491 B(  0-Ir,  3-C ) :   0.4770
B(  0-Ir,  4-C ) :   0.4107 B(  0-Ir,  5-C ) :   0.3319 B(  0-Ir,  6-N ) :   0.4644
B(  0-Ir, 20-C ) :   0.5903 B(  0-Ir, 31-O ) :   0.5068 B(  1-C ,  2-C ) :   1.1216
B(  1-C ,  4-C ) :   1.2122 B(  1-C , 27-H ) :   0.9108 B(  2-C ,  5-C ) :   1.2716
B(  2-C , 28-H ) :   0.9101 B(  3-C ,  4-C ) :   1.1567 B(  3-C ,  5-C ) :   1.1467
B(  3-C , 37-H ) :   0.9157 B(  4-C , 38-H ) :   0.8994 B(  5-C , 29-H ) :   0.9031
B(  6-N ,  7-C ) :   0.8964 B(  6-N , 17-C ) :   1.6413 B(  7-C ,  8-C ) :   0.9898
B(  7-C , 12-C ) :   0.9669 B(  7-C , 13-H ) :   0.8783 B(  8-C ,  9-H ) :   0.9050
B(  8-C , 10-H ) :   0.9133 B(  8-C , 11-H ) :   0.9128 B( 12-C , 14-H ) :   0.9079
B( 12-C , 15-H ) :   0.9151 B( 12-C , 16-H ) :   0.9117 B( 17-C , 18-C ) :   1.1216
B( 17-C , 19-H ) :   0.8768 B( 18-C , 20-C ) :   1.2033 B( 18-C , 22-S ) :   1.2419
B( 20-C , 21-C ) :   1.2433 B( 20-C , 24-H ) :   0.3125 B( 21-C , 23-C ) :   1.5400
B( 21-C , 25-H ) :   0.9012 B( 22-S , 23-C ) :   1.2186 B( 23-C , 26-H ) :   0.8915
B( 24-H , 30-O ) :   0.3712 B( 30-O , 32-C ) :   1.5445 B( 31-O , 32-C ) :   1.3993
B( 32-C , 33-C ) :   0.9437 B( 33-C , 34-H ) :   0.9001 B( 33-C , 35-H ) :   0.8925
B( 33-C , 36-H ) :   0.9074

Dispersion correction           -0.030804356
FINAL SINGLE POINT ENERGY     -1288.398084345107

DIPOLE MOMENT
-------------
                                X             Y             Z
Electronic contribution:     38.18803     -75.24304      67.39299
Nuclear contribution   :    -38.76950      74.95474     -67.67990
                        -----------------------------------------
Total Dipole Moment    :     -0.58147      -0.28829      -0.28691
                        -----------------------------------------
Magnitude (a.u.)       :      0.70960
Magnitude (Debye)      :      1.80366

Rotational constants in cm-1:     0.010575     0.008954     0.008266
Rotational constants in MHz :   317.033147   268.442694   247.811986

                             ****ORCA TERMINATED NORMALLY****
TOTAL RUN TIME: 0 days 2 hours 13 minutes 31 seconds 949 msec
