                         Program Version 5.0.3 -  RELEASE  -
|  1> ! Opt PBEh-3c
|  2> %geom Constraints
|  3> { B 0 20 2.428571428571429 C }
|  4> { B 24 30 1.3285714285714287 C }
|  5>     end
|  6> end
|  7> %output
|  8> xyzfile=True
|  9> end
| 10> %scf
| 11> maxiter 250
| 12> end
| 13> %output
| 14> Print[P_Hirshfeld] = 1
| 15> end
| 16> % maxcore
| 17> 4000
| 18> *xyz 1 1
| 19> Ir   0.58583151  -0.73741570   0.50484946
| 20> C    0.04481759  -2.82241248   0.38496923
| 21> C    0.02492151  -2.36206927   1.75055778
| 22> C    2.17632906  -2.14006399   0.94970743
| 23> C    1.35019810  -2.66159766  -0.11535014
| 24> C    1.36665994  -1.99104528   2.09139529
| 25> N   -1.03703879   0.13150245  -0.50395584
| 26> C   -2.31993664   0.41460939   0.16265555
| 27> C   -3.10090011   1.55203876  -0.47792439
| 28> H   -3.93418477   1.81737729   0.17133349
| 29> H   -3.53379333   1.28043562  -1.44170812
| 30> H   -2.48986697   2.44583941  -0.60568469
| 31> C   -3.14949704  -0.86173151   0.24005210
| 32> H   -2.04838067   0.71512816   1.17580596
| 33> H   -4.06962595  -0.66967476   0.79013668
| 34> H   -3.42386383  -1.21593458  -0.75450491
| 35> H   -2.62245472  -1.66164411   0.75788699
| 36> C   -0.85474972   0.36527985  -1.74913934
| 37> C    0.48059914   0.19510837  -2.26129985
| 38> H   -1.66129070   0.71487414  -2.38755694
| 39> C    1.58937336   0.39423241  -1.44969283
| 40> C    2.78227008   0.06260787  -2.14947245
| 41> S    0.88865817  -0.32626311  -3.83488479
| 42> C    2.55483828  -0.33087354  -3.43366728
| 43> H    1.56025349   1.31337113  -0.59945448
| 44> H    3.77447647   0.16740127  -1.73517104
| 45> H    3.28393470  -0.60391328  -4.18156908
| 46> H   -0.80282577  -3.19635876  -0.17103222
| 47> H   -0.81525767  -2.39349850   2.42841483
| 48> H    1.68220191  -1.58576214   3.04225846
| 49> O    1.46498257   2.37725842   0.21438370
| 50> O    0.54094815   0.94941048   1.65558504
| 51> C    0.98982777   2.10379855   1.32398431
| 52> C    0.94440970   3.14817534   2.40083505
| 53> H    0.90185191   4.14538574   1.97108590
| 54> H    1.85849712   3.08247841   2.99430338
| 55> H    0.10526002   2.99347053   3.07497296
| 56> H    3.23084477  -1.91787786   0.88506198
| 57> H    1.68105138  -2.89245704  -1.11742707
| 58> *
| 59>
| 60>                          ****END OF INPUT****
 Total Charge           Charge          ....    1
 Multiplicity           Mult            ....    1
 Number of Electrons    NEL             ....  164
Dispersion correction           -0.030676858
FINAL SINGLE POINT ENERGY     -1288.396575110557
Dispersion correction            ... done
Dispersion correction           -0.030635135
FINAL SINGLE POINT ENERGY     -1288.396718998654
Dispersion correction            ... done
Dispersion correction           -0.030602894
FINAL SINGLE POINT ENERGY     -1288.396793158940
Dispersion correction            ... done
FINAL SINGLE POINT ENERGY     -1288.396821098727
FINAL SINGLE POINT ENERGY     -1288.396834846688
FINAL SINGLE POINT ENERGY     -1288.396843917142
FINAL SINGLE POINT ENERGY     -1288.396848448309
FINAL SINGLE POINT ENERGY     -1288.396852341469
FINAL SINGLE POINT ENERGY     -1288.396856884542
FINAL SINGLE POINT ENERGY     -1288.396860671619
FINAL SINGLE POINT ENERGY     -1288.396863716491
FINAL SINGLE POINT ENERGY     -1288.396865518054
FINAL SINGLE POINT ENERGY     -1288.396866511779
Dispersion correction            ... done
Dispersion correction           -0.030500049
FINAL SINGLE POINT ENERGY     -1288.396867187485
Dispersion correction            ... done
Dispersion correction           -0.030498437
FINAL SINGLE POINT ENERGY     -1288.396867937644
Dispersion correction            ... done
                    ***********************HURRAY********************

CARTESIAN COORDINATES (ANGSTROEM)
---------------------------------
  Ir     0.594049   -0.740325    0.504994
  C      0.078156   -2.832399    0.372314
  C     -0.021688   -2.370233    1.733693
  C      2.170316   -2.124978    1.051249
  C      1.409626   -2.662248   -0.052381
  C      1.291688   -1.978638    2.143705
  N     -1.037396    0.120563   -0.497392
  C     -2.320318    0.379895    0.179113
  C     -3.091257    1.554422   -0.405770
  H     -3.925061    1.792535    0.253254
  H     -3.521887    1.335251   -1.383674
  H     -2.473033    2.448692   -0.486628
  C     -3.159150   -0.892761    0.186216
  H     -2.052026    0.628224    1.206964
  H     -4.075340   -0.728993    0.751943
  H     -3.440691   -1.184785   -0.826376
  H     -2.634138   -1.726712    0.649635
  C     -0.868129    0.375737   -1.741056
  C      0.458791    0.214877   -2.271539
  H     -1.682969    0.734310   -2.363731
  C      1.569889    0.325099   -1.447073
  C      2.755990    0.019851   -2.169445
  S      0.856364   -0.197186   -3.878889
  C      2.520461   -0.269127   -3.480541
  H      1.586807    1.270546   -0.589084
  H      3.750068    0.069667   -1.749495
  H      3.244057   -0.500883   -4.247431
  H     -0.731606   -3.220815   -0.228276
  H     -0.896822   -2.408641    2.365227
  H      1.548197   -1.562922    3.107894
  O      1.545747    2.344378    0.192133
  O      0.547207    0.968847    1.632943
  C      1.029848    2.103495    1.294688
  C      0.979897    3.176681    2.341788
  H      0.920018    4.160662    1.884002
  H      1.901788    3.141690    2.925567
  H      0.149151    3.029758    3.027439
  H      3.226151   -1.900936    1.048882
  H      1.796612   -2.893407   -1.034121

 Multiplicity           Mult            ....    1
 Number of Electrons    NEL             ....  164
 Basis Dimension        Dim             ....  358

ORBITAL ENERGIES
----------------

  NO   OCC          E(Eh)            E(eV)
   0   2.0000     -89.756758     -2442.4056
   1   2.0000     -19.632168      -534.2185
   2   2.0000     -19.607814      -533.5557
   3   2.0000     -14.834884      -403.6777
   4   2.0000     -10.692726      -290.9639
   5   2.0000     -10.656727      -289.9843
   6   2.0000     -10.633030      -289.3395
   7   2.0000     -10.632138      -289.3152
   8   2.0000     -10.629938      -289.2553
   9   2.0000     -10.628512      -289.2165
  10   2.0000     -10.624541      -289.1085
  11   2.0000     -10.621912      -289.0369
  12   2.0000     -10.613938      -288.8199
  13   2.0000     -10.605768      -288.5976
  14   2.0000     -10.580602      -287.9128
  15   2.0000     -10.580064      -287.8982
  16   2.0000     -10.555261      -287.2233
  17   2.0000     -10.550599      -287.0964
  18   2.0000     -10.540364      -286.8179
  19   2.0000      -8.396224      -228.4729
  20   2.0000      -6.286192      -171.0560
  21   2.0000      -6.282623      -170.9589
  22   2.0000      -6.281066      -170.9165
  23   2.0000      -4.027086      -109.5826
  24   2.0000      -2.345860       -63.8341
  25   2.0000      -2.312133       -62.9163
  26   2.0000      -2.309906       -62.8557
  27   2.0000      -1.319757       -35.9124
  28   2.0000      -1.222394       -33.2630
  29   2.0000      -1.206500       -32.8305
  30   2.0000      -1.170093       -31.8399
  31   2.0000      -1.121169       -30.5086
  32   2.0000      -1.022806       -27.8320
  33   2.0000      -0.984128       -26.7795
  34   2.0000      -0.975245       -26.5378
  35   2.0000      -0.961381       -26.1605
  36   2.0000      -0.954842       -25.9826
  37   2.0000      -0.935801       -25.4644
  38   2.0000      -0.900927       -24.5155
  39   2.0000      -0.869979       -23.6733
  40   2.0000      -0.795504       -21.6468
  41   2.0000      -0.785723       -21.3806
  42   2.0000      -0.784641       -21.3512
  43   2.0000      -0.777602       -21.1596
  44   2.0000      -0.769598       -20.9418
  45   2.0000      -0.762456       -20.7475
  46   2.0000      -0.741195       -20.1689
  47   2.0000      -0.722376       -19.6569
  48   2.0000      -0.691112       -18.8061
  49   2.0000      -0.678399       -18.4602
  50   2.0000      -0.662370       -18.0240
  51   2.0000      -0.655494       -17.8369
  52   2.0000      -0.648051       -17.6344
  53   2.0000      -0.639517       -17.4022
  54   2.0000      -0.637848       -17.3567
  55   2.0000      -0.633697       -17.2438
  56   2.0000      -0.622312       -16.9340
  57   2.0000      -0.608352       -16.5541
  58   2.0000      -0.605603       -16.4793
  59   2.0000      -0.604717       -16.4552
  60   2.0000      -0.595197       -16.1961
  61   2.0000      -0.587736       -15.9931
  62   2.0000      -0.575039       -15.6476
  63   2.0000      -0.566735       -15.4217
  64   2.0000      -0.561648       -15.2832
  65   2.0000      -0.560117       -15.2416
  66   2.0000      -0.553238       -15.0544
  67   2.0000      -0.547751       -14.9051
  68   2.0000      -0.540298       -14.7023
  69   2.0000      -0.533864       -14.5272
  70   2.0000      -0.527859       -14.3638
  71   2.0000      -0.518926       -14.1207
  72   2.0000      -0.514508       -14.0005
  73   2.0000      -0.504922       -13.7396
  74   2.0000      -0.494563       -13.4577
  75   2.0000      -0.480072       -13.0634
  76   2.0000      -0.466887       -12.7046
  77   2.0000      -0.448046       -12.1920
  78   2.0000      -0.445513       -12.1230
  79   2.0000      -0.419058       -11.4032
  80   2.0000      -0.417073       -11.3491
  81   2.0000      -0.400082       -10.8868
  82   0.0000      -0.199366        -5.4250
  83   0.0000      -0.157370        -4.2823
  84   0.0000      -0.141160        -3.8412
  85   0.0000      -0.088438        -2.4065
  86   0.0000      -0.072866        -1.9828

MULLIKEN ATOMIC CHARGES
-----------------------
   0 Ir:    0.612138
   1 C :   -0.220597
   2 C :   -0.287138
   3 C :   -0.245659
   4 C :   -0.234662
   5 C :   -0.164132
   6 N :   -0.437926
   7 C :   -0.126990
   8 C :   -0.683254
   9 H :    0.269225
  10 H :    0.224918
  11 H :    0.257544
  12 C :   -0.634538
  13 H :    0.279316
  14 H :    0.261503
  15 H :    0.231680
  16 H :    0.230194
  17 C :    0.070297
  18 C :   -0.174270
  19 H :    0.285637
  20 C :   -0.449921
  21 C :   -0.141979
  22 S :    0.315212
  23 C :   -0.425809
  24 H :    0.492710
  25 H :    0.262500
  26 H :    0.295617
  27 H :    0.289991
  28 H :    0.289478
  29 H :    0.304327
  30 O :   -0.492053
  31 O :   -0.526409
  32 C :    0.628792
  33 C :   -0.745269
  34 H :    0.272137
  35 H :    0.271552
  36 H :    0.257858
  37 H :    0.291339
  38 H :    0.296641
Sum of atomic charges:    1.0000000

LOEWDIN ATOMIC CHARGES
----------------------
   0 Ir:   -0.227925
   1 C :   -0.048391
   2 C :   -0.072638
   3 C :   -0.068903
   4 C :   -0.043762
   5 C :   -0.018001
   6 N :   -0.013498
   7 C :   -0.069272
   8 C :   -0.362624
   9 H :    0.156105
  10 H :    0.133010
  11 H :    0.145284
  12 C :   -0.343924
  13 H :    0.154685
  14 H :    0.151806
  15 H :    0.137493
  16 H :    0.132139
  17 C :    0.034605
  18 C :   -0.197042
  19 H :    0.159953
  20 C :   -0.209493
  21 C :   -0.141020
  22 S :    0.471799
  23 C :   -0.260122
  24 H :    0.322751
  25 H :    0.160036
  26 H :    0.167374
  27 H :    0.184538
  28 H :    0.183996
  29 H :    0.192200
  30 O :   -0.271138
  31 O :   -0.193504
  32 C :    0.165365
  33 C :   -0.373231
  34 H :    0.162485
  35 H :    0.170399
  36 H :    0.154993
  37 H :    0.186099
  38 H :    0.187371

  Mayer bond orders larger than 0.100000
B(  0-Ir,  1-C ) :   0.4254 B(  0-Ir,  2-C ) :   0.5165 B(  0-Ir,  3-C ) :   0.4609
B(  0-Ir,  4-C ) :   0.4503 B(  0-Ir,  5-C ) :   0.4027 B(  0-Ir,  6-N ) :   0.4689
B(  0-Ir, 20-C ) :   0.3057 B(  0-Ir, 31-O ) :   0.5504 B(  1-C ,  2-C ) :   1.1186
B(  1-C ,  4-C ) :   1.2393 B(  1-C , 27-H ) :   0.9047 B(  2-C ,  5-C ) :   1.1456
B(  2-C , 28-H ) :   0.9083 B(  3-C ,  4-C ) :   1.1127 B(  3-C ,  5-C ) :   1.2214
B(  3-C , 37-H ) :   0.9071 B(  4-C , 38-H ) :   0.8998 B(  5-C , 29-H ) :   0.8983
B(  6-N ,  7-C ) :   0.8922 B(  6-N , 17-C ) :   1.6651 B(  7-C ,  8-C ) :   0.9911
B(  7-C , 12-C ) :   0.9681 B(  7-C , 13-H ) :   0.8768 B(  8-C ,  9-H ) :   0.9045
B(  8-C , 10-H ) :   0.9131 B(  8-C , 11-H ) :   0.9104 B( 12-C , 14-H ) :   0.9072
B( 12-C , 15-H ) :   0.9156 B( 12-C , 16-H ) :   0.9130 B( 17-C , 18-C ) :   1.0894
B( 17-C , 19-H ) :   0.8758 B( 18-C , 20-C ) :   1.2875 B( 18-C , 22-S ) :   1.2169
B( 20-C , 21-C ) :   1.2899 B( 20-C , 24-H ) :   0.4020 B( 21-C , 23-C ) :   1.5378
B( 21-C , 25-H ) :   0.9055 B( 22-S , 23-C ) :   1.2163 B( 23-C , 26-H ) :   0.8921
B( 24-H , 30-O ) :   0.2884 B( 30-O , 32-C ) :   1.6139 B( 31-O , 32-C ) :   1.3314
B( 32-C , 33-C ) :   0.9485 B( 33-C , 34-H ) :   0.9023 B( 33-C , 35-H ) :   0.8953
B( 33-C , 36-H ) :   0.9084

Dispersion correction           -0.030497883
FINAL SINGLE POINT ENERGY     -1288.396868738730

DIPOLE MOMENT
-------------
                                X             Y             Z
Electronic contribution:     35.88208     -71.49168      78.94481
Nuclear contribution   :    -36.50255      70.58579     -79.04521
                        -----------------------------------------
Total Dipole Moment    :     -0.62046      -0.90589      -0.10040
                        -----------------------------------------
Magnitude (a.u.)       :      1.10258
Magnitude (Debye)      :      2.80254

Rotational constants in cm-1:     0.010540     0.008796     0.008094
Rotational constants in MHz :   315.986854   263.694657   242.648680

                             ****ORCA TERMINATED NORMALLY****
TOTAL RUN TIME: 0 days 1 hours 53 minutes 20 seconds 961 msec
