                         Program Version 5.0.3 -  RELEASE  -
|  1> ! Opt PBEh-3c
|  2> %geom Constraints
|  3> { B 0 20 2.4714285714285715 C }
|  4> { B 24 30 1.3857142857142857 C }
|  5>     end
|  6> end
|  7> %output
|  8> xyzfile=True
|  9> end
| 10> %scf
| 11> maxiter 250
| 12> end
| 13> %output
| 14> Print[P_Hirshfeld] = 1
| 15> end
| 16> % maxcore
| 17> 4000
| 18> *xyz 1 1
| 19> Ir   0.58008046  -0.72924035   0.48062113
| 20> C    0.02414241  -2.80850477   0.35954715
| 21> C    0.09766090  -2.36346869   1.72972035
| 22> C    2.18914714  -2.14343827   0.79166462
| 23> C    1.29262832  -2.64588671  -0.22537157
| 24> C    1.46401069  -2.00768446   1.98828421
| 25> N   -1.04277046   0.16041493  -0.51396546
| 26> C   -2.31869882   0.48423349   0.14448774
| 27> C   -3.12633491   1.54740794  -0.58271667
| 28> H   -3.95824316   1.85144702   0.05111022
| 29> H   -3.56314159   1.18750858  -1.51565929
| 30> H   -2.53546106   2.43981355  -0.79138839
| 31> C   -3.12673267  -0.79087617   0.35196455
| 32> H   -2.03336516   0.87812891   1.12144481
| 33> H   -4.04518587  -0.55771220   0.88853612
| 34> H   -3.40389503  -1.24398824  -0.60080067
| 35> H   -2.58599611  -1.52794833   0.94392107
| 36> C   -0.83945020   0.36836828  -1.75796164
| 37> C    0.51001678   0.16169307  -2.23296671
| 38> H   -1.62464990   0.72034108  -2.42109609
| 39> C    1.61317061   0.49601876  -1.45667015
| 40> C    2.81595856   0.10235287  -2.10935831
| 41> S    0.93451130  -0.56329475  -3.72008247
| 42> C    2.60209884  -0.47166091  -3.32391952
| 43> H    1.53553141   1.38028714  -0.64634629
| 44> H    3.80346546   0.28977188  -1.71326807
| 45> H    3.33835789  -0.82828755  -4.02837806
| 46> H   -0.86297692  -3.16667476  -0.14279676
| 47> H   -0.69634646  -2.39836177   2.46116873
| 48> H    1.84635612  -1.61984990   2.92154205
| 49> O    1.33888710   2.43353247   0.25476707
| 50> O    0.53549812   0.91460097   1.67711602
| 51> C    0.92499293   2.10403396   1.36615996
| 52> C    0.87466632   3.09666748   2.49266235
| 53> H    0.83301460   4.11234477   2.10884342
| 54> H    1.78389745   3.00275473   3.08977519
| 55> H    0.03225875   2.91245964   3.15594264
| 56> H    3.23545931  -1.91424833   0.65418183
| 57> H    1.55680684  -2.86386535  -1.24997497
| 58> *
| 59>
| 60>                          ****END OF INPUT****
 Total Charge           Charge          ....    1
 Multiplicity           Mult            ....    1
 Number of Electrons    NEL             ....  164
Dispersion correction           -0.030919413
FINAL SINGLE POINT ENERGY     -1288.396381629851
Dispersion correction            ... done
Dispersion correction           -0.030980952
FINAL SINGLE POINT ENERGY     -1288.394148642636
Dispersion correction            ... done
Dispersion correction           -0.030902434
FINAL SINGLE POINT ENERGY     -1288.396458431293
Dispersion correction            ... done
FINAL SINGLE POINT ENERGY     -1288.394391425566
FINAL SINGLE POINT ENERGY     -1288.396550918112
FINAL SINGLE POINT ENERGY     -1288.396576190029
FINAL SINGLE POINT ENERGY     -1288.396601789992
FINAL SINGLE POINT ENERGY     -1288.396613857963
FINAL SINGLE POINT ENERGY     -1288.396624609672
Dispersion correction            ... done
Dispersion correction           -0.030779864
FINAL SINGLE POINT ENERGY     -1288.396637921986
Dispersion correction            ... done
Dispersion correction           -0.030773628
FINAL SINGLE POINT ENERGY     -1288.396640016683
Dispersion correction            ... done
                    ***********************HURRAY********************

CARTESIAN COORDINATES (ANGSTROEM)
---------------------------------
  Ir     0.584547   -0.728231    0.481668
  C      0.029248   -2.809503    0.371138
  C      0.082746   -2.358294    1.739185
  C      2.188278   -2.140918    0.828512
  C      1.306312   -2.650547   -0.197315
  C      1.443806   -1.997175    2.013200
  N     -1.042439    0.151922   -0.514579
  C     -2.319977    0.461817    0.148066
  C     -3.121177    1.548230   -0.551921
  H     -3.952658    1.839871    0.088299
  H     -3.558386    1.215470   -1.494620
  H     -2.524840    2.442290   -0.736229
  C     -3.133667   -0.815672    0.316336
  H     -2.037779    0.827169    1.136885
  H     -4.053297   -0.594796    0.856156
  H     -3.408663   -1.240478   -0.649979
  H     -2.597094   -1.571312    0.888185
  C     -0.847417    0.369308   -1.759199
  C      0.497863    0.174424   -2.244513
  H     -1.639504    0.721231   -2.413993
  C      1.598000    0.448760   -1.440718
  C      2.801359    0.075582   -2.103562
  S      0.925724   -0.472252   -3.764449
  C      2.590292   -0.426139   -3.350784
  H      1.536568    1.350890   -0.626388
  H      3.787942    0.226923   -1.690155
  H      3.327838   -0.752254   -4.068554
  H     -0.849792   -3.172000   -0.142184
  H     -0.721495   -2.389720    2.459357
  H      1.812122   -1.602284    2.949177
  O      1.376922    2.420260    0.240310
  O      0.534368    0.928296    1.667345
  C      0.943932    2.106719    1.351596
  C      0.897267    3.114326    2.464253
  H      0.862855    4.125425    2.067835
  H      1.805093    3.022262    3.063811
  H      0.052370    2.942985    3.127638
  H      3.237436   -1.916192    0.707088
  H      1.584667   -2.877201   -1.216158

 Multiplicity           Mult            ....    1
 Number of Electrons    NEL             ....  164
 Basis Dimension        Dim             ....  358

ORBITAL ENERGIES
----------------

  NO   OCC          E(Eh)            E(eV)
   0   2.0000     -89.759976     -2442.4931
   1   2.0000     -19.625924      -534.0485
   2   2.0000     -19.593123      -533.1560
   3   2.0000     -14.839207      -403.7953
   4   2.0000     -10.684121      -290.7297
   5   2.0000     -10.660391      -290.0840
   6   2.0000     -10.636810      -289.4423
   7   2.0000     -10.633682      -289.3572
   8   2.0000     -10.632532      -289.3259
   9   2.0000     -10.630956      -289.2830
  10   2.0000     -10.630465      -289.2697
  11   2.0000     -10.628468      -289.2153
  12   2.0000     -10.615597      -288.8651
  13   2.0000     -10.608229      -288.6646
  14   2.0000     -10.582321      -287.9596
  15   2.0000     -10.580202      -287.9019
  16   2.0000     -10.556709      -287.2627
  17   2.0000     -10.551727      -287.1271
  18   2.0000     -10.534730      -286.6646
  19   2.0000      -8.399357      -228.5581
  20   2.0000      -6.289384      -171.1429
  21   2.0000      -6.285766      -171.0444
  22   2.0000      -6.284144      -171.0003
  23   2.0000      -4.029501      -109.6483
  24   2.0000      -2.348628       -63.9094
  25   2.0000      -2.314480       -62.9802
  26   2.0000      -2.312739       -62.9328
  27   2.0000      -1.309360       -35.6295
  28   2.0000      -1.213315       -33.0160
  29   2.0000      -1.210398       -32.9366
  30   2.0000      -1.173124       -31.9223
  31   2.0000      -1.124239       -30.5921
  32   2.0000      -1.025711       -27.9110
  33   2.0000      -0.987738       -26.8777
  34   2.0000      -0.978123       -26.6161
  35   2.0000      -0.963869       -26.2282
  36   2.0000      -0.957588       -26.0573
  37   2.0000      -0.929300       -25.2875
  38   2.0000      -0.902892       -24.5689
  39   2.0000      -0.872457       -23.7408
  40   2.0000      -0.797102       -21.6902
  41   2.0000      -0.788934       -21.4680
  42   2.0000      -0.787459       -21.4278
  43   2.0000      -0.779795       -21.2193
  44   2.0000      -0.772353       -21.0168
  45   2.0000      -0.757502       -20.6127
  46   2.0000      -0.743354       -20.2277
  47   2.0000      -0.722568       -19.6621
  48   2.0000      -0.693322       -18.8663
  49   2.0000      -0.675227       -18.3739
  50   2.0000      -0.664587       -18.0843
  51   2.0000      -0.651291       -17.7225
  52   2.0000      -0.648882       -17.6570
  53   2.0000      -0.640139       -17.4191
  54   2.0000      -0.637907       -17.3583
  55   2.0000      -0.631558       -17.1856
  56   2.0000      -0.623392       -16.9634
  57   2.0000      -0.610747       -16.6193
  58   2.0000      -0.608642       -16.5620
  59   2.0000      -0.607490       -16.5306
  60   2.0000      -0.596676       -16.2364
  61   2.0000      -0.587974       -15.9996
  62   2.0000      -0.576501       -15.6874
  63   2.0000      -0.569017       -15.4837
  64   2.0000      -0.562827       -15.3153
  65   2.0000      -0.556474       -15.1424
  66   2.0000      -0.552390       -15.0313
  67   2.0000      -0.548534       -14.9264
  68   2.0000      -0.539520       -14.6811
  69   2.0000      -0.534927       -14.5561
  70   2.0000      -0.528002       -14.3677
  71   2.0000      -0.520410       -14.1611
  72   2.0000      -0.515737       -14.0339
  73   2.0000      -0.506297       -13.7771
  74   2.0000      -0.490625       -13.3506
  75   2.0000      -0.480842       -13.0844
  76   2.0000      -0.465445       -12.6654
  77   2.0000      -0.449792       -12.2395
  78   2.0000      -0.442401       -12.0383
  79   2.0000      -0.421847       -11.4790
  80   2.0000      -0.417333       -11.3562
  81   2.0000      -0.402646       -10.9565
  82   0.0000      -0.200828        -5.4648
  83   0.0000      -0.162656        -4.4261
  84   0.0000      -0.141355        -3.8465
  85   0.0000      -0.096112        -2.6153
  86   0.0000      -0.075497        -2.0544

MULLIKEN ATOMIC CHARGES
-----------------------
   0 Ir:    0.616251
   1 C :   -0.209777
   2 C :   -0.291633
   3 C :   -0.234161
   4 C :   -0.245070
   5 C :   -0.166681
   6 N :   -0.431010
   7 C :   -0.119783
   8 C :   -0.692518
   9 H :    0.272004
  10 H :    0.225832
  11 H :    0.260074
  12 C :   -0.638043
  13 H :    0.280931
  14 H :    0.264125
  15 H :    0.230961
  16 H :    0.231919
  17 C :    0.069315
  18 C :   -0.194156
  19 H :    0.290379
  20 C :   -0.437434
  21 C :   -0.138860
  22 S :    0.303197
  23 C :   -0.428929
  24 H :    0.501042
  25 H :    0.264756
  26 H :    0.296514
  27 H :    0.291942
  28 H :    0.292643
  29 H :    0.305912
  30 O :   -0.486175
  31 O :   -0.537758
  32 C :    0.619231
  33 C :   -0.745586
  34 H :    0.270050
  35 H :    0.267026
  36 H :    0.253990
  37 H :    0.294017
  38 H :    0.295462
Sum of atomic charges:    1.0000000

LOEWDIN ATOMIC CHARGES
----------------------
   0 Ir:   -0.219505
   1 C :   -0.039668
   2 C :   -0.063287
   3 C :   -0.051662
   4 C :   -0.054808
   5 C :   -0.024932
   6 N :   -0.008907
   7 C :   -0.068749
   8 C :   -0.364454
   9 H :    0.157192
  10 H :    0.133671
  11 H :    0.146562
  12 C :   -0.343650
  13 H :    0.156128
  14 H :    0.152884
  15 H :    0.137279
  16 H :    0.133660
  17 C :    0.035405
  18 C :   -0.189735
  19 H :    0.162176
  20 C :   -0.196523
  21 C :   -0.140943
  22 S :    0.465999
  23 C :   -0.262226
  24 H :    0.298164
  25 H :    0.161337
  26 H :    0.167558
  27 H :    0.185439
  28 H :    0.185828
  29 H :    0.193278
  30 O :   -0.276436
  31 O :   -0.204428
  32 C :    0.157573
  33 C :   -0.375467
  34 H :    0.160171
  35 H :    0.167633
  36 H :    0.153643
  37 H :    0.187247
  38 H :    0.186556

  Mayer bond orders larger than 0.100000
B(  0-Ir,  1-C ) :   0.4213 B(  0-Ir,  2-C ) :   0.5358 B(  0-Ir,  3-C ) :   0.4606
B(  0-Ir,  4-C ) :   0.4535 B(  0-Ir,  5-C ) :   0.4031 B(  0-Ir,  6-N ) :   0.4664
B(  0-Ir, 20-C ) :   0.2548 B(  0-Ir, 31-O ) :   0.5755 B(  1-C ,  2-C ) :   1.1173
B(  1-C ,  4-C ) :   1.2430 B(  1-C , 27-H ) :   0.9030 B(  2-C ,  5-C ) :   1.1338
B(  2-C , 28-H ) :   0.9073 B(  3-C ,  4-C ) :   1.1064 B(  3-C ,  5-C ) :   1.2331
B(  3-C , 37-H ) :   0.9042 B(  4-C , 38-H ) :   0.8995 B(  5-C , 29-H ) :   0.8981
B(  6-N ,  7-C ) :   0.8917 B(  6-N , 17-C ) :   1.6849 B(  7-C ,  8-C ) :   0.9921
B(  7-C , 12-C ) :   0.9689 B(  7-C , 13-H ) :   0.8729 B(  8-C ,  9-H ) :   0.9036
B(  8-C , 10-H ) :   0.9125 B(  8-C , 11-H ) :   0.9085 B( 12-C , 14-H ) :   0.9065
B( 12-C , 15-H ) :   0.9155 B( 12-C , 16-H ) :   0.9116 B( 17-C , 18-C ) :   1.0635
B( 17-C , 19-H ) :   0.8743 B( 18-C , 20-C ) :   1.2956 B( 18-C , 22-S ) :   1.2211
B( 20-C , 21-C ) :   1.2718 B( 20-C , 24-H ) :   0.4563 B( 21-C , 23-C ) :   1.5449
B( 21-C , 25-H ) :   0.9049 B( 22-S , 23-C ) :   1.2061 B( 23-C , 26-H ) :   0.8924
B( 24-H , 30-O ) :   0.2485 B( 30-O , 32-C ) :   1.6727 B( 31-O , 32-C ) :   1.2883
B( 32-C , 33-C ) :   0.9473 B( 33-C , 34-H ) :   0.9046 B( 33-C , 35-H ) :   0.8981
B( 33-C , 36-H ) :   0.9092

Dispersion correction           -0.030769566
FINAL SINGLE POINT ENERGY     -1288.396642276782

DIPOLE MOMENT
-------------
                                X             Y             Z
Electronic contribution:     34.70401     -68.82441      75.79362
Nuclear contribution   :    -35.32870      67.66497     -76.00357
                        -----------------------------------------
Total Dipole Moment    :     -0.62469      -1.15943      -0.20995
                        -----------------------------------------
Magnitude (a.u.)       :      1.33364
Magnitude (Debye)      :      3.38985

Rotational constants in cm-1:     0.010635     0.009010     0.008205
Rotational constants in MHz :   318.830077   270.116259   245.966551

                             ****ORCA TERMINATED NORMALLY****
TOTAL RUN TIME: 0 days 1 hours 30 minutes 12 seconds 642 msec
