                         Program Version 5.0.3 -  RELEASE  -
|  1> ! Opt PBEh-3c
|  2> %geom Constraints
|  3> { B 0 20 2.1285714285714286 C }
|  4> { B 24 30 1.3571428571428572 C }
|  5>     end
|  6> end
|  7> %output
|  8> xyzfile=True
|  9> end
| 10> %scf
| 11> maxiter 250
| 12> end
| 13> %output
| 14> Print[P_Hirshfeld] = 1
| 15> end
| 16> % maxcore
| 17> 4000
| 18> *xyz 1 1
| 19> Ir   0.61076372  -0.73046267   0.43752983
| 20> C    0.13019546  -2.84213033   0.35083480
| 21> C   -0.07592176  -2.38017583   1.69907340
| 22> C    2.15382816  -2.07552696   1.16218584
| 23> C    1.49241863  -2.66163678   0.02738591
| 24> C    1.17950483  -1.93340309   2.18469757
| 25> N   -1.06463688   0.11739559  -0.50847411
| 26> C   -2.34088842   0.31907025   0.19514538
| 27> C   -3.13436978   1.51799856  -0.30479015
| 28> H   -3.96689839   1.69654288   0.37391741
| 29> H   -3.56758181   1.35824629  -1.29309181
| 30> H   -2.53068801   2.42551958  -0.32816935
| 31> C   -3.16441122  -0.96217306   0.12482457
| 32> H   -2.06551750   0.50442240   1.23443489
| 33> H   -4.07410381  -0.85189559   0.71371598
| 34> H   -3.45683500  -1.18525274  -0.90206708
| 35> H   -2.62176975  -1.82040340   0.51777276
| 36> C   -0.91062551   0.46041612  -1.73429319
| 37> C    0.40749548   0.29396213  -2.26927697
| 38> H   -1.72221517   0.88008578  -2.32027705
| 39> C    1.46154917   0.10151336  -1.37880769
| 40> C    2.66672526  -0.14918274  -2.10106132
| 41> S    0.87282142   0.20015265  -3.89948680
| 42> C    2.49459776  -0.11879293  -3.45219100
| 43> H    1.63646886   1.14338153  -0.60788501
| 44> H    3.63288971  -0.28589737  -1.63729836
| 45> H    3.24532542  -0.24718269  -4.21711910
| 46> H   -0.61941904  -3.27030925  -0.29853701
| 47> H   -0.99402457  -2.42590956   2.26474014
| 48> H    1.35165513  -1.48794750   3.15443117
| 49> O    1.74391003   2.28934495   0.13779627
| 50> O    0.55917353   1.02267348   1.53140965
| 51> C    1.13409804   2.11033754   1.20974716
| 52> C    1.08543503   3.22735576   2.20982933
| 53> H    0.97082205   4.18508694   1.70720652
| 54> H    2.03301478   3.25904470   2.75026622
| 55> H    0.28624256   3.08537013   2.93175322
| 56> H    3.20583371  -1.85224426   1.24957143
| 57> H    1.95450801  -2.91820396  -0.91470333
| 58> *
| 59>
| 60>                          ****END OF INPUT****
 Total Charge           Charge          ....    1
 Multiplicity           Mult            ....    1
 Number of Electrons    NEL             ....  164
Dispersion correction           -0.030753585
FINAL SINGLE POINT ENERGY     -1288.402830978509
Dispersion correction            ... done
Dispersion correction           -0.030716074
FINAL SINGLE POINT ENERGY     -1288.403074883552
Dispersion correction            ... done
Dispersion correction           -0.030698115
FINAL SINGLE POINT ENERGY     -1288.403168415620
Dispersion correction            ... done
FINAL SINGLE POINT ENERGY     -1288.403222488172
FINAL SINGLE POINT ENERGY     -1288.403264165204
FINAL SINGLE POINT ENERGY     -1288.403281713423
FINAL SINGLE POINT ENERGY     -1288.403288771988
FINAL SINGLE POINT ENERGY     -1288.403292109859
FINAL SINGLE POINT ENERGY     -1288.403295648802
FINAL SINGLE POINT ENERGY     -1288.403298568986
Dispersion correction            ... done
Dispersion correction           -0.030651979
FINAL SINGLE POINT ENERGY     -1288.403301258162
Dispersion correction            ... done
Dispersion correction           -0.030649743
FINAL SINGLE POINT ENERGY     -1288.403303032041
Dispersion correction            ... done
                    ***********************HURRAY********************

CARTESIAN COORDINATES (ANGSTROEM)
---------------------------------
  Ir     0.611527   -0.736202    0.425385
  C      0.136954   -2.848933    0.351264
  C     -0.091960   -2.392006    1.697783
  C      2.143429   -2.071275    1.193094
  C      1.505944   -2.666607    0.051839
  C      1.148370   -1.934411    2.200572
  N     -1.070259    0.112135   -0.509618
  C     -2.345257    0.302295    0.198549
  C     -3.140356    1.508419   -0.281016
  H     -3.973433    1.673965    0.400233
  H     -3.572494    1.365355   -1.272331
  H     -2.537834    2.417022   -0.288256
  C     -3.167907   -0.978330    0.109329
  H     -2.068666    0.471772    1.240322
  H     -4.076579   -0.878777    0.701718
  H     -3.461862   -1.184883   -0.920564
  H     -2.623310   -1.842340    0.486517
  C     -0.918019    0.474362   -1.730578
  C      0.398867    0.308386   -2.266326
  H     -1.728395    0.907268   -2.308234
  C      1.436443    0.058343   -1.368780
  C      2.648684   -0.173685   -2.088192
  S      0.885879    0.290927   -3.892093
  C      2.496278   -0.072666   -3.438229
  H      1.639030    1.157432   -0.634462
  H      3.606470   -0.348877   -1.619822
  H      3.256615   -0.174045   -4.197725
  H     -0.598095   -3.286603   -0.308293
  H     -1.019662   -2.439711    2.247178
  H      1.301501   -1.485363    3.171810
  O      1.752017    2.294564    0.097659
  O      0.576553    1.032905    1.504324
  C      1.150012    2.115691    1.178142
  C      1.118493    3.237063    2.173321
  H      0.995544    4.193169    1.669494
  H      2.074973    3.270715    2.697776
  H      0.331030    3.097082    2.908238
  H      3.193412   -1.847676    1.301122
  H      1.985436   -2.927290   -0.880410

 Multiplicity           Mult            ....    1
 Number of Electrons    NEL             ....  164
 Basis Dimension        Dim             ....  358

ORBITAL ENERGIES
----------------

  NO   OCC          E(Eh)            E(eV)
   0   2.0000     -89.762754     -2442.5687
   1   2.0000     -19.637021      -534.3505
   2   2.0000     -19.626391      -534.0613
   3   2.0000     -14.832912      -403.6241
   4   2.0000     -10.699531      -291.1490
   5   2.0000     -10.653811      -289.9049
   6   2.0000     -10.625070      -289.1228
   7   2.0000     -10.623718      -289.0861
   8   2.0000     -10.623127      -289.0700
   9   2.0000     -10.622111      -289.0423
  10   2.0000     -10.614655      -288.8394
  11   2.0000     -10.612363      -288.7771
  12   2.0000     -10.611682      -288.7585
  13   2.0000     -10.609354      -288.6952
  14   2.0000     -10.588982      -288.1408
  15   2.0000     -10.587956      -288.1129
  16   2.0000     -10.552860      -287.1579
  17   2.0000     -10.550256      -287.0871
  18   2.0000     -10.546103      -286.9740
  19   2.0000      -8.402130      -228.6336
  20   2.0000      -6.292009      -171.2143
  21   2.0000      -6.288469      -171.1179
  22   2.0000      -6.287102      -171.0807
  23   2.0000      -4.019861      -109.3860
  24   2.0000      -2.336880       -63.5897
  25   2.0000      -2.306044       -62.7506
  26   2.0000      -2.302777       -62.6617
  27   2.0000      -1.328168       -36.1413
  28   2.0000      -1.229578       -33.4585
  29   2.0000      -1.205799       -32.8115
  30   2.0000      -1.159761       -31.5587
  31   2.0000      -1.126452       -30.6523
  32   2.0000      -1.023544       -27.8520
  33   2.0000      -0.972504       -26.4632
  34   2.0000      -0.968136       -26.3443
  35   2.0000      -0.965607       -26.2755
  36   2.0000      -0.957952       -26.0672
  37   2.0000      -0.941463       -25.6185
  38   2.0000      -0.899779       -24.4842
  39   2.0000      -0.871063       -23.7028
  40   2.0000      -0.797141       -21.6913
  41   2.0000      -0.781080       -21.2543
  42   2.0000      -0.776189       -21.1212
  43   2.0000      -0.775595       -21.1050
  44   2.0000      -0.763103       -20.7651
  45   2.0000      -0.760502       -20.6943
  46   2.0000      -0.741682       -20.1822
  47   2.0000      -0.721395       -19.6302
  48   2.0000      -0.694846       -18.9077
  49   2.0000      -0.684289       -18.6204
  50   2.0000      -0.663218       -18.0471
  51   2.0000      -0.661781       -18.0080
  52   2.0000      -0.649026       -17.6609
  53   2.0000      -0.638192       -17.3661
  54   2.0000      -0.630491       -17.1565
  55   2.0000      -0.627196       -17.0669
  56   2.0000      -0.621075       -16.9003
  57   2.0000      -0.609712       -16.5911
  58   2.0000      -0.599056       -16.3011
  59   2.0000      -0.596537       -16.2326
  60   2.0000      -0.595647       -16.2084
  61   2.0000      -0.590604       -16.0712
  62   2.0000      -0.578215       -15.7340
  63   2.0000      -0.569669       -15.5015
  64   2.0000      -0.564370       -15.3573
  65   2.0000      -0.561460       -15.2781
  66   2.0000      -0.555947       -15.1281
  67   2.0000      -0.545964       -14.8564
  68   2.0000      -0.542109       -14.7515
  69   2.0000      -0.535110       -14.5611
  70   2.0000      -0.529225       -14.4009
  71   2.0000      -0.517841       -14.0912
  72   2.0000      -0.512580       -13.9480
  73   2.0000      -0.501869       -13.6565
  74   2.0000      -0.496263       -13.5040
  75   2.0000      -0.486166       -13.2292
  76   2.0000      -0.477357       -12.9895
  77   2.0000      -0.451055       -12.2738
  78   2.0000      -0.444027       -12.0826
  79   2.0000      -0.417342       -11.3565
  80   2.0000      -0.415275       -11.3002
  81   2.0000      -0.394183       -10.7263
  82   0.0000      -0.202508        -5.5105
  83   0.0000      -0.142901        -3.8885
  84   0.0000      -0.130772        -3.5585
  85   0.0000      -0.085751        -2.3334
  86   0.0000      -0.073908        -2.0111

MULLIKEN ATOMIC CHARGES
-----------------------
   0 Ir:    0.606947
   1 C :   -0.245315
   2 C :   -0.259728
   3 C :   -0.271265
   4 C :   -0.223496
   5 C :   -0.153480
   6 N :   -0.434886
   7 C :   -0.125792
   8 C :   -0.681400
   9 H :    0.269087
  10 H :    0.224483
  11 H :    0.253286
  12 C :   -0.633511
  13 H :    0.278325
  14 H :    0.258450
  15 H :    0.232650
  16 H :    0.233474
  17 C :    0.068952
  18 C :   -0.123414
  19 H :    0.284602
  20 C :   -0.557078
  21 C :   -0.103632
  22 S :    0.341056
  23 C :   -0.426278
  24 H :    0.474378
  25 H :    0.266285
  26 H :    0.297578
  27 H :    0.284967
  28 H :    0.281364
  29 H :    0.297118
  30 O :   -0.482903
  31 O :   -0.505942
  32 C :    0.633107
  33 C :   -0.744016
  34 H :    0.273524
  35 H :    0.276091
  36 H :    0.262290
  37 H :    0.281631
  38 H :    0.292491
Sum of atomic charges:    1.0000000

LOEWDIN ATOMIC CHARGES
----------------------
   0 Ir:   -0.259705
   1 C :   -0.058964
   2 C :   -0.097174
   3 C :   -0.096723
   4 C :   -0.040654
   5 C :   -0.017108
   6 N :   -0.004932
   7 C :   -0.069257
   8 C :   -0.362171
   9 H :    0.156040
  10 H :    0.132789
  11 H :    0.143133
  12 C :   -0.343868
  13 H :    0.154172
  14 H :    0.150528
  15 H :    0.138004
  16 H :    0.133141
  17 C :    0.028881
  18 C :   -0.191855
  19 H :    0.159903
  20 C :   -0.219936
  21 C :   -0.128967
  22 S :    0.495461
  23 C :   -0.257690
  24 H :    0.361054
  25 H :    0.161806
  26 H :    0.169109
  27 H :    0.181919
  28 H :    0.179246
  29 H :    0.187728
  30 O :   -0.259835
  31 O :   -0.178700
  32 C :    0.166333
  33 C :   -0.371439
  34 H :    0.165074
  35 H :    0.172531
  36 H :    0.156217
  37 H :    0.181521
  38 H :    0.184386

  Mayer bond orders larger than 0.100000
B(  0-Ir,  1-C ) :   0.4463 B(  0-Ir,  2-C ) :   0.4067 B(  0-Ir,  3-C ) :   0.4685
B(  0-Ir,  4-C ) :   0.4269 B(  0-Ir,  5-C ) :   0.3715 B(  0-Ir,  6-N ) :   0.4648
B(  0-Ir, 20-C ) :   0.4883 B(  0-Ir, 31-O ) :   0.5158 B(  1-C ,  2-C ) :   1.1269
B(  1-C ,  4-C ) :   1.2230 B(  1-C , 27-H ) :   0.9084 B(  2-C ,  5-C ) :   1.2149
B(  2-C , 28-H ) :   0.9104 B(  3-C ,  4-C ) :   1.1396 B(  3-C ,  5-C ) :   1.1739
B(  3-C , 37-H ) :   0.9133 B(  4-C , 38-H ) :   0.9000 B(  5-C , 29-H ) :   0.9015
B(  6-N ,  7-C ) :   0.8962 B(  6-N , 17-C ) :   1.6470 B(  7-C ,  8-C ) :   0.9904
B(  7-C , 12-C ) :   0.9668 B(  7-C , 13-H ) :   0.8773 B(  8-C ,  9-H ) :   0.9048
B(  8-C , 10-H ) :   0.9130 B(  8-C , 11-H ) :   0.9124 B( 12-C , 14-H ) :   0.9079
B( 12-C , 15-H ) :   0.9153 B( 12-C , 16-H ) :   0.9120 B( 17-C , 18-C ) :   1.1138
B( 17-C , 19-H ) :   0.8765 B( 18-C , 20-C ) :   1.2296 B( 18-C , 22-S ) :   1.2376
B( 20-C , 21-C ) :   1.2705 B( 20-C , 24-H ) :   0.3320 B( 21-C , 23-C ) :   1.5406
B( 21-C , 25-H ) :   0.9026 B( 22-S , 23-C ) :   1.2195 B( 23-C , 26-H ) :   0.8915
B( 24-H , 30-O ) :   0.3533 B( 30-O , 32-C ) :   1.5525 B( 31-O , 32-C ) :   1.3887
B( 32-C , 33-C ) :   0.9451 B( 33-C , 34-H ) :   0.8996 B( 33-C , 35-H ) :   0.8929
B( 33-C , 36-H ) :   0.9078

Dispersion correction           -0.030649218
FINAL SINGLE POINT ENERGY     -1288.403304332971

DIPOLE MOMENT
-------------
                                X             Y             Z
Electronic contribution:     37.29846     -74.08533      71.45939
Nuclear contribution   :    -37.89142      73.65509     -71.68389
                        -----------------------------------------
Total Dipole Moment    :     -0.59295      -0.43024      -0.22451
                        -----------------------------------------
Magnitude (a.u.)       :      0.76622
Magnitude (Debye)      :      1.94759

Rotational constants in cm-1:     0.010547     0.008833     0.008207
Rotational constants in MHz :   316.203497   264.797035   246.030673

                             ****ORCA TERMINATED NORMALLY****
TOTAL RUN TIME: 0 days 1 hours 42 minutes 30 seconds 468 msec
