                         Program Version 5.0.3 -  RELEASE  -
|  1> ! Opt PBEh-3c
|  2> %geom Constraints
|  3> { B 0 20 2.428571428571429 C }
|  4> { B 24 30 1.3714285714285714 C }
|  5>     end
|  6> end
|  7> %output
|  8> xyzfile=True
|  9> end
| 10> %scf
| 11> maxiter 250
| 12> end
| 13> %output
| 14> Print[P_Hirshfeld] = 1
| 15> end
| 16> % maxcore
| 17> 4000
| 18> *xyz 1 1
| 19> Ir   0.58454737  -0.72823119   0.48166752
| 20> C    0.02924783  -2.80950304   0.37113793
| 21> C    0.08274619  -2.35829408   1.73918517
| 22> C    2.18827845  -2.14091848   0.82851163
| 23> C    1.30631158  -2.65054694  -0.19731515
| 24> C    1.44380554  -1.99717519   2.01320006
| 25> N   -1.04243914   0.15192205  -0.51457854
| 26> C   -2.31997704   0.46181697   0.14806583
| 27> C   -3.12117680   1.54823019  -0.55192072
| 28> H   -3.95265766   1.83987116   0.08829855
| 29> H   -3.55838607   1.21546974  -1.49462002
| 30> H   -2.52484027   2.44229014  -0.73622861
| 31> C   -3.13366658  -0.81567188   0.31633603
| 32> H   -2.03777909   0.82716905   1.13688473
| 33> H   -4.05329681  -0.59479639   0.85615615
| 34> H   -3.40866288  -1.24047826  -0.64997873
| 35> H   -2.59709410  -1.57131174   0.88818527
| 36> C   -0.84741744   0.36930792  -1.75919901
| 37> C    0.49786334   0.17442369  -2.24451315
| 38> H   -1.63950374   0.72123106  -2.41399288
| 39> C    1.59799964   0.44875951  -1.44071812
| 40> C    2.80135892   0.07558194  -2.10356175
| 41> S    0.92572444  -0.47225194  -3.76444941
| 42> C    2.59029191  -0.42613919  -3.35078441
| 43> H    1.53656843   1.35088989  -0.62638835
| 44> H    3.78794231   0.22692277  -1.69015478
| 45> H    3.32783782  -0.75225382  -4.06855388
| 46> H   -0.84979179  -3.17200013  -0.14218425
| 47> H   -0.72149529  -2.38971956   2.45935726
| 48> H    1.81212179  -1.60228424   2.94917722
| 49> O    1.37692225   2.42025968   0.24030965
| 50> O    0.53436803   0.92829610   1.66734501
| 51> C    0.94393210   2.10671942   1.35159644
| 52> C    0.89726689   3.11432609   2.46425313
| 53> H    0.86285492   4.12542492   2.06783548
| 54> H    1.80509254   3.02226232   3.06381079
| 55> H    0.05236994   2.94298459   3.12763814
| 56> H    3.23743554  -1.91619211   0.70708759
| 57> H    1.58466694  -2.87720098  -1.21615769
| 58> *
| 59>
| 60>                          ****END OF INPUT****
 Total Charge           Charge          ....    1
 Multiplicity           Mult            ....    1
 Number of Electrons    NEL             ....  164
Dispersion correction           -0.030865910
FINAL SINGLE POINT ENERGY     -1288.397116705265
Dispersion correction            ... done
Dispersion correction           -0.030956580
FINAL SINGLE POINT ENERGY     -1288.393983994735
Dispersion correction            ... done
Dispersion correction           -0.030856781
FINAL SINGLE POINT ENERGY     -1288.397216497331
Dispersion correction            ... done
FINAL SINGLE POINT ENERGY     -1288.395083282790
FINAL SINGLE POINT ENERGY     -1288.397301119683
FINAL SINGLE POINT ENERGY     -1288.397331920077
FINAL SINGLE POINT ENERGY     -1288.397364104045
FINAL SINGLE POINT ENERGY     -1288.397385780278
FINAL SINGLE POINT ENERGY     -1288.397397108920
FINAL SINGLE POINT ENERGY     -1288.397401361411
FINAL SINGLE POINT ENERGY     -1288.397399577751
FINAL SINGLE POINT ENERGY     -1288.397402044469
FINAL SINGLE POINT ENERGY     -1288.397405479405
FINAL SINGLE POINT ENERGY     -1288.397406288525
Dispersion correction            ... done
Dispersion correction           -0.030682972
FINAL SINGLE POINT ENERGY     -1288.397406734638
Dispersion correction            ... done
Dispersion correction           -0.030681393
FINAL SINGLE POINT ENERGY     -1288.397406953531
Dispersion correction            ... done
                    ***********************HURRAY********************

CARTESIAN COORDINATES (ANGSTROEM)
---------------------------------
  Ir     0.593853   -0.729514    0.484697
  C      0.056298   -2.818039    0.370110
  C      0.041617   -2.358577    1.735729
  C      2.188297   -2.128741    0.923586
  C      1.358947   -2.654592   -0.136676
  C      1.382833   -1.981618    2.069181
  N     -1.040600    0.138170   -0.508743
  C     -2.318803    0.423718    0.164466
  C     -3.101990    1.560482   -0.474297
  H     -3.932620    1.826893    0.177901
  H     -3.538638    1.287619   -1.436051
  H     -2.491093    2.453909   -0.605353
  C     -3.147765   -0.852630    0.248404
  H     -2.040558    0.725144    1.175452
  H     -4.063735   -0.660118    0.805175
  H     -3.429368   -1.207378   -0.743914
  H     -2.616545   -1.652045    0.762798
  C     -0.861688    0.370410   -1.754151
  C      0.475452    0.189132   -2.259975
  H     -1.665443    0.724687   -2.393256
  C      1.577413    0.384365   -1.436199
  C      2.775852    0.038364   -2.121695
  S      0.895160   -0.354633   -3.820339
  C      2.558390   -0.367762   -3.402875
  H      1.547626    1.307605   -0.615566
  H      3.764314    0.141778   -1.698243
  H      3.292240   -0.653974   -4.141113
  H     -0.792940   -3.194761   -0.181599
  H     -0.795298   -2.391793    2.417439
  H      1.701441   -1.574047    3.018042
  O      1.438280    2.396780    0.210605
  O      0.540512    0.948565    1.647452
  C      0.976310    2.111028    1.320760
  C      0.928468    3.144021    2.409111
  H      0.888032    4.145767    1.989939
  H      1.840037    3.070642    3.005514
  H      0.086888    2.983223    3.078950
  H      3.242316   -1.905492    0.855041
  H      1.685879   -2.887398   -1.139569

 Multiplicity           Mult            ....    1
 Number of Electrons    NEL             ....  164
 Basis Dimension        Dim             ....  358

ORBITAL ENERGIES
----------------

  NO   OCC          E(Eh)            E(eV)
   0   2.0000     -89.759798     -2442.4883
   1   2.0000     -19.627792      -534.0994
   2   2.0000     -19.598427      -533.3003
   3   2.0000     -14.837709      -403.7546
   4   2.0000     -10.686863      -290.8043
   5   2.0000     -10.659127      -290.0496
   6   2.0000     -10.634479      -289.3789
   7   2.0000     -10.633147      -289.3426
   8   2.0000     -10.630054      -289.2585
   9   2.0000     -10.629868      -289.2534
  10   2.0000     -10.627493      -289.1888
  11   2.0000     -10.626797      -289.1699
  12   2.0000     -10.614859      -288.8450
  13   2.0000     -10.607811      -288.6532
  14   2.0000     -10.582546      -287.9657
  15   2.0000     -10.580904      -287.9210
  16   2.0000     -10.556165      -287.2479
  17   2.0000     -10.551207      -287.1130
  18   2.0000     -10.536676      -286.7175
  19   2.0000      -8.399214      -228.5542
  20   2.0000      -6.289206      -171.1380
  21   2.0000      -6.285604      -171.0400
  22   2.0000      -6.284044      -170.9975
  23   2.0000      -4.028047      -109.6087
  24   2.0000      -2.346954       -63.8639
  25   2.0000      -2.313032       -62.9408
  26   2.0000      -2.311178       -62.8903
  27   2.0000      -1.312815       -35.7235
  28   2.0000      -1.215890       -33.0860
  29   2.0000      -1.209353       -32.9082
  30   2.0000      -1.171341       -31.8738
  31   2.0000      -1.123931       -30.5837
  32   2.0000      -1.024789       -27.8859
  33   2.0000      -0.985659       -26.8212
  34   2.0000      -0.976404       -26.5693
  35   2.0000      -0.963670       -26.2228
  36   2.0000      -0.957163       -26.0457
  37   2.0000      -0.931508       -25.3476
  38   2.0000      -0.902045       -24.5459
  39   2.0000      -0.871959       -23.7272
  40   2.0000      -0.796896       -21.6846
  41   2.0000      -0.787070       -21.4173
  42   2.0000      -0.785870       -21.3846
  43   2.0000      -0.779444       -21.2098
  44   2.0000      -0.770899       -20.9772
  45   2.0000      -0.758593       -20.6424
  46   2.0000      -0.742651       -20.2086
  47   2.0000      -0.722515       -19.6606
  48   2.0000      -0.692086       -18.8326
  49   2.0000      -0.676747       -18.4152
  50   2.0000      -0.663736       -18.0612
  51   2.0000      -0.651879       -17.7385
  52   2.0000      -0.648475       -17.6459
  53   2.0000      -0.638958       -17.3869
  54   2.0000      -0.637990       -17.3606
  55   2.0000      -0.632493       -17.2110
  56   2.0000      -0.622916       -16.9504
  57   2.0000      -0.610106       -16.6018
  58   2.0000      -0.606920       -16.5151
  59   2.0000      -0.606039       -16.4912
  60   2.0000      -0.596616       -16.2347
  61   2.0000      -0.588531       -16.0147
  62   2.0000      -0.576493       -15.6872
  63   2.0000      -0.568242       -15.4627
  64   2.0000      -0.562651       -15.3105
  65   2.0000      -0.558261       -15.1910
  66   2.0000      -0.552129       -15.0242
  67   2.0000      -0.548365       -14.9218
  68   2.0000      -0.539856       -14.6902
  69   2.0000      -0.534847       -14.5539
  70   2.0000      -0.527965       -14.3666
  71   2.0000      -0.519648       -14.1404
  72   2.0000      -0.515148       -14.0179
  73   2.0000      -0.505053       -13.7432
  74   2.0000      -0.491596       -13.3770
  75   2.0000      -0.480521       -13.0756
  76   2.0000      -0.466773       -12.7015
  77   2.0000      -0.448575       -12.2064
  78   2.0000      -0.443673       -12.0730
  79   2.0000      -0.420797       -11.4505
  80   2.0000      -0.417620       -11.3640
  81   2.0000      -0.401577       -10.9275
  82   0.0000      -0.200926        -5.4675
  83   0.0000      -0.159481        -4.3397
  84   0.0000      -0.141262        -3.8439
  85   0.0000      -0.093079        -2.5328
  86   0.0000      -0.074442        -2.0257

MULLIKEN ATOMIC CHARGES
-----------------------
   0 Ir:    0.613839
   1 C :   -0.214431
   2 C :   -0.288531
   3 C :   -0.240386
   4 C :   -0.241029
   5 C :   -0.164861
   6 N :   -0.432653
   7 C :   -0.124510
   8 C :   -0.687516
   9 H :    0.270631
  10 H :    0.225076
  11 H :    0.259428
  12 C :   -0.635929
  13 H :    0.280825
  14 H :    0.262971
  15 H :    0.231274
  16 H :    0.230933
  17 C :    0.070105
  18 C :   -0.180172
  19 H :    0.288389
  20 C :   -0.454236
  21 C :   -0.136080
  22 S :    0.310999
  23 C :   -0.428635
  24 H :    0.497628
  25 H :    0.264000
  26 H :    0.296490
  27 H :    0.290680
  28 H :    0.290966
  29 H :    0.305266
  30 O :   -0.486799
  31 O :   -0.533386
  32 C :    0.622772
  33 C :   -0.745334
  34 H :    0.270726
  35 H :    0.268558
  36 H :    0.255342
  37 H :    0.292164
  38 H :    0.295426
Sum of atomic charges:    1.0000000

LOEWDIN ATOMIC CHARGES
----------------------
   0 Ir:   -0.225591
   1 C :   -0.043478
   2 C :   -0.068892
   3 C :   -0.060472
   4 C :   -0.050809
   5 C :   -0.021025
   6 N :   -0.009373
   7 C :   -0.069281
   8 C :   -0.363449
   9 H :    0.156697
  10 H :    0.133243
  11 H :    0.146238
  12 C :   -0.343685
  13 H :    0.155702
  14 H :    0.152449
  15 H :    0.137341
  16 H :    0.132880
  17 C :    0.034869
  18 C :   -0.190125
  19 H :    0.161326
  20 C :   -0.203222
  21 C :   -0.138521
  22 S :    0.471735
  23 C :   -0.261652
  24 H :    0.308638
  25 H :    0.161095
  26 H :    0.167681
  27 H :    0.184771
  28 H :    0.184872
  29 H :    0.192797
  30 O :   -0.274315
  31 O :   -0.200521
  32 C :    0.159845
  33 C :   -0.374583
  34 H :    0.160893
  35 H :    0.168600
  36 H :    0.154168
  37 H :    0.186458
  38 H :    0.186698

  Mayer bond orders larger than 0.100000
B(  0-Ir,  1-C ) :   0.4213 B(  0-Ir,  2-C ) :   0.5233 B(  0-Ir,  3-C ) :   0.4606
B(  0-Ir,  4-C ) :   0.4514 B(  0-Ir,  5-C ) :   0.4021 B(  0-Ir,  6-N ) :   0.4669
B(  0-Ir, 20-C ) :   0.2830 B(  0-Ir, 31-O ) :   0.5655 B(  1-C ,  2-C ) :   1.1189
B(  1-C ,  4-C ) :   1.2425 B(  1-C , 27-H ) :   0.9039 B(  2-C ,  5-C ) :   1.1398
B(  2-C , 28-H ) :   0.9080 B(  3-C ,  4-C ) :   1.1087 B(  3-C ,  5-C ) :   1.2283
B(  3-C , 37-H ) :   0.9061 B(  4-C , 38-H ) :   0.9001 B(  5-C , 29-H ) :   0.8981
B(  6-N ,  7-C ) :   0.8918 B(  6-N , 17-C ) :   1.6763 B(  7-C ,  8-C ) :   0.9915
B(  7-C , 12-C ) :   0.9684 B(  7-C , 13-H ) :   0.8745 B(  8-C ,  9-H ) :   0.9041
B(  8-C , 10-H ) :   0.9129 B(  8-C , 11-H ) :   0.9092 B( 12-C , 14-H ) :   0.9068
B( 12-C , 15-H ) :   0.9155 B( 12-C , 16-H ) :   0.9124 B( 17-C , 18-C ) :   1.0751
B( 17-C , 19-H ) :   0.8750 B( 18-C , 20-C ) :   1.2881 B( 18-C , 22-S ) :   1.2244
B( 20-C , 21-C ) :   1.2771 B( 20-C , 24-H ) :   0.4332 B( 21-C , 23-C ) :   1.5434
B( 21-C , 25-H ) :   0.9052 B( 22-S , 23-C ) :   1.2095 B( 23-C , 26-H ) :   0.8921
B( 24-H , 30-O ) :   0.2658 B( 30-O , 32-C ) :   1.6515 B( 31-O , 32-C ) :   1.3041
B( 32-C , 33-C ) :   0.9476 B( 33-C , 34-H ) :   0.9038 B( 33-C , 35-H ) :   0.8971
B( 33-C , 36-H ) :   0.9089

Dispersion correction           -0.030680477
FINAL SINGLE POINT ENERGY     -1288.397407633962

DIPOLE MOMENT
-------------
                                X             Y             Z
Electronic contribution:     35.75905     -69.62329      76.52853
Nuclear contribution   :    -36.38310      68.56168     -76.72253
                        -----------------------------------------
Total Dipole Moment    :     -0.62404      -1.06161      -0.19400
                        -----------------------------------------
Magnitude (a.u.)       :      1.24663
Magnitude (Debye)      :      3.16867

Rotational constants in cm-1:     0.010582     0.008954     0.008166
Rotational constants in MHz :   317.229692   268.447452   244.824656

                             ****ORCA TERMINATED NORMALLY****
TOTAL RUN TIME: 0 days 2 hours 5 minutes 44 seconds 105 msec
