                         Program Version 5.0.3 -  RELEASE  -
|  1> ! Opt PBEh-3c
|  2> %geom Constraints
|  3> { B 0 20 2.0 C }
|  4> { B 24 30 1.342857142857143 C }
|  5>     end
|  6> end
|  7> %output
|  8> xyzfile=True
|  9> end
| 10> %scf
| 11> maxiter 250
| 12> end
| 13> %output
| 14> Print[P_Hirshfeld] = 1
| 15> end
| 16> % maxcore
| 17> 4000
| 18> %pal nprocs 2
| 19> end
| 20> *xyz 1 1
| 21> Ir   0.61580230  -0.74214371   0.39897230
| 22> C    0.17307612  -2.85979357   0.32659891
| 23> C   -0.11194389  -2.42913194   1.67280858
| 24> C    2.12986460  -2.05005042   1.24906424
| 25> C    1.55400781  -2.65946605   0.08763366
| 26> C    1.08909730  -1.94701220   2.22326812
| 27> N   -1.08191661   0.10329973  -0.50684457
| 28> C   -2.35097664   0.27856376   0.21422866
| 29> C   -3.13881289   1.50645036  -0.21942059
| 30> H   -3.96952236   1.65274475   0.46908426
| 31> H   -3.57342719   1.40354327  -1.21464084
| 32> H   -2.52945422   2.41016537  -0.19454227
| 33> C   -3.18193663  -0.99340088   0.08602333
| 34> H   -2.06765717   0.41082229   1.25960291
| 35> H   -4.08160868  -0.91373427   0.69496179
| 36> H   -3.49130409  -1.15723734  -0.94701601
| 37> H   -2.63543188  -1.87432255   0.41904902
| 38> C   -0.93755321   0.48757245  -1.72270822
| 39> C    0.37723808   0.31601101  -2.25766546
| 40> H   -1.74697649   0.93738462  -2.28808360
| 41> C    1.38620191  -0.01368966  -1.34719623
| 42> C    2.61347227  -0.21880769  -2.05669768
| 43> S    0.90455542   0.39996542  -3.86732347
| 44> C    2.49591330  -0.02326433  -3.39962834
| 45> H    1.62833857   1.17396064  -0.70946215
| 46> H    3.55663871  -0.44499731  -1.58032413
| 47> H    3.27354949  -0.08771399  -4.14555341
| 48> H   -0.52418564  -3.31710021  -0.35997962
| 49> H   -1.06216111  -2.49088563   2.18055481
| 50> H    1.19438049  -1.50124108   3.20218711
| 51> O    1.74637606   2.31534074   0.01521388
| 52> O    0.61484687   1.04836324   1.45488588
| 53> C    1.17113862   2.13096041   1.11341721
| 54> C    1.16245001   3.25699752   2.10362151
| 55> H    1.04579101   4.21330560   1.59903282
| 56> H    2.12356801   3.27941726   2.62032335
| 57> H    0.38038386   3.12694798   2.84610463
| 58> H    3.17162193  -1.81656550   1.40514723
| 59> H    2.07592593  -2.91206820  -0.82395752
| 60> *
| 61>
| 62>                          ****END OF INPUT****
 Total Charge           Charge          ....    1
 Multiplicity           Mult            ....    1
 Number of Electrons    NEL             ....  164
Dispersion correction           -0.030827600
FINAL SINGLE POINT ENERGY     -1288.400966280844
Dispersion correction            ... done
Dispersion correction           -0.030795769
FINAL SINGLE POINT ENERGY     -1288.401195289834
Dispersion correction            ... done
Dispersion correction           -0.030784405
FINAL SINGLE POINT ENERGY     -1288.401294214863
Dispersion correction            ... done
FINAL SINGLE POINT ENERGY     -1288.401363960978
FINAL SINGLE POINT ENERGY     -1288.401422899369
FINAL SINGLE POINT ENERGY     -1288.401459537159
FINAL SINGLE POINT ENERGY     -1288.401479513352
FINAL SINGLE POINT ENERGY     -1288.401494690991
FINAL SINGLE POINT ENERGY     -1288.401504059836
FINAL SINGLE POINT ENERGY     -1288.401511861709
FINAL SINGLE POINT ENERGY     -1288.401516971897
FINAL SINGLE POINT ENERGY     -1288.401521335056
FINAL SINGLE POINT ENERGY     -1288.401525237490
Dispersion correction            ... done
Dispersion correction           -0.030746805
FINAL SINGLE POINT ENERGY     -1288.401528822110
Dispersion correction            ... done
Dispersion correction           -0.030746841
FINAL SINGLE POINT ENERGY     -1288.401531983144
Dispersion correction            ... done
                    ***********************HURRAY********************

CARTESIAN COORDINATES (ANGSTROEM)
---------------------------------
  Ir     0.614108   -0.747498    0.383998
  C      0.195381   -2.867276    0.320013
  C     -0.133949   -2.450463    1.662087
  C      2.110380   -2.032196    1.302999
  C      1.584101   -2.654880    0.128994
  C      1.035840   -1.950504    2.248849
  N     -1.092484    0.095501   -0.503569
  C     -2.360968    0.251107    0.222401
  C     -3.144370    1.494872   -0.171681
  H     -3.976129    1.621046    0.519564
  H     -3.577190    1.426813   -1.170689
  H     -2.531768    2.394946   -0.115749
  C     -3.195182   -1.013945    0.053631
  H     -2.077747    0.349245    1.271603
  H     -4.090726   -0.955651    0.671065
  H     -3.511732   -1.138926   -0.982653
  H     -2.647382   -1.907576    0.348889
  C     -0.950854    0.502023   -1.712919
  C      0.362544    0.332623   -2.248953
  H     -1.760124    0.963610   -2.268765
  C      1.354107   -0.057261   -1.341103
  C      2.588307   -0.242621   -2.046980
  S      0.912271    0.490987   -3.846487
  C      2.490001    0.022924   -3.380309
  H      1.644713    1.198601   -0.761509
  H      3.522431   -0.508213   -1.573039
  H      3.276920   -0.015676   -4.118251
  H     -0.471379   -3.342108   -0.384634
  H     -1.100806   -2.521086    2.136194
  H      1.104121   -1.505786    3.231349
  O      1.772084    2.323271   -0.038903
  O      0.642920    1.064484    1.412472
  C      1.201943    2.139897    1.066771
  C      1.212567    3.270416    2.051101
  H      1.103204    4.226296    1.544158
  H      2.176948    3.283583    2.562128
  H      0.433698    3.150907    2.798638
  H      3.143890   -1.787622    1.493371
  H      2.139680   -2.904675   -0.763343

 Multiplicity           Mult            ....    1
 Number of Electrons    NEL             ....  164
 Basis Dimension        Dim             ....  358

ORBITAL ENERGIES
----------------

  NO   OCC          E(Eh)            E(eV)
   0   2.0000     -89.763327     -2442.5843
   1   2.0000     -19.641710      -534.4781
   2   2.0000     -19.640641      -534.4490
   3   2.0000     -14.830688      -403.5635
   4   2.0000     -10.706561      -291.3403
   5   2.0000     -10.652052      -289.8571
   6   2.0000     -10.622836      -289.0621
   7   2.0000     -10.619589      -288.9737
   8   2.0000     -10.618379      -288.9408
   9   2.0000     -10.615704      -288.8680
  10   2.0000     -10.611733      -288.7599
  11   2.0000     -10.611042      -288.7411
  12   2.0000     -10.609455      -288.6980
  13   2.0000     -10.605721      -288.5963
  14   2.0000     -10.592867      -288.2466
  15   2.0000     -10.590365      -288.1785
  16   2.0000     -10.551624      -287.1243
  17   2.0000     -10.550309      -287.0885
  18   2.0000     -10.549889      -287.0771
  19   2.0000      -8.402662      -228.6481
  20   2.0000      -6.292539      -171.2287
  21   2.0000      -6.289056      -171.1339
  22   2.0000      -6.287586      -171.0939
  23   2.0000      -4.015501      -109.2673
  24   2.0000      -2.331744       -63.4500
  25   2.0000      -2.303354       -62.6774
  26   2.0000      -2.298828       -62.5543
  27   2.0000      -1.335215       -36.3331
  28   2.0000      -1.237388       -33.6710
  29   2.0000      -1.205043       -32.7909
  30   2.0000      -1.153657       -31.3926
  31   2.0000      -1.127819       -30.6895
  32   2.0000      -1.023783       -27.8586
  33   2.0000      -0.970325       -26.4039
  34   2.0000      -0.967532       -26.3279
  35   2.0000      -0.960522       -26.1371
  36   2.0000      -0.956357       -26.0238
  37   2.0000      -0.946090       -25.7444
  38   2.0000      -0.898924       -24.4610
  39   2.0000      -0.870982       -23.7006
  40   2.0000      -0.797342       -21.6968
  41   2.0000      -0.782032       -21.2802
  42   2.0000      -0.772223       -21.0132
  43   2.0000      -0.770717       -20.9723
  44   2.0000      -0.765843       -20.8397
  45   2.0000      -0.755452       -20.5569
  46   2.0000      -0.741611       -20.1803
  47   2.0000      -0.720738       -19.6123
  48   2.0000      -0.703494       -19.1430
  49   2.0000      -0.683953       -18.6113
  50   2.0000      -0.668065       -18.1790
  51   2.0000      -0.663785       -18.0625
  52   2.0000      -0.652216       -17.7477
  53   2.0000      -0.638024       -17.3615
  54   2.0000      -0.628149       -17.0928
  55   2.0000      -0.621763       -16.9190
  56   2.0000      -0.618836       -16.8394
  57   2.0000      -0.610692       -16.6178
  58   2.0000      -0.600452       -16.3391
  59   2.0000      -0.593758       -16.1570
  60   2.0000      -0.590836       -16.0775
  61   2.0000      -0.589204       -16.0331
  62   2.0000      -0.578358       -15.7379
  63   2.0000      -0.574299       -15.6275
  64   2.0000      -0.563955       -15.3460
  65   2.0000      -0.561531       -15.2800
  66   2.0000      -0.558985       -15.2107
  67   2.0000      -0.544771       -14.8240
  68   2.0000      -0.542314       -14.7571
  69   2.0000      -0.535675       -14.5765
  70   2.0000      -0.531276       -14.4568
  71   2.0000      -0.518311       -14.1040
  72   2.0000      -0.512415       -13.9435
  73   2.0000      -0.505527       -13.7561
  74   2.0000      -0.502043       -13.6613
  75   2.0000      -0.491217       -13.3667
  76   2.0000      -0.473422       -12.8825
  77   2.0000      -0.454375       -12.3642
  78   2.0000      -0.441635       -12.0175
  79   2.0000      -0.417520       -11.3613
  80   2.0000      -0.412072       -11.2131
  81   2.0000      -0.390307       -10.6208
  82   0.0000      -0.200593        -5.4584
  83   0.0000      -0.143550        -3.9062
  84   0.0000      -0.116596        -3.1727
  85   0.0000      -0.086156        -2.3444
  86   0.0000      -0.077650        -2.1130

MULLIKEN ATOMIC CHARGES
-----------------------
   0 Ir:    0.615419
   1 C :   -0.273906
   2 C :   -0.240713
   3 C :   -0.287245
   4 C :   -0.210194
   5 C :   -0.150158
   6 N :   -0.436728
   7 C :   -0.126906
   8 C :   -0.676482
   9 H :    0.267916
  10 H :    0.224172
  11 H :    0.251388
  12 C :   -0.631772
  13 H :    0.274189
  14 H :    0.256536
  15 H :    0.233150
  16 H :    0.235095
  17 C :    0.072325
  18 C :   -0.125882
  19 H :    0.283648
  20 C :   -0.575120
  21 C :   -0.098126
  22 S :    0.345062
  23 C :   -0.420564
  24 H :    0.475697
  25 H :    0.267660
  26 H :    0.298299
  27 H :    0.282153
  28 H :    0.277561
  29 H :    0.291564
  30 O :   -0.484906
  31 O :   -0.492074
  32 C :    0.636095
  33 C :   -0.743531
  34 H :    0.275022
  35 H :    0.278299
  36 H :    0.265405
  37 H :    0.277398
  38 H :    0.290251
Sum of atomic charges:    1.0000000

LOEWDIN ATOMIC CHARGES
----------------------
   0 Ir:   -0.265035
   1 C :   -0.071441
   2 C :   -0.097856
   3 C :   -0.107389
   4 C :   -0.037463
   5 C :   -0.026989
   6 N :   -0.004768
   7 C :   -0.069253
   8 C :   -0.361218
   9 H :    0.155601
  10 H :    0.132660
  11 H :    0.142271
  12 C :   -0.344151
  13 H :    0.152109
  14 H :    0.149775
  15 H :    0.138292
  16 H :    0.133898
  17 C :    0.028153
  18 C :   -0.201662
  19 H :    0.159715
  20 C :   -0.207603
  21 C :   -0.135032
  22 S :    0.497704
  23 C :   -0.254346
  24 H :    0.381586
  25 H :    0.162514
  26 H :    0.169823
  27 H :    0.180571
  28 H :    0.176416
  29 H :    0.184024
  30 O :   -0.253594
  31 O :   -0.166815
  32 C :    0.170178
  33 C :   -0.370680
  34 H :    0.165584
  35 H :    0.173947
  36 H :    0.158284
  37 H :    0.179346
  38 H :    0.182845

  Mayer bond orders larger than 0.100000
B(  0-Ir,  1-C ) :   0.4789 B(  0-Ir,  2-C ) :   0.3388 B(  0-Ir,  3-C ) :   0.4795
B(  0-Ir,  4-C ) :   0.4096 B(  0-Ir,  5-C ) :   0.3250 B(  0-Ir,  6-N ) :   0.4659
B(  0-Ir, 20-C ) :   0.6101 B(  0-Ir, 31-O ) :   0.4927 B(  1-C ,  2-C ) :   1.1201
B(  1-C ,  4-C ) :   1.2054 B(  1-C , 27-H ) :   0.9113 B(  2-C ,  5-C ) :   1.2862
B(  2-C , 28-H ) :   0.9100 B(  3-C ,  4-C ) :   1.1637 B(  3-C ,  5-C ) :   1.1390
B(  3-C , 37-H ) :   0.9159 B(  4-C , 38-H ) :   0.8999 B(  5-C , 29-H ) :   0.9038
B(  6-N ,  7-C ) :   0.8970 B(  6-N , 17-C ) :   1.6374 B(  7-C ,  8-C ) :   0.9897
B(  7-C , 12-C ) :   0.9676 B(  7-C , 13-H ) :   0.8801 B(  8-C ,  9-H ) :   0.9053
B(  8-C , 10-H ) :   0.9133 B(  8-C , 11-H ) :   0.9135 B( 12-C , 14-H ) :   0.9082
B( 12-C , 15-H ) :   0.9151 B( 12-C , 16-H ) :   0.9120 B( 17-C , 18-C ) :   1.1267
B( 17-C , 19-H ) :   0.8770 B( 18-C , 20-C ) :   1.2161 B( 18-C , 22-S ) :   1.2267
B( 20-C , 21-C ) :   1.2514 B( 20-C , 24-H ) :   0.2698 B( 21-C , 23-C ) :   1.5277
B( 21-C , 25-H ) :   0.9020 B( 22-S , 23-C ) :   1.2283 B( 23-C , 26-H ) :   0.8918
B( 24-H , 30-O ) :   0.4064 B( 30-O , 32-C ) :   1.5049 B( 31-O , 32-C ) :   1.4290
B( 32-C , 33-C ) :   0.9447 B( 33-C , 34-H ) :   0.8987 B( 33-C , 35-H ) :   0.8911
B( 33-C , 36-H ) :   0.9068

Dispersion correction           -0.030747161
FINAL SINGLE POINT ENERGY     -1288.401534364469

DIPOLE MOMENT
-------------
                                X             Y             Z
Electronic contribution:     37.53946     -76.33311      67.50702
Nuclear contribution   :    -38.07878      76.18486     -67.68676
                        -----------------------------------------
Total Dipole Moment    :     -0.53932      -0.14825      -0.17974
                        -----------------------------------------
Magnitude (a.u.)       :      0.58750
Magnitude (Debye)      :      1.49331

Rotational constants in cm-1:     0.010607     0.008862     0.008255
Rotational constants in MHz :   317.975979   265.661925   247.491055

                             ****ORCA TERMINATED NORMALLY****
TOTAL RUN TIME: 0 days 4 hours 26 minutes 57 seconds 931 msec
