                         Program Version 5.0.3 -  RELEASE  -
|  1> ! Opt PBEh-3c
|  2> %geom Constraints
|  3> { B 0 20 2.2142857142857144 C }
|  4> { B 24 30 1.4857142857142858 C }
|  5>     end
|  6> end
|  7> %output
|  8> xyzfile=True
|  9> end
| 10> %scf
| 11> maxiter 250
| 12> end
| 13> %output
| 14> Print[P_Hirshfeld] = 1
| 15> end
| 16> % maxcore
| 17> 4000
| 18> *xyz 1 1
| 19> Ir   0.62418710  -0.70552926   0.41760779
| 20> C    0.08958354  -2.80776876   0.34124600
| 21> C    0.09383133  -2.34521581   1.70359091
| 22> C    2.22476831  -2.09972442   0.85175799
| 23> C    1.38375427  -2.64424584  -0.18889469
| 24> C    1.43249194  -1.94736801   2.00856751
| 25> N   -1.04567069   0.15610805  -0.52877619
| 26> C   -2.30739515   0.44969127   0.16768554
| 27> C   -3.09946760   1.58503072  -0.46179679
| 28> H   -3.91998440   1.85316496   0.20232233
| 29> H   -3.55049840   1.30955896  -1.41622914
| 30> H   -2.49008592   2.47796055  -0.60331000
| 31> C   -3.13549789  -0.82577887   0.27386208
| 32> H   -2.00567742   0.75321737   1.17106670
| 33> H   -4.03790075  -0.62955851   0.85099272
| 34> H   -3.44017739  -1.18333153  -0.71053656
| 35> H   -2.59276030  -1.62347511   0.77884773
| 36> C   -0.87978415   0.39132624  -1.77453261
| 37> C    0.45802031   0.17536408  -2.26540655
| 38> H   -1.67545611   0.76697545  -2.41053391
| 39> C    1.53382883   0.30360249  -1.38486246
| 40> C    2.74920828  -0.06152685  -2.04055893
| 41> S    0.91443035  -0.36908055  -3.80533418
| 42> C    2.56470260  -0.44267769  -3.33170480
| 43> H    1.52206504   1.24841204  -0.66554716
| 44> H    3.72431496   0.01044175  -1.58121337
| 45> H    3.31288875  -0.74055848  -4.05055509
| 46> H   -0.76574286  -3.19446145  -0.19399009
| 47> H   -0.73266567  -2.37549066   2.39763664
| 48> H    1.76259817  -1.52703720   2.94784911
| 49> O    1.36624758   2.46192576   0.20226929
| 50> O    0.53926000   0.94903243   1.61407944
| 51> C    0.93418642   2.13622570   1.30728328
| 52> C    0.86545005   3.13315314   2.43052400
| 53> H    0.83538507   4.14828537   2.04426794
| 54> H    1.76198677   3.03617675   3.04585945
| 55> H    0.00887273   2.95349516   3.07670616
| 56> H    3.27865782  -1.88042553   0.77156770
| 57> H    1.69741451  -2.89670378  -1.19106769
| 58> *
| 59>
| 60>                          ****END OF INPUT****
 Total Charge           Charge          ....    1
 Multiplicity           Mult            ....    1
 Number of Electrons    NEL             ....  164
Dispersion correction           -0.031096947
FINAL SINGLE POINT ENERGY     -1288.399887841999
Dispersion correction            ... done
Dispersion correction           -0.031023446
FINAL SINGLE POINT ENERGY     -1288.399911123299
Dispersion correction            ... done
Dispersion correction           -0.031031035
FINAL SINGLE POINT ENERGY     -1288.399521015913
Dispersion correction            ... done
FINAL SINGLE POINT ENERGY     -1288.400161538664
FINAL SINGLE POINT ENERGY     -1288.400186235435
FINAL SINGLE POINT ENERGY     -1288.400222590863
FINAL SINGLE POINT ENERGY     -1288.400231827943
FINAL SINGLE POINT ENERGY     -1288.400239448996
FINAL SINGLE POINT ENERGY     -1288.400250662880
FINAL SINGLE POINT ENERGY     -1288.400256745566
Dispersion correction            ... done
Dispersion correction           -0.030951631
FINAL SINGLE POINT ENERGY     -1288.400261881067
Dispersion correction            ... done
Dispersion correction           -0.030948121
FINAL SINGLE POINT ENERGY     -1288.400267201404
Dispersion correction            ... done
                    ***********************HURRAY********************

CARTESIAN COORDINATES (ANGSTROEM)
---------------------------------
  Ir     0.627323   -0.709102    0.418644
  C      0.099323   -2.815975    0.344125
  C      0.068543   -2.353401    1.705331
  C      2.219557   -2.098093    0.904057
  C      1.406724   -2.650391   -0.153621
  C      1.394837   -1.945536    2.039892
  N     -1.045590    0.146728   -0.526720
  C     -2.307059    0.427208    0.175873
  C     -3.094635    1.582388   -0.423321
  H     -3.914184    1.835869    0.247677
  H     -3.546386    1.333903   -1.384686
  H     -2.481618    2.476175   -0.541504
  C     -3.141179   -0.846996    0.246624
  H     -2.006127    0.703082    1.187408
  H     -4.041720   -0.664251    0.831126
  H     -3.449229   -1.173841   -0.747358
  H     -2.600767   -1.662030    0.725666
  C     -0.886579    0.397233   -1.771572
  C      0.446442    0.190259   -2.272279
  H     -1.687360    0.779853   -2.396742
  C      1.513357    0.245328   -1.372186
  C      2.731330   -0.089473   -2.040713
  S      0.911635   -0.253736   -3.840285
  C      2.555339   -0.379283   -3.356941
  H      1.524796    1.213404   -0.657583
  H      3.703096   -0.060725   -1.569675
  H      3.307669   -0.636720   -4.086951
  H     -0.740070   -3.209229   -0.211141
  H     -0.774517   -2.385656    2.378908
  H      1.699303   -1.520018    2.985559
  O      1.410164    2.437840    0.176061
  O      0.544495    0.960867    1.600884
  C      0.958981    2.135203    1.282583
  C      0.890539    3.155085    2.384512
  H      0.864884    4.162598    1.978476
  H      1.785648    3.067333    3.003247
  H      0.031677    2.990185    3.031404
  H      3.275553   -1.880881    0.852854
  H      1.745173   -2.906017   -1.146893

 Multiplicity           Mult            ....    1
 Number of Electrons    NEL             ....  164
 Basis Dimension        Dim             ....  358

ORBITAL ENERGIES
----------------

  NO   OCC          E(Eh)            E(eV)
   0   2.0000     -89.769684     -2442.7573
   1   2.0000     -19.622748      -533.9621
   2   2.0000     -19.594216      -533.1857
   3   2.0000     -14.840371      -403.8270
   4   2.0000     -10.680616      -290.6343
   5   2.0000     -10.660688      -290.0921
   6   2.0000     -10.635906      -289.4177
   7   2.0000     -10.630996      -289.2841
   8   2.0000     -10.629772      -289.2508
   9   2.0000     -10.625795      -289.1426
  10   2.0000     -10.622945      -289.0650
  11   2.0000     -10.621959      -289.0382
  12   2.0000     -10.614721      -288.8412
  13   2.0000     -10.613666      -288.8125
  14   2.0000     -10.591765      -288.2166
  15   2.0000     -10.589027      -288.1421
  16   2.0000     -10.555869      -287.2398
  17   2.0000     -10.551430      -287.1190
  18   2.0000     -10.534000      -286.6447
  19   2.0000      -8.409062      -228.8222
  20   2.0000      -6.298961      -171.4034
  21   2.0000      -6.295342      -171.3050
  22   2.0000      -6.294047      -171.2697
  23   2.0000      -4.024634      -109.5159
  24   2.0000      -2.342710       -63.7484
  25   2.0000      -2.309906       -62.8557
  26   2.0000      -2.308326       -62.8128
  27   2.0000      -1.306259       -35.5451
  28   2.0000      -1.213240       -33.0139
  29   2.0000      -1.208193       -32.8766
  30   2.0000      -1.166667       -31.7466
  31   2.0000      -1.132255       -30.8102
  32   2.0000      -1.027833       -27.9688
  33   2.0000      -0.980149       -26.6712
  34   2.0000      -0.973448       -26.4889
  35   2.0000      -0.971534       -26.4368
  36   2.0000      -0.963210       -26.2103
  37   2.0000      -0.927284       -25.2327
  38   2.0000      -0.902188       -24.5498
  39   2.0000      -0.876070       -23.8391
  40   2.0000      -0.801248       -21.8031
  41   2.0000      -0.785447       -21.3731
  42   2.0000      -0.782746       -21.2996
  43   2.0000      -0.781415       -21.2634
  44   2.0000      -0.767179       -20.8760
  45   2.0000      -0.754844       -20.5404
  46   2.0000      -0.743277       -20.2256
  47   2.0000      -0.724353       -19.7107
  48   2.0000      -0.691805       -18.8250
  49   2.0000      -0.675938       -18.3932
  50   2.0000      -0.665448       -18.1077
  51   2.0000      -0.649484       -17.6734
  52   2.0000      -0.646201       -17.5840
  53   2.0000      -0.636068       -17.3083
  54   2.0000      -0.633726       -17.2446
  55   2.0000      -0.628618       -17.1056
  56   2.0000      -0.622776       -16.9466
  57   2.0000      -0.614241       -16.7144
  58   2.0000      -0.602889       -16.4054
  59   2.0000      -0.602433       -16.3930
  60   2.0000      -0.601312       -16.3625
  61   2.0000      -0.592516       -16.1232
  62   2.0000      -0.582170       -15.8417
  63   2.0000      -0.574238       -15.6258
  64   2.0000      -0.564573       -15.3628
  65   2.0000      -0.556998       -15.1567
  66   2.0000      -0.551589       -15.0095
  67   2.0000      -0.548338       -14.9210
  68   2.0000      -0.540970       -14.7205
  69   2.0000      -0.536711       -14.6046
  70   2.0000      -0.528194       -14.3729
  71   2.0000      -0.519187       -14.1278
  72   2.0000      -0.515096       -14.0165
  73   2.0000      -0.500070       -13.6076
  74   2.0000      -0.487187       -13.2570
  75   2.0000      -0.482187       -13.1210
  76   2.0000      -0.476814       -12.9748
  77   2.0000      -0.444661       -12.0999
  78   2.0000      -0.443073       -12.0566
  79   2.0000      -0.424263       -11.5448
  80   2.0000      -0.416219       -11.3259
  81   2.0000      -0.398658       -10.8480
  82   0.0000      -0.208674        -5.6783
  83   0.0000      -0.147578        -4.0158
  84   0.0000      -0.141816        -3.8590
  85   0.0000      -0.094672        -2.5762
  86   0.0000      -0.077498        -2.1088

MULLIKEN ATOMIC CHARGES
-----------------------
   0 Ir:    0.605352
   1 C :   -0.217955
   2 C :   -0.272360
   3 C :   -0.251353
   4 C :   -0.242203
   5 C :   -0.160521
   6 N :   -0.424913
   7 C :   -0.126991
   8 C :   -0.686424
   9 H :    0.270854
  10 H :    0.223979
  11 H :    0.259914
  12 C :   -0.635239
  13 H :    0.284083
  14 H :    0.262501
  15 H :    0.230988
  16 H :    0.232860
  17 C :    0.072716
  18 C :   -0.141502
  19 H :    0.290031
  20 C :   -0.536887
  21 C :   -0.101578
  22 S :    0.331561
  23 C :   -0.434288
  24 H :    0.484720
  25 H :    0.268921
  26 H :    0.299694
  27 H :    0.287709
  28 H :    0.287470
  29 H :    0.303504
  30 O :   -0.470807
  31 O :   -0.533029
  32 C :    0.615632
  33 C :   -0.743864
  34 H :    0.269081
  35 H :    0.266808
  36 H :    0.253216
  37 H :    0.286484
  38 H :    0.291837
Sum of atomic charges:    1.0000000

LOEWDIN ATOMIC CHARGES
----------------------
   0 Ir:   -0.248437
   1 C :   -0.044626
   2 C :   -0.082735
   3 C :   -0.072676
   4 C :   -0.055817
   5 C :   -0.017938
   6 N :    0.002225
   7 C :   -0.070203
   8 C :   -0.363211
   9 H :    0.157013
  10 H :    0.132849
  11 H :    0.146414
  12 C :   -0.343365
  13 H :    0.157365
  14 H :    0.152409
  15 H :    0.137168
  16 H :    0.133735
  17 C :    0.030917
  18 C :   -0.170433
  19 H :    0.162668
  20 C :   -0.208636
  21 C :   -0.120419
  22 S :    0.495885
  23 C :   -0.262640
  24 H :    0.311747
  25 H :    0.164135
  26 H :    0.169591
  27 H :    0.183052
  28 H :    0.182984
  29 H :    0.191684
  30 O :   -0.270095
  31 O :   -0.203872
  32 C :    0.150500
  33 C :   -0.375295
  34 H :    0.159551
  35 H :    0.167295
  36 H :    0.153343
  37 H :    0.183637
  38 H :    0.184233

  Mayer bond orders larger than 0.100000
B(  0-Ir,  1-C ) :   0.4160 B(  0-Ir,  2-C ) :   0.4656 B(  0-Ir,  3-C ) :   0.4612
B(  0-Ir,  4-C ) :   0.4393 B(  0-Ir,  5-C ) :   0.3938 B(  0-Ir,  6-N ) :   0.4616
B(  0-Ir, 20-C ) :   0.3715 B(  0-Ir, 31-O ) :   0.5663 B(  1-C ,  2-C ) :   1.1299
B(  1-C ,  4-C ) :   1.2429 B(  1-C , 27-H ) :   0.9053 B(  2-C ,  5-C ) :   1.1610
B(  2-C , 28-H ) :   0.9095 B(  3-C ,  4-C ) :   1.1140 B(  3-C ,  5-C ) :   1.2151
B(  3-C , 37-H ) :   0.9094 B(  4-C , 38-H ) :   0.9008 B(  5-C , 29-H ) :   0.8990
B(  6-N ,  7-C ) :   0.8927 B(  6-N , 17-C ) :   1.6713 B(  7-C ,  8-C ) :   0.9907
B(  7-C , 12-C ) :   0.9671 B(  7-C , 13-H ) :   0.8720 B(  8-C ,  9-H ) :   0.9041
B(  8-C , 10-H ) :   0.9132 B(  8-C , 11-H ) :   0.9091 B( 12-C , 14-H ) :   0.9069
B( 12-C , 15-H ) :   0.9156 B( 12-C , 16-H ) :   0.9120 B( 17-C , 18-C ) :   1.0803
B( 17-C , 19-H ) :   0.8755 B( 18-C , 20-C ) :   1.2422 B( 18-C , 22-S ) :   1.2607
B( 20-C , 21-C ) :   1.2506 B( 20-C , 24-H ) :   0.4516 B( 21-C , 23-C ) :   1.5576
B( 21-C , 25-H ) :   0.9027 B( 22-S , 23-C ) :   1.2004 B( 23-C , 26-H ) :   0.8910
B( 24-H , 30-O ) :   0.2636 B( 30-O , 32-C ) :   1.6806 B( 31-O , 32-C ) :   1.2926
B( 32-C , 33-C ) :   0.9440 B( 33-C , 34-H ) :   0.9049 B( 33-C , 35-H ) :   0.8985
B( 33-C , 36-H ) :   0.9094

Dispersion correction           -0.030946089
FINAL SINGLE POINT ENERGY     -1288.400270407896

DIPOLE MOMENT
-------------
                                X             Y             Z
Electronic contribution:     39.03364     -68.38185      70.25174
Nuclear contribution   :    -39.65878      67.33777     -70.72291
                        -----------------------------------------
Total Dipole Moment    :     -0.62513      -1.04408      -0.47116
                        -----------------------------------------
Magnitude (a.u.)       :      1.30495
Magnitude (Debye)      :      3.31692

Rotational constants in cm-1:     0.010624     0.009163     0.008227
Rotational constants in MHz :   318.500699   274.707362   246.652154

                             ****ORCA TERMINATED NORMALLY****
TOTAL RUN TIME: 0 days 1 hours 36 minutes 12 seconds 632 msec
