                         Program Version 5.0.3 -  RELEASE  -
|  1> ! Opt PBEh-3c
|  2> %geom Constraints
|  3> { B 0 20 2.0 C }
|  4> { B 24 30 1.4714285714285715 C }
|  5>     end
|  6> end
|  7> %output
|  8> xyzfile=True
|  9> end
| 10> %scf
| 11> maxiter 250
| 12> end
| 13> %output
| 14> Print[P_Hirshfeld] = 1
| 15> end
| 16> % maxcore
| 17> 4000
| 18> *xyz 1 1
| 19> Ir   0.63018158  -0.71888206   0.38740878
| 20> C    0.16336639  -2.84380384   0.31279172
| 21> C   -0.03668385  -2.39941604   1.66773312
| 22> C    2.18251861  -2.05659337   1.11308043
| 23> C    1.52287265  -2.65165051  -0.01671523
| 24> C    1.21047076  -1.93555983   2.14499186
| 25> N   -1.06803246   0.13190584  -0.51775806
| 26> C   -2.32772110   0.34792338   0.20769024
| 27> C   -3.12731383   1.54209761  -0.29303445
| 28> H   -3.94902364   1.72897385   0.39652615
| 29> H   -3.57605138   1.37083329  -1.27248947
| 30> H   -2.52364327   2.44895390  -0.33573122
| 31> C   -3.15463354  -0.93299666   0.16873198
| 32> H   -2.02905507   0.54356351   1.23857745
| 33> H   -4.04946968  -0.81406209   0.77822067
| 34> H   -3.47217259  -1.16521898  -0.84857409
| 35> H   -2.60387433  -1.78795390   0.55725029
| 36> C   -0.92435027   0.47480995  -1.74489560
| 37> C    0.39347712   0.27544392  -2.26821221
| 38> H   -1.72833476   0.91260212  -2.32701573
| 39> C    1.41715267   0.04924609  -1.33419540
| 40> C    2.64064852  -0.21696641  -2.03888363
| 41> S    0.89888572   0.17969231  -3.87795499
| 42> C    2.50576630  -0.17616575  -3.39012778
| 43> H    1.59429773   1.11046409  -0.69917694
| 44> H    3.59257733  -0.36731277  -1.55021576
| 45> H    3.27307175  -0.31133040  -4.13717135
| 46> H   -0.58478065  -3.28163482  -0.33177343
| 47> H   -0.95238886  -2.45354767   2.23630431
| 48> H    1.38336394  -1.49175426   3.11526180
| 49> O    1.67027000   2.36262772   0.09685158
| 50> O    0.57803526   1.01882318   1.49735768
| 51> C    1.10217226   2.13915027   1.17466213
| 52> C    1.02931724   3.22358018   2.21239091
| 53> H    0.98305390   4.20274841   1.74241009
| 54> H    1.93727528   3.19318961   2.81725426
| 55> H    0.18098596   3.08664059   2.87793788
| 56> H    3.23394210  -1.83075510   1.20093301
| 57> H    1.98319629  -2.90847536  -0.95970088
| 58> *
| 59>
| 60>                          ****END OF INPUT****
 Total Charge           Charge          ....    1
 Multiplicity           Mult            ....    1
 Number of Electrons    NEL             ....  164
Dispersion correction           -0.030988715
FINAL SINGLE POINT ENERGY     -1288.392584393536
Dispersion correction            ... done
Dispersion correction           -0.030941453
FINAL SINGLE POINT ENERGY     -1288.392696876254
Dispersion correction            ... done
Dispersion correction           -0.030950243
FINAL SINGLE POINT ENERGY     -1288.391958657052
Dispersion correction            ... done
FINAL SINGLE POINT ENERGY     -1288.392920705240
FINAL SINGLE POINT ENERGY     -1288.392950586139
FINAL SINGLE POINT ENERGY     -1288.392990262912
FINAL SINGLE POINT ENERGY     -1288.393017620994
FINAL SINGLE POINT ENERGY     -1288.393027190501
FINAL SINGLE POINT ENERGY     -1288.393030628885
FINAL SINGLE POINT ENERGY     -1288.393032089783
FINAL SINGLE POINT ENERGY     -1288.393031572662
FINAL SINGLE POINT ENERGY     -1288.393031177396
FINAL SINGLE POINT ENERGY     -1288.393033345283
FINAL SINGLE POINT ENERGY     -1288.393038394820
Dispersion correction            ... done
Dispersion correction           -0.030890372
FINAL SINGLE POINT ENERGY     -1288.393041758169
Dispersion correction            ... done
Dispersion correction           -0.030891805
FINAL SINGLE POINT ENERGY     -1288.393043415445
Dispersion correction            ... done
                    ***********************HURRAY********************

CARTESIAN COORDINATES (ANGSTROEM)
---------------------------------
  Ir     0.630767   -0.727538    0.376954
  C      0.182564   -2.855224    0.302257
  C     -0.059182   -2.426768    1.656719
  C      2.168417   -2.049509    1.163773
  C      1.552275   -2.653119    0.017377
  C      1.161953   -1.948963    2.170455
  N     -1.073331    0.122794   -0.514344
  C     -2.330208    0.328097    0.218385
  C     -3.121126    1.541675   -0.248036
  H     -3.942067    1.714290    0.446096
  H     -3.569841    1.403063   -1.232639
  H     -2.510344    2.444645   -0.263809
  C     -3.165197   -0.946194    0.146130
  H     -2.029265    0.493958    1.253879
  H     -4.055984   -0.840989    0.764032
  H     -3.489379   -1.146017   -0.875951
  H     -2.616335   -1.815423    0.504663
  C     -0.934603    0.481106   -1.738269
  C      0.381263    0.282807   -2.263970
  H     -1.739241    0.929044   -2.311397
  C      1.388885    0.005733   -1.322331
  C      2.621264   -0.236872   -2.025486
  S      0.910259    0.267840   -3.868071
  C      2.506616   -0.125650   -3.374386
  H      1.585475    1.119981   -0.742891
  H      3.565211   -0.420746   -1.532594
  H      3.284547   -0.229051   -4.115520
  H     -0.539058   -3.305668   -0.363401
  H     -0.991982   -2.490238    2.195630
  H      1.300056   -1.506409    3.146778
  O      1.659095    2.366845    0.034935
  O      0.606595    1.026424    1.469726
  C      1.115727    2.144428    1.129201
  C      1.064141    3.238901    2.157373
  H      0.987573    4.212609    1.680029
  H      1.993338    3.227709    2.729845
  H      0.241356    3.096350    2.852896
  H      3.215097   -1.818539    1.287431
  H      2.044036   -2.906193   -0.910726

 Multiplicity           Mult            ....    1
 Number of Electrons    NEL             ....  164
 Basis Dimension        Dim             ....  358

ORBITAL ENERGIES
----------------

  NO   OCC          E(Eh)            E(eV)
   0   2.0000     -89.771335     -2442.8022
   1   2.0000     -19.629867      -534.1558
   2   2.0000     -19.613856      -533.7201
   3   2.0000     -14.837711      -403.7546
   4   2.0000     -10.690519      -290.9038
   5   2.0000     -10.656731      -289.9844
   6   2.0000     -10.633619      -289.3555
   7   2.0000     -10.622200      -289.0448
   8   2.0000     -10.621508      -289.0259
   9   2.0000     -10.620037      -288.9859
  10   2.0000     -10.614535      -288.8362
  11   2.0000     -10.613847      -288.8175
  12   2.0000     -10.612043      -288.7684
  13   2.0000     -10.609312      -288.6941
  14   2.0000     -10.595350      -288.3141
  15   2.0000     -10.592702      -288.2421
  16   2.0000     -10.554035      -287.1899
  17   2.0000     -10.551332      -287.1164
  18   2.0000     -10.540818      -286.8302
  19   2.0000      -8.410646      -228.8653
  20   2.0000      -6.300481      -171.4448
  21   2.0000      -6.296913      -171.3477
  22   2.0000      -6.295702      -171.3148
  23   2.0000      -4.018772      -109.3563
  24   2.0000      -2.335554       -63.5536
  25   2.0000      -2.306378       -62.7597
  26   2.0000      -2.302223       -62.6467
  27   2.0000      -1.316920       -35.8352
  28   2.0000      -1.219132       -33.1743
  29   2.0000      -1.210715       -32.9452
  30   2.0000      -1.157205       -31.4892
  31   2.0000      -1.133445       -30.8426
  32   2.0000      -1.027625       -27.9631
  33   2.0000      -0.976781       -26.5796
  34   2.0000      -0.970286       -26.4028
  35   2.0000      -0.965342       -26.2683
  36   2.0000      -0.960323       -26.1317
  37   2.0000      -0.934368       -25.4254
  38   2.0000      -0.901155       -24.5217
  39   2.0000      -0.875908       -23.8347
  40   2.0000      -0.802146       -21.8275
  41   2.0000      -0.786073       -21.3901
  42   2.0000      -0.774359       -21.0714
  43   2.0000      -0.773281       -21.0420
  44   2.0000      -0.759054       -20.6549
  45   2.0000      -0.755238       -20.5511
  46   2.0000      -0.745045       -20.2737
  47   2.0000      -0.722794       -19.6682
  48   2.0000      -0.692683       -18.8489
  49   2.0000      -0.685275       -18.6473
  50   2.0000      -0.665267       -18.1028
  51   2.0000      -0.655025       -17.8241
  52   2.0000      -0.646812       -17.6006
  53   2.0000      -0.635850       -17.3024
  54   2.0000      -0.630249       -17.1499
  55   2.0000      -0.624276       -16.9874
  56   2.0000      -0.622155       -16.9297
  57   2.0000      -0.614784       -16.7291
  58   2.0000      -0.604301       -16.4439
  59   2.0000      -0.596174       -16.2227
  60   2.0000      -0.593766       -16.1572
  61   2.0000      -0.592104       -16.1120
  62   2.0000      -0.582046       -15.8383
  63   2.0000      -0.571740       -15.5578
  64   2.0000      -0.564176       -15.3520
  65   2.0000      -0.563993       -15.3470
  66   2.0000      -0.552722       -15.0403
  67   2.0000      -0.547392       -14.8953
  68   2.0000      -0.542087       -14.7509
  69   2.0000      -0.536654       -14.6031
  70   2.0000      -0.531880       -14.4732
  71   2.0000      -0.519076       -14.1248
  72   2.0000      -0.513626       -13.9765
  73   2.0000      -0.498676       -13.5697
  74   2.0000      -0.493257       -13.4222
  75   2.0000      -0.489526       -13.3207
  76   2.0000      -0.475327       -12.9343
  77   2.0000      -0.450324       -12.2539
  78   2.0000      -0.441351       -12.0098
  79   2.0000      -0.422796       -11.5049
  80   2.0000      -0.412446       -11.2232
  81   2.0000      -0.391676       -10.6580
  82   0.0000      -0.212288        -5.7767
  83   0.0000      -0.144102        -3.9212
  84   0.0000      -0.124145        -3.3782
  85   0.0000      -0.090253        -2.4559
  86   0.0000      -0.078193        -2.1277

MULLIKEN ATOMIC CHARGES
-----------------------
   0 Ir:    0.619017
   1 C :   -0.253459
   2 C :   -0.248654
   3 C :   -0.281091
   4 C :   -0.220321
   5 C :   -0.148482
   6 N :   -0.426922
   7 C :   -0.128722
   8 C :   -0.681066
   9 H :    0.269866
  10 H :    0.223903
  11 H :    0.255002
  12 C :   -0.633255
  13 H :    0.281473
  14 H :    0.259288
  15 H :    0.232590
  16 H :    0.235376
  17 C :    0.070846
  18 C :   -0.112220
  19 H :    0.287317
  20 C :   -0.616283
  21 C :   -0.077490
  22 S :    0.353309
  23 C :   -0.428165
  24 H :    0.467849
  25 H :    0.271976
  26 H :    0.300191
  27 H :    0.282895
  28 H :    0.279590
  29 H :    0.296275
  30 O :   -0.467499
  31 O :   -0.515082
  32 C :    0.623729
  33 C :   -0.743032
  34 H :    0.270677
  35 H :    0.272751
  36 H :    0.257950
  37 H :    0.279208
  38 H :    0.290666
Sum of atomic charges:    1.0000000

LOEWDIN ATOMIC CHARGES
----------------------
   0 Ir:   -0.259616
   1 C :   -0.063967
   2 C :   -0.099633
   3 C :   -0.102198
   4 C :   -0.043367
   5 C :   -0.019470
   6 N :    0.005785
   7 C :   -0.070010
   8 C :   -0.362043
   9 H :    0.156599
  10 H :    0.132737
  11 H :    0.143994
  12 C :   -0.343371
  13 H :    0.155901
  14 H :    0.151078
  15 H :    0.137978
  16 H :    0.134204
  17 C :    0.025578
  18 C :   -0.176376
  19 H :    0.161763
  20 C :   -0.220942
  21 C :   -0.116962
  22 S :    0.511036
  23 C :   -0.257855
  24 H :    0.354241
  25 H :    0.164914
  26 H :    0.170725
  27 H :    0.180787
  28 H :    0.177815
  29 H :    0.186885
  30 O :   -0.261400
  31 O :   -0.188663
  32 C :    0.156504
  33 C :   -0.372932
  34 H :    0.162020
  35 H :    0.170603
  36 H :    0.154655
  37 H :    0.180346
  38 H :    0.182657

  Mayer bond orders larger than 0.100000
B(  0-Ir,  1-C ) :   0.4516 B(  0-Ir,  2-C ) :   0.3659 B(  0-Ir,  3-C ) :   0.4725
B(  0-Ir,  4-C ) :   0.4128 B(  0-Ir,  5-C ) :   0.3439 B(  0-Ir,  6-N ) :   0.4622
B(  0-Ir, 20-C ) :   0.5606 B(  0-Ir, 31-O ) :   0.5302 B(  1-C ,  2-C ) :   1.1244
B(  1-C ,  4-C ) :   1.2232 B(  1-C , 27-H ) :   0.9099 B(  2-C ,  5-C ) :   1.2473
B(  2-C , 28-H ) :   0.9101 B(  3-C ,  4-C ) :   1.1453 B(  3-C ,  5-C ) :   1.1603
B(  3-C , 37-H ) :   0.9151 B(  4-C , 38-H ) :   0.8990 B(  5-C , 29-H ) :   0.9020
B(  6-N ,  7-C ) :   0.8958 B(  6-N , 17-C ) :   1.6470 B(  7-C ,  8-C ) :   0.9901
B(  7-C , 12-C ) :   0.9657 B(  7-C , 13-H ) :   0.8751 B(  8-C ,  9-H ) :   0.9045
B(  8-C , 10-H ) :   0.9132 B(  8-C , 11-H ) :   0.9116 B( 12-C , 14-H ) :   0.9075
B( 12-C , 15-H ) :   0.9151 B( 12-C , 16-H ) :   0.9112 B( 17-C , 18-C ) :   1.1128
B( 17-C , 19-H ) :   0.8764 B( 18-C , 20-C ) :   1.1883 B( 18-C , 22-S ) :   1.2659
B( 20-C , 21-C ) :   1.2288 B( 20-C , 24-H ) :   0.3814 B( 21-C , 23-C ) :   1.5575
B( 21-C , 25-H ) :   0.8998 B( 22-S , 23-C ) :   1.2043 B( 23-C , 26-H ) :   0.8910
B( 24-H , 30-O ) :   0.3174 B( 30-O , 32-C ) :   1.6147 B( 31-O , 32-C ) :   1.3498
B( 32-C , 33-C ) :   0.9418 B( 33-C , 34-H ) :   0.9024 B( 33-C , 35-H ) :   0.8951
B( 33-C , 36-H ) :   0.9085

Dispersion correction           -0.030893166
FINAL SINGLE POINT ENERGY     -1288.393043149055

DIPOLE MOMENT
-------------
                                X             Y             Z
Electronic contribution:     39.10763     -73.24010      66.66270
Nuclear contribution   :    -39.75075      72.69824     -67.12718
                        -----------------------------------------
Total Dipole Moment    :     -0.64312      -0.54186      -0.46448
                        -----------------------------------------
Magnitude (a.u.)       :      0.96071
Magnitude (Debye)      :      2.44192

Rotational constants in cm-1:     0.010524     0.009093     0.008278
Rotational constants in MHz :   315.498681   272.604461   248.163876

                             ****ORCA TERMINATED NORMALLY****
TOTAL RUN TIME: 0 days 2 hours 2 minutes 6 seconds 102 msec
