                         Program Version 5.0.3 -  RELEASE  -
|  1> ! Opt PBEh-3c
|  2> %geom Constraints
|  3> { B 0 20 2.4714285714285715 C }
|  4> { B 24 30 1.4714285714285715 C }
|  5>     end
|  6> end
|  7> %output
|  8> xyzfile=True
|  9> end
| 10> %scf
| 11> maxiter 250
| 12> end
| 13> %output
| 14> Print[P_Hirshfeld] = 1
| 15> end
| 16> % maxcore
| 17> 4000
| 18> *xyz 1 1
| 19> Ir   0.59048452  -0.72137999   0.44510878
| 20> C    0.03440189  -2.80295871   0.33103679
| 21> C    0.12728404  -2.35359358   1.69959498
| 22> C    2.20417381  -2.13505165   0.73196369
| 23> C    1.29447711  -2.64192179  -0.27097322
| 24> C    1.49708946  -1.99804688   1.93887342
| 25> N   -1.04331029   0.18233216  -0.52225531
| 26> C   -2.31017331   0.52346189   0.14253519
| 27> C   -3.13456896   1.55380870  -0.61144923
| 28> H   -3.96532640   1.86828985   0.01866977
| 29> H   -3.57324051   1.15814441  -1.52902525
| 30> H   -2.55639615   2.44651416  -0.85229142
| 31> C   -3.10627579  -0.74838436   0.40756814
| 32> H   -2.01126325   0.95276057   1.10032644
| 33> H   -4.01613408  -0.50145922   0.95243993
| 34> H   -3.39832568  -1.23498202  -0.52402105
| 35> H   -2.55090823  -1.46172366   1.01484439
| 36> C   -0.83348036   0.38901093  -1.76319279
| 37> C    0.52018216   0.14750129  -2.22165260
| 38> H   -1.60378782   0.75909721  -2.43365263
| 39> C    1.62787173   0.52946962  -1.47344163
| 40> C    2.82919570   0.09148671  -2.10340324
| 41> S    0.93865983  -0.68166174  -3.65453962
| 42> C    2.61001885  -0.56517347  -3.27249765
| 43> H    1.54883558   1.39609914  -0.70302320
| 44> H    3.81728111   0.30619931  -1.72312573
| 45> H    3.34279781  -0.97221904  -3.95273177
| 46> H   -0.85983318  -3.16333589  -0.15685071
| 47> H   -0.65589518  -2.38669017   2.44280668
| 48> H    1.89178615  -1.60661299   2.86547341
| 49> O    1.27092598   2.47693203   0.27774866
| 50> O    0.53842477   0.89417274   1.66984227
| 51> C    0.88575684   2.10812509   1.38123487
| 52> C    0.81235747   3.06180078   2.54180971
| 53> H    0.75594822   4.08848211   2.19043625
| 54> H    1.71830212   2.96350813   3.14302647
| 55> H   -0.03133592   2.84403103   3.19355258
| 56> H    3.24781236  -1.90393551   0.57819814
| 57> H    1.54555760  -2.86290721  -1.29822346
| 58> *
| 59>
| 60>                          ****END OF INPUT****
 Total Charge           Charge          ....    1
 Multiplicity           Mult            ....    1
 Number of Electrons    NEL             ....  164
Dispersion correction           -0.031070737
FINAL SINGLE POINT ENERGY     -1288.398776249081
Dispersion correction            ... done
Dispersion correction           -0.031050386
FINAL SINGLE POINT ENERGY     -1288.397843240064
Dispersion correction            ... done
Dispersion correction           -0.030995434
FINAL SINGLE POINT ENERGY     -1288.398879525907
Dispersion correction            ... done
FINAL SINGLE POINT ENERGY     -1288.398015727728
FINAL SINGLE POINT ENERGY     -1288.398934101626
FINAL SINGLE POINT ENERGY     -1288.398945131558
FINAL SINGLE POINT ENERGY     -1288.398957970517
FINAL SINGLE POINT ENERGY     -1288.398963784418
FINAL SINGLE POINT ENERGY     -1288.398971918807
FINAL SINGLE POINT ENERGY     -1288.398980698317
Dispersion correction            ... done
Dispersion correction           -0.030943665
FINAL SINGLE POINT ENERGY     -1288.398981974511
Dispersion correction            ... done
Dispersion correction           -0.030940461
FINAL SINGLE POINT ENERGY     -1288.398983598247
Dispersion correction            ... done
                    ***********************HURRAY********************

CARTESIAN COORDINATES (ANGSTROEM)
---------------------------------
  Ir     0.595300   -0.717199    0.447652
  C      0.044671   -2.802013    0.340015
  C      0.121557   -2.348958    1.707557
  C      2.208677   -2.126410    0.760370
  C      1.310647   -2.639763   -0.249754
  C      1.486831   -1.986340    1.958835
  N     -1.045434    0.171772   -0.521429
  C     -2.314050    0.499379    0.147409
  C     -3.123060    1.565306   -0.573656
  H     -3.950674    1.870828    0.065041
  H     -3.565805    1.207278   -1.504571
  H     -2.530638    2.456259   -0.784140
  C     -3.122052   -0.775111    0.359236
  H     -2.018890    0.890318    1.122470
  H     -4.033265   -0.542359    0.908126
  H     -3.411647   -1.223823   -0.591879
  H     -2.574684   -1.515377    0.941113
  C     -0.846724    0.378432   -1.765041
  C      0.504094    0.149739   -2.232010
  H     -1.626398    0.740356   -2.429113
  C      1.606690    0.491439   -1.456092
  C      2.811028    0.070108   -2.091391
  S      0.930488   -0.627981   -3.689040
  C      2.598403   -0.539612   -3.287193
  H      1.536713    1.372431   -0.686535
  H      3.797201    0.263488   -1.694993
  H      3.334461   -0.924654   -3.976644
  H     -0.842824   -3.166976   -0.156702
  H     -0.669649   -2.381519    2.442125
  H      1.870507   -1.590240    2.888083
  O      1.299202    2.471778    0.262215
  O      0.535621    0.910880    1.661360
  C      0.900724    2.116253    1.366984
  C      0.835680    3.081587    2.517892
  H      0.788603    4.105541    2.157348
  H      1.740971    2.980558    3.119705
  H     -0.009882    2.876783    3.171292
  H      3.254357   -1.896913    0.619146
  H      1.572620   -2.866075   -1.273048

 Multiplicity           Mult            ....    1
 Number of Electrons    NEL             ....  164
 Basis Dimension        Dim             ....  358

ORBITAL ENERGIES
----------------

  NO   OCC          E(Eh)            E(eV)
   0   2.0000     -89.763980     -2442.6021
   1   2.0000     -19.620622      -533.9043
   2   2.0000     -19.582736      -532.8733
   3   2.0000     -14.842322      -403.8801
   4   2.0000     -10.676728      -290.5285
   5   2.0000     -10.663368      -290.1650
   6   2.0000     -10.638006      -289.4749
   7   2.0000     -10.635150      -289.3972
   8   2.0000     -10.634517      -289.3799
   9   2.0000     -10.634018      -289.3663
  10   2.0000     -10.632059      -289.3130
  11   2.0000     -10.631331      -289.2932
  12   2.0000     -10.616577      -288.8918
  13   2.0000     -10.611284      -288.7477
  14   2.0000     -10.585782      -288.0538
  15   2.0000     -10.584227      -288.0115
  16   2.0000     -10.557613      -287.2873
  17   2.0000     -10.552384      -287.1450
  18   2.0000     -10.530462      -286.5484
  19   2.0000      -8.403288      -228.6651
  20   2.0000      -6.293362      -171.2511
  21   2.0000      -6.289704      -171.1515
  22   2.0000      -6.288024      -171.1058
  23   2.0000      -4.030513      -109.6758
  24   2.0000      -2.349609       -63.9361
  25   2.0000      -2.315453       -63.0067
  26   2.0000      -2.314104       -62.9700
  27   2.0000      -1.300606       -35.3913
  28   2.0000      -1.214988       -33.0615
  29   2.0000      -1.204246       -32.7692
  30   2.0000      -1.174087       -31.9485
  31   2.0000      -1.128423       -30.7060
  32   2.0000      -1.028146       -27.9773
  33   2.0000      -0.988894       -26.9092
  34   2.0000      -0.979133       -26.6436
  35   2.0000      -0.967239       -26.3199
  36   2.0000      -0.961431       -26.1619
  37   2.0000      -0.923795       -25.1377
  38   2.0000      -0.903967       -24.5982
  39   2.0000      -0.875127       -23.8134
  40   2.0000      -0.798823       -21.7371
  41   2.0000      -0.790076       -21.4991
  42   2.0000      -0.788458       -21.4550
  43   2.0000      -0.782401       -21.2902
  44   2.0000      -0.773673       -21.0527
  45   2.0000      -0.754942       -20.5430
  46   2.0000      -0.744129       -20.2488
  47   2.0000      -0.723326       -19.6827
  48   2.0000      -0.694577       -18.9004
  49   2.0000      -0.671750       -18.2792
  50   2.0000      -0.665517       -18.1096
  51   2.0000      -0.651866       -17.7382
  52   2.0000      -0.647533       -17.6203
  53   2.0000      -0.640730       -17.4351
  54   2.0000      -0.635469       -17.2920
  55   2.0000      -0.627160       -17.0659
  56   2.0000      -0.623757       -16.9733
  57   2.0000      -0.612834       -16.6761
  58   2.0000      -0.609650       -16.5894
  59   2.0000      -0.608730       -16.5644
  60   2.0000      -0.598436       -16.2843
  61   2.0000      -0.589702       -16.0466
  62   2.0000      -0.579243       -15.7620
  63   2.0000      -0.573062       -15.5938
  64   2.0000      -0.564610       -15.3638
  65   2.0000      -0.553584       -15.0638
  66   2.0000      -0.552522       -15.0349
  67   2.0000      -0.548574       -14.9275
  68   2.0000      -0.539064       -14.6687
  69   2.0000      -0.535710       -14.5774
  70   2.0000      -0.528178       -14.3724
  71   2.0000      -0.521536       -14.1917
  72   2.0000      -0.516334       -14.0502
  73   2.0000      -0.505839       -13.7646
  74   2.0000      -0.487521       -13.2661
  75   2.0000      -0.481505       -13.1024
  76   2.0000      -0.466822       -12.7029
  77   2.0000      -0.448798       -12.2124
  78   2.0000      -0.440392       -11.9837
  79   2.0000      -0.424785       -11.5590
  80   2.0000      -0.417080       -11.3493
  81   2.0000      -0.404392       -11.0041
  82   0.0000      -0.201604        -5.4859
  83   0.0000      -0.164412        -4.4739
  84   0.0000      -0.142248        -3.8708
  85   0.0000      -0.102570        -2.7911
  86   0.0000      -0.077539        -2.1099

MULLIKEN ATOMIC CHARGES
-----------------------
   0 Ir:    0.616882
   1 C :   -0.208639
   2 C :   -0.292977
   3 C :   -0.233869
   4 C :   -0.246468
   5 C :   -0.163985
   6 N :   -0.422647
   7 C :   -0.119033
   8 C :   -0.694072
   9 H :    0.273098
  10 H :    0.225512
  11 H :    0.261542
  12 C :   -0.639056
  13 H :    0.282493
  14 H :    0.265190
  15 H :    0.230816
  16 H :    0.232946
  17 C :    0.069102
  18 C :   -0.205708
  19 H :    0.293290
  20 C :   -0.430427
  21 C :   -0.131461
  22 S :    0.299130
  23 C :   -0.431485
  24 H :    0.496102
  25 H :    0.268710
  26 H :    0.298095
  27 H :    0.292074
  28 H :    0.293486
  29 H :    0.307386
  30 O :   -0.476614
  31 O :   -0.545321
  32 C :    0.609874
  33 C :   -0.745519
  34 H :    0.268019
  35 H :    0.264288
  36 H :    0.250517
  37 H :    0.294384
  38 H :    0.294348
Sum of atomic charges:    1.0000000

LOEWDIN ATOMIC CHARGES
----------------------
   0 Ir:   -0.218476
   1 C :   -0.039262
   2 C :   -0.059425
   3 C :   -0.050493
   4 C :   -0.056833
   5 C :   -0.024104
   6 N :   -0.002946
   7 C :   -0.068748
   8 C :   -0.364654
   9 H :    0.157779
  10 H :    0.133723
  11 H :    0.147360
  12 C :   -0.343338
  13 H :    0.157220
  14 H :    0.153389
  15 H :    0.137230
  16 H :    0.134334
  17 C :    0.035904
  18 C :   -0.181127
  19 H :    0.163682
  20 C :   -0.183453
  21 C :   -0.137869
  22 S :    0.466047
  23 C :   -0.263458
  24 H :    0.278098
  25 H :    0.163347
  26 H :    0.168224
  27 H :    0.185607
  28 H :    0.186329
  29 H :    0.194090
  30 O :   -0.276486
  31 O :   -0.212619
  32 C :    0.149402
  33 C :   -0.377455
  34 H :    0.158667
  35 H :    0.165724
  36 H :    0.151848
  37 H :    0.187364
  38 H :    0.185381

  Mayer bond orders larger than 0.100000
B(  0-Ir,  1-C ) :   0.4181 B(  0-Ir,  2-C ) :   0.5394 B(  0-Ir,  3-C ) :   0.4637
B(  0-Ir,  4-C ) :   0.4486 B(  0-Ir,  5-C ) :   0.4013 B(  0-Ir,  6-N ) :   0.4610
B(  0-Ir, 20-C ) :   0.2356 B(  0-Ir, 31-O ) :   0.5940 B(  1-C ,  2-C ) :   1.1156
B(  1-C ,  4-C ) :   1.2483 B(  1-C , 27-H ) :   0.9031 B(  2-C ,  5-C ) :   1.1338
B(  2-C , 28-H ) :   0.9070 B(  3-C ,  4-C ) :   1.1041 B(  3-C ,  5-C ) :   1.2336
B(  3-C , 37-H ) :   0.9037 B(  4-C , 38-H ) :   0.8983 B(  5-C , 29-H ) :   0.8975
B(  6-N ,  7-C ) :   0.8908 B(  6-N , 17-C ) :   1.7004 B(  7-C ,  8-C ) :   0.9922
B(  7-C , 12-C ) :   0.9691 B(  7-C , 13-H ) :   0.8709 B(  8-C ,  9-H ) :   0.9033
B(  8-C , 10-H ) :   0.9125 B(  8-C , 11-H ) :   0.9076 B( 12-C , 14-H ) :   0.9062
B( 12-C , 15-H ) :   0.9153 B( 12-C , 16-H ) :   0.9110 B( 17-C , 18-C ) :   1.0453
B( 17-C , 19-H ) :   0.8738 B( 18-C , 20-C ) :   1.2983 B( 18-C , 22-S ) :   1.2275
B( 20-C , 21-C ) :   1.2562 B( 20-C , 24-H ) :   0.5085 B( 21-C , 23-C ) :   1.5510
B( 21-C , 25-H ) :   0.9034 B( 22-S , 23-C ) :   1.1994 B( 23-C , 26-H ) :   0.8921
B( 24-H , 30-O ) :   0.2205 B( 30-O , 32-C ) :   1.7239 B( 31-O , 32-C ) :   1.2556
B( 32-C , 33-C ) :   0.9454 B( 33-C , 34-H ) :   0.9060 B( 33-C , 35-H ) :   0.9000
B( 33-C , 36-H ) :   0.9103

Dispersion correction           -0.030942139
FINAL SINGLE POINT ENERGY     -1288.398982046767

DIPOLE MOMENT
-------------
                                X             Y             Z
Electronic contribution:     35.81268     -66.94711      71.94414
Nuclear contribution   :    -36.44847      65.63079     -72.27090
                        -----------------------------------------
Total Dipole Moment    :     -0.63579      -1.31631      -0.32676
                        -----------------------------------------
Magnitude (a.u.)       :      1.49789
Magnitude (Debye)      :      3.80734

Rotational constants in cm-1:     0.010783     0.009122     0.008273
Rotational constants in MHz :   323.265732   273.481938   248.017857

                             ****ORCA TERMINATED NORMALLY****
TOTAL RUN TIME: 0 days 1 hours 38 minutes 1 seconds 997 msec
