                         Program Version 5.0.3 -  RELEASE  -
|  1> ! Opt PBEh-3c
|  2> %geom Constraints
|  3> { B 0 20 2.085714285714286 C }
|  4> { B 24 30 1.457142857142857 C }
|  5>     end
|  6> end
|  7> %output
|  8> xyzfile=True
|  9> end
| 10> %scf
| 11> maxiter 250
| 12> end
| 13> %output
| 14> Print[P_Hirshfeld] = 1
| 15> end
| 16> % maxcore
| 17> 4000
| 18> *xyz 1 1
| 19> Ir   0.63032643  -0.71550278   0.41080182
| 20> C    0.13398381  -2.83304300   0.33076113
| 21> C   -0.00011455  -2.37471146   1.68783631
| 22> C    2.19936867  -2.07895515   1.03814629
| 23> C    1.47531497  -2.65487773  -0.06620430
| 24> C    1.28384570  -1.93716395   2.11040622
| 25> N   -1.05462913   0.13545380  -0.51809294
| 26> C   -2.31702456   0.37727119   0.19616570
| 27> C   -3.10978734   1.55899327  -0.34330443
| 28> H   -3.93107471   1.77253732   0.33916840
| 29> H   -3.55920198   1.35845427  -1.31685089
| 30> H   -2.50154523   2.46092534  -0.41489348
| 31> C   -3.14909409  -0.90068384   0.19554762
| 32> H   -2.02049088   0.60250733   1.22150977
| 33> H   -4.04815845  -0.75609723   0.79306554
| 34> H   -3.45986675  -1.16761494  -0.81535552
| 35> H   -2.60535050  -1.74300455   0.62016391
| 36> C   -0.90595135   0.43622506  -1.75478796
| 37> C    0.41615330   0.23855676  -2.27420351
| 38> H   -1.71188360   0.84698757  -2.35448077
| 39> C    1.46586053   0.12721532  -1.35626506
| 40> C    2.68313467  -0.15859498  -2.05356062
| 41> S    0.89356215   0.00896049  -3.88208305
| 42> C    2.52088774  -0.24735936  -3.40035241
| 43> H    1.56670860   1.14053891  -0.65815561
| 44> H    3.64775648  -0.23429540  -1.57300026
| 45> H    3.27755337  -0.42615129  -4.14906444
| 46> H   -0.65339858  -3.24929404  -0.28076498
| 47> H   -0.88812562  -2.41856778   2.29987090
| 48> H    1.51015660  -1.49887783   3.07219498
| 49> O    1.57367168   2.38019957   0.13449501
| 50> O    0.56239600   0.99348157   1.55302279
| 51> C    1.04521869   2.13354490   1.22519289
| 52> C    0.96997567   3.20023421   2.28073894
| 53> H    0.95802499   4.18939291   1.83075640
| 54> H    1.85785736   3.13412980   2.91213955
| 55> H    0.10109810   3.06917912   2.92124980
| 56> H    3.25521605  -1.85863458   1.07007130
| 57> H    1.88699578  -2.91216888  -1.03114489
| 58> *
| 59>
| 60>                          ****END OF INPUT****
 Total Charge           Charge          ....    1
 Multiplicity           Mult            ....    1
 Number of Electrons    NEL             ....  164
Dispersion correction           -0.030981329
FINAL SINGLE POINT ENERGY     -1288.397755708995
Dispersion correction            ... done
Dispersion correction           -0.030922632
FINAL SINGLE POINT ENERGY     -1288.397792274762
Dispersion correction            ... done
Dispersion correction           -0.030930107
FINAL SINGLE POINT ENERGY     -1288.397196743655
Dispersion correction            ... done
FINAL SINGLE POINT ENERGY     -1288.398073529697
FINAL SINGLE POINT ENERGY     -1288.398110279890
FINAL SINGLE POINT ENERGY     -1288.398147250416
FINAL SINGLE POINT ENERGY     -1288.398149905546
FINAL SINGLE POINT ENERGY     -1288.398155096405
FINAL SINGLE POINT ENERGY     -1288.398155015943
FINAL SINGLE POINT ENERGY     -1288.398145220074
FINAL SINGLE POINT ENERGY     -1288.398136695889
FINAL SINGLE POINT ENERGY     -1288.398138162407
FINAL SINGLE POINT ENERGY     -1288.398145357459
FINAL SINGLE POINT ENERGY     -1288.398149289133
FINAL SINGLE POINT ENERGY     -1288.398155208159
FINAL SINGLE POINT ENERGY     -1288.398157621041
FINAL SINGLE POINT ENERGY     -1288.398159004741
Dispersion correction            ... done
Dispersion correction           -0.030822686
FINAL SINGLE POINT ENERGY     -1288.398158980761
Dispersion correction            ... done
Dispersion correction           -0.030825424
FINAL SINGLE POINT ENERGY     -1288.398158565510
Dispersion correction            ... done
                    ***********************HURRAY********************

CARTESIAN COORDINATES (ANGSTROEM)
---------------------------------
  Ir     0.625991   -0.720242    0.402730
  C      0.152148   -2.840935    0.321335
  C     -0.041813   -2.390073    1.674896
  C      2.178433   -2.063669    1.114118
  C      1.510234   -2.653374   -0.014516
  C      1.212460   -1.934462    2.148373
  N     -1.065512    0.130909   -0.514640
  C     -2.329990    0.345437    0.203820
  C     -3.128738    1.538009   -0.302249
  H     -3.953668    1.725052    0.383420
  H     -3.573047    1.364873   -1.283388
  H     -2.525920    2.445476   -0.343752
  C     -3.155332   -0.936261    0.161665
  H     -2.037785    0.542926    1.236197
  H     -4.054844   -0.817214    0.764232
  H     -3.465131   -1.170954   -0.857480
  H     -2.606863   -1.790009    0.556088
  C     -0.917922    0.470661   -1.741928
  C      0.400609    0.278826   -2.267602
  H     -1.723382    0.902181   -2.327066
  C      1.436071    0.074541   -1.347212
  C      2.652357   -0.195638   -2.056139
  S      0.889516    0.159958   -3.883254
  C      2.502752   -0.177589   -3.407389
  H      1.606178    1.116560   -0.664412
  H      3.609861   -0.333976   -1.575014
  H      3.262940   -0.321058   -4.160139
  H     -0.601282   -3.273084   -0.320947
  H     -0.954907   -2.440805    2.248066
  H      1.391762   -1.491680    3.117977
  O      1.691665    2.340847    0.121131
  O      0.567538    1.016747    1.513719
  C      1.106584    2.129687    1.193664
  C      1.032081    3.222999    2.221022
  H      0.952082    4.195014    1.740326
  H      1.955580    3.223285    2.802614
  H      0.202794    3.074987    2.907510
  H      3.230746   -1.839452    1.195292
  H      1.965124   -2.909309   -0.960330

 Multiplicity           Mult            ....    1
 Number of Electrons    NEL             ....  164
 Basis Dimension        Dim             ....  358

ORBITAL ENERGIES
----------------

  NO   OCC          E(Eh)            E(eV)
   0   2.0000     -89.768914     -2442.7363
   1   2.0000     -19.629008      -534.1325
   2   2.0000     -19.609741      -533.6082
   3   2.0000     -14.837331      -403.7443
   4   2.0000     -10.688924      -290.8604
   5   2.0000     -10.656992      -289.9915
   6   2.0000     -10.631552      -289.2992
   7   2.0000     -10.625960      -289.1471
   8   2.0000     -10.624100      -289.0965
   9   2.0000     -10.623497      -289.0800
  10   2.0000     -10.615917      -288.8738
  11   2.0000     -10.613713      -288.8138
  12   2.0000     -10.613423      -288.8059
  13   2.0000     -10.612941      -288.7928
  14   2.0000     -10.592712      -288.2424
  15   2.0000     -10.590861      -288.1920
  16   2.0000     -10.554318      -287.1976
  17   2.0000     -10.551219      -287.1133
  18   2.0000     -10.539785      -286.8021
  19   2.0000      -8.408279      -228.8009
  20   2.0000      -6.298128      -171.3808
  21   2.0000      -6.294547      -171.2833
  22   2.0000      -6.293321      -171.2500
  23   2.0000      -4.021307      -109.4253
  24   2.0000      -2.338507       -63.6340
  25   2.0000      -2.307697       -62.7956
  26   2.0000      -2.304640       -62.7124
  27   2.0000      -1.315645       -35.8005
  28   2.0000      -1.217546       -33.1311
  29   2.0000      -1.209899       -32.9230
  30   2.0000      -1.160980       -31.5919
  31   2.0000      -1.131493       -30.7895
  32   2.0000      -1.026628       -27.9360
  33   2.0000      -0.973982       -26.5034
  34   2.0000      -0.973532       -26.4912
  35   2.0000      -0.967404       -26.3244
  36   2.0000      -0.961389       -26.1607
  37   2.0000      -0.933548       -25.4031
  38   2.0000      -0.901160       -24.5218
  39   2.0000      -0.874851       -23.8059
  40   2.0000      -0.800859       -21.7925
  41   2.0000      -0.784741       -21.3539
  42   2.0000      -0.777341       -21.1525
  43   2.0000      -0.776626       -21.1331
  44   2.0000      -0.762050       -20.7364
  45   2.0000      -0.755825       -20.5670
  46   2.0000      -0.744153       -20.2494
  47   2.0000      -0.723119       -19.6771
  48   2.0000      -0.691202       -18.8086
  49   2.0000      -0.682949       -18.5840
  50   2.0000      -0.664565       -18.0837
  51   2.0000      -0.653703       -17.7882
  52   2.0000      -0.646759       -17.5992
  53   2.0000      -0.635442       -17.2912
  54   2.0000      -0.631886       -17.1945
  55   2.0000      -0.627537       -17.0761
  56   2.0000      -0.622439       -16.9374
  57   2.0000      -0.613326       -16.6895
  58   2.0000      -0.602547       -16.3961
  59   2.0000      -0.597861       -16.2686
  60   2.0000      -0.596885       -16.2421
  61   2.0000      -0.592579       -16.1249
  62   2.0000      -0.581542       -15.8246
  63   2.0000      -0.571177       -15.5425
  64   2.0000      -0.563500       -15.3336
  65   2.0000      -0.562883       -15.3168
  66   2.0000      -0.552381       -15.0311
  67   2.0000      -0.547551       -14.8996
  68   2.0000      -0.542201       -14.7540
  69   2.0000      -0.536363       -14.5952
  70   2.0000      -0.529665       -14.4129
  71   2.0000      -0.518801       -14.1173
  72   2.0000      -0.513753       -13.9799
  73   2.0000      -0.498064       -13.5530
  74   2.0000      -0.491174       -13.3655
  75   2.0000      -0.488038       -13.2802
  76   2.0000      -0.477588       -12.9958
  77   2.0000      -0.448240       -12.1972
  78   2.0000      -0.442868       -12.0511
  79   2.0000      -0.421663       -11.4740
  80   2.0000      -0.414887       -11.2896
  81   2.0000      -0.394354       -10.7309
  82   0.0000      -0.209881        -5.7111
  83   0.0000      -0.143639        -3.9086
  84   0.0000      -0.132044        -3.5931
  85   0.0000      -0.089703        -2.4409
  86   0.0000      -0.076914        -2.0929

MULLIKEN ATOMIC CHARGES
-----------------------
   0 Ir:    0.608255
   1 C :   -0.239627
   2 C :   -0.259000
   3 C :   -0.270222
   4 C :   -0.226373
   5 C :   -0.152303
   6 N :   -0.428392
   7 C :   -0.127097
   8 C :   -0.683369
   9 H :    0.270251
  10 H :    0.224075
  11 H :    0.255494
  12 C :   -0.634181
  13 H :    0.282386
  14 H :    0.259966
  15 H :    0.232289
  16 H :    0.234016
  17 C :    0.070161
  18 C :   -0.120227
  19 H :    0.287359
  20 C :   -0.582783
  21 C :   -0.088485
  22 S :    0.346484
  23 C :   -0.429961
  24 H :    0.470536
  25 H :    0.269912
  26 H :    0.299507
  27 H :    0.284928
  28 H :    0.282256
  29 H :    0.299062
  30 O :   -0.469563
  31 O :   -0.519869
  32 C :    0.623679
  33 C :   -0.743559
  34 H :    0.270620
  35 H :    0.272306
  36 H :    0.257228
  37 H :    0.282198
  38 H :    0.292043
Sum of atomic charges:    1.0000000

LOEWDIN ATOMIC CHARGES
----------------------
   0 Ir:   -0.257367
   1 C :   -0.057285
   2 C :   -0.095879
   3 C :   -0.094127
   4 C :   -0.044454
   5 C :   -0.016101
   6 N :    0.002368
   7 C :   -0.069830
   8 C :   -0.362500
   9 H :    0.156686
  10 H :    0.132783
  11 H :    0.144198
  12 C :   -0.343485
  13 H :    0.156370
  14 H :    0.151293
  15 H :    0.137803
  16 H :    0.133555
  17 C :    0.027176
  18 C :   -0.177433
  19 H :    0.161540
  20 C :   -0.219717
  21 C :   -0.118864
  22 S :    0.505023
  23 C :   -0.259347
  24 H :    0.343894
  25 H :    0.163961
  26 H :    0.170086
  27 H :    0.181830
  28 H :    0.179652
  29 H :    0.188826
  30 O :   -0.263431
  31 O :   -0.192589
  32 C :    0.156502
  33 C :   -0.373222
  34 H :    0.162412
  35 H :    0.170317
  36 H :    0.153909
  37 H :    0.181751
  38 H :    0.183697

  Mayer bond orders larger than 0.100000
B(  0-Ir,  1-C ) :   0.4362 B(  0-Ir,  2-C ) :   0.4076 B(  0-Ir,  3-C ) :   0.4675
B(  0-Ir,  4-C ) :   0.4235 B(  0-Ir,  5-C ) :   0.3702 B(  0-Ir,  6-N ) :   0.4623
B(  0-Ir, 20-C ) :   0.4845 B(  0-Ir, 31-O ) :   0.5394 B(  1-C ,  2-C ) :   1.1272
B(  1-C ,  4-C ) :   1.2311 B(  1-C , 27-H ) :   0.9082 B(  2-C ,  5-C ) :   1.2088
B(  2-C , 28-H ) :   0.9101 B(  3-C ,  4-C ) :   1.1334 B(  3-C ,  5-C ) :   1.1797
B(  3-C , 37-H ) :   0.9131 B(  4-C , 38-H ) :   0.8992 B(  5-C , 29-H ) :   0.9008
B(  6-N ,  7-C ) :   0.8954 B(  6-N , 17-C ) :   1.6524 B(  7-C ,  8-C ) :   0.9904
B(  7-C , 12-C ) :   0.9658 B(  7-C , 13-H ) :   0.8743 B(  8-C ,  9-H ) :   0.9044
B(  8-C , 10-H ) :   0.9130 B(  8-C , 11-H ) :   0.9113 B( 12-C , 14-H ) :   0.9075
B( 12-C , 15-H ) :   0.9152 B( 12-C , 16-H ) :   0.9115 B( 17-C , 18-C ) :   1.1056
B( 17-C , 19-H ) :   0.8761 B( 18-C , 20-C ) :   1.2123 B( 18-C , 22-S ) :   1.2606
B( 20-C , 21-C ) :   1.2467 B( 20-C , 24-H ) :   0.3960 B( 21-C , 23-C ) :   1.5553
B( 21-C , 25-H ) :   0.9010 B( 22-S , 23-C ) :   1.2068 B( 23-C , 26-H ) :   0.8910
B( 24-H , 30-O ) :   0.3052 B( 30-O , 32-C ) :   1.6255 B( 31-O , 32-C ) :   1.3380
B( 32-C , 33-C ) :   0.9427 B( 33-C , 34-H ) :   0.9023 B( 33-C , 35-H ) :   0.8955
B( 33-C , 36-H ) :   0.9090

Dispersion correction           -0.030825813
FINAL SINGLE POINT ENERGY     -1288.398158835299

DIPOLE MOMENT
-------------
                                X             Y             Z
Electronic contribution:     38.62607     -71.92130      69.07207
Nuclear contribution   :    -39.28389      71.25190     -69.49940
                        -----------------------------------------
Total Dipole Moment    :     -0.65782      -0.66941      -0.42733
                        -----------------------------------------
Magnitude (a.u.)       :      1.03123
Magnitude (Debye)      :      2.62119

Rotational constants in cm-1:     0.010515     0.009029     0.008255
Rotational constants in MHz :   315.221713   270.684425   247.468165

                             ****ORCA TERMINATED NORMALLY****
TOTAL RUN TIME: 0 days 2 hours 25 minutes 24 seconds 416 msec
