                         Program Version 5.0.3 -  RELEASE  -
|  1> ! Opt PBEh-3c
|  2> %geom Constraints
|  3> { B 0 20 2.2142857142857144 C }
|  4> { B 24 30 1.3857142857142857 C }
|  5>     end
|  6> end
|  7> %output
|  8> xyzfile=True
|  9> end
| 10> %scf
| 11> maxiter 250
| 12> end
| 13> %output
| 14> Print[P_Hirshfeld] = 1
| 15> end
| 16> % maxcore
| 17> 4000
| 18> *xyz 1 1
| 19> Ir   0.61461619  -0.72289029   0.45048454
| 20> C    0.11724887  -2.82954415   0.33954238
| 21> C   -0.01362219  -2.36961563   1.69771197
| 22> C    2.18751416  -2.08987700   1.05052737
| 23> C    1.45681780  -2.65075753  -0.05915482
| 24> C    1.27928190  -1.94832798   2.12463802
| 25> N   -1.05104337   0.12773534  -0.50988648
| 26> C   -2.32254002   0.37555582   0.18882849
| 27> C   -3.10419092   1.55763329  -0.36599588
| 28> H   -3.93119185   1.78015317   0.30678504
| 29> H   -3.54493119   1.35407534  -1.34281114
| 30> H   -2.49025453   2.45568379  -0.43727060
| 31> C   -3.15853765  -0.89937981   0.18601038
| 32> H   -2.03846604   0.60658537   1.21635787
| 33> H   -4.06363094  -0.74934094   0.77300187
| 34> H   -3.45923189  -1.17110743  -0.82668331
| 35> H   -2.62206262  -1.74118009   0.62108458
| 36> C   -0.89511571   0.40568637  -1.75037503
| 37> C    0.43044762   0.22591351  -2.27432160
| 38> H   -1.70622100   0.78994564  -2.36149951
| 39> C    1.51052630   0.21770841  -1.39540631
| 40> C    2.71374665  -0.08012856  -2.10051876
| 41> S    0.87029275  -0.09859033  -3.88269755
| 42> C    2.51642038  -0.26773722  -3.43438351
| 43> H    1.57389760   1.19568685  -0.61602043
| 44> H    3.69268957  -0.09649376  -1.64401054
| 45> H    3.25758535  -0.47472066  -4.19136680
| 46> H   -0.67444203  -3.23505614  -0.27367257
| 47> H   -0.90023325  -2.41428612   2.31208798
| 48> H    1.51020138  -1.51921623   3.08946804
| 49> O    1.57912530   2.35643535   0.16669000
| 50> O    0.54861483   0.98654275   1.58710713
| 51> C    1.04526946   2.11909778   1.25943820
| 52> C    0.98514208   3.19056422   2.30923283
| 53> H    0.94305925   4.17613282   1.85286058
| 54> H    1.89494638   3.14518443   2.91074164
| 55> H    0.13968340   3.05006096   2.97808559
| 56> H    3.24278513  -1.86553318   1.07546425
| 57> H    1.86517301  -2.89340822  -1.02933384
| 58> *
| 59>
| 60>                          ****END OF INPUT****
 Total Charge           Charge          ....    1
 Multiplicity           Mult            ....    1
 Number of Electrons    NEL             ....  164
Dispersion correction           -0.030826547
FINAL SINGLE POINT ENERGY     -1288.401272306438
Dispersion correction            ... done
Dispersion correction           -0.030767734
FINAL SINGLE POINT ENERGY     -1288.401180805114
Dispersion correction            ... done
Dispersion correction           -0.030776479
FINAL SINGLE POINT ENERGY     -1288.400518634649
Dispersion correction            ... done
FINAL SINGLE POINT ENERGY     -1288.401558478582
FINAL SINGLE POINT ENERGY     -1288.401617902930
FINAL SINGLE POINT ENERGY     -1288.401647700639
FINAL SINGLE POINT ENERGY     -1288.401703215852
FINAL SINGLE POINT ENERGY     -1288.401710846684
FINAL SINGLE POINT ENERGY     -1288.401710708205
FINAL SINGLE POINT ENERGY     -1288.401707553608
FINAL SINGLE POINT ENERGY     -1288.401707298037
FINAL SINGLE POINT ENERGY     -1288.401710075599
Dispersion correction            ... done
Dispersion correction           -0.030663126
FINAL SINGLE POINT ENERGY     -1288.401711666400
Dispersion correction            ... done
Dispersion correction           -0.030656085
FINAL SINGLE POINT ENERGY     -1288.401712859756
Dispersion correction            ... done
                    ***********************HURRAY********************

CARTESIAN COORDINATES (ANGSTROEM)
---------------------------------
  Ir     0.608027   -0.722943    0.445148
  C      0.108322   -2.831702    0.363664
  C     -0.040971   -2.361276    1.715719
  C      2.169085   -2.084406    1.093055
  C      1.454954   -2.659603   -0.018289
  C      1.242777   -1.930808    2.152594
  N     -1.060435    0.125024   -0.513153
  C     -2.337488    0.344796    0.184021
  C     -3.136300    1.522651   -0.355580
  H     -3.967995    1.721778    0.318520
  H     -3.571779    1.325848   -1.336200
  H     -2.536884    2.431503   -0.412398
  C     -3.156674   -0.940940    0.158051
  H     -2.061213    0.564912    1.216259
  H     -4.069002   -0.810658    0.738653
  H     -3.444709   -1.202838   -0.860895
  H     -2.613904   -1.781890    0.586414
  C     -0.900874    0.443336   -1.744213
  C      0.421435    0.274569   -2.272324
  H     -1.710917    0.848194   -2.342988
  C      1.488349    0.158708   -1.385367
  C      2.691031   -0.114536   -2.102067
  S      0.872358    0.080911   -3.898425
  C      2.505371   -0.176223   -3.450017
  H      1.621107    1.156337   -0.594348
  H      3.663809   -0.200701   -1.640197
  H      3.250556   -0.338923   -4.213826
  H     -0.673299   -3.246809   -0.255931
  H     -0.935332   -2.400225    2.318878
  H      1.459898   -1.489066    3.114962
  O      1.705315    2.305560    0.175327
  O      0.540361    1.009694    1.559325
  C      1.104310    2.109727    1.245091
  C      1.046111    3.207128    2.267007
  H      1.014767    4.180803    1.784355
  H      1.953310    3.172337    2.872894
  H      0.194961    3.090459    2.932603
  H      3.224586   -1.863671    1.133166
  H      1.876345   -2.917866   -0.978747

 Multiplicity           Mult            ....    1
 Number of Electrons    NEL             ....  164
 Basis Dimension        Dim             ....  358

ORBITAL ENERGIES
----------------

  NO   OCC          E(Eh)            E(eV)
   0   2.0000     -89.763023     -2442.5760
   1   2.0000     -19.631861      -534.2101
   2   2.0000     -19.612890      -533.6939
   3   2.0000     -14.835154      -403.6851
   4   2.0000     -10.692511      -290.9580
   5   2.0000     -10.655982      -289.9640
   6   2.0000     -10.628820      -289.2249
   7   2.0000     -10.627181      -289.1803
   8   2.0000     -10.625881      -289.1449
   9   2.0000     -10.625494      -289.1344
  10   2.0000     -10.619764      -288.9785
  11   2.0000     -10.617387      -288.9138
  12   2.0000     -10.613242      -288.8010
  13   2.0000     -10.609514      -288.6995
  14   2.0000     -10.587788      -288.1084
  15   2.0000     -10.587199      -288.0923
  16   2.0000     -10.554170      -287.1936
  17   2.0000     -10.550719      -287.0997
  18   2.0000     -10.541520      -286.8494
  19   2.0000      -8.402457      -228.6425
  20   2.0000      -6.292347      -171.2235
  21   2.0000      -6.288779      -171.1264
  22   2.0000      -6.287424      -171.0895
  23   2.0000      -4.023189      -109.4765
  24   2.0000      -2.340891       -63.6989
  25   2.0000      -2.308643       -62.8214
  26   2.0000      -2.306261       -62.7565
  27   2.0000      -1.320209       -35.9247
  28   2.0000      -1.221738       -33.2452
  29   2.0000      -1.207451       -32.8564
  30   2.0000      -1.164253       -31.6809
  31   2.0000      -1.126819       -30.6623
  32   2.0000      -1.024294       -27.8725
  33   2.0000      -0.977289       -26.5934
  34   2.0000      -0.970233       -26.4014
  35   2.0000      -0.967337       -26.3226
  36   2.0000      -0.958926       -26.0937
  37   2.0000      -0.936342       -25.4792
  38   2.0000      -0.900646       -24.5078
  39   2.0000      -0.872058       -23.7299
  40   2.0000      -0.797867       -21.7111
  41   2.0000      -0.781549       -21.2670
  42   2.0000      -0.780013       -21.2252
  43   2.0000      -0.779406       -21.2087
  44   2.0000      -0.764762       -20.8102
  45   2.0000      -0.759368       -20.6635
  46   2.0000      -0.742248       -20.1976
  47   2.0000      -0.722364       -19.6565
  48   2.0000      -0.691266       -18.8103
  49   2.0000      -0.682243       -18.5648
  50   2.0000      -0.663201       -18.0466
  51   2.0000      -0.656159       -17.8550
  52   2.0000      -0.647282       -17.6134
  53   2.0000      -0.637609       -17.3502
  54   2.0000      -0.633466       -17.2375
  55   2.0000      -0.630745       -17.1634
  56   2.0000      -0.621880       -16.9222
  57   2.0000      -0.610182       -16.6039
  58   2.0000      -0.600333       -16.3359
  59   2.0000      -0.599693       -16.3185
  60   2.0000      -0.598639       -16.2898
  61   2.0000      -0.590760       -16.0754
  62   2.0000      -0.578881       -15.7522
  63   2.0000      -0.567995       -15.4559
  64   2.0000      -0.563925       -15.3452
  65   2.0000      -0.562166       -15.2973
  66   2.0000      -0.553337       -15.0571
  67   2.0000      -0.547398       -14.8955
  68   2.0000      -0.541700       -14.7404
  69   2.0000      -0.535190       -14.5633
  70   2.0000      -0.528554       -14.3827
  71   2.0000      -0.518309       -14.1039
  72   2.0000      -0.513462       -13.9720
  73   2.0000      -0.500284       -13.6134
  74   2.0000      -0.494125       -13.4458
  75   2.0000      -0.480556       -13.0766
  76   2.0000      -0.478500       -13.0206
  77   2.0000      -0.447597       -12.1797
  78   2.0000      -0.445155       -12.1133
  79   2.0000      -0.418901       -11.3989
  80   2.0000      -0.417119       -11.3504
  81   2.0000      -0.397377       -10.8132
  82   0.0000      -0.203451        -5.5362
  83   0.0000      -0.142963        -3.8902
  84   0.0000      -0.140933        -3.8350
  85   0.0000      -0.087661        -2.3854
  86   0.0000      -0.073157        -1.9907

MULLIKEN ATOMIC CHARGES
-----------------------
   0 Ir:    0.603710
   1 C :   -0.229337
   2 C :   -0.271148
   3 C :   -0.258929
   4 C :   -0.232025
   5 C :   -0.157697
   6 N :   -0.434011
   7 C :   -0.125362
   8 C :   -0.684364
   9 H :    0.269926
  10 H :    0.224595
  11 H :    0.255449
  12 C :   -0.634643
  13 H :    0.280968
  14 H :    0.260214
  15 H :    0.232062
  16 H :    0.232340
  17 C :    0.069952
  18 C :   -0.138094
  19 H :    0.286171
  20 C :   -0.526972
  21 C :   -0.111154
  22 S :    0.335252
  23 C :   -0.428443
  24 H :    0.477240
  25 H :    0.265898
  26 H :    0.297798
  27 H :    0.287065
  28 H :    0.284763
  29 H :    0.300717
  30 O :   -0.480216
  31 O :   -0.518773
  32 C :    0.628512
  33 C :   -0.744149
  34 H :    0.272261
  35 H :    0.272564
  36 H :    0.258785
  37 H :    0.285397
  38 H :    0.293680
Sum of atomic charges:    1.0000000

LOEWDIN ATOMIC CHARGES
----------------------
   0 Ir:   -0.250792
   1 C :   -0.051538
   2 C :   -0.090244
   3 C :   -0.084552
   4 C :   -0.045179
   5 C :   -0.015648
   6 N :   -0.005263
   7 C :   -0.069308
   8 C :   -0.362744
   9 H :    0.156427
  10 H :    0.132909
  11 H :    0.144168
  12 C :   -0.343764
  13 H :    0.155599
  14 H :    0.151281
  15 H :    0.137696
  16 H :    0.132817
  17 C :    0.029994
  18 C :   -0.187306
  19 H :    0.160545
  20 C :   -0.215908
  21 C :   -0.127895
  22 S :    0.491941
  23 C :   -0.259508
  24 H :    0.340205
  25 H :    0.161964
  26 H :    0.168936
  27 H :    0.182874
  28 H :    0.181367
  29 H :    0.190008
  30 O :   -0.265548
  31 O :   -0.190238
  32 C :    0.161879
  33 C :   -0.372595
  34 H :    0.163151
  35 H :    0.170769
  36 H :    0.155045
  37 H :    0.183244
  38 H :    0.185211

  Mayer bond orders larger than 0.100000
B(  0-Ir,  1-C ) :   0.4279 B(  0-Ir,  2-C ) :   0.4515 B(  0-Ir,  3-C ) :   0.4631
B(  0-Ir,  4-C ) :   0.4364 B(  0-Ir,  5-C ) :   0.3901 B(  0-Ir,  6-N ) :   0.4651
B(  0-Ir, 20-C ) :   0.4097 B(  0-Ir, 31-O ) :   0.5383 B(  1-C ,  2-C ) :   1.1275
B(  1-C ,  4-C ) :   1.2345 B(  1-C , 27-H ) :   0.9065 B(  2-C ,  5-C ) :   1.1777
B(  2-C , 28-H ) :   0.9101 B(  3-C ,  4-C ) :   1.1244 B(  3-C ,  5-C ) :   1.1985
B(  3-C , 37-H ) :   0.9108 B(  4-C , 38-H ) :   0.9001 B(  5-C , 29-H ) :   0.9000
B(  6-N ,  7-C ) :   0.8948 B(  6-N , 17-C ) :   1.6553 B(  7-C ,  8-C ) :   0.9907
B(  7-C , 12-C ) :   0.9667 B(  7-C , 13-H ) :   0.8755 B(  8-C ,  9-H ) :   0.9045
B(  8-C , 10-H ) :   0.9130 B(  8-C , 11-H ) :   0.9113 B( 12-C , 14-H ) :   0.9075
B( 12-C , 15-H ) :   0.9154 B( 12-C , 16-H ) :   0.9122 B( 17-C , 18-C ) :   1.1015
B( 17-C , 19-H ) :   0.8760 B( 18-C , 20-C ) :   1.2481 B( 18-C , 22-S ) :   1.2400
B( 20-C , 21-C ) :   1.2733 B( 20-C , 24-H ) :   0.3812 B( 21-C , 23-C ) :   1.5448
B( 21-C , 25-H ) :   0.9034 B( 22-S , 23-C ) :   1.2152 B( 23-C , 26-H ) :   0.8913
B( 24-H , 30-O ) :   0.3126 B( 30-O , 32-C ) :   1.6031 B( 31-O , 32-C ) :   1.3471
B( 32-C , 33-C ) :   0.9454 B( 33-C , 34-H ) :   0.9017 B( 33-C , 35-H ) :   0.8949
B( 33-C , 36-H ) :   0.9084

Dispersion correction           -0.030652632
FINAL SINGLE POINT ENERGY     -1288.401713196542

DIPOLE MOMENT
-------------
                                X             Y             Z
Electronic contribution:     36.97176     -71.65033      73.22344
Nuclear contribution   :    -37.60338      70.94761     -73.49696
                        -----------------------------------------
Total Dipole Moment    :     -0.63162      -0.70272      -0.27352
                        -----------------------------------------
Magnitude (a.u.)       :      0.98365
Magnitude (Debye)      :      2.50023

Rotational constants in cm-1:     0.010529     0.008864     0.008198
Rotational constants in MHz :   315.657746   265.738019   245.770820

                             ****ORCA TERMINATED NORMALLY****
TOTAL RUN TIME: 0 days 1 hours 55 minutes 30 seconds 848 msec
