                         Program Version 5.0.3 -  RELEASE  -
|  1> ! Opt PBEh-3c
|  2> %geom Constraints
|  3> { B 0 20 2.342857142857143 C }
|  4> { B 24 30 1.5 C }
|  5>     end
|  6> end
|  7> %output
|  8> xyzfile=True
|  9> end
| 10> %scf
| 11> maxiter 250
| 12> end
| 13> %output
| 14> Print[P_Hirshfeld] = 1
| 15> end
| 16> % maxcore
| 17> 4000
| 18> *xyz 1 1
| 19> Ir   0.60814652  -0.70811714   0.42110778
| 20> C    0.05759013  -2.79730116   0.33622372
| 21> C    0.13143449  -2.33836338   1.70043238
| 22> C    2.21991601  -2.11522501   0.75259245
| 23> C    1.32491401  -2.63940161  -0.25408413
| 24> C    1.49306558  -1.96605361   1.94829723
| 25> N   -1.04879459   0.17439456  -0.53031890
| 26> C   -2.31268927   0.49752262   0.14817018
| 27> C   -3.12473649   1.56999555  -0.55964165
| 28> H   -3.95020621   1.86904536   0.08488478
| 29> H   -3.57072540   1.22060184  -1.49230736
| 30> H   -2.53353483   2.46330162  -0.76352804
| 31> C   -3.12039764  -0.77836914   0.35321703
| 32> H   -2.01123031   0.87948922   1.12475226
| 33> H   -4.02730825  -0.54999175   0.91097504
| 34> H   -3.41720892  -1.21735496  -0.60018833
| 35> H   -2.56907176  -1.52462504   0.92346063
| 36> C   -0.85794713   0.38699175  -1.77414937
| 37> C    0.49160639   0.15214333  -2.23991453
| 38> H   -1.63713517   0.75651997  -2.43423310
| 39> C    1.58483693   0.44177239  -1.42698922
| 40> C    2.79469571   0.02329046  -2.05726239
| 41> S    0.93030465  -0.58756566  -3.70833062
| 42> C    2.59361855  -0.54166949  -3.27596220
| 43> H    1.53087862   1.34211176  -0.68490152
| 44> H    3.77636395   0.18804585  -1.63741651
| 45> H    3.33469861  -0.91517705  -3.96631736
| 46> H   -0.82828799  -3.16760096  -0.15948413
| 47> H   -0.66060293  -2.36699335   2.43401658
| 48> H    1.87379240  -1.56000792   2.87448250
| 49> O    1.30624682   2.48768620   0.25701129
| 50> O    0.53239304   0.91914152   1.64097778
| 51> C    0.90119646   2.12521970   1.35713794
| 52> C    0.83012015   3.08358212   2.51406823
| 53> H    0.79153080   4.11028438   2.16046782
| 54> H    1.72871360   2.97342520   3.12422474
| 55> H   -0.02295148   2.87861094   3.15766367
| 56> H    3.26702645  -1.89065442   0.61509277
| 57> H    1.58910855  -2.87951473  -1.27348735
| 58> *
| 59>
| 60>                          ****END OF INPUT****
 Total Charge           Charge          ....    1
 Multiplicity           Mult            ....    1
 Number of Electrons    NEL             ....  164
Dispersion correction           -0.031105199
FINAL SINGLE POINT ENERGY     -1288.400507600463
Dispersion correction            ... done
Dispersion correction           -0.031150221
FINAL SINGLE POINT ENERGY     -1288.399371688370
Dispersion correction            ... done
Dispersion correction           -0.031084253
FINAL SINGLE POINT ENERGY     -1288.400601342119
Dispersion correction            ... done
FINAL SINGLE POINT ENERGY     -1288.399577349456
FINAL SINGLE POINT ENERGY     -1288.400665140383
FINAL SINGLE POINT ENERGY     -1288.400663165650
FINAL SINGLE POINT ENERGY     -1288.400701539987
FINAL SINGLE POINT ENERGY     -1288.400710562901
Dispersion correction            ... done
Dispersion correction           -0.031013655
FINAL SINGLE POINT ENERGY     -1288.400719696960
Dispersion correction            ... done
Dispersion correction           -0.031007873
FINAL SINGLE POINT ENERGY     -1288.400732988262
Dispersion correction            ... done
                    ***********************HURRAY********************

CARTESIAN COORDINATES (ANGSTROEM)
---------------------------------
  Ir     0.613867   -0.706494    0.420988
  C      0.067952   -2.799036    0.338427
  C      0.124304   -2.340695    1.702654
  C      2.223666   -2.109570    0.777952
  C      1.341989   -2.638762   -0.237661
  C      1.480047   -1.960202    1.964358
  N     -1.047487    0.167683   -0.529327
  C     -2.310816    0.482475    0.154493
  C     -3.113064    1.579267   -0.527181
  H     -3.936370    1.869883    0.123962
  H     -3.561477    1.256757   -1.468222
  H     -2.513019    2.471344   -0.709031
  C     -3.127536   -0.793101    0.323829
  H     -2.009616    0.836482    1.141533
  H     -4.033571   -0.574375    0.886894
  H     -3.425822   -1.203937   -0.641566
  H     -2.580933   -1.558291    0.873139
  C     -0.866142    0.382643   -1.774837
  C      0.479718    0.154520   -2.248424
  H     -1.651836    0.749751   -2.428385
  C      1.567128    0.399427   -1.411281
  C      2.779966   -0.002401   -2.046979
  S      0.926387   -0.530077   -3.738265
  C      2.585637   -0.516727   -3.289263
  H      1.521655    1.315277   -0.678645
  H      3.759099    0.137283   -1.612418
  H      3.329669   -0.868339   -3.987900
  H     -0.810314   -3.173227   -0.167805
  H     -0.676673   -2.369851    2.426297
  H      1.848215   -1.550479    2.894027
  O      1.312853    2.483850    0.238328
  O      0.535004    0.928712    1.634374
  C      0.905860    2.130431    1.341947
  C      0.839696    3.099829    2.489690
  H      0.801194    4.123343    2.127043
  H      1.740349    2.993883    3.097564
  H     -0.011432    2.901311    3.137797
  H      3.272982   -1.886905    0.655594
  H      1.618238   -2.882494   -1.252962

 Multiplicity           Mult            ....    1
 Number of Electrons    NEL             ....  164
 Basis Dimension        Dim             ....  358

ORBITAL ENERGIES
----------------

  NO   OCC          E(Eh)            E(eV)
   0   2.0000     -89.768515     -2442.7255
   1   2.0000     -19.619491      -533.8735
   2   2.0000     -19.584147      -532.9117
   3   2.0000     -14.842444      -403.8834
   4   2.0000     -10.675906      -290.5062
   5   2.0000     -10.663294      -290.1630
   6   2.0000     -10.638536      -289.4893
   7   2.0000     -10.635548      -289.4080
   8   2.0000     -10.632342      -289.3207
   9   2.0000     -10.629477      -289.2428
  10   2.0000     -10.628818      -289.2248
  11   2.0000     -10.628173      -289.2073
  12   2.0000     -10.615951      -288.8747
  13   2.0000     -10.613613      -288.8111
  14   2.0000     -10.590045      -288.1698
  15   2.0000     -10.587499      -288.1005
  16   2.0000     -10.557090      -287.2730
  17   2.0000     -10.552095      -287.1371
  18   2.0000     -10.530386      -286.5464
  19   2.0000      -8.407855      -228.7894
  20   2.0000      -6.297852      -171.3733
  21   2.0000      -6.294191      -171.2736
  22   2.0000      -6.292713      -171.2334
  23   2.0000      -4.027910      -109.6050
  24   2.0000      -2.346546       -63.8528
  25   2.0000      -2.312874       -62.9365
  26   2.0000      -2.311722       -62.9051
  27   2.0000      -1.300191       -35.3800
  28   2.0000      -1.215500       -33.0754
  29   2.0000      -1.203337       -32.7445
  30   2.0000      -1.171046       -31.8658
  31   2.0000      -1.132053       -30.8047
  32   2.0000      -1.028888       -27.9975
  33   2.0000      -0.985383       -26.8136
  34   2.0000      -0.976446       -26.5705
  35   2.0000      -0.971039       -26.4233
  36   2.0000      -0.963729       -26.2244
  37   2.0000      -0.923369       -25.1262
  38   2.0000      -0.903490       -24.5852
  39   2.0000      -0.876540       -23.8519
  40   2.0000      -0.800636       -21.7864
  41   2.0000      -0.787228       -21.4216
  42   2.0000      -0.786532       -21.4026
  43   2.0000      -0.783954       -21.3325
  44   2.0000      -0.771251       -20.9868
  45   2.0000      -0.755079       -20.5468
  46   2.0000      -0.743300       -20.2262
  47   2.0000      -0.724492       -19.7144
  48   2.0000      -0.693712       -18.8769
  49   2.0000      -0.671984       -18.2856
  50   2.0000      -0.665875       -18.1194
  51   2.0000      -0.651037       -17.7156
  52   2.0000      -0.645541       -17.5661
  53   2.0000      -0.639290       -17.3960
  54   2.0000      -0.634277       -17.2596
  55   2.0000      -0.626372       -17.0445
  56   2.0000      -0.623128       -16.9562
  57   2.0000      -0.614318       -16.7165
  58   2.0000      -0.606845       -16.5131
  59   2.0000      -0.606254       -16.4970
  60   2.0000      -0.600651       -16.3446
  61   2.0000      -0.591493       -16.0953
  62   2.0000      -0.582106       -15.8399
  63   2.0000      -0.575173       -15.6512
  64   2.0000      -0.565090       -15.3769
  65   2.0000      -0.553570       -15.0634
  66   2.0000      -0.552436       -15.0325
  67   2.0000      -0.548530       -14.9263
  68   2.0000      -0.540256       -14.7011
  69   2.0000      -0.536059       -14.5869
  70   2.0000      -0.527813       -14.3625
  71   2.0000      -0.520443       -14.1620
  72   2.0000      -0.516112       -14.0441
  73   2.0000      -0.502898       -13.6845
  74   2.0000      -0.486586       -13.2407
  75   2.0000      -0.481652       -13.1064
  76   2.0000      -0.471518       -12.8307
  77   2.0000      -0.446085       -12.1386
  78   2.0000      -0.440965       -11.9993
  79   2.0000      -0.425827       -11.5874
  80   2.0000      -0.416339       -11.3291
  81   2.0000      -0.402537       -10.9536
  82   0.0000      -0.204903        -5.5757
  83   0.0000      -0.158129        -4.3029
  84   0.0000      -0.142007        -3.8642
  85   0.0000      -0.100912        -2.7460
  86   0.0000      -0.078239        -2.1290

MULLIKEN ATOMIC CHARGES
-----------------------
   0 Ir:    0.608636
   1 C :   -0.210909
   2 C :   -0.283347
   3 C :   -0.239309
   4 C :   -0.247732
   5 C :   -0.163608
   6 N :   -0.421158
   7 C :   -0.122294
   8 C :   -0.691633
   9 H :    0.272486
  10 H :    0.224592
  11 H :    0.261679
  12 C :   -0.637634
  13 H :    0.283783
  14 H :    0.264427
  15 H :    0.230602
  16 H :    0.233166
  17 C :    0.072473
  18 C :   -0.174015
  19 H :    0.292934
  20 C :   -0.485491
  21 C :   -0.113407
  22 S :    0.312853
  23 C :   -0.434729
  24 H :    0.495134
  25 H :    0.269935
  26 H :    0.299489
  27 H :    0.290233
  28 H :    0.291213
  29 H :    0.306006
  30 O :   -0.472629
  31 O :   -0.541964
  32 C :    0.609277
  33 C :   -0.744501
  34 H :    0.267867
  35 H :    0.264178
  36 H :    0.250526
  37 H :    0.290529
  38 H :    0.292345
Sum of atomic charges:    1.0000000

LOEWDIN ATOMIC CHARGES
----------------------
   0 Ir:   -0.234733
   1 C :   -0.040050
   2 C :   -0.068733
   3 C :   -0.058086
   4 C :   -0.059157
   5 C :   -0.021681
   6 N :    0.001609
   7 C :   -0.069475
   8 C :   -0.364214
   9 H :    0.157621
  10 H :    0.133261
  11 H :    0.147369
  12 C :   -0.343271
  13 H :    0.157688
  14 H :    0.153162
  15 H :    0.137082
  16 H :    0.134287
  17 C :    0.033588
  18 C :   -0.170803
  19 H :    0.163776
  20 C :   -0.193447
  21 C :   -0.127257
  22 S :    0.481383
  23 C :   -0.264265
  24 H :    0.287457
  25 H :    0.164347
  26 H :    0.169092
  27 H :    0.184459
  28 H :    0.185169
  29 H :    0.193258
  30 O :   -0.274859
  31 O :   -0.211095
  32 C :    0.147474
  33 C :   -0.377110
  34 H :    0.158540
  35 H :    0.165640
  36 H :    0.151935
  37 H :    0.185548
  38 H :    0.184489

  Mayer bond orders larger than 0.100000
B(  0-Ir,  1-C ) :   0.4161 B(  0-Ir,  2-C ) :   0.5063 B(  0-Ir,  3-C ) :   0.4626
B(  0-Ir,  4-C ) :   0.4460 B(  0-Ir,  5-C ) :   0.3993 B(  0-Ir,  6-N ) :   0.4587
B(  0-Ir, 20-C ) :   0.2908 B(  0-Ir, 31-O ) :   0.5851 B(  1-C ,  2-C ) :   1.1234
B(  1-C ,  4-C ) :   1.2460 B(  1-C , 27-H ) :   0.9038 B(  2-C ,  5-C ) :   1.1438
B(  2-C , 28-H ) :   0.9081 B(  3-C ,  4-C ) :   1.1067 B(  3-C ,  5-C ) :   1.2278
B(  3-C , 37-H ) :   0.9061 B(  4-C , 38-H ) :   0.9000 B(  5-C , 29-H ) :   0.8980
B(  6-N ,  7-C ) :   0.8917 B(  6-N , 17-C ) :   1.6923 B(  7-C ,  8-C ) :   0.9915
B(  7-C , 12-C ) :   0.9684 B(  7-C , 13-H ) :   0.8707 B(  8-C ,  9-H ) :   0.9036
B(  8-C , 10-H ) :   0.9128 B(  8-C , 11-H ) :   0.9078 B( 12-C , 14-H ) :   0.9064
B( 12-C , 15-H ) :   0.9155 B( 12-C , 16-H ) :   0.9114 B( 17-C , 18-C ) :   1.0535
B( 17-C , 19-H ) :   0.8742 B( 18-C , 20-C ) :   1.2723 B( 18-C , 22-S ) :   1.2491
B( 20-C , 21-C ) :   1.2478 B( 20-C , 24-H ) :   0.4923 B( 21-C , 23-C ) :   1.5563
B( 21-C , 25-H ) :   0.9028 B( 22-S , 23-C ) :   1.1970 B( 23-C , 26-H ) :   0.8914
B( 24-H , 30-O ) :   0.2345 B( 30-O , 32-C ) :   1.7174 B( 31-O , 32-C ) :   1.2644
B( 32-C , 33-C ) :   0.9444 B( 33-C , 34-H ) :   0.9060 B( 33-C , 35-H ) :   0.9002
B( 33-C , 36-H ) :   0.9103

Dispersion correction           -0.031008532
FINAL SINGLE POINT ENERGY     -1288.400733439701

DIPOLE MOMENT
-------------
                                X             Y             Z
Electronic contribution:     37.70614     -66.56037      69.69632
Nuclear contribution   :    -38.33472      65.29746     -70.14329
                        -----------------------------------------
Total Dipole Moment    :     -0.62858      -1.26291      -0.44696
                        -----------------------------------------
Magnitude (a.u.)       :      1.47980
Magnitude (Debye)      :      3.76136

Rotational constants in cm-1:     0.010772     0.009182     0.008282
Rotational constants in MHz :   322.935001   275.258968   248.274743

                             ****ORCA TERMINATED NORMALLY****
TOTAL RUN TIME: 0 days 1 hours 28 minutes 43 seconds 730 msec
