                         Program Version 5.0.3 -  RELEASE  -
|  1> ! Opt PBEh-3c
|  2> %geom Constraints
|  3> { B 0 20 2.0428571428571427 C }
|  4> { B 24 30 1.342857142857143 C }
|  5>     end
|  6> end
|  7> %output
|  8> xyzfile=True
|  9> end
| 10> %scf
| 11> maxiter 250
| 12> end
| 13> %output
| 14> Print[P_Hirshfeld] = 1
| 15> end
| 16> % maxcore
| 17> 4000
| 18> *xyz 1 1
| 19> Ir   0.61384160  -0.73881194   0.41286404
| 20> C    0.15667361  -2.85405357   0.33645750
| 21> C   -0.10239921  -2.41129558   1.68304686
| 22> C    2.13741024  -2.05985225   1.22214327
| 23> C    1.53223043  -2.66164852   0.06920937
| 24> C    1.11769454  -1.94085304   2.21177604
| 25> N   -1.07595281   0.10742232  -0.50827940
| 26> C   -2.34770800   0.29120422   0.20669162
| 27> C   -3.13870213   1.50864191  -0.25038937
| 28> H   -3.97018420   1.66540100   0.43487840
| 29> H   -3.57261235   1.38539660  -1.24359298
| 30> H   -2.53226548   2.41462974  -0.24228222
| 31> C   -3.17512760  -0.98491523   0.09871636
| 32> H   -2.06751140   0.44251155   1.25029358
| 33> H   -4.07883120  -0.89466585   0.70014910
| 34> H   -3.47760691  -1.17030717  -0.93272274
| 35> H   -2.62961252  -1.85776770   0.45373327
| 36> C   -0.92822483   0.47946326  -1.72723375
| 37> C    0.38733892   0.31027117  -2.26294991
| 38> H   -1.73847746   0.92030769  -2.29872321
| 39> C    1.41102973   0.02079262  -1.35849031
| 40> C    2.63075605  -0.19726685  -2.07290413
| 41> S    0.89433112   0.34373747  -3.88164175
| 42> C    2.49551738  -0.04894835  -3.42028842
| 43> H    1.63266127   1.16228548  -0.66768186
| 44> H    3.58139408  -0.39769505  -1.59998199
| 45> H    3.26439310  -0.13150935  -4.17346291
| 46> H   -0.55861477  -3.30098571  -0.33836931
| 47> H   -1.04234776  -2.46643905   2.21036907
| 48> H    1.24526207  -1.49372467   3.18751175
| 49> O    1.75026838   2.30256314   0.05879742
| 50> O    0.59398721   1.04058111   1.48157720
| 51> C    1.16013404   2.12266352   1.14767356
| 52> C    1.13978999   3.24746444   2.13916992
| 53> H    1.01887257   4.20290738   1.63375501
| 54> H    2.09894730   3.27694935   2.65903804
| 55> H    0.35557573   3.11282948   2.87854395
| 56> H    3.18334477  -1.83143798   1.35618424
| 57> H    2.03409448  -2.91665563  -0.85284535
| 58> *
| 59>
| 60>                          ****END OF INPUT****
 Total Charge           Charge          ....    1
 Multiplicity           Mult            ....    1
 Number of Electrons    NEL             ....  164
Dispersion correction           -0.030792746
FINAL SINGLE POINT ENERGY     -1288.402596642525
Dispersion correction            ... done
Dispersion correction           -0.030758032
FINAL SINGLE POINT ENERGY     -1288.402838140613
Dispersion correction            ... done
Dispersion correction           -0.030743508
FINAL SINGLE POINT ENERGY     -1288.402935143237
Dispersion correction            ... done
FINAL SINGLE POINT ENERGY     -1288.403000447900
FINAL SINGLE POINT ENERGY     -1288.403057242884
FINAL SINGLE POINT ENERGY     -1288.403090958395
FINAL SINGLE POINT ENERGY     -1288.403110838794
FINAL SINGLE POINT ENERGY     -1288.403121587894
FINAL SINGLE POINT ENERGY     -1288.403129815425
FINAL SINGLE POINT ENERGY     -1288.403133876770
FINAL SINGLE POINT ENERGY     -1288.403136026543
FINAL SINGLE POINT ENERGY     -1288.403137428471
FINAL SINGLE POINT ENERGY     -1288.403138831203
Dispersion correction            ... done
Dispersion correction           -0.030704637
FINAL SINGLE POINT ENERGY     -1288.403140765612
Dispersion correction            ... done
Dispersion correction           -0.030705038
FINAL SINGLE POINT ENERGY     -1288.403143125625
Dispersion correction            ... done
                    ***********************HURRAY********************

CARTESIAN COORDINATES (ANGSTROEM)
---------------------------------
  Ir     0.614057   -0.745030    0.399457
  C      0.174678   -2.861628    0.329129
  C     -0.121527   -2.432048    1.673567
  C      2.122432   -2.048054    1.266945
  C      1.558078   -2.660296    0.102223
  C      1.072879   -1.946894    2.233223
  N     -1.083891    0.099943   -0.505852
  C     -2.354249    0.269420    0.214440
  C     -3.141071    1.501074   -0.210273
  H     -3.972935    1.641891    0.477984
  H     -3.573971    1.406798   -1.207094
  H     -2.531380    2.404280   -0.176823
  C     -3.185300   -1.001199    0.074639
  H     -2.072921    0.393333    1.261394
  H     -4.085364   -0.927051    0.683716
  H     -3.494019   -1.155818   -0.960015
  H     -2.638924   -1.885174    0.399779
  C     -0.939254    0.490111   -1.719926
  C      0.375040    0.321612   -2.256408
  H     -1.749168    0.941929   -2.283038
  C      1.382000   -0.023110   -1.350503
  C      2.609441   -0.220861   -2.060439
  S      0.904797    0.427916   -3.864940
  C      2.493819   -0.005296   -3.401081
  H      1.637002    1.185617   -0.713383
  H      3.551322   -0.457957   -1.586839
  H      3.272446   -0.061525   -4.146651
  H     -0.515573   -3.322244   -0.362286
  H     -1.076146   -2.494332    2.172919
  H      1.169204   -1.500454    3.212733
  O      1.758514    2.313095    0.005848
  O      0.620622    1.053043    1.447068
  C      1.181186    2.131334    1.105740
  C      1.179806    3.260421    2.091860
  H      1.060089    4.215250    1.585104
  H      2.144446    3.284290    2.601907
  H      0.402500    3.132792    2.839664
  H      3.162523   -1.813007    1.431570
  H      2.088178   -2.912984   -0.804619

 Multiplicity           Mult            ....    1
 Number of Electrons    NEL             ....  164
 Basis Dimension        Dim             ....  358

ORBITAL ENERGIES
----------------

  NO   OCC          E(Eh)            E(eV)
   0   2.0000     -89.763012     -2442.5757
   1   2.0000     -19.640539      -534.4462
   2   2.0000     -19.636949      -534.3485
   3   2.0000     -14.831308      -403.5804
   4   2.0000     -10.704763      -291.2914
   5   2.0000     -10.652501      -289.8693
   6   2.0000     -10.622932      -289.0647
   7   2.0000     -10.620722      -289.0045
   8   2.0000     -10.620700      -289.0039
   9   2.0000     -10.617731      -288.9231
  10   2.0000     -10.611842      -288.7629
  11   2.0000     -10.610857      -288.7361
  12   2.0000     -10.610251      -288.7196
  13   2.0000     -10.607299      -288.6393
  14   2.0000     -10.591211      -288.2015
  15   2.0000     -10.589355      -288.1510
  16   2.0000     -10.551936      -287.1328
  17   2.0000     -10.549970      -287.0793
  18   2.0000     -10.549315      -287.0615
  19   2.0000      -8.402356      -228.6397
  20   2.0000      -6.292233      -171.2204
  21   2.0000      -6.288728      -171.1250
  22   2.0000      -6.287302      -171.0862
  23   2.0000      -4.016764      -109.3017
  24   2.0000      -2.333222       -63.4902
  25   2.0000      -2.303977       -62.6944
  26   2.0000      -2.299877       -62.5828
  27   2.0000      -1.333619       -36.2896
  28   2.0000      -1.235431       -33.6178
  29   2.0000      -1.205109       -32.7927
  30   2.0000      -1.155574       -31.4448
  31   2.0000      -1.127141       -30.6711
  32   2.0000      -1.023551       -27.8522
  33   2.0000      -0.969679       -26.3863
  34   2.0000      -0.968470       -26.3534
  35   2.0000      -0.961869       -26.1738
  36   2.0000      -0.957230       -26.0476
  37   2.0000      -0.945003       -25.7148
  38   2.0000      -0.899152       -24.4672
  39   2.0000      -0.870835       -23.6966
  40   2.0000      -0.797107       -21.6904
  41   2.0000      -0.781552       -21.2671
  42   2.0000      -0.773290       -21.0423
  43   2.0000      -0.772090       -21.0096
  44   2.0000      -0.765486       -20.8299
  45   2.0000      -0.757042       -20.6002
  46   2.0000      -0.741533       -20.1781
  47   2.0000      -0.720918       -19.6172
  48   2.0000      -0.700574       -19.0636
  49   2.0000      -0.684145       -18.6165
  50   2.0000      -0.666496       -18.1363
  51   2.0000      -0.663443       -18.0532
  52   2.0000      -0.651325       -17.7234
  53   2.0000      -0.638022       -17.3615
  54   2.0000      -0.628593       -17.1049
  55   2.0000      -0.623283       -16.9604
  56   2.0000      -0.619900       -16.8683
  57   2.0000      -0.610212       -16.6047
  58   2.0000      -0.599868       -16.3233
  59   2.0000      -0.594073       -16.1655
  60   2.0000      -0.592274       -16.1166
  61   2.0000      -0.589999       -16.0547
  62   2.0000      -0.578148       -15.7322
  63   2.0000      -0.573094       -15.5947
  64   2.0000      -0.563646       -15.3376
  65   2.0000      -0.561286       -15.2734
  66   2.0000      -0.558212       -15.1897
  67   2.0000      -0.544941       -14.8286
  68   2.0000      -0.542344       -14.7579
  69   2.0000      -0.535432       -14.5699
  70   2.0000      -0.530478       -14.4350
  71   2.0000      -0.518038       -14.0965
  72   2.0000      -0.512315       -13.9408
  73   2.0000      -0.504553       -13.7296
  74   2.0000      -0.499953       -13.6044
  75   2.0000      -0.490110       -13.3366
  76   2.0000      -0.474786       -12.9196
  77   2.0000      -0.453428       -12.3384
  78   2.0000      -0.442507       -12.0412
  79   2.0000      -0.417122       -11.3505
  80   2.0000      -0.413076       -11.2404
  81   2.0000      -0.391472       -10.6525
  82   0.0000      -0.201248        -5.4762
  83   0.0000      -0.143208        -3.8969
  84   0.0000      -0.121092        -3.2951
  85   0.0000      -0.085741        -2.3331
  86   0.0000      -0.076487        -2.0813

MULLIKEN ATOMIC CHARGES
-----------------------
   0 Ir:    0.612651
   1 C :   -0.264109
   2 C :   -0.247169
   3 C :   -0.283160
   4 C :   -0.214089
   5 C :   -0.150529
   6 N :   -0.435898
   7 C :   -0.126592
   8 C :   -0.678132
   9 H :    0.268265
  10 H :    0.224311
  11 H :    0.251845
  12 C :   -0.632311
  13 H :    0.275605
  14 H :    0.257096
  15 H :    0.232980
  16 H :    0.234563
  17 C :    0.070272
  18 C :   -0.121195
  19 H :    0.283814
  20 C :   -0.574724
  21 C :   -0.098887
  22 S :    0.344000
  23 C :   -0.423035
  24 H :    0.475939
  25 H :    0.267232
  26 H :    0.297906
  27 H :    0.283056
  28 H :    0.278713
  29 H :    0.293432
  30 O :   -0.484743
  31 O :   -0.495784
  32 C :    0.635536
  33 C :   -0.743684
  34 H :    0.274654
  35 H :    0.277834
  36 H :    0.264683
  37 H :    0.278492
  38 H :    0.291168
Sum of atomic charges:    1.0000000

LOEWDIN ATOMIC CHARGES
----------------------
   0 Ir:   -0.264601
   1 C :   -0.067022
   2 C :   -0.098825
   3 C :   -0.104994
   4 C :   -0.037901
   5 C :   -0.022662
   6 N :   -0.004790
   7 C :   -0.069302
   8 C :   -0.361566
   9 H :    0.155724
  10 H :    0.132699
  11 H :    0.142469
  12 C :   -0.344029
  13 H :    0.152785
  14 H :    0.149988
  15 H :    0.138189
  16 H :    0.133632
  17 C :    0.028281
  18 C :   -0.197885
  19 H :    0.159698
  20 C :   -0.214062
  21 C :   -0.132572
  22 S :    0.497126
  23 C :   -0.255504
  24 H :    0.376023
  25 H :    0.162184
  26 H :    0.169504
  27 H :    0.181027
  28 H :    0.177320
  29 H :    0.185288
  30 O :   -0.255049
  31 O :   -0.170030
  32 C :    0.169314
  33 C :   -0.370791
  34 H :    0.165539
  35 H :    0.173633
  36 H :    0.157765
  37 H :    0.179974
  38 H :    0.183421

  Mayer bond orders larger than 0.100000
B(  0-Ir,  1-C ) :   0.4684 B(  0-Ir,  2-C ) :   0.3609 B(  0-Ir,  3-C ) :   0.4760
B(  0-Ir,  4-C ) :   0.4159 B(  0-Ir,  5-C ) :   0.3424 B(  0-Ir,  6-N ) :   0.4652
B(  0-Ir, 20-C ) :   0.5688 B(  0-Ir, 31-O ) :   0.4986 B(  1-C ,  2-C ) :   1.1231
B(  1-C ,  4-C ) :   1.2109 B(  1-C , 27-H ) :   0.9103 B(  2-C ,  5-C ) :   1.2611
B(  2-C , 28-H ) :   0.9102 B(  3-C ,  4-C ) :   1.1556 B(  3-C ,  5-C ) :   1.1499
B(  3-C , 37-H ) :   0.9153 B(  4-C , 38-H ) :   0.8997 B(  5-C , 29-H ) :   0.9031
B(  6-N ,  7-C ) :   0.8969 B(  6-N , 17-C ) :   1.6406 B(  7-C ,  8-C ) :   0.9899
B(  7-C , 12-C ) :   0.9673 B(  7-C , 13-H ) :   0.8792 B(  8-C ,  9-H ) :   0.9051
B(  8-C , 10-H ) :   0.9132 B(  8-C , 11-H ) :   0.9132 B( 12-C , 14-H ) :   0.9081
B( 12-C , 15-H ) :   0.9152 B( 12-C , 16-H ) :   0.9119 B( 17-C , 18-C ) :   1.1229
B( 17-C , 19-H ) :   0.8769 B( 18-C , 20-C ) :   1.2188 B( 18-C , 22-S ) :   1.2312
B( 20-C , 21-C ) :   1.2598 B( 20-C , 24-H ) :   0.2872 B( 21-C , 23-C ) :   1.5329
B( 21-C , 25-H ) :   0.9021 B( 22-S , 23-C ) :   1.2250 B( 23-C , 26-H ) :   0.8917
B( 24-H , 30-O ) :   0.3913 B( 30-O , 32-C ) :   1.5163 B( 31-O , 32-C ) :   1.4189
B( 32-C , 33-C ) :   0.9449 B( 33-C , 34-H ) :   0.8989 B( 33-C , 35-H ) :   0.8915
B( 33-C , 36-H ) :   0.9071

Dispersion correction           -0.030705164
FINAL SINGLE POINT ENERGY     -1288.403144856804

DIPOLE MOMENT
-------------
                                X             Y             Z
Electronic contribution:     37.54772     -75.68900      69.01267
Nuclear contribution   :    -38.10131      75.46397     -69.20333
                        -----------------------------------------
Total Dipole Moment    :     -0.55358      -0.22503      -0.19066
                        -----------------------------------------
Magnitude (a.u.)       :      0.62725
Magnitude (Debye)      :      1.59434

Rotational constants in cm-1:     0.010581     0.008851     0.008236
Rotational constants in MHz :   317.219927   265.352042   246.909048

                             ****ORCA TERMINATED NORMALLY****
TOTAL RUN TIME: 0 days 2 hours 5 minutes 9 seconds 184 msec
