                         Program Version 5.0.3 -  RELEASE  -
|  1> ! Opt PBEh-3c
|  2> %geom Constraints
|  3> { B 0 20 2.3857142857142857 C }
|  4> { B 24 30 1.342857142857143 C }
|  5>     end
|  6> end
|  7> %output
|  8> xyzfile=True
|  9> end
| 10> %scf
| 11> maxiter 250
| 12> end
| 13> %output
| 14> Print[P_Hirshfeld] = 1
| 15> end
| 16> % maxcore
| 17> 4000
| 18> *xyz 1 1
| 19> Ir   0.59426259  -0.73329382   0.49198780
| 20> C    0.05931216  -2.82232193   0.37498393
| 21> C    0.02304591  -2.36057434   1.73936046
| 22> C    2.18266754  -2.13086966   0.96050320
| 23> C    1.37009129  -2.65933026  -0.11105930
| 24> C    1.35808506  -1.98158702   2.09253406
| 25> N   -1.03829957   0.13229746  -0.50546193
| 26> C   -2.31818831   0.40988705   0.16858536
| 27> C   -3.09736046   1.55864063  -0.45398470
| 28> H   -3.92860316   1.81717547   0.20057282
| 29> H   -3.53264967   1.30161823  -1.42064711
| 30> H   -2.48372585   2.45218173  -0.57046921
| 31> C   -3.15054698  -0.86562502   0.22910090
| 32> H   -2.04309755   0.69479869   1.18518109
| 33> H   -4.06716056  -0.68119613   0.78760246
| 34> H   -3.43117871  -1.20216077  -0.76982744
| 35> H   -2.62184086  -1.67548875   0.72951361
| 36> C   -0.86244755   0.37164790  -1.75051015
| 37> C    0.47137837   0.19806575  -2.26463373
| 38> H   -1.67023195   0.72669377  -2.38414432
| 39> C    1.57584382   0.36498912  -1.43887525
| 40> C    2.77079854   0.03342446  -2.13640616
| 41> S    0.88494303  -0.30021907  -3.84220200
| 42> C    2.54825359  -0.33273902  -3.42923843
| 43> H    1.55824715   1.29376516  -0.60488712
| 44> H    3.76093601   0.11907452  -1.71291652
| 45> H    3.27946965  -0.60004014  -4.17710702
| 46> H   -0.78040049  -3.20167575  -0.18931038
| 47> H   -0.82416932  -2.39343664   2.40822927
| 48> H    1.66122761  -1.57148893   3.04541376
| 49> O    1.47091469   2.37987809   0.20416694
| 50> O    0.54316576   0.95430706   1.64430951
| 51> C    0.99210936   2.10848926   1.31257410
| 52> C    0.94154144   3.15480607   2.38751337
| 53> H    0.90281733   4.15146582   1.95614890
| 54> H    1.85176046   3.08865619   2.98679207
| 55> H    0.09797923   3.00203482   3.05659226
| 56> H    3.23789047  -1.90900607   0.90916493
| 57> H    1.71252997  -2.89365392  -1.10840983
| 58> *
| 59>
| 60>                          ****END OF INPUT****
 Total Charge           Charge          ....    1
 Multiplicity           Mult            ....    1
 Number of Electrons    NEL             ....  164
Dispersion correction           -0.030724965
FINAL SINGLE POINT ENERGY     -1288.398068138782
Dispersion correction            ... done
Dispersion correction           -0.030681262
FINAL SINGLE POINT ENERGY     -1288.398212964262
Dispersion correction            ... done
Dispersion correction           -0.030645016
FINAL SINGLE POINT ENERGY     -1288.398294817177
Dispersion correction            ... done
FINAL SINGLE POINT ENERGY     -1288.398325134983
FINAL SINGLE POINT ENERGY     -1288.398336535271
FINAL SINGLE POINT ENERGY     -1288.398349196455
FINAL SINGLE POINT ENERGY     -1288.398352118685
FINAL SINGLE POINT ENERGY     -1288.398356905915
FINAL SINGLE POINT ENERGY     -1288.398360762621
FINAL SINGLE POINT ENERGY     -1288.398364539709
FINAL SINGLE POINT ENERGY     -1288.398367172036
FINAL SINGLE POINT ENERGY     -1288.398368638734
FINAL SINGLE POINT ENERGY     -1288.398369560228
Dispersion correction            ... done
Dispersion correction           -0.030549723
FINAL SINGLE POINT ENERGY     -1288.398370454061
Dispersion correction            ... done
Dispersion correction           -0.030548433
FINAL SINGLE POINT ENERGY     -1288.398371435190
Dispersion correction            ... done
                    ***********************HURRAY********************

CARTESIAN COORDINATES (ANGSTROEM)
---------------------------------
  Ir     0.600588   -0.736509    0.491542
  C      0.090572   -2.832144    0.361537
  C     -0.022132   -2.370664    1.721864
  C      2.174814   -2.116085    1.056283
  C      1.425668   -2.659407   -0.051609
  C      1.284553   -1.971170    2.140879
  N     -1.040083    0.122024   -0.499730
  C     -2.319942    0.377666    0.183149
  C     -3.091976    1.557226   -0.390166
  H     -3.924052    1.790035    0.272895
  H     -3.524949    1.346220   -1.368827
  H     -2.473633    2.451933   -0.465091
  C     -3.159511   -0.894599    0.183010
  H     -2.047663    0.617819    1.211845
  H     -4.072501   -0.735683    0.755260
  H     -3.446651   -1.177020   -0.830721
  H     -2.632205   -1.733125    0.635434
  C     -0.875211    0.383090   -1.742727
  C      0.451053    0.217779   -2.272734
  H     -1.689685    0.748156   -2.361869
  C      1.555565    0.297514   -1.434710
  C      2.745329   -0.006802   -2.152900
  S      0.857772   -0.172554   -3.881251
  C      2.517966   -0.269880   -3.470565
  H      1.582666    1.252815   -0.595226
  H      3.736145    0.025350   -1.723649
  H      3.245288   -0.495798   -4.235635
  H     -0.712316   -3.225228   -0.245196
  H     -0.902319   -2.411002    2.346087
  H      1.530967   -1.551974    3.106218
  O      1.549126    2.347255    0.182169
  O      0.549261    0.972820    1.622079
  C      1.032129    2.107396    1.284243
  C      0.980654    3.181431    2.330659
  H      0.919304    4.164961    1.872070
  H      1.902652    3.148277    2.914328
  H      0.150079    3.033892    3.016362
  H      3.230538   -1.891997    1.064692
  H      1.821510   -2.892827   -1.029260

 Multiplicity           Mult            ....    1
 Number of Electrons    NEL             ....  164
 Basis Dimension        Dim             ....  358

ORBITAL ENERGIES
----------------

  NO   OCC          E(Eh)            E(eV)
   0   2.0000     -89.758463     -2442.4519
   1   2.0000     -19.631525      -534.2010
   2   2.0000     -19.607742      -533.5538
   3   2.0000     -14.835240      -403.6874
   4   2.0000     -10.691993      -290.9439
   5   2.0000     -10.656956      -289.9905
   6   2.0000     -10.632314      -289.3200
   7   2.0000     -10.631160      -289.2886
   8   2.0000     -10.629166      -289.2343
   9   2.0000     -10.626993      -289.1752
  10   2.0000     -10.623406      -289.0776
  11   2.0000     -10.623107      -289.0694
  12   2.0000     -10.613871      -288.8181
  13   2.0000     -10.606805      -288.6258
  14   2.0000     -10.582269      -287.9582
  15   2.0000     -10.581716      -287.9431
  16   2.0000     -10.555152      -287.2203
  17   2.0000     -10.550637      -287.0974
  18   2.0000     -10.540171      -286.8126
  19   2.0000      -8.397923      -228.5191
  20   2.0000      -6.287876      -171.1018
  21   2.0000      -6.284302      -171.0046
  22   2.0000      -6.282792      -170.9635
  23   2.0000      -4.026312      -109.5615
  24   2.0000      -2.344903       -63.8080
  25   2.0000      -2.311367       -62.8955
  26   2.0000      -2.309203       -62.8366
  27   2.0000      -1.319077       -35.8939
  28   2.0000      -1.221484       -33.2383
  29   2.0000      -1.207006       -32.8443
  30   2.0000      -1.169032       -31.8110
  31   2.0000      -1.122701       -30.5502
  32   2.0000      -1.023284       -27.8450
  33   2.0000      -0.982891       -26.7458
  34   2.0000      -0.974286       -26.5117
  35   2.0000      -0.962733       -26.1973
  36   2.0000      -0.956068       -26.0159
  37   2.0000      -0.935456       -25.4550
  38   2.0000      -0.900902       -24.5148
  39   2.0000      -0.870672       -23.6922
  40   2.0000      -0.796129       -21.6638
  41   2.0000      -0.784710       -21.3530
  42   2.0000      -0.783741       -21.3267
  43   2.0000      -0.778479       -21.1835
  44   2.0000      -0.768838       -20.9211
  45   2.0000      -0.761393       -20.7186
  46   2.0000      -0.741495       -20.1771
  47   2.0000      -0.722369       -19.6567
  48   2.0000      -0.691114       -18.8062
  49   2.0000      -0.679055       -18.4780
  50   2.0000      -0.662598       -18.0302
  51   2.0000      -0.655088       -17.8259
  52   2.0000      -0.647846       -17.6288
  53   2.0000      -0.638902       -17.3854
  54   2.0000      -0.636973       -17.3329
  55   2.0000      -0.633157       -17.2291
  56   2.0000      -0.622273       -16.9329
  57   2.0000      -0.608828       -16.5670
  58   2.0000      -0.604634       -16.4529
  59   2.0000      -0.603864       -16.4320
  60   2.0000      -0.595926       -16.2160
  61   2.0000      -0.588633       -16.0175
  62   2.0000      -0.575969       -15.6729
  63   2.0000      -0.567011       -15.4292
  64   2.0000      -0.562137       -15.2965
  65   2.0000      -0.560725       -15.2581
  66   2.0000      -0.553018       -15.0484
  67   2.0000      -0.547714       -14.9041
  68   2.0000      -0.540435       -14.7060
  69   2.0000      -0.534343       -14.5402
  70   2.0000      -0.528012       -14.3679
  71   2.0000      -0.518755       -14.1161
  72   2.0000      -0.514351       -13.9962
  73   2.0000      -0.503956       -13.7133
  74   2.0000      -0.493919       -13.4402
  75   2.0000      -0.480076       -13.0635
  76   2.0000      -0.468928       -12.7602
  77   2.0000      -0.447333       -12.1725
  78   2.0000      -0.445751       -12.1295
  79   2.0000      -0.419243       -11.4082
  80   2.0000      -0.417451       -11.3594
  81   2.0000      -0.399960       -10.8835
  82   0.0000      -0.200131        -5.4458
  83   0.0000      -0.154904        -4.2151
  84   0.0000      -0.141221        -3.8428
  85   0.0000      -0.088741        -2.4148
  86   0.0000      -0.072901        -1.9837

MULLIKEN ATOMIC CHARGES
-----------------------
   0 Ir:    0.610686
   1 C :   -0.222362
   2 C :   -0.284037
   3 C :   -0.248590
   4 C :   -0.233840
   5 C :   -0.162978
   6 N :   -0.436212
   7 C :   -0.127423
   8 C :   -0.682776
   9 H :    0.269218
  10 H :    0.224686
  11 H :    0.257424
  12 C :   -0.634425
  13 H :    0.279777
  14 H :    0.261321
  15 H :    0.231644
  16 H :    0.230645
  17 C :    0.070445
  18 C :   -0.166607
  19 H :    0.285859
  20 C :   -0.466055
  21 C :   -0.135927
  22 S :    0.319065
  23 C :   -0.426939
  24 H :    0.490779
  25 H :    0.263343
  26 H :    0.296197
  27 H :    0.289303
  28 H :    0.288588
  29 H :    0.303894
  30 O :   -0.489420
  31 O :   -0.525683
  32 C :    0.628262
  33 C :   -0.745052
  34 H :    0.271919
  35 H :    0.271507
  36 H :    0.257734
  37 H :    0.290113
  38 H :    0.295920
Sum of atomic charges:    1.0000000

LOEWDIN ATOMIC CHARGES
----------------------
   0 Ir:   -0.232700
   1 C :   -0.049282
   2 C :   -0.075544
   3 C :   -0.072174
   4 C :   -0.043789
   5 C :   -0.017060
   6 N :   -0.011304
   7 C :   -0.069434
   8 C :   -0.362524
   9 H :    0.156145
  10 H :    0.132920
  11 H :    0.145213
  12 C :   -0.343883
  13 H :    0.154898
  14 H :    0.151759
  15 H :    0.137467
  16 H :    0.132302
  17 C :    0.033974
  18 C :   -0.193689
  19 H :    0.160144
  20 C :   -0.210545
  21 C :   -0.137828
  22 S :    0.476178
  23 C :   -0.260321
  24 H :    0.324408
  25 H :    0.160581
  26 H :    0.167716
  27 H :    0.184189
  28 H :    0.183516
  29 H :    0.191935
  30 O :   -0.270600
  31 O :   -0.193573
  32 C :    0.164086
  33 C :   -0.373249
  34 H :    0.162381
  35 H :    0.170336
  36 H :    0.154914
  37 H :    0.185547
  38 H :    0.186887

  Mayer bond orders larger than 0.100000
B(  0-Ir,  1-C ) :   0.4254 B(  0-Ir,  2-C ) :   0.5056 B(  0-Ir,  3-C ) :   0.4618
B(  0-Ir,  4-C ) :   0.4473 B(  0-Ir,  5-C ) :   0.4012 B(  0-Ir,  6-N ) :   0.4674
B(  0-Ir, 20-C ) :   0.3214 B(  0-Ir, 31-O ) :   0.5496 B(  1-C ,  2-C ) :   1.1201
B(  1-C ,  4-C ) :   1.2392 B(  1-C , 27-H ) :   0.9051 B(  2-C ,  5-C ) :   1.1508
B(  2-C , 28-H ) :   0.9087 B(  3-C ,  4-C ) :   1.1145 B(  3-C ,  5-C ) :   1.2174
B(  3-C , 37-H ) :   0.9080 B(  4-C , 38-H ) :   0.8998 B(  5-C , 29-H ) :   0.8985
B(  6-N ,  7-C ) :   0.8925 B(  6-N , 17-C ) :   1.6650 B(  7-C ,  8-C ) :   0.9910
B(  7-C , 12-C ) :   0.9679 B(  7-C , 13-H ) :   0.8765 B(  8-C ,  9-H ) :   0.9046
B(  8-C , 10-H ) :   0.9132 B(  8-C , 11-H ) :   0.9105 B( 12-C , 14-H ) :   0.9073
B( 12-C , 15-H ) :   0.9156 B( 12-C , 16-H ) :   0.9129 B( 17-C , 18-C ) :   1.0901
B( 17-C , 19-H ) :   0.8759 B( 18-C , 20-C ) :   1.2800 B( 18-C , 22-S ) :   1.2230
B( 20-C , 21-C ) :   1.2865 B( 20-C , 24-H ) :   0.4005 B( 21-C , 23-C ) :   1.5399
B( 21-C , 25-H ) :   0.9051 B( 22-S , 23-C ) :   1.2153 B( 23-C , 26-H ) :   0.8919
B( 24-H , 30-O ) :   0.2913 B( 30-O , 32-C ) :   1.6151 B( 31-O , 32-C ) :   1.3316
B( 32-C , 33-C ) :   0.9479 B( 33-C , 34-H ) :   0.9024 B( 33-C , 35-H ) :   0.8954
B( 33-C , 36-H ) :   0.9085

Dispersion correction           -0.030548197
FINAL SINGLE POINT ENERGY     -1288.398372312706

DIPOLE MOMENT
-------------
                                X             Y             Z
Electronic contribution:     36.52336     -71.28004      77.66483
Nuclear contribution   :    -37.14491      70.39418     -77.81271
                        -----------------------------------------
Total Dipole Moment    :     -0.62155      -0.88586      -0.14788
                        -----------------------------------------
Magnitude (a.u.)       :      1.09222
Magnitude (Debye)      :      2.77620

Rotational constants in cm-1:     0.010541     0.008838     0.008115
Rotational constants in MHz :   316.015925   264.966403   243.291353

                             ****ORCA TERMINATED NORMALLY****
TOTAL RUN TIME: 0 days 1 hours 52 minutes 30 seconds 356 msec
