                         Program Version 5.0.3 -  RELEASE  -
|  1> ! Opt PBEh-3c
|  2> %geom Constraints
|  3> { B 0 20 2.1714285714285713 C }
|  4> { B 24 30 1.3 C }
|  5>     end
|  6> end
|  7> %output
|  8> xyzfile=True
|  9> end
| 10> %scf
| 11> maxiter 250
| 12> end
| 13> %output
| 14> Print[P_Hirshfeld] = 1
| 15> end
| 16> % maxcore
| 17> 4000
| 18> *xyz 1 1
| 19> Ir   0.60139310  -0.73894209   0.45638064
| 20> C    0.12490520  -2.84609368   0.37070855
| 21> C   -0.10926409  -2.37818315   1.71267629
| 22> C    2.13168329  -2.07569393   1.22108897
| 23> C    1.49470673  -2.66673572   0.07611766
| 24> C    1.13516796  -1.92869895   2.22231756
| 25> N   -1.06685946   0.10308526  -0.50540823
| 26> C   -2.35013654   0.29114362   0.19058691
| 27> C   -3.13890518   1.50017946  -0.29270059
| 28> H   -3.97652348   1.66669788   0.38278001
| 29> H   -3.56422915   1.36070731  -1.28742755
| 30> H   -2.53373019   2.40699223  -0.29385875
| 31> C   -3.17370734  -0.98772358   0.08943609
| 32> H   -2.08531541   0.45829872   1.23572512
| 33> H   -4.08891764  -0.88870242   0.67181951
| 34> H   -3.45648840  -1.19170892  -0.94412597
| 35> H   -2.63483243  -1.85375017   0.47050262
| 36> C   -0.91159800   0.45305993  -1.72961758
| 37> C    0.40405978   0.30416967  -2.27410525
| 38> H   -1.72828461   0.86786583  -2.31236125
| 39> C    1.46639195   0.09571138  -1.40324073
| 40> C    2.66621352  -0.12751883  -2.13652967
| 41> S    0.85891085   0.26603056  -3.91353532
| 42> C    2.48347348  -0.05543577  -3.48649393
| 43> H    1.65628574   1.16670412  -0.58302264
| 44> H    3.63599997  -0.27828360  -1.68494386
| 45> H    3.23025531  -0.15787828  -4.25922259
| 46> H   -0.60966251  -3.27947780  -0.29220749
| 47> H   -1.03869831  -2.42256826   2.25966030
| 48> H    1.28621385  -1.47915026   3.19368588
| 49> O    1.78398120   2.26267750   0.13103840
| 50> O    0.56216336   1.03544863   1.52736153
| 51> C    1.16224005   2.10338956   1.20615499
| 52> C    1.14251020   3.23274708   2.19083173
| 53> H    1.01542705   4.18425762   1.67901473
| 54> H    2.10473866   3.27135810   2.70426199
| 55> H    0.36193654   3.10075231   2.93433849
| 56> H    3.18146149  -1.85088314   1.32878128
| 57> H    1.97640342  -2.92465816  -0.85572769
| 58> *
| 59>
| 60>                          ****END OF INPUT****
 Total Charge           Charge          ....    1
 Multiplicity           Mult            ....    1
 Number of Electrons    NEL             ....  164
Dispersion correction           -0.030579826
FINAL SINGLE POINT ENERGY     -1288.405811568939
Dispersion correction            ... done
Dispersion correction           -0.030546006
FINAL SINGLE POINT ENERGY     -1288.406073772002
Dispersion correction            ... done
Dispersion correction           -0.030530946
FINAL SINGLE POINT ENERGY     -1288.406185531789
Dispersion correction            ... done
FINAL SINGLE POINT ENERGY     -1288.406250769852
FINAL SINGLE POINT ENERGY     -1288.406305547923
FINAL SINGLE POINT ENERGY     -1288.406330399880
FINAL SINGLE POINT ENERGY     -1288.406342155045
Dispersion correction            ... done
Dispersion correction           -0.030503759
FINAL SINGLE POINT ENERGY     -1288.406346920335
Dispersion correction            ... done
Dispersion correction           -0.030501556
FINAL SINGLE POINT ENERGY     -1288.406350884158
Dispersion correction            ... done
                    ***********************HURRAY********************

CARTESIAN COORDINATES (ANGSTROEM)
---------------------------------
  Ir     0.603092   -0.748127    0.444074
  C      0.116202   -2.852684    0.380733
  C     -0.116716   -2.386235    1.723192
  C      2.124313   -2.085196    1.228331
  C      1.488658   -2.680975    0.086753
  C      1.124946   -1.933940    2.229194
  N     -1.069217    0.098682   -0.507513
  C     -2.350971    0.279099    0.192403
  C     -3.143486    1.490310   -0.279247
  H     -3.980608    1.648491    0.398812
  H     -3.569533    1.358571   -1.274719
  H     -2.540942    2.398918   -0.273022
  C     -3.172708   -1.000211    0.083302
  H     -2.084208    0.438641    1.238343
  H     -4.087856   -0.906335    0.666673
  H     -3.455367   -1.197760   -0.951509
  H     -2.632374   -1.867818    0.458453
  C     -0.912943    0.469452   -1.726148
  C      0.402508    0.318915   -2.268586
  H     -1.726333    0.900389   -2.301320
  C      1.446652    0.048848   -1.391229
  C      2.655029   -0.153371   -2.118164
  S      0.882873    0.360670   -3.900401
  C      2.494795   -0.006472   -3.465310
  H      1.669435    1.186592   -0.607145
  H      3.615324   -0.345599   -1.661929
  H      3.252696   -0.080341   -4.230464
  H     -0.618130   -3.288313   -0.280988
  H     -1.047215   -2.425498    2.268513
  H      1.276573   -1.480858    3.198803
  O      1.785954    2.273815    0.095969
  O      0.579382    1.040954    1.502490
  C      1.169443    2.109033    1.177950
  C      1.154282    3.242992    2.156559
  H      1.018990    4.191898    1.641991
  H      2.120640    3.287142    2.661790
  H      0.380452    3.110514    2.906882
  H      3.175048   -1.866791    1.339513
  H      1.970686   -2.948214   -0.842290

 Multiplicity           Mult            ....    1
 Number of Electrons    NEL             ....  164
 Basis Dimension        Dim             ....  358

ORBITAL ENERGIES
----------------

  NO   OCC          E(Eh)            E(eV)
   0   2.0000     -89.758460     -2442.4519
   1   2.0000     -19.641992      -534.4858
   2   2.0000     -19.637021      -534.3505
   3   2.0000     -14.829879      -403.5415
   4   2.0000     -10.706196      -291.3304
   5   2.0000     -10.651804      -289.8503
   6   2.0000     -10.625053      -289.1224
   7   2.0000     -10.622978      -289.0659
   8   2.0000     -10.621822      -289.0345
   9   2.0000     -10.618393      -288.9412
  10   2.0000     -10.614382      -288.8320
  11   2.0000     -10.611388      -288.7506
  12   2.0000     -10.611355      -288.7496
  13   2.0000     -10.606978      -288.6305
  14   2.0000     -10.587899      -288.1114
  15   2.0000     -10.584703      -288.0244
  16   2.0000     -10.551891      -287.1315
  17   2.0000     -10.550028      -287.0809
  18   2.0000     -10.549561      -287.0682
  19   2.0000      -8.397850      -228.5171
  20   2.0000      -6.287746      -171.0983
  21   2.0000      -6.284235      -171.0027
  22   2.0000      -6.282776      -170.9630
  23   2.0000      -4.019271      -109.3699
  24   2.0000      -2.336255       -63.5727
  25   2.0000      -2.305380       -62.7326
  26   2.0000      -2.301804       -62.6353
  27   2.0000      -1.335971       -36.3536
  28   2.0000      -1.237450       -33.6727
  29   2.0000      -1.202715       -32.7275
  30   2.0000      -1.159542       -31.5527
  31   2.0000      -1.122928       -30.5564
  32   2.0000      -1.021382       -27.7932
  33   2.0000      -0.972305       -26.4578
  34   2.0000      -0.965847       -26.2820
  35   2.0000      -0.963789       -26.2260
  36   2.0000      -0.955777       -26.0080
  37   2.0000      -0.945921       -25.7398
  38   2.0000      -0.898828       -24.4583
  39   2.0000      -0.868433       -23.6313
  40   2.0000      -0.794650       -21.6235
  41   2.0000      -0.778549       -21.1854
  42   2.0000      -0.776349       -21.1255
  43   2.0000      -0.775377       -21.0991
  44   2.0000      -0.768760       -20.9190
  45   2.0000      -0.760427       -20.6923
  46   2.0000      -0.740297       -20.1445
  47   2.0000      -0.721586       -19.6353
  48   2.0000      -0.696085       -18.9414
  49   2.0000      -0.683208       -18.5910
  50   2.0000      -0.666864       -18.1463
  51   2.0000      -0.663136       -18.0448
  52   2.0000      -0.651522       -17.7288
  53   2.0000      -0.637809       -17.3557
  54   2.0000      -0.630012       -17.1435
  55   2.0000      -0.627346       -17.0710
  56   2.0000      -0.620086       -16.8734
  57   2.0000      -0.607329       -16.5263
  58   2.0000      -0.596545       -16.2328
  59   2.0000      -0.596127       -16.2214
  60   2.0000      -0.595395       -16.2015
  61   2.0000      -0.589232       -16.0338
  62   2.0000      -0.576506       -15.6875
  63   2.0000      -0.573374       -15.6023
  64   2.0000      -0.561114       -15.2687
  65   2.0000      -0.559702       -15.2303
  66   2.0000      -0.559001       -15.2112
  67   2.0000      -0.544857       -14.8263
  68   2.0000      -0.541965       -14.7476
  69   2.0000      -0.535194       -14.5634
  70   2.0000      -0.528151       -14.3717
  71   2.0000      -0.517456       -14.0807
  72   2.0000      -0.512332       -13.9413
  73   2.0000      -0.505110       -13.7447
  74   2.0000      -0.499050       -13.5798
  75   2.0000      -0.483913       -13.1679
  76   2.0000      -0.477312       -12.9883
  77   2.0000      -0.451388       -12.2829
  78   2.0000      -0.444312       -12.0904
  79   2.0000      -0.415715       -11.3122
  80   2.0000      -0.414422       -11.2770
  81   2.0000      -0.393902       -10.7186
  82   0.0000      -0.197213        -5.3664
  83   0.0000      -0.142445        -3.8761
  84   0.0000      -0.131576        -3.5804
  85   0.0000      -0.083322        -2.2673
  86   0.0000      -0.076233        -2.0744

MULLIKEN ATOMIC CHARGES
-----------------------
   0 Ir:    0.603085
   1 C :   -0.246584
   2 C :   -0.262183
   3 C :   -0.269986
   4 C :   -0.222996
   5 C :   -0.155394
   6 N :   -0.440166
   7 C :   -0.124588
   8 C :   -0.680714
   9 H :    0.268345
  10 H :    0.224853
  11 H :    0.251957
  12 C :   -0.633187
  13 H :    0.275778
  14 H :    0.257553
  15 H :    0.232815
  16 H :    0.232800
  17 C :    0.068608
  18 C :   -0.129532
  19 H :    0.282959
  20 C :   -0.527901
  21 C :   -0.118106
  22 S :    0.336609
  23 C :   -0.423739
  24 H :    0.479367
  25 H :    0.263888
  26 H :    0.296368
  27 H :    0.285416
  28 H :    0.281274
  29 H :    0.296176
  30 O :   -0.492165
  31 O :   -0.497595
  32 C :    0.637265
  33 C :   -0.744179
  34 H :    0.275495
  35 H :    0.278262
  36 H :    0.265249
  37 H :    0.281708
  38 H :    0.293187
Sum of atomic charges:    1.0000000

LOEWDIN ATOMIC CHARGES
----------------------
   0 Ir:   -0.261536
   1 C :   -0.058400
   2 C :   -0.097603
   3 C :   -0.096689
   4 C :   -0.038899
   5 C :   -0.017550
   6 N :   -0.010646
   7 C :   -0.068895
   8 C :   -0.362113
   9 H :    0.155606
  10 H :    0.132823
  11 H :    0.142481
  12 C :   -0.344160
  13 H :    0.152835
  14 H :    0.150063
  15 H :    0.138103
  16 H :    0.132752
  17 C :    0.030280
  18 C :   -0.202054
  19 H :    0.158897
  20 C :   -0.217258
  21 C :   -0.136881
  22 S :    0.488207
  23 C :   -0.256706
  24 H :    0.368973
  25 H :    0.160376
  26 H :    0.168437
  27 H :    0.182153
  28 H :    0.179317
  29 H :    0.187277
  30 O :   -0.255570
  31 O :   -0.170479
  32 C :    0.172575
  33 C :   -0.370525
  34 H :    0.166651
  35 H :    0.173821
  36 H :    0.157735
  37 H :    0.181547
  38 H :    0.185055

  Mayer bond orders larger than 0.100000
B(  0-Ir,  1-C ) :   0.4503 B(  0-Ir,  2-C ) :   0.4108 B(  0-Ir,  3-C ) :   0.4677
B(  0-Ir,  4-C ) :   0.4316 B(  0-Ir,  5-C ) :   0.3762 B(  0-Ir,  6-N ) :   0.4670
B(  0-Ir, 20-C ) :   0.4866 B(  0-Ir, 31-O ) :   0.5011 B(  1-C ,  2-C ) :   1.1282
B(  1-C ,  4-C ) :   1.2184 B(  1-C , 27-H ) :   0.9081 B(  2-C ,  5-C ) :   1.2127
B(  2-C , 28-H ) :   0.9106 B(  3-C ,  4-C ) :   1.1410 B(  3-C ,  5-C ) :   1.1743
B(  3-C , 37-H ) :   0.9131 B(  4-C , 38-H ) :   0.9004 B(  5-C , 29-H ) :   0.9018
B(  6-N ,  7-C ) :   0.8968 B(  6-N , 17-C ) :   1.6425 B(  7-C ,  8-C ) :   0.9904
B(  7-C , 12-C ) :   0.9675 B(  7-C , 13-H ) :   0.8790 B(  8-C ,  9-H ) :   0.9051
B(  8-C , 10-H ) :   0.9130 B(  8-C , 11-H ) :   0.9130 B( 12-C , 14-H ) :   0.9081
B( 12-C , 15-H ) :   0.9153 B( 12-C , 16-H ) :   0.9124 B( 17-C , 18-C ) :   1.1194
B( 17-C , 19-H ) :   0.8767 B( 18-C , 20-C ) :   1.2454 B( 18-C , 22-S ) :   1.2208
B( 20-C , 21-C ) :   1.2889 B( 20-C , 24-H ) :   0.2910 B( 21-C , 23-C ) :   1.5297
B( 21-C , 25-H ) :   0.9037 B( 22-S , 23-C ) :   1.2288 B( 23-C , 26-H ) :   0.8918
B( 24-H , 30-O ) :   0.3856 B( 30-O , 32-C ) :   1.5098 B( 31-O , 32-C ) :   1.4195
B( 32-C , 33-C ) :   0.9468 B( 33-C , 34-H ) :   0.8980 B( 33-C , 35-H ) :   0.8913
B( 33-C , 36-H ) :   0.9072

Dispersion correction           -0.030499582
FINAL SINGLE POINT ENERGY     -1288.406353364360

DIPOLE MOMENT
-------------
                                X             Y             Z
Electronic contribution:     36.51523     -75.55242      73.41346
Nuclear contribution   :    -37.06123      75.25432     -73.49960
                        -----------------------------------------
Total Dipole Moment    :     -0.54600      -0.29810      -0.08614
                        -----------------------------------------
Magnitude (a.u.)       :      0.62801
Magnitude (Debye)      :      1.59628

Rotational constants in cm-1:     0.010576     0.008691     0.008149
Rotational constants in MHz :   317.049296   260.562226   244.293950

                             ****ORCA TERMINATED NORMALLY****
TOTAL RUN TIME: 0 days 1 hours 23 minutes 56 seconds 941 msec
