                         Program Version 5.0.3 -  RELEASE  -
|  1> ! Opt PBEh-3c
|  2> %geom Constraints
|  3> { B 0 20 2.3857142857142857 C }
|  4> { B 24 30 1.4857142857142858 C }
|  5>     end
|  6> end
|  7> %output
|  8> xyzfile=True
|  9> end
| 10> %scf
| 11> maxiter 250
| 12> end
| 13> %output
| 14> Print[P_Hirshfeld] = 1
| 15> end
| 16> % maxcore
| 17> 4000
| 18> *xyz 1 1
| 19> Ir   0.60380035  -0.71199698   0.43067600
| 20> C    0.05234286  -2.79869198   0.33554269
| 21> C    0.13085440  -2.34225791   1.70119860
| 22> C    2.21661710  -2.12068717   0.74903632
| 23> C    1.31780570  -2.63964947  -0.25730365
| 24> C    1.49506764  -1.97533799   1.94766150
| 25> N   -1.04593631   0.17539439  -0.52724150
| 26> C   -2.31086054   0.50377020   0.14735739
| 27> C   -3.12284832   1.56962009  -0.57037263
| 28> H   -3.94862347   1.87403741   0.07123616
| 29> H   -3.56839804   1.21193356  -1.50010972
| 30> H   -2.53190845   2.46132412  -0.78191372
| 31> C   -3.11820691  -0.77048287   0.36313267
| 32> H   -2.01056425   0.89472699   1.12078021
| 33> H   -4.02627597  -0.53716999   0.91695139
| 34> H   -3.41317879  -1.21873717  -0.58653989
| 35> H   -2.56805694  -1.51113679   0.94182461
| 36> C   -0.85140228   0.38367314  -1.77100475
| 37> C    0.49863799   0.14819881  -2.23664997
| 38> H   -1.63004864   0.74993095  -2.43370967
| 39> C    1.59733969   0.46897864  -1.44446008
| 40> C    2.80450959   0.04486589  -2.07410991
| 41> S    0.93108422  -0.62119648  -3.69356586
| 42> C    2.59709066  -0.55161401  -3.27694014
| 43> H    1.53361836   1.35735523  -0.69384173
| 44> H    3.78840063   0.22697651  -1.66690688
| 45> H    3.33516067  -0.93620899  -3.96444415
| 46> H   -0.83563826  -3.16588456  -0.15870331
| 47> H   -0.65927067  -2.37168214   2.43694531
| 48> H    1.87948601  -1.57365197   2.87421796
| 49> O    1.28845483   2.48640528   0.26278821
| 50> O    0.53578707   0.91157557   1.65216977
| 51> C    0.89364011   2.12124513   1.36499051
| 52> C    0.82290748   3.07812737   2.52321226
| 53> H    0.77507026   4.10465637   2.17023437
| 54> H    1.72597609   2.97404449   3.12780728
| 55> H   -0.02466921   2.86714655   3.17212606
| 56> H    3.26285613  -1.89420841   0.60757079
| 57> H    1.57874924  -2.87420185  -1.27890244
| 58> *
| 59>
| 60>                          ****END OF INPUT****
 Total Charge           Charge          ....    1
 Multiplicity           Mult            ....    1
 Number of Electrons    NEL             ....  164
Dispersion correction           -0.031094273
FINAL SINGLE POINT ENERGY     -1288.400066709514
Dispersion correction            ... done
Dispersion correction           -0.031102031
FINAL SINGLE POINT ENERGY     -1288.399150309822
Dispersion correction            ... done
Dispersion correction           -0.031048560
FINAL SINGLE POINT ENERGY     -1288.400156358573
Dispersion correction            ... done
FINAL SINGLE POINT ENERGY     -1288.398956370666
FINAL SINGLE POINT ENERGY     -1288.400224812645
FINAL SINGLE POINT ENERGY     -1288.400224624610
FINAL SINGLE POINT ENERGY     -1288.400255710021
FINAL SINGLE POINT ENERGY     -1288.400262927311
Dispersion correction            ... done
Dispersion correction           -0.030985855
FINAL SINGLE POINT ENERGY     -1288.400269499680
Dispersion correction            ... done
Dispersion correction           -0.030979950
FINAL SINGLE POINT ENERGY     -1288.400281195461
Dispersion correction            ... done
                    ***********************HURRAY********************

CARTESIAN COORDINATES (ANGSTROEM)
---------------------------------
  Ir     0.607100   -0.710053    0.430299
  C      0.059437   -2.799427    0.339337
  C      0.122750   -2.342893    1.704686
  C      2.218167   -2.115216    0.772305
  C      1.330826   -2.638810   -0.241539
  C      1.481878   -1.968652    1.962761
  N     -1.047246    0.168654   -0.527058
  C     -2.312619    0.487500    0.151439
  C     -3.117923    1.573060   -0.544352
  H     -3.942970    1.868430    0.102435
  H     -3.564175    1.237863   -1.482018
  H     -2.521241    2.465328   -0.736208
  C     -3.125876   -0.788045    0.336048
  H     -2.013681    0.855102    1.134268
  H     -4.033909   -0.564290    0.893886
  H     -3.420804   -1.212670   -0.624414
  H     -2.578986   -1.544307    0.897330
  C     -0.860093    0.380630   -1.772006
  C      0.487469    0.153470   -2.243609
  H     -1.644089    0.745093   -2.429242
  C      1.579938    0.430680   -1.425488
  C      2.790252    0.022954   -2.060483
  S      0.927955   -0.560790   -3.723784
  C      2.590196   -0.522152   -3.288930
  H      1.525370    1.335064   -0.677945
  H      3.771657    0.180261   -1.637220
  H      3.331903   -0.883983   -3.984838
  H     -0.822071   -3.170175   -0.163778
  H     -0.674829   -2.373295    2.432144
  H      1.855351   -1.563409    2.892263
  O      1.311058    2.478133    0.246615
  O      0.534185    0.923105    1.643753
  C      0.905580    2.124975    1.350750
  C      0.841852    3.093764    2.498961
  H      0.803431    4.117395    2.136634
  H      1.743388    2.987137    3.105431
  H     -0.008326    2.895655    3.148454
  H      3.266278   -1.890225    0.643459
  H      1.602189   -2.876673   -1.259601

 Multiplicity           Mult            ....    1
 Number of Electrons    NEL             ....  164
 Basis Dimension        Dim             ....  358

ORBITAL ENERGIES
----------------

  NO   OCC          E(Eh)            E(eV)
   0   2.0000     -89.766866     -2442.6806
   1   2.0000     -19.620043      -533.8885
   2   2.0000     -19.583961      -532.9067
   3   2.0000     -14.842298      -403.8795
   4   2.0000     -10.676421      -290.5202
   5   2.0000     -10.663247      -290.1617
   6   2.0000     -10.637233      -289.4538
   7   2.0000     -10.636375      -289.4305
   8   2.0000     -10.633026      -289.3393
   9   2.0000     -10.631025      -289.2849
  10   2.0000     -10.629801      -289.2516
  11   2.0000     -10.629342      -289.2391
  12   2.0000     -10.616123      -288.8794
  13   2.0000     -10.612749      -288.7876
  14   2.0000     -10.588505      -288.1279
  15   2.0000     -10.586288      -288.0675
  16   2.0000     -10.557227      -287.2768
  17   2.0000     -10.552174      -287.1393
  18   2.0000     -10.530540      -286.5505
  19   2.0000      -8.406198      -228.7443
  20   2.0000      -6.296220      -171.3289
  21   2.0000      -6.292560      -171.2293
  22   2.0000      -6.291015      -171.1872
  23   2.0000      -4.028776      -109.6286
  24   2.0000      -2.347567       -63.8805
  25   2.0000      -2.313721       -62.9596
  26   2.0000      -2.312496       -62.9262
  27   2.0000      -1.300638       -35.3922
  28   2.0000      -1.215230       -33.0681
  29   2.0000      -1.203911       -32.7601
  30   2.0000      -1.172073       -31.8937
  31   2.0000      -1.130734       -30.7688
  32   2.0000      -1.028561       -27.9886
  33   2.0000      -0.986567       -26.8459
  34   2.0000      -0.977325       -26.5944
  35   2.0000      -0.969611       -26.3845
  36   2.0000      -0.962910       -26.2021
  37   2.0000      -0.923690       -25.1349
  38   2.0000      -0.903612       -24.5885
  39   2.0000      -0.875979       -23.8366
  40   2.0000      -0.799936       -21.7674
  41   2.0000      -0.788148       -21.4466
  42   2.0000      -0.787005       -21.4155
  43   2.0000      -0.783544       -21.3213
  44   2.0000      -0.772098       -21.0099
  45   2.0000      -0.754974       -20.5439
  46   2.0000      -0.743662       -20.2361
  47   2.0000      -0.724059       -19.7026
  48   2.0000      -0.693973       -18.8840
  49   2.0000      -0.672041       -18.2872
  50   2.0000      -0.665769       -18.1165
  51   2.0000      -0.651274       -17.7221
  52   2.0000      -0.646268       -17.5858
  53   2.0000      -0.639814       -17.4102
  54   2.0000      -0.634793       -17.2736
  55   2.0000      -0.626789       -17.0558
  56   2.0000      -0.623347       -16.9621
  57   2.0000      -0.613682       -16.6991
  58   2.0000      -0.607787       -16.5387
  59   2.0000      -0.607112       -16.5204
  60   2.0000      -0.599804       -16.3215
  61   2.0000      -0.590816       -16.0769
  62   2.0000      -0.581075       -15.8118
  63   2.0000      -0.574311       -15.6278
  64   2.0000      -0.564874       -15.3710
  65   2.0000      -0.553611       -15.0645
  66   2.0000      -0.552529       -15.0351
  67   2.0000      -0.548536       -14.9264
  68   2.0000      -0.539706       -14.6862
  69   2.0000      -0.536097       -14.5879
  70   2.0000      -0.527964       -14.3666
  71   2.0000      -0.520740       -14.1701
  72   2.0000      -0.516163       -14.0455
  73   2.0000      -0.503921       -13.7124
  74   2.0000      -0.486940       -13.2503
  75   2.0000      -0.481624       -13.1056
  76   2.0000      -0.469811       -12.7842
  77   2.0000      -0.447014       -12.1639
  78   2.0000      -0.440867       -11.9966
  79   2.0000      -0.425410       -11.5760
  80   2.0000      -0.416670       -11.3382
  81   2.0000      -0.403271       -10.9736
  82   0.0000      -0.203481        -5.5370
  83   0.0000      -0.160427        -4.3655
  84   0.0000      -0.142037        -3.8650
  85   0.0000      -0.101302        -2.7566
  86   0.0000      -0.077852        -2.1184

MULLIKEN ATOMIC CHARGES
-----------------------
   0 Ir:    0.611144
   1 C :   -0.210165
   2 C :   -0.286728
   3 C :   -0.237248
   4 C :   -0.247406
   5 C :   -0.163919
   6 N :   -0.421933
   7 C :   -0.121084
   8 C :   -0.692523
   9 H :    0.272680
  10 H :    0.224923
  11 H :    0.261573
  12 C :   -0.638134
  13 H :    0.283290
  14 H :    0.264649
  15 H :    0.230668
  16 H :    0.233083
  17 C :    0.071402
  18 C :   -0.184030
  19 H :    0.292995
  20 C :   -0.467737
  21 C :   -0.119738
  22 S :    0.308211
  23 C :   -0.433695
  24 H :    0.496596
  25 H :    0.269353
  26 H :    0.298977
  27 H :    0.290884
  28 H :    0.291957
  29 H :    0.306442
  30 O :   -0.474482
  31 O :   -0.542785
  32 C :    0.609891
  33 C :   -0.744843
  34 H :    0.268017
  35 H :    0.264239
  36 H :    0.250643
  37 H :    0.291813
  38 H :    0.293021
Sum of atomic charges:    1.0000000

LOEWDIN ATOMIC CHARGES
----------------------
   0 Ir:   -0.229422
   1 C :   -0.039698
   2 C :   -0.065693
   3 C :   -0.055415
   4 C :   -0.058371
   5 C :   -0.022503
   6 N :   -0.000116
   7 C :   -0.069218
   8 C :   -0.364389
   9 H :    0.157662
  10 H :    0.133416
  11 H :    0.147328
  12 C :   -0.343304
  13 H :    0.157505
  14 H :    0.153226
  15 H :    0.137133
  16 H :    0.134287
  17 C :    0.034377
  18 C :   -0.174453
  19 H :    0.163700
  20 C :   -0.190518
  21 C :   -0.130944
  22 S :    0.476137
  23 C :   -0.263984
  24 H :    0.284948
  25 H :    0.163944
  26 H :    0.168773
  27 H :    0.184860
  28 H :    0.185560
  29 H :    0.193521
  30 O :   -0.275644
  31 O :   -0.211298
  32 C :    0.148433
  33 C :   -0.377151
  34 H :    0.158632
  35 H :    0.165697
  36 H :    0.151983
  37 H :    0.186166
  38 H :    0.184833

  Mayer bond orders larger than 0.100000
B(  0-Ir,  1-C ) :   0.4170 B(  0-Ir,  2-C ) :   0.5178 B(  0-Ir,  3-C ) :   0.4628
B(  0-Ir,  4-C ) :   0.4472 B(  0-Ir,  5-C ) :   0.4002 B(  0-Ir,  6-N ) :   0.4596
B(  0-Ir, 20-C ) :   0.2718 B(  0-Ir, 31-O ) :   0.5874 B(  1-C ,  2-C ) :   1.1208
B(  1-C ,  4-C ) :   1.2466 B(  1-C , 27-H ) :   0.9036 B(  2-C ,  5-C ) :   1.1402
B(  2-C , 28-H ) :   0.9078 B(  3-C ,  4-C ) :   1.1059 B(  3-C ,  5-C ) :   1.2299
B(  3-C , 37-H ) :   0.9053 B(  4-C , 38-H ) :   0.8995 B(  5-C , 29-H ) :   0.8978
B(  6-N ,  7-C ) :   0.8914 B(  6-N , 17-C ) :   1.6949 B(  7-C ,  8-C ) :   0.9918
B(  7-C , 12-C ) :   0.9686 B(  7-C , 13-H ) :   0.8708 B(  8-C ,  9-H ) :   0.9035
B(  8-C , 10-H ) :   0.9127 B(  8-C , 11-H ) :   0.9078 B( 12-C , 14-H ) :   0.9063
B( 12-C , 15-H ) :   0.9154 B( 12-C , 16-H ) :   0.9113 B( 17-C , 18-C ) :   1.0509
B( 17-C , 19-H ) :   0.8741 B( 18-C , 20-C ) :   1.2815 B( 18-C , 22-S ) :   1.2416
B( 20-C , 21-C ) :   1.2514 B( 20-C , 24-H ) :   0.4943 B( 21-C , 23-C ) :   1.5542
B( 21-C , 25-H ) :   0.9031 B( 22-S , 23-C ) :   1.1981 B( 23-C , 26-H ) :   0.8916
B( 24-H , 30-O ) :   0.2317 B( 30-O , 32-C ) :   1.7173 B( 31-O , 32-C ) :   1.2627
B( 32-C , 33-C ) :   0.9449 B( 33-C , 34-H ) :   0.9059 B( 33-C , 35-H ) :   0.9001
B( 33-C , 36-H ) :   0.9102

Dispersion correction           -0.030980816
FINAL SINGLE POINT ENERGY     -1288.400281945404

DIPOLE MOMENT
-------------
                                X             Y             Z
Electronic contribution:     37.01715     -66.69767      70.50378
Nuclear contribution   :    -37.64724      65.42080     -70.90625
                        -----------------------------------------
Total Dipole Moment    :     -0.63010      -1.27687      -0.40247
                        -----------------------------------------
Magnitude (a.u.)       :      1.47967
Magnitude (Debye)      :      3.76101

Rotational constants in cm-1:     0.010773     0.009159     0.008280
Rotational constants in MHz :   322.969123   274.575800   248.217485

                             ****ORCA TERMINATED NORMALLY****
TOTAL RUN TIME: 0 days 1 hours 25 minutes 39 seconds 893 msec
