                         Program Version 5.0.3 -  RELEASE  -
|  1> ! Opt PBEh-3c
|  2> %geom Constraints
|  3> { B 0 20 2.4714285714285715 C }
|  4> { B 24 30 1.4428571428571428 C }
|  5>     end
|  6> end
|  7> %output
|  8> xyzfile=True
|  9> end
| 10> %scf
| 11> maxiter 250
| 12> end
| 13> %output
| 14> Print[P_Hirshfeld] = 1
| 15> end
| 16> % maxcore
| 17> 4000
| 18> *xyz 1 1
| 19> Ir   0.58638227  -0.72390400   0.45441868
| 20> C    0.02989275  -2.80462607   0.33953381
| 21> C    0.11940520  -2.35650409   1.70839084
| 22> C    2.19902194  -2.13792659   0.74587538
| 23> C    1.29152669  -2.64351976  -0.25970167
| 24> C    1.48864698  -2.00095189   1.95094615
| 25> N   -1.04431675   0.17645857  -0.52088915
| 26> C   -2.31375037   0.51335563   0.14170633
| 27> C   -3.13560017   1.54871954  -0.60844031
| 28> H   -3.96737388   1.86054056   0.02168472
| 29> H   -3.57284677   1.15890774  -1.52917144
| 30> H   -2.55601482   2.44211271  -0.84324165
| 31> C   -3.11155131  -0.75957494   0.39628019
| 32> H   -2.01836256   0.93711745   1.10305203
| 33> H   -4.02381688  -0.51532502   0.93834087
| 34> H   -3.39948408  -1.24098265  -0.53927968
| 35> H   -2.55930067  -1.47653252   1.00213205
| 36> C   -0.83530784   0.38388592  -1.76246540
| 37> C    0.51785351   0.15240875  -2.22458039
| 38> H   -1.60918500   0.74926480  -2.43146302
| 39> C    1.62323649   0.52251574  -1.46730029
| 40> C    2.82585253   0.09747188  -2.10304266
| 41> S    0.93962225  -0.64802509  -3.67281429
| 42> C    2.60968750  -0.53726542  -3.28517776
| 43> H    1.54365307   1.39276169  -0.68429358
| 44> H    3.81326221   0.30561001  -1.71732855
| 45> H    3.34426105  -0.93003056  -3.97186789
| 46> H   -0.86325579  -3.16404384  -0.15108274
| 47> H   -0.66568016  -2.39003393   2.44953465
| 48> H    1.88134899  -1.61048189   2.87879579
| 49> O    1.29546737   2.46326964   0.27261911
| 50> O    0.53552249   0.89994844   1.67135577
| 51> C    0.89905208   2.10614220   1.37765682
| 52> C    0.83303121   3.07062014   2.52911677
| 53> H    0.78818424   4.09487469   2.16918518
| 54> H    1.73662936   2.96770507   3.13314073
| 55> H   -0.01434029   2.86670814   3.18052072
| 56> H    3.24321533  -1.90736820   0.59509059
| 57> H    1.54480188  -2.86411279  -1.28649664
| 58> *
| 59>
| 60>                          ****END OF INPUT****
 Total Charge           Charge          ....    1
 Multiplicity           Mult            ....    1
 Number of Electrons    NEL             ....  164
Dispersion correction           -0.031027184
FINAL SINGLE POINT ENERGY     -1288.397988848433
Dispersion correction            ... done
Dispersion correction           -0.031039357
FINAL SINGLE POINT ENERGY     -1288.396802470700
Dispersion correction            ... done
Dispersion correction           -0.030985092
FINAL SINGLE POINT ENERGY     -1288.398064445909
Dispersion correction            ... done
FINAL SINGLE POINT ENERGY     -1288.396599701892
FINAL SINGLE POINT ENERGY     -1288.398147696287
FINAL SINGLE POINT ENERGY     -1288.398161085251
FINAL SINGLE POINT ENERGY     -1288.398181005504
FINAL SINGLE POINT ENERGY     -1288.398190149773
FINAL SINGLE POINT ENERGY     -1288.398198997386
Dispersion correction            ... done
Dispersion correction           -0.030906531
FINAL SINGLE POINT ENERGY     -1288.398211749090
Dispersion correction            ... done
Dispersion correction           -0.030905013
FINAL SINGLE POINT ENERGY     -1288.398213124111
Dispersion correction            ... done
                    ***********************HURRAY********************

CARTESIAN COORDINATES (ANGSTROEM)
---------------------------------
  Ir     0.590913   -0.720897    0.457103
  C      0.037201   -2.803679    0.347901
  C      0.112798   -2.353530    1.716034
  C      2.201767   -2.132441    0.771639
  C      1.304330   -2.642548   -0.240592
  C      1.478097   -1.992368    1.969124
  N     -1.044946    0.167143   -0.520443
  C     -2.315792    0.492513    0.145776
  C     -3.125963    1.556818   -0.576637
  H     -3.955090    1.860521    0.060980
  H     -3.566777    1.198041   -1.508165
  H     -2.535472    2.449220   -0.786446
  C     -3.123129   -0.782463    0.356978
  H     -2.023417    0.884941    1.121137
  H     -4.036679   -0.549597    0.901943
  H     -3.408768   -1.233089   -0.594444
  H     -2.577618   -1.521249    0.942382
  C     -0.845852    0.375825   -1.764282
  C      0.504093    0.156482   -2.234804
  H     -1.628150    0.734546   -2.427018
  C      1.604279    0.482272   -1.449054
  C      2.809922    0.074855   -2.089946
  S      0.934100   -0.586561   -3.708766
  C      2.600493   -0.507180   -3.300565
  H      1.532942    1.368179   -0.666273
  H      3.795283    0.258316   -1.686826
  H      3.338459   -0.875900   -3.996899
  H     -0.850261   -3.166004   -0.150856
  H     -0.679407   -2.386314    2.449460
  H      1.861286   -1.598197    2.899393
  O      1.318707    2.455800    0.257318
  O      0.534464    0.913745    1.665253
  C      0.911906    2.111669    1.364665
  C      0.853209    3.089123    2.504961
  H      0.812507    4.109755    2.134448
  H      1.758176    2.988172    3.107320
  H      0.006614    2.895619    3.160398
  H      3.248026   -1.904359    0.632403
  H      1.567118   -2.867990   -1.263859

 Multiplicity           Mult            ....    1
 Number of Electrons    NEL             ....  164
 Basis Dimension        Dim             ....  358

ORBITAL ENERGIES
----------------

  NO   OCC          E(Eh)            E(eV)
   0   2.0000     -89.762833     -2442.5709
   1   2.0000     -19.622163      -533.9462
   2   2.0000     -19.585595      -532.9511
   3   2.0000     -14.841478      -403.8571
   4   2.0000     -10.678864      -290.5867
   5   2.0000     -10.662529      -290.1422
   6   2.0000     -10.637772      -289.4685
   7   2.0000     -10.634224      -289.3719
   8   2.0000     -10.633667      -289.3568
   9   2.0000     -10.633219      -289.3446
  10   2.0000     -10.631900      -289.3087
  11   2.0000     -10.631094      -289.2868
  12   2.0000     -10.616328      -288.8850
  13   2.0000     -10.610396      -288.7235
  14   2.0000     -10.584736      -288.0253
  15   2.0000     -10.582820      -287.9732
  16   2.0000     -10.557336      -287.2797
  17   2.0000     -10.552243      -287.1411
  18   2.0000     -10.531671      -286.5813
  19   2.0000      -8.402160      -228.6344
  20   2.0000      -6.292220      -171.2200
  21   2.0000      -6.288573      -171.1208
  22   2.0000      -6.286913      -171.0756
  23   2.0000      -4.030269      -109.6692
  24   2.0000      -2.349388       -63.9301
  25   2.0000      -2.315213       -63.0002
  26   2.0000      -2.313767       -62.9608
  27   2.0000      -1.303150       -35.4605
  28   2.0000      -1.214018       -33.0351
  29   2.0000      -1.206533       -32.8314
  30   2.0000      -1.173880       -31.9429
  31   2.0000      -1.127180       -30.6721
  32   2.0000      -1.027483       -27.9592
  33   2.0000      -0.988615       -26.9016
  34   2.0000      -0.978924       -26.6379
  35   2.0000      -0.966242       -26.2928
  36   2.0000      -0.960290       -26.1308
  37   2.0000      -0.925385       -25.1810
  38   2.0000      -0.903704       -24.5910
  39   2.0000      -0.874337       -23.7919
  40   2.0000      -0.798330       -21.7237
  41   2.0000      -0.789810       -21.4918
  42   2.0000      -0.788224       -21.4487
  43   2.0000      -0.781625       -21.2691
  44   2.0000      -0.773341       -21.0437
  45   2.0000      -0.755284       -20.5523
  46   2.0000      -0.744216       -20.2512
  47   2.0000      -0.723019       -19.6743
  48   2.0000      -0.694327       -18.8936
  49   2.0000      -0.672798       -18.3078
  50   2.0000      -0.665513       -18.1095
  51   2.0000      -0.651564       -17.7299
  52   2.0000      -0.647919       -17.6308
  53   2.0000      -0.640591       -17.4314
  54   2.0000      -0.636327       -17.3153
  55   2.0000      -0.628486       -17.1020
  56   2.0000      -0.623776       -16.9738
  57   2.0000      -0.612239       -16.6599
  58   2.0000      -0.609399       -16.5826
  59   2.0000      -0.608426       -16.5561
  60   2.0000      -0.597895       -16.2696
  61   2.0000      -0.589061       -16.0292
  62   2.0000      -0.578349       -15.7377
  63   2.0000      -0.571773       -15.5587
  64   2.0000      -0.564049       -15.3486
  65   2.0000      -0.554235       -15.0815
  66   2.0000      -0.552682       -15.0392
  67   2.0000      -0.548526       -14.9262
  68   2.0000      -0.539123       -14.6703
  69   2.0000      -0.535578       -14.5738
  70   2.0000      -0.528198       -14.3730
  71   2.0000      -0.521212       -14.1829
  72   2.0000      -0.516187       -14.0462
  73   2.0000      -0.506034       -13.7699
  74   2.0000      -0.488339       -13.2884
  75   2.0000      -0.481373       -13.0988
  76   2.0000      -0.466371       -12.6906
  77   2.0000      -0.449186       -12.2230
  78   2.0000      -0.440969       -11.9994
  79   2.0000      -0.424007       -11.5378
  80   2.0000      -0.417194       -11.3524
  81   2.0000      -0.403944       -10.9919
  82   0.0000      -0.201430        -5.4812
  83   0.0000      -0.163952        -4.4614
  84   0.0000      -0.141933        -3.8622
  85   0.0000      -0.100689        -2.7399
  86   0.0000      -0.076961        -2.0942

MULLIKEN ATOMIC CHARGES
-----------------------
   0 Ir:    0.616682
   1 C :   -0.208704
   2 C :   -0.292361
   3 C :   -0.233498
   4 C :   -0.246395
   5 C :   -0.165140
   6 N :   -0.425203
   7 C :   -0.118528
   8 C :   -0.694221
   9 H :    0.272923
  10 H :    0.225710
  11 H :    0.261044
  12 C :   -0.639093
  13 H :    0.282007
  14 H :    0.264939
  15 H :    0.230804
  16 H :    0.232890
  17 C :    0.069056
  18 C :   -0.202337
  19 H :    0.292570
  20 C :   -0.433241
  21 C :   -0.133638
  22 S :    0.299965
  23 C :   -0.430849
  24 H :    0.498629
  25 H :    0.267501
  26 H :    0.297603
  27 H :    0.292116
  28 H :    0.293303
  29 H :    0.306931
  30 O :   -0.479721
  31 O :   -0.543100
  32 C :    0.612715
  33 C :   -0.745561
  34 H :    0.268635
  35 H :    0.265020
  36 H :    0.251539
  37 H :    0.294345
  38 H :    0.294661
Sum of atomic charges:    1.0000000

LOEWDIN ATOMIC CHARGES
----------------------
   0 Ir:   -0.218621
   1 C :   -0.039025
   2 C :   -0.060354
   3 C :   -0.050157
   4 C :   -0.056596
   5 C :   -0.024750
   6 N :   -0.004734
   7 C :   -0.068673
   8 C :   -0.364719
   9 H :    0.157653
  10 H :    0.133762
  11 H :    0.147080
  12 C :   -0.343440
  13 H :    0.156931
  14 H :    0.153259
  15 H :    0.137233
  16 H :    0.134274
  17 C :    0.035717
  18 C :   -0.183648
  19 H :    0.163285
  20 C :   -0.187425
  21 C :   -0.138791
  22 S :    0.465813
  23 C :   -0.263131
  24 H :    0.284038
  25 H :    0.162749
  26 H :    0.168009
  27 H :    0.185607
  28 H :    0.186219
  29 H :    0.193848
  30 O :   -0.276944
  31 O :   -0.210247
  32 C :    0.151827
  33 C :   -0.376871
  34 H :    0.159085
  35 H :    0.166244
  36 H :    0.152410
  37 H :    0.187358
  38 H :    0.185724

  Mayer bond orders larger than 0.100000
B(  0-Ir,  1-C ) :   0.4194 B(  0-Ir,  2-C ) :   0.5384 B(  0-Ir,  3-C ) :   0.4628
B(  0-Ir,  4-C ) :   0.4503 B(  0-Ir,  5-C ) :   0.4021 B(  0-Ir,  6-N ) :   0.4626
B(  0-Ir, 20-C ) :   0.2403 B(  0-Ir, 31-O ) :   0.5887 B(  1-C ,  2-C ) :   1.1162
B(  1-C ,  4-C ) :   1.2465 B(  1-C , 27-H ) :   0.9030 B(  2-C ,  5-C ) :   1.1336
B(  2-C , 28-H ) :   0.9070 B(  3-C ,  4-C ) :   1.1048 B(  3-C ,  5-C ) :   1.2335
B(  3-C , 37-H ) :   0.9037 B(  4-C , 38-H ) :   0.8986 B(  5-C , 29-H ) :   0.8977
B(  6-N ,  7-C ) :   0.8912 B(  6-N , 17-C ) :   1.6961 B(  7-C ,  8-C ) :   0.9923
B(  7-C , 12-C ) :   0.9691 B(  7-C , 13-H ) :   0.8713 B(  8-C ,  9-H ) :   0.9033
B(  8-C , 10-H ) :   0.9125 B(  8-C , 11-H ) :   0.9079 B( 12-C , 14-H ) :   0.9063
B( 12-C , 15-H ) :   0.9153 B( 12-C , 16-H ) :   0.9111 B( 17-C , 18-C ) :   1.0501
B( 17-C , 19-H ) :   0.8738 B( 18-C , 20-C ) :   1.2971 B( 18-C , 22-S ) :   1.2258
B( 20-C , 21-C ) :   1.2607 B( 20-C , 24-H ) :   0.4920 B( 21-C , 23-C ) :   1.5494
B( 21-C , 25-H ) :   0.9039 B( 22-S , 23-C ) :   1.2010 B( 23-C , 26-H ) :   0.8922
B( 24-H , 30-O ) :   0.2288 B( 30-O , 32-C ) :   1.7085 B( 31-O , 32-C ) :   1.2652
B( 32-C , 33-C ) :   0.9460 B( 33-C , 34-H ) :   0.9056 B( 33-C , 35-H ) :   0.8995
B( 33-C , 36-H ) :   0.9100

Dispersion correction           -0.030903084
FINAL SINGLE POINT ENERGY     -1288.398214053068

DIPOLE MOMENT
-------------
                                X             Y             Z
Electronic contribution:     35.33609     -67.50588      73.00527
Nuclear contribution   :    -35.96860      66.23446     -73.29943
                        -----------------------------------------
Total Dipole Moment    :     -0.63251      -1.27141      -0.29416
                        -----------------------------------------
Magnitude (a.u.)       :      1.45020
Magnitude (Debye)      :      3.68613

Rotational constants in cm-1:     0.010739     0.009098     0.008257
Rotational constants in MHz :   321.939287   272.754613   247.553328

                             ****ORCA TERMINATED NORMALLY****
TOTAL RUN TIME: 0 days 1 hours 37 minutes 39 seconds 373 msec
