                         Program Version 5.0.3 -  RELEASE  -
|  1> ! Opt PBEh-3c
|  2> %geom Constraints
|  3> { B 0 20 2.085714285714286 C }
|  4> { B 24 30 1.342857142857143 C }
|  5>     end
|  6> end
|  7> %output
|  8> xyzfile=True
|  9> end
| 10> %scf
| 11> maxiter 250
| 12> end
| 13> %output
| 14> Print[P_Hirshfeld] = 1
| 15> end
| 16> % maxcore
| 17> 4000
| 18> *xyz 1 1
| 19> Ir   0.61152697  -0.73620209   0.42538483
| 20> C    0.13695449  -2.84893329   0.35126441
| 21> C   -0.09196034  -2.39200559   1.69778324
| 22> C    2.14342876  -2.07127481   1.19309413
| 23> C    1.50594406  -2.66660742   0.05183933
| 24> C    1.14836980  -1.93441147   2.20057226
| 25> N   -1.07025938   0.11213534  -0.50961783
| 26> C   -2.34525725   0.30229456   0.19854916
| 27> C   -3.14035649   1.50841898  -0.28101592
| 28> H   -3.97343323   1.67396529   0.40023303
| 29> H   -3.57249416   1.36535480  -1.27233120
| 30> H   -2.53783372   2.41702168  -0.28825575
| 31> C   -3.16790691  -0.97833018   0.10932925
| 32> H   -2.06866607   0.47177217   1.24032189
| 33> H   -4.07657886  -0.87877722   0.70171755
| 34> H   -3.46186204  -1.18488337  -0.92056436
| 35> H   -2.62330971  -1.84233958   0.48651730
| 36> C   -0.91801904   0.47436178  -1.73057805
| 37> C    0.39886701   0.30838610  -2.26632627
| 38> H   -1.72839505   0.90726760  -2.30823388
| 39> C    1.43644280   0.05834333  -1.36878012
| 40> C    2.64868373  -0.17368532  -2.08819249
| 41> S    0.88587878   0.29092750  -3.89209295
| 42> C    2.49627760  -0.07266557  -3.43822877
| 43> H    1.63902971   1.15743198  -0.63446245
| 44> H    3.60646991  -0.34887676  -1.61982231
| 45> H    3.25661514  -0.17404543  -4.19772474
| 46> H   -0.59809511  -3.28660265  -0.30829312
| 47> H   -1.01966194  -2.43971119   2.24717792
| 48> H    1.30150145  -1.48536316   3.17180979
| 49> O    1.75201652   2.29456400   0.09765877
| 50> O    0.57655278   1.03290488   1.50432359
| 51> C    1.15001213   2.11569089   1.17814184
| 52> C    1.11849277   3.23706327   2.17332133
| 53> H    0.99554368   4.19316922   1.66949445
| 54> H    2.07497329   3.27071494   2.69777638
| 55> H    0.33102987   3.09708238   2.90823787
| 56> H    3.19341178  -1.84767572   1.30112248
| 57> H    1.98543640  -2.92728997  -0.88041045
| 58> *
| 59>
| 60>                          ****END OF INPUT****
 Total Charge           Charge          ....    1
 Multiplicity           Mult            ....    1
 Number of Electrons    NEL             ....  164
Dispersion correction           -0.030755247
FINAL SINGLE POINT ENERGY     -1288.403441668136
Dispersion correction            ... done
Dispersion correction           -0.030720235
FINAL SINGLE POINT ENERGY     -1288.403682176583
Dispersion correction            ... done
Dispersion correction           -0.030705034
FINAL SINGLE POINT ENERGY     -1288.403778231719
Dispersion correction            ... done
FINAL SINGLE POINT ENERGY     -1288.403837375464
FINAL SINGLE POINT ENERGY     -1288.403885683185
FINAL SINGLE POINT ENERGY     -1288.403910269104
FINAL SINGLE POINT ENERGY     -1288.403924211829
FINAL SINGLE POINT ENERGY     -1288.403932603002
FINAL SINGLE POINT ENERGY     -1288.403940557020
FINAL SINGLE POINT ENERGY     -1288.403945118316
FINAL SINGLE POINT ENERGY     -1288.403947986706
FINAL SINGLE POINT ENERGY     -1288.403949476253
FINAL SINGLE POINT ENERGY     -1288.403950679487
Dispersion correction            ... done
Dispersion correction           -0.030663918
FINAL SINGLE POINT ENERGY     -1288.403951917632
Dispersion correction            ... done
Dispersion correction           -0.030664931
FINAL SINGLE POINT ENERGY     -1288.403953251242
Dispersion correction            ... done
                    ***********************HURRAY********************

CARTESIAN COORDINATES (ANGSTROEM)
---------------------------------
  Ir     0.612676   -0.742003    0.413810
  C      0.157987   -2.856142    0.338988
  C     -0.111176   -2.414521    1.684211
  C      2.131109   -2.059062    1.238851
  C      1.536069   -2.663166    0.082640
  C      1.103171   -1.941540    2.221371
  N     -1.077294    0.103693   -0.507160
  C     -2.350016    0.282826    0.207389
  C     -3.139637    1.504206   -0.241530
  H     -3.971986    1.656331    0.443728
  H     -3.572155    1.389074   -1.236308
  H     -2.532487    2.409613   -0.225645
  C     -3.178055   -0.991907    0.089110
  H     -2.071392    0.426597    1.252495
  H     -4.082070   -0.906179    0.690757
  H     -3.480003   -1.169059   -0.943933
  H     -2.632977   -1.867843    0.437208
  C     -0.929692    0.480565   -1.724790
  C      0.385266    0.314301   -2.262237
  H     -1.740602    0.923042   -2.294112
  C      1.407291    0.011104   -1.361471
  C      2.627384   -0.198771   -2.076527
  S      0.894631    0.370696   -3.880399
  C      2.493946   -0.030556   -3.422266
  H      1.638695    1.172863   -0.670867
  H      3.576965   -0.409194   -1.605826
  H      3.263881   -0.104152   -4.175304
  H     -0.551113   -3.305795   -0.340530
  H     -1.055248   -2.470032    2.204053
  H      1.222650   -1.493732    3.197802
  O      1.757867    2.300658    0.048260
  O      0.599785    1.044540    1.475087
  C      1.167781    2.123120    1.139827
  C      1.154497    3.251295    2.126981
  H      1.031815    4.205275    1.619185
  H      2.116591    3.281455    2.641388
  H      0.374119    3.119703    2.870880
  H      3.175794   -1.829825    1.380967
  H      2.045303   -2.918287   -0.835344

 Multiplicity           Mult            ....    1
 Number of Electrons    NEL             ....  164
 Basis Dimension        Dim             ....  358

ORBITAL ENERGIES
----------------

  NO   OCC          E(Eh)            E(eV)
   0   2.0000     -89.762478     -2442.5612
   1   2.0000     -19.639477      -534.4173
   2   2.0000     -19.633360      -534.2509
   3   2.0000     -14.831712      -403.5914
   4   2.0000     -10.703100      -291.2461
   5   2.0000     -10.652861      -289.8791
   6   2.0000     -10.622823      -289.0617
   7   2.0000     -10.622711      -289.0587
   8   2.0000     -10.621862      -289.0356
   9   2.0000     -10.619660      -288.9756
  10   2.0000     -10.612539      -288.7819
  11   2.0000     -10.611942      -288.7656
  12   2.0000     -10.609539      -288.7002
  13   2.0000     -10.609132      -288.6892
  14   2.0000     -10.589982      -288.1681
  15   2.0000     -10.588360      -288.1239
  16   2.0000     -10.552231      -287.1408
  17   2.0000     -10.550008      -287.0803
  18   2.0000     -10.548335      -287.0348
  19   2.0000      -8.401834      -228.6255
  20   2.0000      -6.291713      -171.2062
  21   2.0000      -6.288193      -171.1104
  22   2.0000      -6.286790      -171.0723
  23   2.0000      -4.018129      -109.3388
  24   2.0000      -2.334823       -63.5338
  25   2.0000      -2.304815       -62.7172
  26   2.0000      -2.301084       -62.6157
  27   2.0000      -1.332069       -36.2474
  28   2.0000      -1.233611       -33.5683
  29   2.0000      -1.205074       -32.7917
  30   2.0000      -1.157483       -31.4967
  31   2.0000      -1.126425       -30.6516
  32   2.0000      -1.023288       -27.8451
  33   2.0000      -0.970567       -26.4105
  34   2.0000      -0.968120       -26.3439
  35   2.0000      -0.963537       -26.2192
  36   2.0000      -0.957467       -26.0540
  37   2.0000      -0.943954       -25.6863
  38   2.0000      -0.899314       -24.4716
  39   2.0000      -0.870642       -23.6914
  40   2.0000      -0.796830       -21.6828
  41   2.0000      -0.781072       -21.2540
  42   2.0000      -0.774565       -21.0770
  43   2.0000      -0.773633       -21.0516
  44   2.0000      -0.765011       -20.8170
  45   2.0000      -0.758648       -20.6439
  46   2.0000      -0.741403       -20.1746
  47   2.0000      -0.721145       -19.6233
  48   2.0000      -0.697989       -18.9932
  49   2.0000      -0.684181       -18.6175
  50   2.0000      -0.665034       -18.0965
  51   2.0000      -0.663142       -18.0450
  52   2.0000      -0.650539       -17.7021
  53   2.0000      -0.638044       -17.3621
  54   2.0000      -0.629299       -17.1241
  55   2.0000      -0.625042       -17.0082
  56   2.0000      -0.620513       -16.8850
  57   2.0000      -0.609710       -16.5910
  58   2.0000      -0.599227       -16.3058
  59   2.0000      -0.594955       -16.1895
  60   2.0000      -0.593773       -16.1574
  61   2.0000      -0.590328       -16.0636
  62   2.0000      -0.577958       -15.7270
  63   2.0000      -0.571954       -15.5636
  64   2.0000      -0.563537       -15.3346
  65   2.0000      -0.561166       -15.2701
  66   2.0000      -0.557507       -15.1705
  67   2.0000      -0.545210       -14.8359
  68   2.0000      -0.542288       -14.7564
  69   2.0000      -0.535273       -14.5655
  70   2.0000      -0.529723       -14.4145
  71   2.0000      -0.517841       -14.0912
  72   2.0000      -0.512351       -13.9418
  73   2.0000      -0.503636       -13.7046
  74   2.0000      -0.498221       -13.5573
  75   2.0000      -0.488579       -13.2949
  76   2.0000      -0.476038       -12.9537
  77   2.0000      -0.452457       -12.3120
  78   2.0000      -0.443315       -12.0632
  79   2.0000      -0.416812       -11.3420
  80   2.0000      -0.414184       -11.2705
  81   2.0000      -0.392645       -10.6844
  82   0.0000      -0.201406        -5.4805
  83   0.0000      -0.142975        -3.8905
  84   0.0000      -0.125572        -3.4170
  85   0.0000      -0.085380        -2.3233
  86   0.0000      -0.075361        -2.0507

MULLIKEN ATOMIC CHARGES
-----------------------
   0 Ir:    0.609587
   1 C :   -0.255727
   2 C :   -0.253016
   3 C :   -0.278209
   4 C :   -0.217799
   5 C :   -0.151757
   6 N :   -0.435816
   7 C :   -0.126234
   8 C :   -0.679444
   9 H :    0.268524
  10 H :    0.224404
  11 H :    0.252340
  12 C :   -0.632776
  13 H :    0.276645
  14 H :    0.257586
  15 H :    0.232834
  16 H :    0.233990
  17 C :    0.069159
  18 C :   -0.121016
  19 H :    0.283931
  20 C :   -0.566411
  21 C :   -0.101923
  22 S :    0.342457
  23 C :   -0.424600
  24 H :    0.475663
  25 H :    0.266625
  26 H :    0.297598
  27 H :    0.283972
  28 H :    0.279915
  29 H :    0.295101
  30 O :   -0.484753
  31 O :   -0.499438
  32 C :    0.634999
  33 C :   -0.743845
  34 H :    0.274362
  35 H :    0.277325
  36 H :    0.263956
  37 H :    0.279841
  38 H :    0.291954
Sum of atomic charges:    1.0000000

LOEWDIN ATOMIC CHARGES
----------------------
   0 Ir:   -0.263157
   1 C :   -0.063380
   2 C :   -0.098405
   3 C :   -0.101798
   4 C :   -0.038450
   5 C :   -0.019698
   6 N :   -0.005355
   7 C :   -0.069281
   8 C :   -0.361823
   9 H :    0.155810
  10 H :    0.132724
  11 H :    0.142691
  12 C :   -0.343984
  13 H :    0.153297
  14 H :    0.150176
  15 H :    0.138100
  16 H :    0.133357
  17 C :    0.028673
  18 C :   -0.195734
  19 H :    0.159666
  20 C :   -0.217575
  21 C :   -0.131390
  22 S :    0.495863
  23 C :   -0.256466
  24 H :    0.370389
  25 H :    0.161850
  26 H :    0.169231
  27 H :    0.181486
  28 H :    0.178205
  29 H :    0.186408
  30 O :   -0.256632
  31 O :   -0.173135
  32 C :    0.168594
  33 C :   -0.370939
  34 H :    0.165512
  35 H :    0.173301
  36 H :    0.157251
  37 H :    0.180667
  38 H :    0.183954

  Mayer bond orders larger than 0.100000
B(  0-Ir,  1-C ) :   0.4587 B(  0-Ir,  2-C ) :   0.3823 B(  0-Ir,  3-C ) :   0.4726
B(  0-Ir,  4-C ) :   0.4214 B(  0-Ir,  5-C ) :   0.3571 B(  0-Ir,  6-N ) :   0.4652
B(  0-Ir, 20-C ) :   0.5307 B(  0-Ir, 31-O ) :   0.5048 B(  1-C ,  2-C ) :   1.1252
B(  1-C ,  4-C ) :   1.2159 B(  1-C , 27-H ) :   0.9094 B(  2-C ,  5-C ) :   1.2391
B(  2-C , 28-H ) :   0.9102 B(  3-C ,  4-C ) :   1.1485 B(  3-C ,  5-C ) :   1.1604
B(  3-C , 37-H ) :   0.9145 B(  4-C , 38-H ) :   0.8997 B(  5-C , 29-H ) :   0.9024
B(  6-N ,  7-C ) :   0.8966 B(  6-N , 17-C ) :   1.6430 B(  7-C ,  8-C ) :   0.9901
B(  7-C , 12-C ) :   0.9672 B(  7-C , 13-H ) :   0.8785 B(  8-C ,  9-H ) :   0.9050
B(  8-C , 10-H ) :   0.9131 B(  8-C , 11-H ) :   0.9129 B( 12-C , 14-H ) :   0.9080
B( 12-C , 15-H ) :   0.9152 B( 12-C , 16-H ) :   0.9120 B( 17-C , 18-C ) :   1.1197
B( 17-C , 19-H ) :   0.8768 B( 18-C , 20-C ) :   1.2244 B( 18-C , 22-S ) :   1.2331
B( 20-C , 21-C ) :   1.2675 B( 20-C , 24-H ) :   0.3033 B( 21-C , 23-C ) :   1.5359
B( 21-C , 25-H ) :   0.9023 B( 22-S , 23-C ) :   1.2232 B( 23-C , 26-H ) :   0.8916
B( 24-H , 30-O ) :   0.3772 B( 30-O , 32-C ) :   1.5278 B( 31-O , 32-C ) :   1.4086
B( 32-C , 33-C ) :   0.9452 B( 33-C , 34-H ) :   0.8990 B( 33-C , 35-H ) :   0.8920
B( 33-C , 36-H ) :   0.9073

Dispersion correction           -0.030665241
FINAL SINGLE POINT ENERGY     -1288.403954173104

DIPOLE MOMENT
-------------
                                X             Y             Z
Electronic contribution:     37.42949     -75.05286      70.40408
Nuclear contribution   :    -37.99594      74.75023     -70.59664
                        -----------------------------------------
Total Dipole Moment    :     -0.56646      -0.30263      -0.19257
                        -----------------------------------------
Magnitude (a.u.)       :      0.67048
Magnitude (Debye)      :      1.70421

Rotational constants in cm-1:     0.010565     0.008831     0.008217
Rotational constants in MHz :   316.734694   264.743720   246.346763

                             ****ORCA TERMINATED NORMALLY****
TOTAL RUN TIME: 0 days 2 hours 2 minutes 18 seconds 689 msec
