                         Program Version 5.0.3 -  RELEASE  -
|  1> ! Opt PBEh-3c
|  2> %geom Constraints
|  3> { B 0 20 2.257142857142857 C }
|  4> { B 24 30 1.3285714285714287 C }
|  5>     end
|  6> end
|  7> %output
|  8> xyzfile=True
|  9> end
| 10> %scf
| 11> maxiter 250
| 12> end
| 13> %output
| 14> Print[P_Hirshfeld] = 1
| 15> end
| 16> % maxcore
| 17> 4000
| 18> *xyz 1 1
| 19> Ir   0.60258114  -0.73387955   0.47479764
| 20> C    0.09676624  -2.83503397   0.37283530
| 21> C   -0.05302205  -2.36418664   1.72547808
| 22> C    2.16048481  -2.10296161   1.11108375
| 23> C    1.44407128  -2.66624082  -0.00582230
| 24> C    1.23569280  -1.94747142   2.16920596
| 25> N   -1.05038515   0.11916871  -0.50322091
| 26> C   -2.33266401   0.34361353   0.18491673
| 27> C   -3.12099550   1.52697504  -0.35843677
| 28> H   -3.95518740   1.73143930   0.31103858
| 29> H   -3.55223515   1.33410477  -1.34165829
| 30> H   -2.51523662   2.43183987  -0.41155840
| 31> C   -3.15858851  -0.93736561   0.15105198
| 32> H   -2.06402847   0.56151584   1.21961248
| 33> H   -4.07477332  -0.80322896   0.72467296
| 34> H   -3.44011303  -1.19654925  -0.87042860
| 35> H   -2.62371111  -1.78193541   0.58241884
| 36> C   -0.88732599   0.42616798  -1.73658366
| 37> C    0.43397455   0.26755603  -2.27280942
| 38> H   -1.70133276   0.81800111  -2.33926403
| 39> C    1.52276632   0.20447362  -1.41272785
| 40> C    2.71334042  -0.06934735  -2.14343043
| 41> S    0.85430491   0.03632922  -3.90605274
| 42> C    2.50023256  -0.17473662  -3.48571931
| 43> H    1.63564805   1.18740095  -0.57158064
| 44> H    3.69686768  -0.12671863  -1.70028826
| 45> H    3.23260843  -0.34654981  -4.25990292
| 46> H   -0.68640580  -3.24181289  -0.25030021
| 47> H   -0.94834825  -2.40157848   2.32756904
| 48> H    1.45394405  -1.51277053   3.13452369
| 49> O    1.69417169   2.29456284   0.18606892
| 50> O    0.54265254   1.00032018   1.58341266
| 51> C    1.09670695   2.10124726   1.26023445
| 52> C    1.03547109   3.20647615   2.27231206
| 53> H    0.98522043   4.17527189   1.78140212
| 54> H    1.95046178   3.19026669   2.86727063
| 55> H    0.19395204   3.08397400   2.94892947
| 56> H    3.21615147  -1.88260858   1.15002370
| 57> H    1.86565184  -2.91653879  -0.96833412
| 58> *
| 59>
| 60>                          ****END OF INPUT****
 Total Charge           Charge          ....    1
 Multiplicity           Mult            ....    1
 Number of Electrons    NEL             ....  164
Dispersion correction           -0.030634068
FINAL SINGLE POINT ENERGY     -1288.402157114485
Dispersion correction            ... done
Dispersion correction           -0.030590868
FINAL SINGLE POINT ENERGY     -1288.402406005230
Dispersion correction            ... done
Dispersion correction           -0.030571225
FINAL SINGLE POINT ENERGY     -1288.402488604683
Dispersion correction            ... done
FINAL SINGLE POINT ENERGY     -1288.402542847399
FINAL SINGLE POINT ENERGY     -1288.402585407401
FINAL SINGLE POINT ENERGY     -1288.402603738401
FINAL SINGLE POINT ENERGY     -1288.402609286384
FINAL SINGLE POINT ENERGY     -1288.402610353227
FINAL SINGLE POINT ENERGY     -1288.402611267781
FINAL SINGLE POINT ENERGY     -1288.402611730971
FINAL SINGLE POINT ENERGY     -1288.402612914753
FINAL SINGLE POINT ENERGY     -1288.402614684220
FINAL SINGLE POINT ENERGY     -1288.402617576768
FINAL SINGLE POINT ENERGY     -1288.402621202594
Dispersion correction            ... done
Dispersion correction           -0.030493570
FINAL SINGLE POINT ENERGY     -1288.402624869874
Dispersion correction            ... done
Dispersion correction           -0.030493913
FINAL SINGLE POINT ENERGY     -1288.402627194370
Dispersion correction            ... done
                    ***********************HURRAY********************

CARTESIAN COORDINATES (ANGSTROEM)
---------------------------------
  Ir     0.601166   -0.737254    0.468580
  C      0.108867   -2.840931    0.373075
  C     -0.086014   -2.370921    1.720406
  C      2.144203   -2.091747    1.172515
  C      1.468976   -2.668231    0.039357
  C      1.180792   -1.938695    2.200139
  N     -1.058247    0.110361   -0.503438
  C     -2.341976    0.314265    0.188030
  C     -3.129861    1.512637   -0.322507
  H     -3.966462    1.695945    0.349979
  H     -3.557045    1.349889   -1.312903
  H     -2.524245    2.418849   -0.345940
  C     -3.166701   -0.965775    0.114718
  H     -2.077022    0.503670    1.229266
  H     -4.083089   -0.851348    0.692375
  H     -3.447663   -1.193652   -0.914343
  H     -2.630482   -1.823110    0.518416
  C     -0.898810    0.441900   -1.731757
  C      0.419349    0.289888   -2.272701
  H     -1.714403    0.846115   -2.323653
  C      1.495523    0.145271   -1.406512
  C      2.689818   -0.100550   -2.140817
  S      0.856165    0.167370   -3.913276
  C      2.490939   -0.106127   -3.490143
  H      1.651368    1.166569   -0.570693
  H      3.666700   -0.210168   -1.692799
  H      3.229677   -0.238747   -4.265996
  H     -0.649368   -3.259607   -0.272511
  H     -1.000215   -2.410396    2.293066
  H      1.363934   -1.496238    3.169248
  O      1.753158    2.269274    0.163326
  O      0.549644    1.019101    1.555829
  C      1.134813    2.099723    1.234302
  C      1.091931    3.222833    2.226332
  H      0.965202    4.176092    1.717864
  H      2.046289    3.265120    2.753965
  H      0.302408    3.081488    2.958793
  H      3.197679   -1.871102    1.248672
  H      1.922371   -2.922571   -0.907523

 Multiplicity           Mult            ....    1
 Number of Electrons    NEL             ....  164
 Basis Dimension        Dim             ....  358

ORBITAL ENERGIES
----------------

  NO   OCC          E(Eh)            E(eV)
   0   2.0000     -89.758903     -2442.4639
   1   2.0000     -19.636726      -534.3425
   2   2.0000     -19.622220      -533.9478
   3   2.0000     -14.832346      -403.6086
   4   2.0000     -10.698770      -291.1283
   5   2.0000     -10.653997      -289.9100
   6   2.0000     -10.628838      -289.2254
   7   2.0000     -10.626297      -289.1562
   8   2.0000     -10.625711      -289.1403
   9   2.0000     -10.620755      -289.0054
  10   2.0000     -10.619858      -288.9810
  11   2.0000     -10.616386      -288.8865
  12   2.0000     -10.612465      -288.7799
  13   2.0000     -10.607084      -288.6334
  14   2.0000     -10.586220      -288.0657
  15   2.0000     -10.584127      -288.0087
  16   2.0000     -10.553391      -287.1724
  17   2.0000     -10.550080      -287.0823
  18   2.0000     -10.545194      -286.9493
  19   2.0000      -8.398349      -228.5307
  20   2.0000      -6.288253      -171.1121
  21   2.0000      -6.284711      -171.0157
  22   2.0000      -6.283277      -170.9767
  23   2.0000      -4.022770      -109.4651
  24   2.0000      -2.340459       -63.6871
  25   2.0000      -2.308233       -62.8102
  26   2.0000      -2.305453       -62.7346
  27   2.0000      -1.327591       -36.1256
  28   2.0000      -1.228971       -33.4420
  29   2.0000      -1.204617       -32.7793
  30   2.0000      -1.163950       -31.6727
  31   2.0000      -1.123318       -30.5670
  32   2.0000      -1.022226       -27.8162
  33   2.0000      -0.976982       -26.5850
  34   2.0000      -0.969784       -26.3892
  35   2.0000      -0.963857       -26.2279
  36   2.0000      -0.956318       -26.0227
  37   2.0000      -0.940845       -25.6017
  38   2.0000      -0.899746       -24.4833
  39   2.0000      -0.869673       -23.6650
  40   2.0000      -0.795648       -21.6507
  41   2.0000      -0.780073       -21.2269
  42   2.0000      -0.779480       -21.2107
  43   2.0000      -0.778345       -21.1799
  44   2.0000      -0.764850       -20.8126
  45   2.0000      -0.763871       -20.7860
  46   2.0000      -0.740746       -20.1567
  47   2.0000      -0.721921       -19.6445
  48   2.0000      -0.691994       -18.8301
  49   2.0000      -0.682577       -18.5739
  50   2.0000      -0.662333       -18.0230
  51   2.0000      -0.660850       -17.9826
  52   2.0000      -0.648716       -17.6525
  53   2.0000      -0.638756       -17.3814
  54   2.0000      -0.633011       -17.2251
  55   2.0000      -0.630931       -17.1685
  56   2.0000      -0.621248       -16.9050
  57   2.0000      -0.607938       -16.5428
  58   2.0000      -0.599972       -16.3261
  59   2.0000      -0.599263       -16.3068
  60   2.0000      -0.596423       -16.2295
  61   2.0000      -0.589545       -16.0423
  62   2.0000      -0.576798       -15.6955
  63   2.0000      -0.568791       -15.4776
  64   2.0000      -0.562955       -15.3188
  65   2.0000      -0.560964       -15.2646
  66   2.0000      -0.555673       -15.1206
  67   2.0000      -0.546339       -14.8666
  68   2.0000      -0.541437       -14.7332
  69   2.0000      -0.534419       -14.5423
  70   2.0000      -0.528184       -14.3726
  71   2.0000      -0.517754       -14.0888
  72   2.0000      -0.513054       -13.9609
  73   2.0000      -0.502275       -13.6676
  74   2.0000      -0.496939       -13.5224
  75   2.0000      -0.479069       -13.0361
  76   2.0000      -0.477697       -12.9988
  77   2.0000      -0.448941       -12.2163
  78   2.0000      -0.445480       -12.1221
  79   2.0000      -0.417779       -11.3684
  80   2.0000      -0.416114       -11.3230
  81   2.0000      -0.396927       -10.8009
  82   0.0000      -0.199299        -5.4232
  83   0.0000      -0.142589        -3.8800
  84   0.0000      -0.141655        -3.8546
  85   0.0000      -0.084823        -2.3081
  86   0.0000      -0.072184        -1.9642

MULLIKEN ATOMIC CHARGES
-----------------------
   0 Ir:    0.602614
   1 C :   -0.234323
   2 C :   -0.272345
   3 C :   -0.260527
   4 C :   -0.227557
   5 C :   -0.158419
   6 N :   -0.438831
   7 C :   -0.125748
   8 C :   -0.681732
   9 H :    0.268857
  10 H :    0.224649
  11 H :    0.254155
  12 C :   -0.633891
  13 H :    0.278427
  14 H :    0.259202
  15 H :    0.232360
  16 H :    0.231684
  17 C :    0.069696
  18 C :   -0.142047
  19 H :    0.284078
  20 C :   -0.503787
  21 C :   -0.123739
  22 S :    0.332121
  23 C :   -0.425507
  24 H :    0.478472
  25 H :    0.264011
  26 H :    0.296550
  27 H :    0.287161
  28 H :    0.284413
  29 H :    0.299937
  30 O :   -0.488892
  31 O :   -0.511256
  32 C :    0.633784
  33 C :   -0.744599
  34 H :    0.273554
  35 H :    0.275623
  36 H :    0.261680
  37 H :    0.285550
  38 H :    0.294623
Sum of atomic charges:    1.0000000

LOEWDIN ATOMIC CHARGES
----------------------
   0 Ir:   -0.250576
   1 C :   -0.054391
   2 C :   -0.089510
   3 C :   -0.087244
   4 C :   -0.040112
   5 C :   -0.015614
   6 N :   -0.010418
   7 C :   -0.068982
   8 C :   -0.362239
   9 H :    0.155909
  10 H :    0.132777
  11 H :    0.143557
  12 C :   -0.344071
  13 H :    0.154166
  14 H :    0.150804
  15 H :    0.137828
  16 H :    0.132345
  17 C :    0.031195
  18 C :   -0.196598
  19 H :    0.159387
  20 C :   -0.216738
  21 C :   -0.134527
  22 S :    0.485738
  23 C :   -0.258326
  24 H :    0.349604
  25 H :    0.160635
  26 H :    0.168307
  27 H :    0.183068
  28 H :    0.181170
  29 H :    0.189575
  30 O :   -0.263484
  31 O :   -0.182107
  32 C :    0.167944
  33 C :   -0.371662
  34 H :    0.165338
  35 H :    0.172278
  36 H :    0.155713
  37 H :    0.183368
  38 H :    0.185893

  Mayer bond orders larger than 0.100000
B(  0-Ir,  1-C ) :   0.4351 B(  0-Ir,  2-C ) :   0.4547 B(  0-Ir,  3-C ) :   0.4643
B(  0-Ir,  4-C ) :   0.4378 B(  0-Ir,  5-C ) :   0.3917 B(  0-Ir,  6-N ) :   0.4668
B(  0-Ir, 20-C ) :   0.4104 B(  0-Ir, 31-O ) :   0.5247 B(  1-C ,  2-C ) :   1.1257
B(  1-C ,  4-C ) :   1.2295 B(  1-C , 27-H ) :   0.9068 B(  2-C ,  5-C ) :   1.1808
B(  2-C , 28-H ) :   0.9100 B(  3-C ,  4-C ) :   1.1283 B(  3-C ,  5-C ) :   1.1939
B(  3-C , 37-H ) :   0.9109 B(  4-C , 38-H ) :   0.9000 B(  5-C , 29-H ) :   0.9002
B(  6-N ,  7-C ) :   0.8950 B(  6-N , 17-C ) :   1.6503 B(  7-C ,  8-C ) :   0.9906
B(  7-C , 12-C ) :   0.9672 B(  7-C , 13-H ) :   0.8778 B(  8-C ,  9-H ) :   0.9048
B(  8-C , 10-H ) :   0.9130 B(  8-C , 11-H ) :   0.9120 B( 12-C , 14-H ) :   0.9078
B( 12-C , 15-H ) :   0.9154 B( 12-C , 16-H ) :   0.9126 B( 17-C , 18-C ) :   1.1086
B( 17-C , 19-H ) :   0.8764 B( 18-C , 20-C ) :   1.2585 B( 18-C , 22-S ) :   1.2252
B( 20-C , 21-C ) :   1.2898 B( 20-C , 24-H ) :   0.3482 B( 21-C , 23-C ) :   1.5361
B( 21-C , 25-H ) :   0.9041 B( 22-S , 23-C ) :   1.2228 B( 23-C , 26-H ) :   0.8916
B( 24-H , 30-O ) :   0.3369 B( 30-O , 32-C ) :   1.5612 B( 31-O , 32-C ) :   1.3771
B( 32-C , 33-C ) :   0.9468 B( 33-C , 34-H ) :   0.8996 B( 33-C , 35-H ) :   0.8932
B( 33-C , 36-H ) :   0.9081

Dispersion correction           -0.030493200
FINAL SINGLE POINT ENERGY     -1288.402627991896

DIPOLE MOMENT
-------------
                                X             Y             Z
Electronic contribution:     36.39313     -73.40147      75.64317
Nuclear contribution   :    -36.99531      72.83390     -75.78877
                        -----------------------------------------
Total Dipole Moment    :     -0.60218      -0.56757      -0.14560
                        -----------------------------------------
Magnitude (a.u.)       :      0.84021
Magnitude (Debye)      :      2.13565

Rotational constants in cm-1:     0.010543     0.008717     0.008140
Rotational constants in MHz :   316.057179   261.324672   244.033951

                             ****ORCA TERMINATED NORMALLY****
TOTAL RUN TIME: 0 days 2 hours 2 minutes 11 seconds 184 msec
