                         Program Version 5.0.3 -  RELEASE  -
|  1> ! Opt PBEh-3c
|  2> %geom Constraints
|  3> { B 0 20 2.6 C }
|  4> { B 24 30 1.4714285714285715 C }
|  5>     end
|  6> end
|  7> %output
|  8> xyzfile=True
|  9> end
| 10> %scf
| 11> maxiter 250
| 12> end
| 13> %output
| 14> Print[P_Hirshfeld] = 1
| 15> end
| 16> % maxcore
| 17> 4000
| 18> %pal nprocs 2
| 19> end
| 20> *xyz 1 1
| 21> Ir   0.57958702  -0.72962664   0.47322851
| 22> C    0.02956402  -2.80977661   0.33238576
| 23> C    0.11972454  -2.36941079   1.70521974
| 24> C    2.19733684  -2.14090162   0.74516840
| 25> C    1.28978948  -2.63915609  -0.26460177
| 26> C    1.49020457  -2.01765122   1.95258489
| 27> N   -1.03827227   0.18156696  -0.51172226
| 28> C   -2.30884257   0.52849172   0.14395567
| 29> C   -3.12696270   1.55614033  -0.62037092
| 30> H   -3.95999250   1.87625213   0.00384761
| 31> H   -3.56202944   1.15596232  -1.53767473
| 32> H   -2.54527201   2.44582395  -0.86382179
| 33> C   -3.10804781  -0.74095561   0.41090151
| 34> H   -2.01536931   0.96263980   1.10127604
| 35> H   -4.02123534  -0.49031495   0.94843431
| 36> H   -3.39446806  -1.23246109  -0.51987641
| 37> H   -2.55767783  -1.45173741   1.02587672
| 38> C   -0.82182071   0.38195707  -1.75248532
| 39> C    0.53164411   0.14060848  -2.21387273
| 40> H   -1.59173766   0.74790816  -2.42597236
| 41> C    1.64816388   0.57079649  -1.50844835
| 42> C    2.84266422   0.13059655  -2.14721535
| 43> S    0.93506156  -0.72732796  -3.63180521
| 44> C    2.61056281  -0.57081147  -3.28818103
| 45> H    1.55867286   1.41700656  -0.72402128
| 46> H    3.83473649   0.37317748  -1.79526494
| 47> H    3.33668682  -0.99054758  -3.96785757
| 48> H   -0.86322190  -3.16762575  -0.15993384
| 49> H   -0.66540656  -2.40907026   2.44628237
| 50> H    1.88299065  -1.63555811   2.88387725
| 51> O    1.24465137   2.46340516   0.28284882
| 52> O    0.54376326   0.88350152   1.69475863
| 53> C    0.87643576   2.10003086   1.39269045
| 54> C    0.80852893   3.05940762   2.54881304
| 55> H    0.73878333   4.08334078   2.19183070
| 56> H    1.72271235   2.97302266   3.13930705
| 57> H   -0.02500696   2.83841964   3.21241490
| 58> H    3.23971035  -1.90261587   0.59278367
| 59> H    1.54275840  -2.84531717  -1.29462012
| 60> *
| 61>
| 62>                          ****END OF INPUT****
 Total Charge           Charge          ....    1
 Multiplicity           Mult            ....    1
 Number of Electrons    NEL             ....  164
Dispersion correction           -0.030964119
FINAL SINGLE POINT ENERGY     -1288.396896788136
Dispersion correction            ... done
Dispersion correction           -0.030930295
FINAL SINGLE POINT ENERGY     -1288.396896109628
Dispersion correction            ... done
Dispersion correction           -0.030934089
FINAL SINGLE POINT ENERGY     -1288.396874069307
Dispersion correction            ... done
FINAL SINGLE POINT ENERGY     -1288.396806305023
FINAL SINGLE POINT ENERGY     -1288.396898673876
FINAL SINGLE POINT ENERGY     -1288.396901076519
Dispersion correction            ... done
Dispersion correction           -0.030943486
FINAL SINGLE POINT ENERGY     -1288.396907595645
Dispersion correction            ... done
Dispersion correction           -0.030944650
FINAL SINGLE POINT ENERGY     -1288.396908703166
Dispersion correction            ... done
                    ***********************HURRAY********************

CARTESIAN COORDINATES (ANGSTROEM)
---------------------------------
  Ir     0.577368   -0.730734    0.475847
  C      0.026002   -2.810181    0.335406
  C      0.116822   -2.370373    1.708269
  C      2.194347   -2.142968    0.747585
  C      1.286155   -2.640147   -0.262115
  C      1.487592   -2.019398    1.955209
  N     -1.039078    0.179761   -0.511464
  C     -2.310710    0.525145    0.143147
  C     -3.129383    1.552142   -0.621547
  H     -3.963184    1.871253    0.002155
  H     -3.563378    1.151708   -1.539235
  H     -2.548532    2.442511   -0.864498
  C     -3.109167   -0.744951    0.409233
  H     -2.018566    0.959492    1.100806
  H     -4.023404   -0.495016    0.945317
  H     -3.393756   -1.236937   -0.521856
  H     -2.559160   -1.455089    1.025262
  C     -0.822085    0.380715   -1.752256
  C      0.531638    0.143138   -2.213895
  H     -1.592756    0.745064   -2.425761
  C      1.646909    0.570482   -1.504789
  C      2.842122    0.134434   -2.145053
  S      0.936798   -0.715768   -3.636987
  C      2.611722   -0.560103   -3.290675
  H      1.556400    1.418280   -0.714777
  H      3.833824    0.375291   -1.790820
  H      3.338889   -0.975059   -3.972188
  H     -0.867213   -3.167093   -0.156828
  H     -0.668065   -2.410013    2.449578
  H      1.881030   -1.638064    2.886531
  O      1.257360    2.459233    0.281262
  O      0.542680    0.886191    1.693991
  C      0.883141    2.099664    1.391046
  C      0.817335    3.062406    2.544218
  H      0.754563    4.085852    2.184592
  H      1.729185    2.972068    3.137733
  H     -0.019496    2.847643    3.205704
  H      3.236808   -1.905253    0.594897
  H      1.538613   -2.846134   -1.292303

 Multiplicity           Mult            ....    1
 Number of Electrons    NEL             ....  164
 Basis Dimension        Dim             ....  358

ORBITAL ENERGIES
----------------

  NO   OCC          E(Eh)            E(eV)
   0   2.0000     -89.760335     -2442.5029
   1   2.0000     -19.621191      -533.9197
   2   2.0000     -19.580436      -532.8107
   3   2.0000     -14.842559      -403.8866
   4   2.0000     -10.676465      -290.5214
   5   2.0000     -10.663483      -290.1681
   6   2.0000     -10.639992      -289.5289
   7   2.0000     -10.638696      -289.4936
   8   2.0000     -10.636104      -289.4231
   9   2.0000     -10.635293      -289.4010
  10   2.0000     -10.633845      -289.3616
  11   2.0000     -10.632138      -289.3152
  12   2.0000     -10.617301      -288.9115
  13   2.0000     -10.609533      -288.7001
  14   2.0000     -10.582377      -287.9611
  15   2.0000     -10.581671      -287.9419
  16   2.0000     -10.558097      -287.3004
  17   2.0000     -10.552714      -287.1540
  18   2.0000     -10.530059      -286.5375
  19   2.0000      -8.399589      -228.5644
  20   2.0000      -6.289732      -171.1523
  21   2.0000      -6.286083      -171.0530
  22   2.0000      -6.284220      -171.0023
  23   2.0000      -4.032906      -109.7409
  24   2.0000      -2.352469       -64.0139
  25   2.0000      -2.317844       -63.0717
  26   2.0000      -2.316394       -63.0323
  27   2.0000      -1.299830       -35.3702
  28   2.0000      -1.214790       -33.0561
  29   2.0000      -1.204033       -32.7634
  30   2.0000      -1.176821       -32.0229
  31   2.0000      -1.125449       -30.6250
  32   2.0000      -1.027746       -27.9664
  33   2.0000      -0.991907       -26.9912
  34   2.0000      -0.981808       -26.7163
  35   2.0000      -0.964673       -26.2501
  36   2.0000      -0.959296       -26.1038
  37   2.0000      -0.923439       -25.1280
  38   2.0000      -0.904530       -24.6135
  39   2.0000      -0.874056       -23.7843
  40   2.0000      -0.797582       -21.7033
  41   2.0000      -0.792675       -21.5698
  42   2.0000      -0.790722       -21.5166
  43   2.0000      -0.781192       -21.2573
  44   2.0000      -0.775251       -21.0956
  45   2.0000      -0.754851       -20.5405
  46   2.0000      -0.744475       -20.2582
  47   2.0000      -0.722262       -19.6537
  48   2.0000      -0.695733       -18.9319
  49   2.0000      -0.671155       -18.2630
  50   2.0000      -0.665073       -18.0976
  51   2.0000      -0.652882       -17.7658
  52   2.0000      -0.649324       -17.6690
  53   2.0000      -0.641740       -17.4626
  54   2.0000      -0.635918       -17.3042
  55   2.0000      -0.627326       -17.0704
  56   2.0000      -0.624454       -16.9922
  57   2.0000      -0.613245       -16.6872
  58   2.0000      -0.611946       -16.6519
  59   2.0000      -0.609659       -16.5897
  60   2.0000      -0.596829       -16.2406
  61   2.0000      -0.588145       -16.0042
  62   2.0000      -0.576805       -15.6957
  63   2.0000      -0.571710       -15.5570
  64   2.0000      -0.564124       -15.3506
  65   2.0000      -0.554111       -15.0781
  66   2.0000      -0.551840       -15.0163
  67   2.0000      -0.548544       -14.9266
  68   2.0000      -0.539075       -14.6690
  69   2.0000      -0.534485       -14.5441
  70   2.0000      -0.528251       -14.3744
  71   2.0000      -0.522847       -14.2274
  72   2.0000      -0.516539       -14.0557
  73   2.0000      -0.508484       -13.8366
  74   2.0000      -0.487971       -13.2784
  75   2.0000      -0.481163       -13.0931
  76   2.0000      -0.463867       -12.6225
  77   2.0000      -0.451289       -12.2802
  78   2.0000      -0.439546       -11.9607
  79   2.0000      -0.424165       -11.5421
  80   2.0000      -0.417437       -11.3590
  81   2.0000      -0.405226       -11.0267
  82   0.0000      -0.201345        -5.4789
  83   0.0000      -0.168007        -4.5717
  84   0.0000      -0.142315        -3.8726
  85   0.0000      -0.104473        -2.8428
  86   0.0000      -0.077721        -2.1149

MULLIKEN ATOMIC CHARGES
-----------------------
   0 Ir:    0.625970
   1 C :   -0.207548
   2 C :   -0.298483
   3 C :   -0.229830
   4 C :   -0.244621
   5 C :   -0.164340
   6 N :   -0.423363
   7 C :   -0.115481
   8 C :   -0.696853
   9 H :    0.273831
  10 H :    0.226341
  11 H :    0.261679
  12 C :   -0.640747
  13 H :    0.281406
  14 H :    0.266010
  15 H :    0.230975
  16 H :    0.233358
  17 C :    0.066359
  18 C :   -0.239530
  19 H :    0.293705
  20 C :   -0.372643
  21 C :   -0.147047
  22 S :    0.287272
  23 C :   -0.427908
  24 H :    0.486310
  25 H :    0.268285
  26 H :    0.296945
  27 H :    0.293540
  28 H :    0.295675
  29 H :    0.308932
  30 O :   -0.477720
  31 O :   -0.548916
  32 C :    0.608499
  33 C :   -0.746499
  34 H :    0.267818
  35 H :    0.264227
  36 H :    0.250058
  37 H :    0.297895
  38 H :    0.296444
Sum of atomic charges:    1.0000000

LOEWDIN ATOMIC CHARGES
----------------------
   0 Ir:   -0.202666
   1 C :   -0.039527
   2 C :   -0.049986
   3 C :   -0.043910
   4 C :   -0.054392
   5 C :   -0.026570
   6 N :   -0.006589
   7 C :   -0.067913
   8 C :   -0.365095
   9 H :    0.158011
  10 H :    0.134216
  11 H :    0.147456
  12 C :   -0.343312
  13 H :    0.156864
  14 H :    0.153602
  15 H :    0.137367
  16 H :    0.134748
  17 C :    0.037894
  18 C :   -0.191283
  19 H :    0.163718
  20 C :   -0.171576
  21 C :   -0.147108
  22 S :    0.452741
  23 C :   -0.262364
  24 H :    0.266114
  25 H :    0.162702
  26 H :    0.167556
  27 H :    0.186602
  28 H :    0.187363
  29 H :    0.194944
  30 O :   -0.276815
  31 O :   -0.214663
  32 C :    0.149302
  33 C :   -0.378121
  34 H :    0.158510
  35 H :    0.165635
  36 H :    0.151584
  37 H :    0.188978
  38 H :    0.185987

  Mayer bond orders larger than 0.100000
B(  0-Ir,  1-C ) :   0.4198 B(  0-Ir,  2-C ) :   0.5668 B(  0-Ir,  3-C ) :   0.4667
B(  0-Ir,  4-C ) :   0.4505 B(  0-Ir,  5-C ) :   0.4031 B(  0-Ir,  6-N ) :   0.4629
B(  0-Ir, 20-C ) :   0.1868 B(  0-Ir, 31-O ) :   0.6056 B(  1-C ,  2-C ) :   1.1091
B(  1-C ,  4-C ) :   1.2507 B(  1-C , 27-H ) :   0.9027 B(  2-C ,  5-C ) :   1.1265
B(  2-C , 28-H ) :   0.9055 B(  3-C ,  4-C ) :   1.1015 B(  3-C ,  5-C ) :   1.2367
B(  3-C , 37-H ) :   0.9016 B(  4-C , 38-H ) :   0.8958 B(  5-C , 29-H ) :   0.8968
B(  6-N ,  7-C ) :   0.8899 B(  6-N , 17-C ) :   1.7079 B(  7-C ,  8-C ) :   0.9931
B(  7-C , 12-C ) :   0.9698 B(  7-C , 13-H ) :   0.8707 B(  8-C ,  9-H ) :   0.9029
B(  8-C , 10-H ) :   0.9121 B(  8-C , 11-H ) :   0.9073 B( 12-C , 14-H ) :   0.9060
B( 12-C , 15-H ) :   0.9151 B( 12-C , 16-H ) :   0.9102 B( 17-C , 18-C ) :   1.0383
B( 17-C , 19-H ) :   0.8734 B( 18-C , 20-C ) :   1.3210 B( 18-C , 22-S ) :   1.2087
B( 20-C , 21-C ) :   1.2617 B( 20-C , 24-H ) :   0.5454 B( 21-C , 23-C ) :   1.5470
B( 21-C , 25-H ) :   0.9035 B( 22-S , 23-C ) :   1.2006 B( 23-C , 26-H ) :   0.8928
B( 24-H , 30-O ) :   0.1976 B( 30-O , 32-C ) :   1.7395 B( 31-O , 32-C ) :   1.2425
B( 32-C , 33-C ) :   0.9457 B( 33-C , 34-H ) :   0.9063 B( 33-C , 35-H ) :   0.9001
B( 33-C , 36-H ) :   0.9104

Dispersion correction           -0.030942613
FINAL SINGLE POINT ENERGY     -1288.396909006501

DIPOLE MOMENT
-------------
                                X             Y             Z
Electronic contribution:     34.02089     -67.62889      74.28750
Nuclear contribution   :    -34.65620      66.25976     -74.52678
                        -----------------------------------------
Total Dipole Moment    :     -0.63531      -1.36913      -0.23928
                        -----------------------------------------
Magnitude (a.u.)       :      1.52820
Magnitude (Debye)      :      3.88438

Rotational constants in cm-1:     0.010807     0.009080     0.008240
Rotational constants in MHz :   323.981113   272.217371   247.024966

                             ****ORCA TERMINATED NORMALLY****
TOTAL RUN TIME: 0 days 1 hours 39 minutes 43 seconds 688 msec
