                         Program Version 5.0.3 -  RELEASE  -
|  1> ! Opt PBEh-3c
|  2> %geom Constraints
|  3> { B 0 20 2.0428571428571427 C }
|  4> { B 24 30 1.5 C }
|  5>     end
|  6> end
|  7> %output
|  8> xyzfile=True
|  9> end
| 10> %scf
| 11> maxiter 250
| 12> end
| 13> %output
| 14> Print[P_Hirshfeld] = 1
| 15> end
| 16> % maxcore
| 17> 4000
| 18> *xyz 1 1
| 19> Ir   0.63712169  -0.71711081   0.39659288
| 20> C    0.14202159  -2.83734989   0.32353501
| 21> C    0.00277081  -2.38329623   1.68140700
| 22> C    2.20326380  -2.07917586   1.03805015
| 23> C    1.48555993  -2.65863936  -0.06764913
| 24> C    1.28155943  -1.94038146   2.10734574
| 25> N   -1.05347751   0.13728049  -0.52002822
| 26> C   -2.31112718   0.37972867   0.20140027
| 27> C   -3.10385990   1.56535424  -0.32947185
| 28> H   -3.92197695   1.77728944   0.35725609
| 29> H   -3.55741498   1.37001059  -1.30215103
| 30> H   -2.49416873   2.46648035  -0.39930613
| 31> C   -3.14589832  -0.89655675   0.19977880
| 32> H   -2.00839891   0.59999948   1.22601355
| 33> H   -4.04080193  -0.75265144   0.80365607
| 34> H   -3.46355833  -1.15807283  -0.81037084
| 35> H   -2.60122416  -1.74196572   0.61692796
| 36> C   -0.90796850   0.44592127  -1.75529675
| 37> C    0.41281605   0.23957725  -2.27324267
| 38> H   -1.71139031   0.86734644  -2.35051820
| 39> C    1.45158286   0.09756908  -1.34212900
| 40> C    2.67403379  -0.18536319  -2.03736671
| 41> S    0.90378784   0.04017845  -3.87855184
| 42> C    2.52455869  -0.24391200  -3.38632153
| 43> H    1.56093698   1.12892152  -0.68517609
| 44> H    3.63349776  -0.27971960  -1.54970987
| 45> H    3.28656174  -0.41408740  -4.13161652
| 46> H   -0.64153030  -3.25723097  -0.29039654
| 47> H   -0.88805431  -2.42735807   2.28921504
| 48> H    1.50307556  -1.50074578   3.06962133
| 49> O    1.54915407   2.39940070   0.11215934
| 50> O    0.57378237   0.99352106   1.53790686
| 51> C    1.03657222   2.14162327   1.20683560
| 52> C    0.95589427   3.20353007   2.26746935
| 53> H    0.93513158   4.19433136   1.82151472
| 54> H    1.84571014   3.14129237   2.89650783
| 55> H    0.08974115   3.06336809   2.90983959
| 56> H    3.25926353  -1.86082942   1.07680936
| 57> H    1.90182254  -2.91908743  -1.02979952
| 58> *
| 59>
| 60>                          ****END OF INPUT****
 Total Charge           Charge          ....    1
 Multiplicity           Mult            ....    1
 Number of Electrons    NEL             ....  164
Dispersion correction           -0.031024143
FINAL SINGLE POINT ENERGY     -1288.394369753978
Dispersion correction            ... done
Dispersion correction           -0.030982592
FINAL SINGLE POINT ENERGY     -1288.394519965795
Dispersion correction            ... done
Dispersion correction           -0.031034551
FINAL SINGLE POINT ENERGY     -1288.393819333508
Dispersion correction            ... done
FINAL SINGLE POINT ENERGY     -1288.394646429200
FINAL SINGLE POINT ENERGY     -1288.394670084897
FINAL SINGLE POINT ENERGY     -1288.394694810155
FINAL SINGLE POINT ENERGY     -1288.394695756360
FINAL SINGLE POINT ENERGY     -1288.394695392606
FINAL SINGLE POINT ENERGY     -1288.394691267640
FINAL SINGLE POINT ENERGY     -1288.394688305739
FINAL SINGLE POINT ENERGY     -1288.394678300222
FINAL SINGLE POINT ENERGY     -1288.394676750462
FINAL SINGLE POINT ENERGY     -1288.394679466710
Dispersion correction            ... done
Dispersion correction           -0.030883099
FINAL SINGLE POINT ENERGY     -1288.394684123516
Dispersion correction            ... done
Dispersion correction           -0.030883681
FINAL SINGLE POINT ENERGY     -1288.394688465731
Dispersion correction            ... done
                    ***********************HURRAY********************

CARTESIAN COORDINATES (ANGSTROEM)
---------------------------------
  Ir     0.629417   -0.715144    0.384552
  C      0.160536   -2.841759    0.316780
  C     -0.026400   -2.393359    1.671797
  C      2.187566   -2.053491    1.095024
  C      1.516093   -2.650079   -0.027696
  C      1.226570   -1.929040    2.135732
  N     -1.068583    0.135184   -0.521795
  C     -2.327761    0.355206    0.203204
  C     -3.131081    1.542279   -0.307979
  H     -3.952000    1.733900    0.381234
  H     -3.581394    1.359594   -1.284667
  H     -2.529941    2.450249   -0.361041
  C     -3.151505   -0.928207    0.177756
  H     -2.027842    0.560748    1.231808
  H     -4.046902   -0.804533    0.785439
  H     -3.467971   -1.172180   -0.837128
  H     -2.598860   -1.777300    0.576243
  C     -0.924209    0.473175   -1.750097
  C      0.394515    0.271339   -2.270939
  H     -1.727415    0.909004   -2.334773
  C      1.418939    0.057042   -1.334066
  C      2.642911   -0.214906   -2.036700
  S      0.898990    0.155591   -3.878897
  C      2.507506   -0.191346   -3.387950
  H      1.590311    1.109417   -0.700882
  H      3.595420   -0.356365   -1.546514
  H      3.274483   -0.333876   -4.133934
  H     -0.594805   -3.279227   -0.319623
  H     -0.936340   -2.446114    2.249674
  H      1.409398   -1.482332    3.102851
  O      1.659959    2.371763    0.106355
  O      0.572829    1.016776    1.500663
  C      1.095799    2.140594    1.183115
  C      1.023306    3.215569    2.231164
  H      1.007598    4.200603    1.771857
  H      1.915855    3.157987    2.856630
  H      0.157815    3.089190    2.876706
  H      3.239702   -1.826632    1.171218
  H      1.966860   -2.910126   -0.974383

 Multiplicity           Mult            ....    1
 Number of Electrons    NEL             ....  164
 Basis Dimension        Dim             ....  358

ORBITAL ENERGIES
----------------

  NO   OCC          E(Eh)            E(eV)
   0   2.0000     -89.771863     -2442.8166
   1   2.0000     -19.626617      -534.0674
   2   2.0000     -19.606050      -533.5077
   3   2.0000     -14.838863      -403.7860
   4   2.0000     -10.686015      -290.7812
   5   2.0000     -10.657847      -290.0148
   6   2.0000     -10.634843      -289.3888
   7   2.0000     -10.625101      -289.1237
   8   2.0000     -10.623518      -289.0806
   9   2.0000     -10.622817      -289.0615
  10   2.0000     -10.614773      -288.8427
  11   2.0000     -10.614648      -288.8392
  12   2.0000     -10.614105      -288.8245
  13   2.0000     -10.612695      -288.7861
  14   2.0000     -10.595162      -288.3090
  15   2.0000     -10.592148      -288.2270
  16   2.0000     -10.554597      -287.2052
  17   2.0000     -10.551517      -287.1214
  18   2.0000     -10.538076      -286.7556
  19   2.0000      -8.411204      -228.8805
  20   2.0000      -6.301034      -171.4599
  21   2.0000      -6.297445      -171.3622
  22   2.0000      -6.296282      -171.3305
  23   2.0000      -4.020826      -109.4122
  24   2.0000      -2.337923       -63.6181
  25   2.0000      -2.307748       -62.7970
  26   2.0000      -2.304268       -62.7023
  27   2.0000      -1.312011       -35.7016
  28   2.0000      -1.214696       -33.0536
  29   2.0000      -1.211036       -32.9540
  30   2.0000      -1.160112       -31.5682
  31   2.0000      -1.133767       -30.8514
  32   2.0000      -1.027915       -27.9710
  33   2.0000      -0.976787       -26.5797
  34   2.0000      -0.972750       -26.4699
  35   2.0000      -0.967359       -26.3232
  36   2.0000      -0.962169       -26.1819
  37   2.0000      -0.931195       -25.3391
  38   2.0000      -0.901602       -24.5338
  39   2.0000      -0.876338       -23.8464
  40   2.0000      -0.802454       -21.8359
  41   2.0000      -0.786317       -21.3968
  42   2.0000      -0.776755       -21.1366
  43   2.0000      -0.775828       -21.1114
  44   2.0000      -0.761356       -20.7176
  45   2.0000      -0.754651       -20.5351
  46   2.0000      -0.744470       -20.2581
  47   2.0000      -0.723889       -19.6980
  48   2.0000      -0.691139       -18.8068
  49   2.0000      -0.682040       -18.5592
  50   2.0000      -0.665369       -18.1056
  51   2.0000      -0.651772       -17.7356
  52   2.0000      -0.646315       -17.5871
  53   2.0000      -0.633976       -17.2514
  54   2.0000      -0.631722       -17.1900
  55   2.0000      -0.626427       -17.0460
  56   2.0000      -0.622788       -16.9469
  57   2.0000      -0.615033       -16.7359
  58   2.0000      -0.604245       -16.4423
  59   2.0000      -0.597499       -16.2588
  60   2.0000      -0.596230       -16.2242
  61   2.0000      -0.593072       -16.1383
  62   2.0000      -0.582833       -15.8597
  63   2.0000      -0.573376       -15.6024
  64   2.0000      -0.564097       -15.3499
  65   2.0000      -0.561238       -15.2721
  66   2.0000      -0.551883       -15.0175
  67   2.0000      -0.547953       -14.9106
  68   2.0000      -0.542200       -14.7540
  69   2.0000      -0.536992       -14.6123
  70   2.0000      -0.530292       -14.4300
  71   2.0000      -0.519254       -14.1296
  72   2.0000      -0.514029       -13.9874
  73   2.0000      -0.497732       -13.5440
  74   2.0000      -0.490544       -13.3484
  75   2.0000      -0.488557       -13.2943
  76   2.0000      -0.476881       -12.9766
  77   2.0000      -0.447399       -12.1743
  78   2.0000      -0.441856       -12.0235
  79   2.0000      -0.423454       -11.5228
  80   2.0000      -0.413668       -11.2565
  81   2.0000      -0.393264       -10.7013
  82   0.0000      -0.213231        -5.8023
  83   0.0000      -0.144134        -3.9221
  84   0.0000      -0.129799        -3.5320
  85   0.0000      -0.091053        -2.4777
  86   0.0000      -0.078556        -2.1376

MULLIKEN ATOMIC CHARGES
-----------------------
   0 Ir:    0.611121
   1 C :   -0.240750
   2 C :   -0.255614
   3 C :   -0.272473
   4 C :   -0.227276
   5 C :   -0.150867
   6 N :   -0.425818
   7 C :   -0.127382
   8 C :   -0.684237
   9 H :    0.270674
  10 H :    0.224018
  11 H :    0.256123
  12 C :   -0.634236
  13 H :    0.283503
  14 H :    0.260244
  15 H :    0.232265
  16 H :    0.234710
  17 C :    0.070761
  18 C :   -0.116023
  19 H :    0.288381
  20 C :   -0.601992
  21 C :   -0.079764
  22 S :    0.350931
  23 C :   -0.430681
  24 H :    0.468918
  25 H :    0.271650
  26 H :    0.300361
  27 H :    0.284354
  28 H :    0.281708
  29 H :    0.298808
  30 O :   -0.464565
  31 O :   -0.522657
  32 C :    0.619748
  33 C :   -0.742909
  34 H :    0.270127
  35 H :    0.270411
  36 H :    0.255790
  37 H :    0.281307
  38 H :    0.291334
Sum of atomic charges:    1.0000000

LOEWDIN ATOMIC CHARGES
----------------------
   0 Ir:   -0.258095
   1 C :   -0.057875
   2 C :   -0.097737
   3 C :   -0.095672
   4 C :   -0.046461
   5 C :   -0.016448
   6 N :    0.005998
   7 C :   -0.070019
   8 C :   -0.362675
   9 H :    0.156916
  10 H :    0.132841
  11 H :    0.144504
  12 C :   -0.343271
  13 H :    0.157038
  14 H :    0.151455
  15 H :    0.137805
  16 H :    0.133965
  17 C :    0.025854
  18 C :   -0.172146
  19 H :    0.162197
  20 C :   -0.220481
  21 C :   -0.114766
  22 S :    0.510587
  23 C :   -0.259525
  24 H :    0.341523
  25 H :    0.164911
  26 H :    0.170624
  27 H :    0.181445
  28 H :    0.179237
  29 H :    0.188569
  30 O :   -0.262586
  31 O :   -0.195965
  32 C :    0.153218
  33 C :   -0.373654
  34 H :    0.161151
  35 H :    0.169288
  36 H :    0.153861
  37 H :    0.181267
  38 H :    0.183126

  Mayer bond orders larger than 0.100000
B(  0-Ir,  1-C ) :   0.4364 B(  0-Ir,  2-C ) :   0.3929 B(  0-Ir,  3-C ) :   0.4679
B(  0-Ir,  4-C ) :   0.4200 B(  0-Ir,  5-C ) :   0.3631 B(  0-Ir,  6-N ) :   0.4615
B(  0-Ir, 20-C ) :   0.5108 B(  0-Ir, 31-O ) :   0.5435 B(  1-C ,  2-C ) :   1.1281
B(  1-C ,  4-C ) :   1.2315 B(  1-C , 27-H ) :   0.9085 B(  2-C ,  5-C ) :   1.2173
B(  2-C , 28-H ) :   0.9101 B(  3-C ,  4-C ) :   1.1343 B(  3-C ,  5-C ) :   1.1766
B(  3-C , 37-H ) :   0.9135 B(  4-C , 38-H ) :   0.8992 B(  5-C , 29-H ) :   0.9009
B(  6-N ,  7-C ) :   0.8956 B(  6-N , 17-C ) :   1.6519 B(  7-C ,  8-C ) :   0.9904
B(  7-C , 12-C ) :   0.9654 B(  7-C , 13-H ) :   0.8733 B(  8-C ,  9-H ) :   0.9043
B(  8-C , 10-H ) :   0.9130 B(  8-C , 11-H ) :   0.9109 B( 12-C , 14-H ) :   0.9074
B( 12-C , 15-H ) :   0.9152 B( 12-C , 16-H ) :   0.9112 B( 17-C , 18-C ) :   1.1051
B( 17-C , 19-H ) :   0.8760 B( 18-C , 20-C ) :   1.1978 B( 18-C , 22-S ) :   1.2711
B( 20-C , 21-C ) :   1.2324 B( 20-C , 24-H ) :   0.4123 B( 21-C , 23-C ) :   1.5616
B( 21-C , 25-H ) :   0.9001 B( 22-S , 23-C ) :   1.2013 B( 23-C , 26-H ) :   0.8908
B( 24-H , 30-O ) :   0.2936 B( 30-O , 32-C ) :   1.6475 B( 31-O , 32-C ) :   1.3250
B( 32-C , 33-C ) :   0.9417 B( 33-C , 34-H ) :   0.9033 B( 33-C , 35-H ) :   0.8965
B( 33-C , 36-H ) :   0.9090

Dispersion correction           -0.030885603
FINAL SINGLE POINT ENERGY     -1288.394690533749

DIPOLE MOMENT
-------------
                                X             Y             Z
Electronic contribution:     38.96496     -71.51425      67.31922
Nuclear contribution   :    -39.63068      70.80557     -67.82375
                        -----------------------------------------
Total Dipole Moment    :     -0.66572      -0.70868      -0.50453
                        -----------------------------------------
Magnitude (a.u.)       :      1.09543
Magnitude (Debye)      :      2.78435

Rotational constants in cm-1:     0.010510     0.009096     0.008276
Rotational constants in MHz :   315.090005   272.702052   248.103495

                             ****ORCA TERMINATED NORMALLY****
TOTAL RUN TIME: 0 days 1 hours 56 minutes 10 seconds 909 msec
