                         Program Version 5.0.3 -  RELEASE  -
|  1> ! Opt PBEh-3c
|  2> %geom Constraints
|  3> { B 0 20 2.3857142857142857 C }
|  4> { B 24 30 1.3 C }
|  5>     end
|  6> end
|  7> %output
|  8> xyzfile=True
|  9> end
| 10> %scf
| 11> maxiter 250
| 12> end
| 13> %output
| 14> Print[P_Hirshfeld] = 1
| 15> end
| 16> % maxcore
| 17> 4000
| 18> *xyz 1 1
| 19> Ir   0.59085034  -0.74237592   0.51134970
| 20> C    0.08330809  -2.83593522   0.37730675
| 21> C   -0.04484557  -2.37064929   1.73536406
| 22> C    2.16026556  -2.12005847   1.09554900
| 23> C    1.42322426  -2.66378266  -0.02011542
| 24> C    1.25798213  -1.97233573   2.16926280
| 25> N   -1.03970830   0.11535655  -0.49464684
| 26> C   -2.32604814   0.36185460   0.18059063
| 27> C   -3.09733277   1.54411648  -0.38862773
| 28> H   -3.93378288   1.77023484   0.27122199
| 29> H   -3.52418935   1.33976340  -1.37137573
| 30> H   -2.48053531   2.44066781  -0.45343484
| 31> C   -3.16298932  -0.91195727   0.16308939
| 32> H   -2.06342241   0.59513689   1.21341832
| 33> H   -4.08143226  -0.76012265   0.72857584
| 34> H   -3.44061517  -1.18655659  -0.85545045
| 35> H   -2.63811432  -1.75349613   0.61271278
| 36> C   -0.87115117   0.38344923  -1.73611104
| 37> C    0.45257572   0.23087472  -2.27391155
| 38> H   -1.68859870   0.74566271  -2.35330696
| 39> C    1.56707358   0.30310673  -1.45127950
| 40> C    2.74761613   0.01246101  -2.18749300
| 41> S    0.84101095  -0.12783680  -3.89700721
| 42> C    2.50483554  -0.22736203  -3.50781102
| 43> H    1.61375399   1.25185425  -0.57224003
| 44> H    3.74368128   0.03796778  -1.77010317
| 45> H    3.22408281  -0.43815171  -4.28477065
| 46> H   -0.71242118  -3.22982888  -0.23819886
| 47> H   -0.93178718  -2.41020997   2.35007956
| 48> H    1.49349305  -1.55197655   3.13682795
| 49> O    1.61404805   2.31574500   0.19943564
| 50> O    0.54319949   0.97971275   1.62482999
| 51> C    1.06073694   2.09780526   1.29076942
| 52> C    1.00932935   3.18708988   2.32037738
| 53> H    0.93635683   4.16240900   1.84572149
| 54> H    1.93775952   3.17269266   2.89445039
| 55> H    0.18572131   3.04453174   3.01507399
| 56> H    3.21559778  -1.89470688   1.11426659
| 57> H    1.82984131  -2.89596058  -0.99364956
| 58> *
| 59>
| 60>                          ****END OF INPUT****
 Total Charge           Charge          ....    1
 Multiplicity           Mult            ....    1
 Number of Electrons    NEL             ....  164
Dispersion correction           -0.030509613
FINAL SINGLE POINT ENERGY     -1288.398318841297
Dispersion correction            ... done
Dispersion correction           -0.030471833
FINAL SINGLE POINT ENERGY     -1288.398483927177
Dispersion correction            ... done
Dispersion correction           -0.030444155
FINAL SINGLE POINT ENERGY     -1288.398589888290
Dispersion correction            ... done
FINAL SINGLE POINT ENERGY     -1288.398637589693
FINAL SINGLE POINT ENERGY     -1288.398661392982
Dispersion correction            ... done
Dispersion correction           -0.030383779
FINAL SINGLE POINT ENERGY     -1288.398668988590
Dispersion correction            ... done
Dispersion correction           -0.030384658
FINAL SINGLE POINT ENERGY     -1288.398672787083
Dispersion correction            ... done
                    ***********************HURRAY********************

CARTESIAN COORDINATES (ANGSTROEM)
---------------------------------
  Ir     0.591707   -0.744853    0.506666
  C      0.070675   -2.836891    0.401216
  C     -0.057072   -2.362126    1.755067
  C      2.150662   -2.126063    1.113521
  C      1.412995   -2.676910    0.002800
  C      1.245478   -1.962645    2.184045
  N     -1.042062    0.109590   -0.498776
  C     -2.330842    0.341154    0.176970
  C     -3.109486    1.524661   -0.380172
  H     -3.947038    1.738664    0.282218
  H     -3.535371    1.327693   -1.364868
  H     -2.498386    2.425743   -0.436001
  C     -3.161534   -0.936471    0.144727
  H     -2.071665    0.565366    1.212731
  H     -4.083719   -0.793906    0.706620
  H     -3.432529   -1.203633   -0.877573
  H     -2.635326   -1.779371    0.589875
  C     -0.873297    0.400800   -1.735798
  C      0.448305    0.256488   -2.275886
  H     -1.690986    0.774845   -2.345251
  C      1.553088    0.247736   -1.438108
  C      2.737037   -0.014692   -2.178473
  S      0.849681    0.003411   -3.915142
  C      2.505214   -0.156421   -3.515629
  H      1.629596    1.228096   -0.553055
  H      3.728497   -0.040402   -1.750370
  H      3.229948   -0.328054   -4.297109
  H     -0.725421   -3.232985   -0.212395
  H     -0.944586   -2.392635    2.369221
  H      1.482165   -1.533286    3.147377
  O      1.661506    2.293865    0.190665
  O      0.541735    0.992505    1.608644
  C      1.083686    2.095308    1.277099
  C      1.038526    3.199916    2.289443
  H      0.977584    4.168923    1.800213
  H      1.964122    3.184881    2.867964
  H      0.209590    3.075011    2.980927
  H      3.207630   -1.909008    1.134132
  H      1.819263   -2.925111   -0.966794

 Multiplicity           Mult            ....    1
 Number of Electrons    NEL             ....  164
 Basis Dimension        Dim             ....  358

ORBITAL ENERGIES
----------------

  NO   OCC          E(Eh)            E(eV)
   0   2.0000     -89.755244     -2442.3644
   1   2.0000     -19.636300      -534.3309
   2   2.0000     -19.618302      -533.8411
   3   2.0000     -14.832367      -403.6092
   4   2.0000     -10.698307      -291.1157
   5   2.0000     -10.654424      -289.9216
   6   2.0000     -10.631483      -289.2974
   7   2.0000     -10.630012      -289.2573
   8   2.0000     -10.628135      -289.2062
   9   2.0000     -10.624851      -289.1169
  10   2.0000     -10.621565      -289.0275
  11   2.0000     -10.618444      -288.9426
  12   2.0000     -10.612914      -288.7921
  13   2.0000     -10.604853      -288.5727
  14   2.0000     -10.581837      -287.9464
  15   2.0000     -10.580089      -287.8989
  16   2.0000     -10.554097      -287.1916
  17   2.0000     -10.550122      -287.0834
  18   2.0000     -10.544165      -286.9213
  19   2.0000      -8.394735      -228.4323
  20   2.0000      -6.284673      -171.0147
  21   2.0000      -6.281132      -170.9183
  22   2.0000      -6.279604      -170.8767
  23   2.0000      -4.025268      -109.5331
  24   2.0000      -2.343665       -63.7744
  25   2.0000      -2.310477       -62.8713
  26   2.0000      -2.307822       -62.7990
  27   2.0000      -1.326736       -36.1023
  28   2.0000      -1.228761       -33.4363
  29   2.0000      -1.204031       -32.7633
  30   2.0000      -1.167731       -31.7756
  31   2.0000      -1.119992       -30.4765
  32   2.0000      -1.021379       -27.7931
  33   2.0000      -0.981441       -26.7064
  34   2.0000      -0.973068       -26.4785
  35   2.0000      -0.960450       -26.1352
  36   2.0000      -0.954078       -25.9618
  37   2.0000      -0.939941       -25.5771
  38   2.0000      -0.900028       -24.4910
  39   2.0000      -0.868467       -23.6322
  40   2.0000      -0.794505       -21.6196
  41   2.0000      -0.783444       -21.3186
  42   2.0000      -0.782615       -21.2960
  43   2.0000      -0.776536       -21.1306
  44   2.0000      -0.767503       -20.8848
  45   2.0000      -0.766040       -20.8450
  46   2.0000      -0.740308       -20.1448
  47   2.0000      -0.722239       -19.6531
  48   2.0000      -0.690907       -18.8005
  49   2.0000      -0.680186       -18.5088
  50   2.0000      -0.662032       -18.0148
  51   2.0000      -0.659673       -17.9506
  52   2.0000      -0.648509       -17.6468
  53   2.0000      -0.640063       -17.4170
  54   2.0000      -0.636034       -17.3074
  55   2.0000      -0.633262       -17.2319
  56   2.0000      -0.621434       -16.9101
  57   2.0000      -0.606887       -16.5142
  58   2.0000      -0.603398       -16.4193
  59   2.0000      -0.602565       -16.3966
  60   2.0000      -0.594379       -16.1739
  61   2.0000      -0.587571       -15.9886
  62   2.0000      -0.574828       -15.6419
  63   2.0000      -0.567943       -15.4545
  64   2.0000      -0.561293       -15.2736
  65   2.0000      -0.560170       -15.2430
  66   2.0000      -0.555299       -15.1105
  67   2.0000      -0.546967       -14.8837
  68   2.0000      -0.540571       -14.7097
  69   2.0000      -0.533633       -14.5209
  70   2.0000      -0.527743       -14.3606
  71   2.0000      -0.518196       -14.1008
  72   2.0000      -0.513719       -13.9790
  73   2.0000      -0.504323       -13.7233
  74   2.0000      -0.497337       -13.5332
  75   2.0000      -0.479753       -13.0547
  76   2.0000      -0.469734       -12.7821
  77   2.0000      -0.447477       -12.1765
  78   2.0000      -0.446830       -12.1589
  79   2.0000      -0.418626       -11.3914
  80   2.0000      -0.415416       -11.3040
  81   2.0000      -0.398395       -10.8409
  82   0.0000      -0.197297        -5.3687
  83   0.0000      -0.152539        -4.1508
  84   0.0000      -0.141346        -3.8462
  85   0.0000      -0.084689        -2.3045
  86   0.0000      -0.072133        -1.9628

MULLIKEN ATOMIC CHARGES
-----------------------
   0 Ir:    0.606528
   1 C :   -0.224281
   2 C :   -0.283819
   3 C :   -0.249059
   4 C :   -0.233472
   5 C :   -0.163649
   6 N :   -0.441995
   7 C :   -0.125641
   8 C :   -0.683042
   9 H :    0.268870
  10 H :    0.225176
  11 H :    0.255371
  12 C :   -0.634320
  13 H :    0.278100
  14 H :    0.260255
  15 H :    0.232024
  16 H :    0.230275
  17 C :    0.070401
  18 C :   -0.162467
  19 H :    0.284011
  20 C :   -0.457293
  21 C :   -0.142379
  22 S :    0.321166
  23 C :   -0.424062
  24 H :    0.486774
  25 H :    0.261669
  26 H :    0.295279
  27 H :    0.289229
  28 H :    0.287501
  29 H :    0.302220
  30 O :   -0.495190
  31 O :   -0.517088
  32 C :    0.633412
  33 C :   -0.744943
  34 H :    0.273740
  35 H :    0.274183
  36 H :    0.260739
  37 H :    0.289431
  38 H :    0.296342
Sum of atomic charges:    1.0000000

LOEWDIN ATOMIC CHARGES
----------------------
   0 Ir:   -0.237079
   1 C :   -0.049095
   2 C :   -0.080526
   3 C :   -0.074705
   4 C :   -0.042768
   5 C :   -0.017374
   6 N :   -0.015586
   7 C :   -0.068880
   8 C :   -0.362577
   9 H :    0.155842
  10 H :    0.132993
  11 H :    0.144168
  12 C :   -0.344135
  13 H :    0.154014
  14 H :    0.151208
  15 H :    0.137674
  16 H :    0.131914
  17 C :    0.033352
  18 C :   -0.201641
  19 H :    0.159124
  20 C :   -0.213805
  21 C :   -0.141330
  22 S :    0.474555
  23 C :   -0.258771
  24 H :    0.338167
  25 H :    0.159410
  26 H :    0.167407
  27 H :    0.184063
  28 H :    0.183011
  29 H :    0.190997
  30 O :   -0.266312
  31 O :   -0.185541
  32 C :    0.169593
  33 C :   -0.371933
  34 H :    0.164185
  35 H :    0.171907
  36 H :    0.156103
  37 H :    0.185157
  38 H :    0.187216

  Mayer bond orders larger than 0.100000
B(  0-Ir,  1-C ) :   0.4287 B(  0-Ir,  2-C ) :   0.4967 B(  0-Ir,  3-C ) :   0.4598
B(  0-Ir,  4-C ) :   0.4491 B(  0-Ir,  5-C ) :   0.4019 B(  0-Ir,  6-N ) :   0.4700
B(  0-Ir, 20-C ) :   0.3471 B(  0-Ir, 31-O ) :   0.5329 B(  1-C ,  2-C ) :   1.1226
B(  1-C ,  4-C ) :   1.2340 B(  1-C , 27-H ) :   0.9051 B(  2-C ,  5-C ) :   1.1545
B(  2-C , 28-H ) :   0.9093 B(  3-C ,  4-C ) :   1.1180 B(  3-C ,  5-C ) :   1.2140
B(  3-C , 37-H ) :   0.9083 B(  4-C , 38-H ) :   0.9004 B(  5-C , 29-H ) :   0.8992
B(  6-N ,  7-C ) :   0.8938 B(  6-N , 17-C ) :   1.6543 B(  7-C ,  8-C ) :   0.9909
B(  7-C , 12-C ) :   0.9678 B(  7-C , 13-H ) :   0.8779 B(  8-C ,  9-H ) :   0.9048
B(  8-C , 10-H ) :   0.9130 B(  8-C , 11-H ) :   0.9114 B( 12-C , 14-H ) :   0.9075
B( 12-C , 15-H ) :   0.9156 B( 12-C , 16-H ) :   0.9130 B( 17-C , 18-C ) :   1.1017
B( 17-C , 19-H ) :   0.8762 B( 18-C , 20-C ) :   1.2811 B( 18-C , 22-S ) :   1.2128
B( 20-C , 21-C ) :   1.2999 B( 20-C , 24-H ) :   0.3649 B( 21-C , 23-C ) :   1.5332
B( 21-C , 25-H ) :   0.9055 B( 22-S , 23-C ) :   1.2228 B( 23-C , 26-H ) :   0.8920
B( 24-H , 30-O ) :   0.3190 B( 30-O , 32-C ) :   1.5738 B( 31-O , 32-C ) :   1.3628
B( 32-C , 33-C ) :   0.9487 B( 33-C , 34-H ) :   0.9007 B( 33-C , 35-H ) :   0.8936
B( 33-C , 36-H ) :   0.9078

Dispersion correction           -0.030384974
FINAL SINGLE POINT ENERGY     -1288.398674324958

DIPOLE MOMENT
-------------
                                X             Y             Z
Electronic contribution:     35.57330     -73.11496      79.33858
Nuclear contribution   :    -36.17352      72.40104     -79.39122
                        -----------------------------------------
Total Dipole Moment    :     -0.60022      -0.71392      -0.05264
                        -----------------------------------------
Magnitude (a.u.)       :      0.93419
Magnitude (Debye)      :      2.37453

Rotational constants in cm-1:     0.010542     0.008664     0.008066
Rotational constants in MHz :   316.039579   259.735685   241.819406

                             ****ORCA TERMINATED NORMALLY****
TOTAL RUN TIME: 0 days 1 hours 2 minutes 19 seconds 656 msec
