                         Program Version 5.0.3 -  RELEASE  -
|  1> ! Opt PBEh-3c
|  2> %geom Constraints
|  3> { B 0 20 2.1285714285714286 C }
|  4> { B 24 30 1.4 C }
|  5>     end
|  6> end
|  7> %output
|  8> xyzfile=True
|  9> end
| 10> %scf
| 11> maxiter 250
| 12> end
| 13> %output
| 14> Print[P_Hirshfeld] = 1
| 15> end
| 16> % maxcore
| 17> 4000
| 18> *xyz 1 1
| 19> Ir   0.61734574  -0.72237899   0.43115741
| 20> C    0.13044352  -2.83561984   0.33807415
| 21> C   -0.04500489  -2.37478369   1.69072485
| 22> C    2.17316621  -2.07710258   1.10728461
| 23> C    1.48369222  -2.65564177  -0.01652769
| 24> C    1.22473972  -1.93547368   2.15146581
| 25> N   -1.06009488   0.12850783  -0.51050095
| 26> C   -2.33228493   0.34669459   0.19502802
| 27> C   -3.12684455   1.53548879  -0.32655756
| 28> H   -3.95629953   1.72895862   0.35190203
| 29> H   -3.56483819   1.35457937  -1.30911413
| 30> H   -2.52315438   2.44216295  -0.37178927
| 31> C   -3.15735824  -0.93502336   0.15516596
| 32> H   -2.05032817   0.55232085   1.22863897
| 33> H   -4.06419590  -0.81047847   0.74553612
| 34> H   -3.45492018  -1.17928368  -0.86541751
| 35> H   -2.61429442  -1.78522504   0.56459303
| 36> C   -0.90599872   0.45269730  -1.74071350
| 37> C    0.41449835   0.27355570  -2.26923803
| 38> H   -1.71463274   0.86701926  -2.33459664
| 39> C    1.47337323   0.13135064  -1.37257892
| 40> C    2.67850204  -0.14637475  -2.08769900
| 41> S    0.87344242   0.09341537  -3.89221619
| 42> C    2.50119435  -0.18997622  -3.43658211
| 43> H    1.61679566   1.13764460  -0.61632385
| 44> H    3.64735140  -0.24772127  -1.62055086
| 45> H    3.24901019  -0.35203214  -4.19791948
| 46> H   -0.63611017  -3.25644371  -0.29623298
| 47> H   -0.95042088  -2.41982728   2.27666363
| 48> H    1.42086479  -1.49584933   3.11928505
| 49> O    1.70026850   2.31690926   0.15993076
| 50> O    0.55155986   1.00934529   1.54675955
| 51> C    1.10358693   2.11579268   1.22948622
| 52> C    1.03190040   3.21515043   2.24929481
| 53> H    0.91314878   4.18007558   1.76179173
| 54> H    1.97301655   3.24671779   2.80092938
| 55> H    0.22707809   3.05383423   2.96113141
| 56> H    3.22714934  -1.85472702   1.17027162
| 57> H    1.92402253  -2.90906836  -0.96981637
| 58> *
| 59>
| 60>                          ****END OF INPUT****
 Total Charge           Charge          ....    1
 Multiplicity           Mult            ....    1
 Number of Electrons    NEL             ....  164
Dispersion correction           -0.030836090
FINAL SINGLE POINT ENERGY     -1288.400836757497
Dispersion correction            ... done
Dispersion correction           -0.030788475
FINAL SINGLE POINT ENERGY     -1288.400850273931
Dispersion correction            ... done
Dispersion correction           -0.030794390
FINAL SINGLE POINT ENERGY     -1288.399875089493
Dispersion correction            ... done
FINAL SINGLE POINT ENERGY     -1288.401161847083
FINAL SINGLE POINT ENERGY     -1288.401196087057
FINAL SINGLE POINT ENERGY     -1288.401224946404
Dispersion correction            ... done
Dispersion correction           -0.030727781
FINAL SINGLE POINT ENERGY     -1288.401257355970
Dispersion correction            ... done
Dispersion correction           -0.030731045
FINAL SINGLE POINT ENERGY     -1288.401260853249
Dispersion correction            ... done
                    ***********************HURRAY********************

CARTESIAN COORDINATES (ANGSTROEM)
---------------------------------
  Ir     0.613754   -0.728279    0.421600
  C      0.117343   -2.840784    0.356815
  C     -0.054043   -2.378315    1.708700
  C      2.163114   -2.083429    1.116343
  C      1.472003   -2.668313   -0.001770
  C      1.214456   -1.934756    2.161575
  N     -1.065141    0.123636   -0.515700
  C     -2.337565    0.330851    0.192056
  C     -3.140107    1.517583   -0.321844
  H     -3.970127    1.701572    0.358470
  H     -3.577635    1.339506   -1.305136
  H     -2.542348    2.428463   -0.362155
  C     -3.155851   -0.955013    0.147039
  H     -2.055837    0.532552    1.226656
  H     -4.064295   -0.836820    0.736277
  H     -3.450227   -1.197803   -0.874772
  H     -2.609078   -1.803342    0.555118
  C     -0.908979    0.471736   -1.739815
  C      0.411251    0.296260   -2.266075
  H     -1.715394    0.900351   -2.326033
  C      1.450762    0.086287   -1.357927
  C      2.664793   -0.167307   -2.069382
  S      0.897525    0.210840   -3.888058
  C      2.511672   -0.125055   -3.421391
  H      1.624919    1.136610   -0.626217
  H      3.623732   -0.313549   -1.593597
  H      3.271430   -0.252356   -4.177509
  H     -0.650570   -3.264527   -0.273897
  H     -0.958823   -2.417888    2.295749
  H      1.413168   -1.488327    3.125760
  O      1.722013    2.308927    0.132891
  O      0.558347    1.018953    1.523558
  C      1.119840    2.116098    1.204774
  C      1.062354    3.223836    2.215697
  H      0.950279    4.186225    1.721646
  H      2.005711    3.250736    2.763738
  H      0.258384    3.074182    2.930881
  H      3.218248   -1.866706    1.179445
  H      1.910289   -2.933446   -0.952771

 Multiplicity           Mult            ....    1
 Number of Electrons    NEL             ....  164
 Basis Dimension        Dim             ....  358

ORBITAL ENERGIES
----------------

  NO   OCC          E(Eh)            E(eV)
   0   2.0000     -89.765156     -2442.6341
   1   2.0000     -19.632937      -534.2394
   2   2.0000     -19.616968      -533.8048
   3   2.0000     -14.835155      -403.6851
   4   2.0000     -10.693952      -290.9972
   5   2.0000     -10.655449      -289.9495
   6   2.0000     -10.627048      -289.1767
   7   2.0000     -10.626319      -289.1568
   8   2.0000     -10.624501      -289.1074
   9   2.0000     -10.623327      -289.0754
  10   2.0000     -10.615759      -288.8695
  11   2.0000     -10.613924      -288.8195
  12   2.0000     -10.613050      -288.7958
  13   2.0000     -10.610721      -288.7324
  14   2.0000     -10.589810      -288.1634
  15   2.0000     -10.589230      -288.1476
  16   2.0000     -10.553656      -287.1796
  17   2.0000     -10.550784      -287.1014
  18   2.0000     -10.542725      -286.8821
  19   2.0000      -8.404538      -228.6991
  20   2.0000      -6.294408      -171.2795
  21   2.0000      -6.290845      -171.1826
  22   2.0000      -6.289539      -171.1470
  23   2.0000      -4.021205      -109.4226
  24   2.0000      -2.338434       -63.6320
  25   2.0000      -2.307241       -62.7832
  26   2.0000      -2.304326       -62.7039
  27   2.0000      -1.321688       -35.9650
  28   2.0000      -1.223157       -33.2838
  29   2.0000      -1.207756       -32.8647
  30   2.0000      -1.161213       -31.5982
  31   2.0000      -1.128454       -30.7068
  32   2.0000      -1.024904       -27.8891
  33   2.0000      -0.973900       -26.5012
  34   2.0000      -0.970284       -26.4028
  35   2.0000      -0.967156       -26.3176
  36   2.0000      -0.959577       -26.1114
  37   2.0000      -0.937388       -25.5076
  38   2.0000      -0.900587       -24.5062
  39   2.0000      -0.872677       -23.7467
  40   2.0000      -0.798686       -21.7334
  41   2.0000      -0.782519       -21.2934
  42   2.0000      -0.777471       -21.1560
  43   2.0000      -0.776843       -21.1390
  44   2.0000      -0.762189       -20.7402
  45   2.0000      -0.758936       -20.6517
  46   2.0000      -0.742853       -20.2141
  47   2.0000      -0.722041       -19.6477
  48   2.0000      -0.692334       -18.8394
  49   2.0000      -0.684145       -18.6165
  50   2.0000      -0.663708       -18.0604
  51   2.0000      -0.657480       -17.8909
  52   2.0000      -0.647387       -17.6163
  53   2.0000      -0.637504       -17.3474
  54   2.0000      -0.631526       -17.1847
  55   2.0000      -0.628307       -17.0971
  56   2.0000      -0.621744       -16.9185
  57   2.0000      -0.611189       -16.6313
  58   2.0000      -0.600316       -16.3354
  59   2.0000      -0.597747       -16.2655
  60   2.0000      -0.596960       -16.2441
  61   2.0000      -0.591370       -16.0920
  62   2.0000      -0.579682       -15.7739
  63   2.0000      -0.568097       -15.4587
  64   2.0000      -0.565429       -15.3861
  65   2.0000      -0.562324       -15.3016
  66   2.0000      -0.553852       -15.0711
  67   2.0000      -0.547086       -14.8870
  68   2.0000      -0.542093       -14.7511
  69   2.0000      -0.535459       -14.5706
  70   2.0000      -0.529249       -14.4016
  71   2.0000      -0.518312       -14.1040
  72   2.0000      -0.513081       -13.9616
  73   2.0000      -0.499651       -13.5962
  74   2.0000      -0.493903       -13.4398
  75   2.0000      -0.485927       -13.2227
  76   2.0000      -0.478068       -13.0089
  77   2.0000      -0.449499       -12.2315
  78   2.0000      -0.444113       -12.0849
  79   2.0000      -0.419191       -11.4068
  80   2.0000      -0.415518       -11.3068
  81   2.0000      -0.394937       -10.7468
  82   0.0000      -0.205554        -5.5934
  83   0.0000      -0.143170        -3.8959
  84   0.0000      -0.133259        -3.6262
  85   0.0000      -0.087490        -2.3807
  86   0.0000      -0.074332        -2.0227

MULLIKEN ATOMIC CHARGES
-----------------------
   0 Ir:    0.606505
   1 C :   -0.236556
   2 C :   -0.262829
   3 C :   -0.266273
   4 C :   -0.229458
   5 C :   -0.154622
   6 N :   -0.432523
   7 C :   -0.125230
   8 C :   -0.684175
   9 H :    0.270042
  10 H :    0.224597
  11 H :    0.254396
  12 C :   -0.634377
  13 H :    0.280900
  14 H :    0.259524
  15 H :    0.232412
  16 H :    0.233445
  17 C :    0.069240
  18 C :   -0.124216
  19 H :    0.286285
  20 C :   -0.562388
  21 C :   -0.098269
  22 S :    0.342293
  23 C :   -0.428308
  24 H :    0.472529
  25 H :    0.267118
  26 H :    0.298347
  27 H :    0.285656
  28 H :    0.282566
  29 H :    0.298661
  30 O :   -0.477202
  31 O :   -0.514013
  32 C :    0.628910
  33 C :   -0.743933
  34 H :    0.271980
  35 H :    0.274196
  36 H :    0.259661
  37 H :    0.282601
  38 H :    0.292510
Sum of atomic charges:    1.0000000

LOEWDIN ATOMIC CHARGES
----------------------
   0 Ir:   -0.257211
   1 C :   -0.054407
   2 C :   -0.097090
   3 C :   -0.091705
   4 C :   -0.045366
   5 C :   -0.016187
   6 N :   -0.002173
   7 C :   -0.069403
   8 C :   -0.362693
   9 H :    0.156467
  10 H :    0.132934
  11 H :    0.143654
  12 C :   -0.343659
  13 H :    0.155588
  14 H :    0.151008
  15 H :    0.137891
  16 H :    0.133270
  17 C :    0.028237
  18 C :   -0.185328
  19 H :    0.160779
  20 C :   -0.219574
  21 C :   -0.124403
  22 S :    0.498676
  23 C :   -0.258735
  24 H :    0.350486
  25 H :    0.162551
  26 H :    0.169443
  27 H :    0.182084
  28 H :    0.180001
  29 H :    0.188686
  30 O :   -0.263126
  31 O :   -0.186307
  32 C :    0.161583
  33 C :   -0.372352
  34 H :    0.163899
  35 H :    0.171399
  36 H :    0.154841
  37 H :    0.181919
  38 H :    0.184323

  Mayer bond orders larger than 0.100000
B(  0-Ir,  1-C ) :   0.4353 B(  0-Ir,  2-C ) :   0.4171 B(  0-Ir,  3-C ) :   0.4643
B(  0-Ir,  4-C ) :   0.4299 B(  0-Ir,  5-C ) :   0.3776 B(  0-Ir,  6-N ) :   0.4646
B(  0-Ir, 20-C ) :   0.4685 B(  0-Ir, 31-O ) :   0.5295 B(  1-C ,  2-C ) :   1.1297
B(  1-C ,  4-C ) :   1.2289 B(  1-C , 27-H ) :   0.9074 B(  2-C ,  5-C ) :   1.1999
B(  2-C , 28-H ) :   0.9104 B(  3-C ,  4-C ) :   1.1320 B(  3-C ,  5-C ) :   1.1854
B(  3-C , 37-H ) :   0.9125 B(  4-C , 38-H ) :   0.9001 B(  5-C , 29-H ) :   0.9009
B(  6-N ,  7-C ) :   0.8958 B(  6-N , 17-C ) :   1.6502 B(  7-C ,  8-C ) :   0.9906
B(  7-C , 12-C ) :   0.9664 B(  7-C , 13-H ) :   0.8752 B(  8-C ,  9-H ) :   0.9045
B(  8-C , 10-H ) :   0.9129 B(  8-C , 11-H ) :   0.9117 B( 12-C , 14-H ) :   0.9076
B( 12-C , 15-H ) :   0.9153 B( 12-C , 16-H ) :   0.9117 B( 17-C , 18-C ) :   1.1083
B( 17-C , 19-H ) :   0.8761 B( 18-C , 20-C ) :   1.2264 B( 18-C , 22-S ) :   1.2472
B( 20-C , 21-C ) :   1.2626 B( 20-C , 24-H ) :   0.3677 B( 21-C , 23-C ) :   1.5472
B( 21-C , 25-H ) :   0.9024 B( 22-S , 23-C ) :   1.2139 B( 23-C , 26-H ) :   0.8913
B( 24-H , 30-O ) :   0.3256 B( 30-O , 32-C ) :   1.5900 B( 31-O , 32-C ) :   1.3611
B( 32-C , 33-C ) :   0.9442 B( 33-C , 34-H ) :   0.9009 B( 33-C , 35-H ) :   0.8943
B( 33-C , 36-H ) :   0.9085

Dispersion correction           -0.030730436
FINAL SINGLE POINT ENERGY     -1288.401261701059

DIPOLE MOMENT
-------------
                                X             Y             Z
Electronic contribution:     37.38451     -72.92475      70.92486
Nuclear contribution   :    -38.00852      72.35164     -71.24474
                        -----------------------------------------
Total Dipole Moment    :     -0.62401      -0.57311      -0.31988
                        -----------------------------------------
Magnitude (a.u.)       :      0.90563
Magnitude (Debye)      :      2.30194

Rotational constants in cm-1:     0.010533     0.008919     0.008223
Rotational constants in MHz :   315.766756   267.378953   246.532391

                             ****ORCA TERMINATED NORMALLY****
TOTAL RUN TIME: 0 days 1 hours 13 minutes 7 seconds 796 msec
