                         Program Version 5.0.3 -  RELEASE  -
|  1> ! Opt PBEh-3c
|  2> %geom Constraints
|  3> { B 0 20 2.3 C }
|  4> { B 24 30 1.5 C }
|  5>     end
|  6> end
|  7> %output
|  8> xyzfile=True
|  9> end
| 10> %scf
| 11> maxiter 250
| 12> end
| 13> %output
| 14> Print[P_Hirshfeld] = 1
| 15> end
| 16> % maxcore
| 17> 4000
| 18> *xyz 1 1
| 19> Ir   0.61386701  -0.70649361   0.42098806
| 20> C    0.06795212  -2.79903602   0.33842672
| 21> C    0.12430379  -2.34069453   1.70265424
| 22> C    2.22366606  -2.10957028   0.77795194
| 23> C    1.34198892  -2.63876168  -0.23766121
| 24> C    1.48004733  -1.96020160   1.96435817
| 25> N   -1.04748657   0.16768251  -0.52932705
| 26> C   -2.31081605   0.48247477   0.15449297
| 27> C   -3.11306385   1.57926700  -0.52718094
| 28> H   -3.93637018   1.86988325   0.12396220
| 29> H   -3.56147667   1.25675728  -1.46822227
| 30> H   -2.51301856   2.47134448  -0.70903128
| 31> C   -3.12753633  -0.79310126   0.32382936
| 32> H   -2.00961631   0.83648234   1.14153304
| 33> H   -4.03357130  -0.57437504   0.88689413
| 34> H   -3.42582177  -1.20393684  -0.64156561
| 35> H   -2.58093287  -1.55829062   0.87313936
| 36> C   -0.86614230   0.38264255  -1.77483675
| 37> C    0.47971843   0.15452026  -2.24842388
| 38> H   -1.65183604   0.74975072  -2.42838451
| 39> C    1.56712814   0.39942734  -1.41128148
| 40> C    2.77996620  -0.00240052  -2.04697900
| 41> S    0.92638747  -0.53007723  -3.73826511
| 42> C    2.58563717  -0.51672711  -3.28926284
| 43> H    1.52165485   1.31527720  -0.67864477
| 44> H    3.75909888   0.13728349  -1.61241777
| 45> H    3.32966921  -0.86833939  -3.98790018
| 46> H   -0.81031435  -3.17322693  -0.16780463
| 47> H   -0.67667251  -2.36985108   2.42629748
| 48> H    1.84821538  -1.55047935   2.89402678
| 49> O    1.31285319   2.48385043   0.23832768
| 50> O    0.53500406   0.92871243   1.63437437
| 51> C    0.90586022   2.13043070   1.34194717
| 52> C    0.83969643   3.09982874   2.48968984
| 53> H    0.80119400   4.12334270   2.12704331
| 54> H    1.74034936   2.99388279   3.09756386
| 55> H   -0.01143229   2.90131139   3.13779705
| 56> H    3.27298152  -1.88690505   0.65559364
| 57> H    1.61823826  -2.88249427  -1.25296199
| 58> *
| 59>
| 60>                          ****END OF INPUT****
 Total Charge           Charge          ....    1
 Multiplicity           Mult            ....    1
 Number of Electrons    NEL             ....  164
Dispersion correction           -0.031111815
FINAL SINGLE POINT ENERGY     -1288.400551665700
Dispersion correction            ... done
Dispersion correction           -0.031157881
FINAL SINGLE POINT ENERGY     -1288.399146155636
Dispersion correction            ... done
Dispersion correction           -0.031085988
FINAL SINGLE POINT ENERGY     -1288.400662071093
Dispersion correction            ... done
FINAL SINGLE POINT ENERGY     -1288.399692242004
FINAL SINGLE POINT ENERGY     -1288.400696838703
FINAL SINGLE POINT ENERGY     -1288.400690939722
FINAL SINGLE POINT ENERGY     -1288.400737101894
FINAL SINGLE POINT ENERGY     -1288.400746164251
Dispersion correction            ... done
Dispersion correction           -0.031011116
FINAL SINGLE POINT ENERGY     -1288.400755105868
Dispersion correction            ... done
Dispersion correction           -0.031000642
FINAL SINGLE POINT ENERGY     -1288.400767477287
Dispersion correction            ... done
                    ***********************HURRAY********************

CARTESIAN COORDINATES (ANGSTROEM)
---------------------------------
  Ir     0.618838   -0.705711    0.418508
  C      0.075693   -2.801869    0.341680
  C      0.114206   -2.341933    1.705015
  C      2.224767   -2.106098    0.804424
  C      1.356892   -2.641451   -0.219390
  C      1.463871   -1.954128    1.980679
  N     -1.046748    0.162908   -0.529707
  C     -2.309402    0.468768    0.159487
  C     -3.107429    1.581896   -0.500670
  H     -3.929676    1.863134    0.155893
  H     -3.556906    1.278965   -1.447609
  H     -2.503528    2.474614   -0.665530
  C     -3.130784   -0.807242    0.302479
  H     -2.007942    0.801659    1.153698
  H     -4.035556   -0.597600    0.871047
  H     -3.431237   -1.196425   -0.671167
  H     -2.585833   -1.585866    0.834176
  C     -0.872185    0.386123   -1.775448
  C      0.470458    0.163180   -2.255762
  H     -1.661908    0.756694   -2.421959
  C      1.551959    0.356110   -1.395830
  C      2.766688   -0.029467   -2.039486
  S      0.922787   -0.460083   -3.768329
  C      2.578025   -0.485141   -3.305380
  H      1.520475    1.286469   -0.671131
  H      3.743597    0.080425   -1.591572
  H      3.324430   -0.812914   -4.013005
  H     -0.794889   -3.180408   -0.174490
  H     -0.695757   -2.370490    2.418465
  H      1.819068   -1.539707    2.913339
  O      1.333335    2.476529    0.222590
  O      0.536027    0.937883    1.624843
  C      0.916396    2.133691    1.327020
  C      0.849717    3.114160    2.465060
  H      0.816523    4.134517    2.093137
  H      1.747919    3.010091    3.076844
  H     -0.004555    2.924381    3.111562
  H      3.276196   -1.886051    0.697094
  H      1.645839   -2.890423   -1.229836

 Multiplicity           Mult            ....    1
 Number of Electrons    NEL             ....  164
 Basis Dimension        Dim             ....  358

ORBITAL ENERGIES
----------------

  NO   OCC          E(Eh)            E(eV)
   0   2.0000     -89.769386     -2442.7492
   1   2.0000     -19.619943      -533.8858
   2   2.0000     -19.586303      -532.9704
   3   2.0000     -14.842036      -403.8723
   4   2.0000     -10.676725      -290.5284
   5   2.0000     -10.662738      -290.1478
   6   2.0000     -10.638401      -289.4856
   7   2.0000     -10.634334      -289.3749
   8   2.0000     -10.631528      -289.2986
   9   2.0000     -10.627734      -289.1954
  10   2.0000     -10.627530      -289.1898
  11   2.0000     -10.626528      -289.1625
  12   2.0000     -10.615607      -288.8653
  13   2.0000     -10.613900      -288.8189
  14   2.0000     -10.590946      -288.1943
  15   2.0000     -10.588055      -288.1156
  16   2.0000     -10.556787      -287.2648
  17   2.0000     -10.551911      -287.1321
  18   2.0000     -10.531069      -286.5650
  19   2.0000      -8.408744      -228.8136
  20   2.0000      -6.298707      -171.3965
  21   2.0000      -6.295053      -171.2971
  22   2.0000      -6.293651      -171.2589
  23   2.0000      -4.026838      -109.5758
  24   2.0000      -2.345322       -63.8195
  25   2.0000      -2.311832       -62.9081
  26   2.0000      -2.310676       -62.8767
  27   2.0000      -1.301344       -35.4114
  28   2.0000      -1.215054       -33.0633
  29   2.0000      -1.204192       -32.7677
  30   2.0000      -1.169756       -31.8307
  31   2.0000      -1.132549       -30.8182
  32   2.0000      -1.028748       -27.9936
  33   2.0000      -0.983864       -26.7723
  34   2.0000      -0.975357       -26.5408
  35   2.0000      -0.971779       -26.4434
  36   2.0000      -0.963855       -26.2278
  37   2.0000      -0.924088       -25.1457
  38   2.0000      -0.903173       -24.5766
  39   2.0000      -0.876620       -23.8540
  40   2.0000      -0.801030       -21.7971
  41   2.0000      -0.786309       -21.3966
  42   2.0000      -0.785757       -21.3815
  43   2.0000      -0.783549       -21.3214
  44   2.0000      -0.770084       -20.9550
  45   2.0000      -0.755003       -20.5447
  46   2.0000      -0.743192       -20.2233
  47   2.0000      -0.724610       -19.7176
  48   2.0000      -0.693189       -18.8626
  49   2.0000      -0.672687       -18.3047
  50   2.0000      -0.665943       -18.1212
  51   2.0000      -0.650512       -17.7013
  52   2.0000      -0.645220       -17.5573
  53   2.0000      -0.638451       -17.3731
  54   2.0000      -0.634112       -17.2551
  55   2.0000      -0.626783       -17.0556
  56   2.0000      -0.622945       -16.9512
  57   2.0000      -0.614540       -16.7225
  58   2.0000      -0.605627       -16.4799
  59   2.0000      -0.605116       -16.4660
  60   2.0000      -0.601165       -16.3585
  61   2.0000      -0.591907       -16.1066
  62   2.0000      -0.582493       -15.8504
  63   2.0000      -0.575243       -15.6532
  64   2.0000      -0.565029       -15.3752
  65   2.0000      -0.554211       -15.0808
  66   2.0000      -0.552198       -15.0261
  67   2.0000      -0.548486       -14.9251
  68   2.0000      -0.540598       -14.7104
  69   2.0000      -0.536161       -14.5897
  70   2.0000      -0.527779       -14.3616
  71   2.0000      -0.520010       -14.1502
  72   2.0000      -0.515873       -14.0376
  73   2.0000      -0.501911       -13.6577
  74   2.0000      -0.486580       -13.2405
  75   2.0000      -0.481665       -13.1068
  76   2.0000      -0.473184       -12.8760
  77   2.0000      -0.445317       -12.1177
  78   2.0000      -0.441432       -12.0120
  79   2.0000      -0.425698       -11.5838
  80   2.0000      -0.416198       -11.3253
  81   2.0000      -0.401451       -10.9240
  82   0.0000      -0.206374        -5.6157
  83   0.0000      -0.155111        -4.2208
  84   0.0000      -0.141843        -3.8597
  85   0.0000      -0.099291        -2.7018
  86   0.0000      -0.078187        -2.1276

MULLIKEN ATOMIC CHARGES
-----------------------
   0 Ir:    0.606773
   1 C :   -0.212342
   2 C :   -0.279591
   3 C :   -0.242200
   4 C :   -0.247040
   5 C :   -0.163315
   6 N :   -0.421811
   7 C :   -0.123750
   8 C :   -0.690307
   9 H :    0.272075
  10 H :    0.224328
  11 H :    0.261405
  12 C :   -0.636927
  13 H :    0.284084
  14 H :    0.263958
  15 H :    0.230644
  16 H :    0.233067
  17 C :    0.073041
  18 C :   -0.162571
  19 H :    0.292288
  20 C :   -0.503757
  21 C :   -0.108691
  22 S :    0.318716
  23 C :   -0.435030
  24 H :    0.492945
  25 H :    0.269793
  26 H :    0.299688
  27 H :    0.289479
  28 H :    0.290207
  29 H :    0.305291
  30 O :   -0.471844
  31 O :   -0.539817
  32 C :    0.610489
  33 C :   -0.744209
  34 H :    0.268088
  35 H :    0.264657
  36 H :    0.251062
  37 H :    0.289186
  38 H :    0.291937
Sum of atomic charges:    1.0000000

LOEWDIN ATOMIC CHARGES
----------------------
   0 Ir:   -0.239744
   1 C :   -0.040896
   2 C :   -0.072731
   3 C :   -0.061681
   4 C :   -0.059106
   5 C :   -0.020757
   6 N :    0.002315
   7 C :   -0.069746
   8 C :   -0.363960
   9 H :    0.157471
  10 H :    0.133110
  11 H :    0.147209
  12 C :   -0.343275
  13 H :    0.157706
  14 H :    0.152987
  15 H :    0.137072
  16 H :    0.134150
  17 C :    0.032666
  18 C :   -0.169201
  19 H :    0.163559
  20 C :   -0.198422
  21 C :   -0.124263
  22 S :    0.486737
  23 C :   -0.264107
  24 H :    0.293677
  25 H :    0.164391
  26 H :    0.169304
  27 H :    0.184002
  28 H :    0.184598
  29 H :    0.192832
  30 O :   -0.273781
  31 O :   -0.209465
  32 C :    0.147860
  33 C :   -0.376683
  34 H :    0.158714
  35 H :    0.165949
  36 H :    0.152246
  37 H :    0.184905
  38 H :    0.184359

  Mayer bond orders larger than 0.100000
B(  0-Ir,  1-C ) :   0.4156 B(  0-Ir,  2-C ) :   0.4938 B(  0-Ir,  3-C ) :   0.4621
B(  0-Ir,  4-C ) :   0.4449 B(  0-Ir,  5-C ) :   0.3985 B(  0-Ir,  6-N ) :   0.4590
B(  0-Ir, 20-C ) :   0.3142 B(  0-Ir, 31-O ) :   0.5800 B(  1-C ,  2-C ) :   1.1260
B(  1-C ,  4-C ) :   1.2450 B(  1-C , 27-H ) :   0.9042 B(  2-C ,  5-C ) :   1.1480
B(  2-C , 28-H ) :   0.9085 B(  3-C ,  4-C ) :   1.1082 B(  3-C ,  5-C ) :   1.2249
B(  3-C , 37-H ) :   0.9070 B(  4-C , 38-H ) :   0.9006 B(  5-C , 29-H ) :   0.8983
B(  6-N ,  7-C ) :   0.8920 B(  6-N , 17-C ) :   1.6868 B(  7-C ,  8-C ) :   0.9913
B(  7-C , 12-C ) :   0.9680 B(  7-C , 13-H ) :   0.8709 B(  8-C ,  9-H ) :   0.9037
B(  8-C , 10-H ) :   0.9129 B(  8-C , 11-H ) :   0.9081 B( 12-C , 14-H ) :   0.9065
B( 12-C , 15-H ) :   0.9155 B( 12-C , 16-H ) :   0.9116 B( 17-C , 18-C ) :   1.0603
B( 17-C , 19-H ) :   0.8745 B( 18-C , 20-C ) :   1.2625 B( 18-C , 22-S ) :   1.2552
B( 20-C , 21-C ) :   1.2472 B( 20-C , 24-H ) :   0.4819 B( 21-C , 23-C ) :   1.5574
B( 21-C , 25-H ) :   0.9027 B( 22-S , 23-C ) :   1.1973 B( 23-C , 26-H ) :   0.8912
B( 24-H , 30-O ) :   0.2422 B( 30-O , 32-C ) :   1.7089 B( 31-O , 32-C ) :   1.2713
B( 32-C , 33-C ) :   0.9443 B( 33-C , 34-H ) :   0.9058 B( 33-C , 35-H ) :   0.8999
B( 33-C , 36-H ) :   0.9101

Dispersion correction           -0.031002907
FINAL SINGLE POINT ENERGY     -1288.400768307897

DIPOLE MOMENT
-------------
                                X             Y             Z
Electronic contribution:     38.20716     -66.90207      69.67213
Nuclear contribution   :    -38.83427      65.68836     -70.14202
                        -----------------------------------------
Total Dipole Moment    :     -0.62711      -1.21371      -0.46989
                        -----------------------------------------
Magnitude (a.u.)       :      1.44470
Magnitude (Debye)      :      3.67214

Rotational constants in cm-1:     0.010732     0.009187     0.008269
Rotational constants in MHz :   321.725050   275.434296   247.891153

                             ****ORCA TERMINATED NORMALLY****
TOTAL RUN TIME: 0 days 1 hours 31 minutes 0 seconds 605 msec
