                         Program Version 5.0.3 -  RELEASE  -
|  1> ! Opt PBEh-3c
|  2> %geom Constraints
|  3> { B 0 20 2.257142857142857 C }
|  4> { B 24 30 1.3714285714285714 C }
|  5>     end
|  6> end
|  7> %output
|  8> xyzfile=True
|  9> end
| 10> %scf
| 11> maxiter 250
| 12> end
| 13> %output
| 14> Print[P_Hirshfeld] = 1
| 15> end
| 16> % maxcore
| 17> 4000
| 18> *xyz 1 1
| 19> Ir   0.60975468  -0.72568996   0.46019636
| 20> C    0.07977620  -2.82316123   0.36861564
| 21> C    0.01635607  -2.35729537   1.72881698
| 22> C    2.18933871  -2.11501577   0.98335774
| 23> C    1.40034452  -2.66161324  -0.09497082
| 24> C    1.33741234  -1.95858629   2.09763577
| 25> N   -1.04485116   0.13063957  -0.51436096
| 26> C   -2.31870428   0.39252749   0.17544790
| 27> C   -3.10412711   1.55513931  -0.41334666
| 28> H   -3.93220996   1.79415912   0.25247852
| 29> H   -3.54417282   1.32176194  -1.38381569
| 30> H   -2.49366890   2.45321552  -0.51011793
| 31> C   -3.15044409  -0.88455065   0.21070124
| 32> H   -2.03590109   0.65328888   1.19630483
| 33> H   -4.06104392  -0.71556128   0.78379740
| 34> H   -3.44156958  -1.19382214  -0.79398450
| 35> H   -2.61609255  -1.70764131   0.68251173
| 36> C   -0.88007032   0.39494158  -1.75650067
| 37> C    0.45014345   0.21681805  -2.27236449
| 38> H   -1.68803233   0.77044008  -2.37729389
| 39> C    1.53277112   0.26394028  -1.39955433
| 40> C    2.73850788  -0.04319895  -2.09409260
| 41> S    0.89155485  -0.16369828  -3.86951510
| 42> C    2.54146634  -0.28778974  -3.41889065
| 43> H    1.55557802   1.23318227  -0.60812517
| 44> H    3.71832285  -0.02678649  -1.63947297
| 45> H    3.28436152  -0.51330272  -4.16889116
| 46> H   -0.74649956  -3.21336915  -0.20799067
| 47> H   -0.84260514  -2.38834498   2.38218005
| 48> H    1.61990065  -1.53469483   3.05090086
| 49> O    1.51408985   2.37400284   0.17737546
| 50> O    0.54568747   0.97156573   1.61063814
| 51> C    1.01322467   2.11646432   1.28089457
| 52> C    0.95765475   3.17426627   2.34444221
| 53> H    0.94025313   4.16731084   1.90351578
| 54> H    1.85536040   3.10076325   2.96129973
| 55> H    0.09952220   3.03873030   2.99848852
| 56> H    3.24641058  -1.89872335   0.95625274
| 57> H    1.76157062  -2.91112189  -1.08182387
| 58> *
| 59>
| 60>                          ****END OF INPUT****
 Total Charge           Charge          ....    1
 Multiplicity           Mult            ....    1
 Number of Electrons    NEL             ....  164
Dispersion correction           -0.030823655
FINAL SINGLE POINT ENERGY     -1288.400938334303
Dispersion correction            ... done
Dispersion correction           -0.030759664
FINAL SINGLE POINT ENERGY     -1288.400763167091
Dispersion correction            ... done
Dispersion correction           -0.030774988
FINAL SINGLE POINT ENERGY     -1288.400198069036
Dispersion correction            ... done
FINAL SINGLE POINT ENERGY     -1288.401181738681
FINAL SINGLE POINT ENERGY     -1288.401268425014
FINAL SINGLE POINT ENERGY     -1288.401298880558
FINAL SINGLE POINT ENERGY     -1288.401337165360
FINAL SINGLE POINT ENERGY     -1288.401376234354
FINAL SINGLE POINT ENERGY     -1288.401397278901
FINAL SINGLE POINT ENERGY     -1288.401406511446
FINAL SINGLE POINT ENERGY     -1288.401425174115
FINAL SINGLE POINT ENERGY     -1288.401429886327
FINAL SINGLE POINT ENERGY     -1288.401432031360
FINAL SINGLE POINT ENERGY     -1288.401434600004
FINAL SINGLE POINT ENERGY     -1288.401435863356
FINAL SINGLE POINT ENERGY     -1288.401438274943
FINAL SINGLE POINT ENERGY     -1288.401439248560
Dispersion correction            ... done
Dispersion correction           -0.030612440
FINAL SINGLE POINT ENERGY     -1288.401442182781
Dispersion correction            ... done
Dispersion correction           -0.030610689
FINAL SINGLE POINT ENERGY     -1288.401442766004
Dispersion correction            ... done
                    ***********************HURRAY********************

CARTESIAN COORDINATES (ANGSTROEM)
---------------------------------
  Ir     0.608703   -0.728149    0.459185
  C      0.112000   -2.833709    0.354033
  C     -0.048969   -2.367465    1.707037
  C      2.166990   -2.091833    1.107311
  C      1.461598   -2.659237   -0.013970
  C      1.232729   -1.943168    2.159531
  N     -1.053939    0.123049   -0.505566
  C     -2.332179    0.347405    0.189046
  C     -3.119322    1.535539   -0.345447
  H     -3.951807    1.737372    0.326940
  H     -3.552665    1.349787   -1.329121
  H     -2.511708    2.439404   -0.393909
  C     -3.160516   -0.931964    0.151193
  H     -2.058442    0.559287    1.223570
  H     -4.072303   -0.800780    0.732448
  H     -3.449746   -1.183011   -0.870163
  H     -2.623803   -1.780766    0.571941
  C     -0.894861    0.430425   -1.739330
  C      0.427125    0.263386   -2.271552
  H     -1.707128    0.826967   -2.340996
  C      1.507124    0.186280   -1.398597
  C      2.703062   -0.094071   -2.120951
  S      0.860034    0.029209   -3.898931
  C      2.501209   -0.196408   -3.464472
  H      1.621042    1.170541   -0.587420
  H      3.682161   -0.157344   -1.668865
  H      3.238400   -0.372390   -4.233090
  H     -0.664333   -3.245039   -0.274632
  H     -0.948862   -2.408216    2.301991
  H      1.441825   -1.508208    3.126747
  O      1.688521    2.305585    0.179351
  O      0.543806    1.002138    1.573450
  C      1.095288    2.107094    1.252880
  C      1.030611    3.207858    2.270428
  H      0.923641    4.173703    1.782174
  H      1.969533    3.229750    2.826443
  H      0.221517    3.054469    2.979217
  H      3.221937   -1.870209    1.156214
  H      1.891097   -2.908089   -0.973377

 Multiplicity           Mult            ....    1
 Number of Electrons    NEL             ....  164
 Basis Dimension        Dim             ....  358

ORBITAL ENERGIES
----------------

  NO   OCC          E(Eh)            E(eV)
   0   2.0000     -89.761660     -2442.5389
   1   2.0000     -19.632146      -534.2179
   2   2.0000     -19.612078      -533.6718
   3   2.0000     -14.834942      -403.6793
   4   2.0000     -10.692725      -290.9638
   5   2.0000     -10.656152      -289.9686
   6   2.0000     -10.629772      -289.2508
   7   2.0000     -10.627802      -289.1972
   8   2.0000     -10.626615      -289.1649
   9   2.0000     -10.624970      -289.1201
  10   2.0000     -10.621628      -289.0292
  11   2.0000     -10.618345      -288.9398
  12   2.0000     -10.613339      -288.8036
  13   2.0000     -10.608726      -288.6781
  14   2.0000     -10.586519      -288.0738
  15   2.0000     -10.585825      -288.0549
  16   2.0000     -10.554392      -287.1996
  17   2.0000     -10.550661      -287.0981
  18   2.0000     -10.541418      -286.8466
  19   2.0000      -8.401113      -228.6059
  20   2.0000      -6.291015      -171.1872
  21   2.0000      -6.287446      -171.0901
  22   2.0000      -6.286059      -171.0524
  23   2.0000      -4.023910      -109.4962
  24   2.0000      -2.341836       -63.7246
  25   2.0000      -2.309189       -62.8362
  26   2.0000      -2.306911       -62.7742
  27   2.0000      -1.320414       -35.9303
  28   2.0000      -1.222045       -33.2535
  29   2.0000      -1.207102       -32.8469
  30   2.0000      -1.165377       -31.7115
  31   2.0000      -1.125680       -30.6313
  32   2.0000      -1.023865       -27.8608
  33   2.0000      -0.978591       -26.6288
  34   2.0000      -0.971089       -26.4247
  35   2.0000      -0.966026       -26.2869
  36   2.0000      -0.958194       -26.0738
  37   2.0000      -0.936437       -25.4817
  38   2.0000      -0.900591       -24.5063
  39   2.0000      -0.871623       -23.7181
  40   2.0000      -0.797327       -21.6964
  41   2.0000      -0.781508       -21.2659
  42   2.0000      -0.780710       -21.2442
  43   2.0000      -0.779923       -21.2228
  44   2.0000      -0.765746       -20.8370
  45   2.0000      -0.760084       -20.6829
  46   2.0000      -0.741973       -20.1901
  47   2.0000      -0.722338       -19.6558
  48   2.0000      -0.691092       -18.8056
  49   2.0000      -0.681515       -18.5450
  50   2.0000      -0.662905       -18.0386
  51   2.0000      -0.656180       -17.8556
  52   2.0000      -0.647406       -17.6168
  53   2.0000      -0.637870       -17.3573
  54   2.0000      -0.634191       -17.2572
  55   2.0000      -0.631529       -17.1848
  56   2.0000      -0.621911       -16.9231
  57   2.0000      -0.609615       -16.5885
  58   2.0000      -0.601285       -16.3618
  59   2.0000      -0.600627       -16.3439
  60   2.0000      -0.597842       -16.2681
  61   2.0000      -0.590435       -16.0666
  62   2.0000      -0.578165       -15.7327
  63   2.0000      -0.567720       -15.4484
  64   2.0000      -0.563501       -15.3336
  65   2.0000      -0.562069       -15.2947
  66   2.0000      -0.553388       -15.0584
  67   2.0000      -0.547317       -14.8933
  68   2.0000      -0.541397       -14.7322
  69   2.0000      -0.534883       -14.5549
  70   2.0000      -0.528349       -14.3771
  71   2.0000      -0.518299       -14.1036
  72   2.0000      -0.513690       -13.9782
  73   2.0000      -0.500922       -13.6308
  74   2.0000      -0.494307       -13.4508
  75   2.0000      -0.479837       -13.0570
  76   2.0000      -0.476543       -12.9674
  77   2.0000      -0.447295       -12.1715
  78   2.0000      -0.445451       -12.1213
  79   2.0000      -0.418700       -11.3934
  80   2.0000      -0.417635       -11.3644
  81   2.0000      -0.398200       -10.8356
  82   0.0000      -0.202260        -5.5038
  83   0.0000      -0.145001        -3.9457
  84   0.0000      -0.141914        -3.8617
  85   0.0000      -0.087637        -2.3847
  86   0.0000      -0.072737        -1.9793

MULLIKEN ATOMIC CHARGES
-----------------------
   0 Ir:    0.604293
   1 C :   -0.229189
   2 C :   -0.274038
   3 C :   -0.257697
   4 C :   -0.230357
   5 C :   -0.158788
   6 N :   -0.434725
   7 C :   -0.126583
   8 C :   -0.682731
   9 H :    0.269494
  10 H :    0.224431
  11 H :    0.255664
  12 C :   -0.634383
  13 H :    0.280579
  14 H :    0.260325
  15 H :    0.231984
  16 H :    0.231813
  17 C :    0.070179
  18 C :   -0.144810
  19 H :    0.285751
  20 C :   -0.510132
  21 C :   -0.118415
  22 S :    0.331484
  23 C :   -0.427917
  24 H :    0.480290
  25 H :    0.265376
  26 H :    0.297391
  27 H :    0.287458
  28 H :    0.285551
  29 H :    0.301536
  30 O :   -0.483104
  31 O :   -0.520030
  32 C :    0.629187
  33 C :   -0.744659
  34 H :    0.271866
  35 H :    0.273313
  36 H :    0.258736
  37 H :    0.286517
  38 H :    0.294339
Sum of atomic charges:    1.0000000

LOEWDIN ATOMIC CHARGES
----------------------
   0 Ir:   -0.246882
   1 C :   -0.052277
   2 C :   -0.086325
   3 C :   -0.083068
   4 C :   -0.043027
   5 C :   -0.015377
   6 N :   -0.007025
   7 C :   -0.069369
   8 C :   -0.362423
   9 H :    0.156276
  10 H :    0.132795
  11 H :    0.144302
  12 C :   -0.343863
  13 H :    0.155306
  14 H :    0.151343
  15 H :    0.137634
  16 H :    0.132558
  17 C :    0.031113
  18 C :   -0.189210
  19 H :    0.160281
  20 C :   -0.214754
  21 C :   -0.130404
  22 S :    0.488058
  23 C :   -0.259642
  24 H :    0.336984
  25 H :    0.161633
  26 H :    0.168628
  27 H :    0.183195
  28 H :    0.181797
  29 H :    0.190518
  30 O :   -0.267126
  31 O :   -0.190277
  32 C :    0.162808
  33 C :   -0.372795
  34 H :    0.163671
  35 H :    0.171022
  36 H :    0.154431
  37 H :    0.183824
  38 H :    0.185669

  Mayer bond orders larger than 0.100000
B(  0-Ir,  1-C ) :   0.4283 B(  0-Ir,  2-C ) :   0.4656 B(  0-Ir,  3-C ) :   0.4638
B(  0-Ir,  4-C ) :   0.4381 B(  0-Ir,  5-C ) :   0.3935 B(  0-Ir,  6-N ) :   0.4651
B(  0-Ir, 20-C ) :   0.3869 B(  0-Ir, 31-O ) :   0.5400 B(  1-C ,  2-C ) :   1.1248
B(  1-C ,  4-C ) :   1.2355 B(  1-C , 27-H ) :   0.9064 B(  2-C ,  5-C ) :   1.1720
B(  2-C , 28-H ) :   0.9097 B(  3-C ,  4-C ) :   1.1229 B(  3-C ,  5-C ) :   1.2012
B(  3-C , 37-H ) :   0.9103 B(  4-C , 38-H ) :   0.8999 B(  5-C , 29-H ) :   0.8996
B(  6-N ,  7-C ) :   0.8941 B(  6-N , 17-C ) :   1.6576 B(  7-C ,  8-C ) :   0.9907
B(  7-C , 12-C ) :   0.9669 B(  7-C , 13-H ) :   0.8762 B(  8-C ,  9-H ) :   0.9046
B(  8-C , 10-H ) :   0.9131 B(  8-C , 11-H ) :   0.9113 B( 12-C , 14-H ) :   0.9075
B( 12-C , 15-H ) :   0.9154 B( 12-C , 16-H ) :   0.9125 B( 17-C , 18-C ) :   1.0994
B( 17-C , 19-H ) :   0.8760 B( 18-C , 20-C ) :   1.2569 B( 18-C , 22-S ) :   1.2353
B( 20-C , 21-C ) :   1.2789 B( 20-C , 24-H ) :   0.3835 B( 21-C , 23-C ) :   1.5429
B( 21-C , 25-H ) :   0.9038 B( 22-S , 23-C ) :   1.2160 B( 23-C , 26-H ) :   0.8914
B( 24-H , 30-O ) :   0.3094 B( 30-O , 32-C ) :   1.6016 B( 31-O , 32-C ) :   1.3468
B( 32-C , 33-C ) :   0.9460 B( 33-C , 34-H ) :   0.9013 B( 33-C , 35-H ) :   0.8947
B( 33-C , 36-H ) :   0.9087

Dispersion correction           -0.030610428
FINAL SINGLE POINT ENERGY     -1288.401446103404

DIPOLE MOMENT
-------------
                                X             Y             Z
Electronic contribution:     37.10526     -71.75225      74.56707
Nuclear contribution   :    -37.74203      71.01883     -74.80903
                        -----------------------------------------
Total Dipole Moment    :     -0.63677      -0.73342      -0.24196
                        -----------------------------------------
Magnitude (a.u.)       :      1.00096
Magnitude (Debye)      :      2.54424

Rotational constants in cm-1:     0.010527     0.008845     0.008173
Rotational constants in MHz :   315.579395   265.177668   245.023174

                             ****ORCA TERMINATED NORMALLY****
TOTAL RUN TIME: 0 days 2 hours 44 minutes 45 seconds 92 msec
