                         Program Version 5.0.3 -  RELEASE  -
|  1> ! Opt PBEh-3c
|  2> %geom Constraints
|  3> { B 0 20 2.342857142857143 C }
|  4> { B 24 30 1.3857142857142857 C }
|  5>     end
|  6> end
|  7> %output
|  8> xyzfile=True
|  9> end
| 10> %scf
| 11> maxiter 250
| 12> end
| 13> %output
| 14> Print[P_Hirshfeld] = 1
| 15> end
| 16> % maxcore
| 17> 4000
| 18> *xyz 1 1
| 19> Ir   0.60158650  -0.72270382   0.46660742
| 20> C    0.06590313  -2.81456738   0.35972127
| 21> C    0.05560585  -2.35471917   1.72480295
| 22> C    2.19841859  -2.11962071   0.90301654
| 23> C    1.36639244  -2.65009539  -0.15264285
| 24> C    1.39618363  -1.97238875   2.05155315
| 25> N   -1.04298220   0.14356730  -0.51345606
| 26> C   -2.31704142   0.43055183   0.16585122
| 27> C   -3.10255126   1.56712458  -0.47015257
| 28> H   -3.93067809   1.83374055   0.18511846
| 29> H   -3.54276373   1.29384747  -1.43018365
| 30> H   -2.49201784   2.46046252  -0.60356046
| 31> C   -3.14540091  -0.84592399   0.25462804
| 32> H   -2.03286880   0.73192205   1.17514131
| 33> H   -4.05796137  -0.65329678   0.81689147
| 34> H   -3.43288255  -1.20077409  -0.73595125
| 35> H   -2.61073668  -1.64504221   0.76592619
| 36> C   -0.86732898   0.37621452  -1.75888354
| 37> C    0.47066496   0.18569685  -2.25997776
| 38> H   -1.66884247   0.73569598  -2.39765318
| 39> C    1.56632463   0.36845336  -1.42291341
| 40> C    2.76921541   0.01330012  -2.09806889
| 41> S    0.90015787  -0.36630942  -3.81235534
| 42> C    2.56029621  -0.39302975  -3.37992450
| 43> H    1.53923335   1.29584307  -0.62770978
| 44> H    3.75430101   0.11031300  -1.66536939
| 45> H    3.29805453  -0.68622213  -4.11146384
| 46> H   -0.78467524  -3.19400424  -0.18807091
| 47> H   -0.77862962  -2.38832987   2.40967686
| 48> H    1.71738373  -1.56193964   2.99829421
| 49> O    1.41983554   2.41281036   0.20783091
| 50> O    0.53973214   0.94866004   1.63885657
| 51> C    0.96584413   2.11736657   1.31715390
| 52> C    0.91351419   3.14133145   2.41446810
| 53> H    0.87647344   4.14661640   2.00362202
| 54> H    1.82127713   3.06135268   3.01576737
| 55> H    0.06800046   2.97622175   3.07842602
| 56> H    3.25220920  -1.89639613   0.83140502
| 57> H    1.69012302  -2.88653895  -1.15568158
| 58> *
| 59>
| 60>                          ****END OF INPUT****
 Total Charge           Charge          ....    1
 Multiplicity           Mult            ....    1
 Number of Electrons    NEL             ....  164
Dispersion correction           -0.030872860
FINAL SINGLE POINT ENERGY     -1288.399287927166
Dispersion correction            ... done
Dispersion correction           -0.030960779
FINAL SINGLE POINT ENERGY     -1288.395885247117
Dispersion correction            ... done
Dispersion correction           -0.030857714
FINAL SINGLE POINT ENERGY     -1288.399428077539
Dispersion correction            ... done
FINAL SINGLE POINT ENERGY     -1288.397561272947
FINAL SINGLE POINT ENERGY     -1288.399509861448
FINAL SINGLE POINT ENERGY     -1288.399543025750
FINAL SINGLE POINT ENERGY     -1288.399571681687
Dispersion correction            ... done
Dispersion correction           -0.030733327
FINAL SINGLE POINT ENERGY     -1288.399598113102
Dispersion correction            ... done
Dispersion correction           -0.030714690
FINAL SINGLE POINT ENERGY     -1288.399596985447
Dispersion correction            ... done
                    ***********************HURRAY********************

CARTESIAN COORDINATES (ANGSTROEM)
---------------------------------
  Ir     0.603115   -0.725262    0.465822
  C      0.059544   -2.817325    0.378404
  C      0.038823   -2.350955    1.739958
  C      2.189788   -2.125078    0.932700
  C      1.365536   -2.661595   -0.125213
  C      1.375800   -1.965693    2.072551
  N     -1.043188    0.136787   -0.517424
  C     -2.318701    0.411084    0.164727
  C     -3.109959    1.552166   -0.456514
  H     -3.939079    1.805855    0.202604
  H     -3.549424    1.289280   -1.419759
  H     -2.504396    2.450511   -0.578574
  C     -3.144102   -0.868375    0.238284
  H     -2.036337    0.701867    1.177684
  H     -4.058375   -0.683903    0.800596
  H     -3.428682   -1.213183   -0.756657
  H     -2.609035   -1.671807    0.742012
  C     -0.870056    0.389113   -1.760388
  C      0.464423    0.208635   -2.268346
  H     -1.674119    0.757681   -2.390455
  C      1.551869    0.313679   -1.407530
  C      2.757223   -0.012227   -2.093028
  S      0.902545   -0.241541   -3.849578
  C      2.556565   -0.323489   -3.403064
  H      1.549607    1.263008   -0.607526
  H      3.738877    0.038477   -1.644909
  H      3.298223   -0.575829   -4.145746
  H     -0.787016   -3.198455   -0.174415
  H     -0.801075   -2.377506    2.417979
  H      1.690061   -1.547967    3.018476
  O      1.476427    2.388322    0.197780
  O      0.539149    0.959984    1.627395
  C      0.992919    2.114069    1.303287
  C      0.939261    3.156557    2.382191
  H      0.924130    4.155791    1.955541
  H      1.836013    3.071900    2.999089
  H      0.080653    3.013897    3.034317
  H      3.245691   -1.909337    0.871287
  H      1.696671   -2.909944   -1.122818

 Multiplicity           Mult            ....    1
 Number of Electrons    NEL             ....  164
 Basis Dimension        Dim             ....  358

ORBITAL ENERGIES
----------------

  NO   OCC          E(Eh)            E(eV)
   0   2.0000     -89.762126     -2442.5516
   1   2.0000     -19.627883      -534.1019
   2   2.0000     -19.601558      -533.3855
   3   2.0000     -14.837503      -403.7490
   4   2.0000     -10.687410      -290.8192
   5   2.0000     -10.658644      -290.0364
   6   2.0000     -10.632669      -289.3296
   7   2.0000     -10.631376      -289.2945
   8   2.0000     -10.627951      -289.2012
   9   2.0000     -10.627547      -289.1903
  10   2.0000     -10.626176      -289.1529
  11   2.0000     -10.624742      -289.1139
  12   2.0000     -10.614419      -288.8330
  13   2.0000     -10.609086      -288.6879
  14   2.0000     -10.585105      -288.0354
  15   2.0000     -10.583635      -287.9954
  16   2.0000     -10.555607      -287.2327
  17   2.0000     -10.551153      -287.1115
  18   2.0000     -10.537500      -286.7400
  19   2.0000      -8.401548      -228.6177
  20   2.0000      -6.291494      -171.2003
  21   2.0000      -6.287902      -171.1025
  22   2.0000      -6.286440      -171.0627
  23   2.0000      -4.026146      -109.5570
  24   2.0000      -2.344666       -63.8016
  25   2.0000      -2.311173       -62.8902
  26   2.0000      -2.309340       -62.8403
  27   2.0000      -1.313803       -35.7504
  28   2.0000      -1.216332       -33.0981
  29   2.0000      -1.209227       -32.9047
  30   2.0000      -1.168894       -31.8072
  31   2.0000      -1.125875       -30.6366
  32   2.0000      -1.025064       -27.8934
  33   2.0000      -0.982858       -26.7449
  34   2.0000      -0.974155       -26.5081
  35   2.0000      -0.965662       -26.2770
  36   2.0000      -0.958679       -26.0870
  37   2.0000      -0.932193       -25.3662
  38   2.0000      -0.901770       -24.5384
  39   2.0000      -0.872504       -23.7421
  40   2.0000      -0.797690       -21.7062
  41   2.0000      -0.784746       -21.3540
  42   2.0000      -0.783879       -21.3304
  43   2.0000      -0.780415       -21.2362
  44   2.0000      -0.768903       -20.9229
  45   2.0000      -0.758015       -20.6266
  46   2.0000      -0.742587       -20.2068
  47   2.0000      -0.722609       -19.6632
  48   2.0000      -0.691801       -18.8249
  49   2.0000      -0.678316       -18.4579
  50   2.0000      -0.663883       -18.0652
  51   2.0000      -0.652078       -17.7440
  52   2.0000      -0.647837       -17.6286
  53   2.0000      -0.637401       -17.3446
  54   2.0000      -0.636844       -17.3294
  55   2.0000      -0.632194       -17.2029
  56   2.0000      -0.622504       -16.9392
  57   2.0000      -0.610522       -16.6132
  58   2.0000      -0.604644       -16.4532
  59   2.0000      -0.603961       -16.4346
  60   2.0000      -0.597652       -16.2629
  61   2.0000      -0.589590       -16.0436
  62   2.0000      -0.577924       -15.7261
  63   2.0000      -0.568900       -15.4805
  64   2.0000      -0.562808       -15.3148
  65   2.0000      -0.559615       -15.2279
  66   2.0000      -0.552091       -15.0231
  67   2.0000      -0.548281       -14.9195
  68   2.0000      -0.540239       -14.7006
  69   2.0000      -0.535540       -14.5728
  70   2.0000      -0.528031       -14.3685
  71   2.0000      -0.519112       -14.1258
  72   2.0000      -0.514610       -14.0033
  73   2.0000      -0.503149       -13.6914
  74   2.0000      -0.491450       -13.3730
  75   2.0000      -0.480493       -13.0749
  76   2.0000      -0.470909       -12.8141
  77   2.0000      -0.447155       -12.1677
  78   2.0000      -0.444528       -12.0962
  79   2.0000      -0.420926       -11.4540
  80   2.0000      -0.417466       -11.3598
  81   2.0000      -0.400461       -10.8971
  82   0.0000      -0.202270        -5.5041
  83   0.0000      -0.153917        -4.1883
  84   0.0000      -0.141315        -3.8454
  85   0.0000      -0.091669        -2.4944
  86   0.0000      -0.074134        -2.0173

MULLIKEN ATOMIC CHARGES
-----------------------
   0 Ir:    0.609693
   1 C :   -0.216081
   2 C :   -0.282264
   3 C :   -0.244252
   4 C :   -0.242048
   5 C :   -0.164054
   6 N :   -0.432054
   7 C :   -0.124234
   8 C :   -0.687699
   9 H :    0.270637
  10 H :    0.225034
  11 H :    0.258505
  12 C :   -0.635883
  13 H :    0.281451
  14 H :    0.262345
  15 H :    0.231346
  16 H :    0.231558
  17 C :    0.070619
  18 C :   -0.161375
  19 H :    0.288215
  20 C :   -0.486121
  21 C :   -0.125619
  22 S :    0.320303
  23 C :   -0.429968
  24 H :    0.492354
  25 H :    0.264689
  26 H :    0.297236
  27 H :    0.289494
  28 H :    0.289124
  29 H :    0.303807
  30 O :   -0.483469
  31 O :   -0.529727
  32 C :    0.623579
  33 C :   -0.744712
  34 H :    0.271000
  35 H :    0.268959
  36 H :    0.256003
  37 H :    0.289557
  38 H :    0.294056
Sum of atomic charges:    1.0000000

LOEWDIN ATOMIC CHARGES
----------------------
   0 Ir:   -0.236265
   1 C :   -0.043176
   2 C :   -0.076853
   3 C :   -0.065432
   4 C :   -0.053100
   5 C :   -0.020029
   6 N :   -0.006880
   7 C :   -0.069416
   8 C :   -0.363526
   9 H :    0.156710
  10 H :    0.133200
  11 H :    0.145727
  12 C :   -0.343679
  13 H :    0.156008
  14 H :    0.152202
  15 H :    0.137374
  16 H :    0.133053
  17 C :    0.033067
  18 C :   -0.185787
  19 H :    0.161349
  20 C :   -0.208197
  21 C :   -0.132677
  22 S :    0.480684
  23 C :   -0.261387
  24 H :    0.316910
  25 H :    0.161624
  26 H :    0.168223
  27 H :    0.184028
  28 H :    0.183924
  29 H :    0.191962
  30 O :   -0.271856
  31 O :   -0.198537
  32 C :    0.159244
  33 C :   -0.374093
  34 H :    0.160990
  35 H :    0.168809
  36 H :    0.154689
  37 H :    0.185202
  38 H :    0.185913

  Mayer bond orders larger than 0.100000
B(  0-Ir,  1-C ) :   0.4204 B(  0-Ir,  2-C ) :   0.4993 B(  0-Ir,  3-C ) :   0.4594
B(  0-Ir,  4-C ) :   0.4485 B(  0-Ir,  5-C ) :   0.4005 B(  0-Ir,  6-N ) :   0.4654
B(  0-Ir, 20-C ) :   0.3234 B(  0-Ir, 31-O ) :   0.5580 B(  1-C ,  2-C ) :   1.1245
B(  1-C ,  4-C ) :   1.2402 B(  1-C , 27-H ) :   0.9043 B(  2-C ,  5-C ) :   1.1477
B(  2-C , 28-H ) :   0.9089 B(  3-C ,  4-C ) :   1.1121 B(  3-C ,  5-C ) :   1.2228
B(  3-C , 37-H ) :   0.9076 B(  4-C , 38-H ) :   0.9009 B(  5-C , 29-H ) :   0.8987
B(  6-N ,  7-C ) :   0.8928 B(  6-N , 17-C ) :   1.6709 B(  7-C ,  8-C ) :   0.9913
B(  7-C , 12-C ) :   0.9679 B(  7-C , 13-H ) :   0.8740 B(  8-C ,  9-H ) :   0.9041
B(  8-C , 10-H ) :   0.9129 B(  8-C , 11-H ) :   0.9097 B( 12-C , 14-H ) :   0.9070
B( 12-C , 15-H ) :   0.9156 B( 12-C , 16-H ) :   0.9122 B( 17-C , 18-C ) :   1.0814
B( 17-C , 19-H ) :   0.8753 B( 18-C , 20-C ) :   1.2720 B( 18-C , 22-S ) :   1.2347
B( 20-C , 21-C ) :   1.2746 B( 20-C , 24-H ) :   0.4193 B( 21-C , 23-C ) :   1.5461
B( 21-C , 25-H ) :   0.9047 B( 22-S , 23-C ) :   1.2094 B( 23-C , 26-H ) :   0.8918
B( 24-H , 30-O ) :   0.2795 B( 30-O , 32-C ) :   1.6416 B( 31-O , 32-C ) :   1.3136
B( 32-C , 33-C ) :   0.9468 B( 33-C , 34-H ) :   0.9037 B( 33-C , 35-H ) :   0.8969
B( 33-C , 36-H ) :   0.9086

Dispersion correction           -0.030716617
FINAL SINGLE POINT ENERGY     -1288.399598810724

DIPOLE MOMENT
-------------
                                X             Y             Z
Electronic contribution:     36.57494     -69.92132      74.90207
Nuclear contribution   :    -37.19563      68.94673     -75.16281
                        -----------------------------------------
Total Dipole Moment    :     -0.62069      -0.97459      -0.26074
                        -----------------------------------------
Magnitude (a.u.)       :      1.18451
Magnitude (Debye)      :      3.01079

Rotational constants in cm-1:     0.010572     0.008975     0.008175
Rotational constants in MHz :   316.940126   269.060630   245.084317

                             ****ORCA TERMINATED NORMALLY****
TOTAL RUN TIME: 0 days 1 hours 19 minutes 56 seconds 523 msec
