                         Program Version 5.0.3 -  RELEASE  -
|  1> ! Opt PBEh-3c
|  2> %geom Constraints
|  3> { B 0 20 2.257142857142857 C }
|  4> { B 24 30 1.4714285714285715 C }
|  5>     end
|  6> end
|  7> %output
|  8> xyzfile=True
|  9> end
| 10> %scf
| 11> maxiter 250
| 12> end
| 13> %output
| 14> Print[P_Hirshfeld] = 1
| 15> end
| 16> % maxcore
| 17> 4000
| 18> *xyz 1 1
| 19> Ir   0.61657376  -0.70768498   0.42439819
| 20> C    0.07188269  -2.80330483   0.34790536
| 21> C    0.10584931  -2.34284430   1.71100379
| 22> C    2.22001947  -2.10924037   0.81773925
| 23> C    1.35523854  -2.64413177  -0.20882973
| 24> C    1.45479403  -1.95576173   1.99106580
| 25> N   -1.04627628   0.15968291  -0.52919749
| 26> C   -2.31057684   0.46149719   0.15920310
| 27> C   -3.10927808   1.57628462  -0.49753465
| 28> H   -3.93213468   1.85441241   0.15958586
| 29> H   -3.55798898   1.27627362  -1.44574769
| 30> H   -2.50621760   2.47016952  -0.65905488
| 31> C   -3.13144828  -0.81551774   0.29634644
| 32> H   -2.01124419   0.79118927   1.15515195
| 33> H   -4.03784143  -0.60825727   0.86324001
| 34> H   -3.42920336  -1.20197708  -0.67921202
| 35> H   -2.58746207  -1.59544140   0.82703476
| 36> C   -0.87186402   0.38740951  -1.77458213
| 37> C    0.46978795   0.17080083  -2.25815891
| 38> H   -1.66358870   0.75779271  -2.41873253
| 39> C    1.55020401   0.34695481  -1.39386182
| 40> C    2.76489507  -0.02954531  -2.04214910
| 41> S    0.92318615  -0.42423216  -3.78199149
| 42> C    2.57711102  -0.46090748  -3.31706541
| 43> H    1.52215970   1.28009028  -0.66143900
| 44> H    3.74155621   0.06972087  -1.59122759
| 45> H    3.32417796  -0.77672778  -4.02941867
| 46> H   -0.79705670  -3.18146367  -0.17129567
| 47> H   -0.70660754  -2.37073409   2.42162305
| 48> H    1.80707722  -1.54132184   2.92482921
| 49> O    1.35094009   2.46496962   0.21838583
| 50> O    0.53491786   0.94106168   1.62542263
| 51> C    0.92557793   2.13138999   1.32352889
| 52> C    0.86236896   3.12016032   2.45415051
| 53> H    0.83660236   4.13816185   2.07529222
| 54> H    1.75845239   3.01440676   3.06875310
| 55> H    0.00530762   2.93986782   3.09962043
| 56> H    3.27204776  -1.89030062   0.71414164
| 57> H    1.64743071  -2.89371219  -1.21818316
| 58> *
| 59>
| 60>                          ****END OF INPUT****
 Total Charge           Charge          ....    1
 Multiplicity           Mult            ....    1
 Number of Electrons    NEL             ....  164
Dispersion correction           -0.031089180
FINAL SINGLE POINT ENERGY     -1288.400216765518
Dispersion correction            ... done
Dispersion correction           -0.031010447
FINAL SINGLE POINT ENERGY     -1288.400165539662
Dispersion correction            ... done
Dispersion correction           -0.031014729
FINAL SINGLE POINT ENERGY     -1288.399959942763
Dispersion correction            ... done
FINAL SINGLE POINT ENERGY     -1288.400465058214
FINAL SINGLE POINT ENERGY     -1288.400490624954
FINAL SINGLE POINT ENERGY     -1288.400514486848
FINAL SINGLE POINT ENERGY     -1288.400539201330
FINAL SINGLE POINT ENERGY     -1288.400545788099
FINAL SINGLE POINT ENERGY     -1288.400553778843
FINAL SINGLE POINT ENERGY     -1288.400562592942
FINAL SINGLE POINT ENERGY     -1288.400573180279
FINAL SINGLE POINT ENERGY     -1288.400576123864
FINAL SINGLE POINT ENERGY     -1288.400582197091
FINAL SINGLE POINT ENERGY     -1288.400585519001
Dispersion correction            ... done
Dispersion correction           -0.030914948
FINAL SINGLE POINT ENERGY     -1288.400587384000
Dispersion correction            ... done
Dispersion correction           -0.030914520
FINAL SINGLE POINT ENERGY     -1288.400586839340
Dispersion correction            ... done
                    ***********************HURRAY********************

CARTESIAN COORDINATES (ANGSTROEM)
---------------------------------
  Ir     0.623612   -0.711885    0.428045
  C      0.105758   -2.817009    0.331341
  C      0.059989   -2.358660    1.694849
  C      2.218189   -2.094248    0.917618
  C      1.417334   -2.644002   -0.150927
  C      1.382761   -1.950971    2.046253
  N     -1.045684    0.146890   -0.520877
  C     -2.308579    0.428915    0.179005
  C     -3.091651    1.586125   -0.422011
  H     -3.912691    1.841518    0.246479
  H     -3.541015    1.339185   -1.384875
  H     -2.475889    2.478257   -0.538176
  C     -3.144610   -0.844171    0.245867
  H     -2.010214    0.703552    1.191594
  H     -4.043952   -0.662708    0.832588
  H     -3.454554   -1.166576   -0.748976
  H     -2.604349   -1.662058    0.720346
  C     -0.885810    0.390431   -1.766515
  C      0.447933    0.184145   -2.269053
  H     -1.687512    0.766184   -2.394940
  C      1.525945    0.279349   -1.387979
  C      2.737735   -0.068240   -2.058605
  S      0.898470   -0.304327   -3.829753
  C      2.548706   -0.400772   -3.363113
  H      1.527827    1.234041   -0.656955
  H      3.714370   -0.018138   -1.599586
  H      3.294416   -0.675097   -4.093791
  H     -0.727059   -3.210251   -0.233722
  H     -0.789332   -2.397886    2.360298
  H      1.676134   -1.529365    2.997194
  O      1.407631    2.437993    0.180394
  O      0.546725    0.958725    1.606315
  C      0.959075    2.134196    1.287558
  C      0.893807    3.152605    2.390804
  H      0.854672    4.159787    1.984901
  H      1.797209    3.073439    2.998598
  H      0.044193    2.980316    3.047800
  H      3.273487   -1.871505    0.876192
  H      1.766293   -2.888594   -1.143445

 Multiplicity           Mult            ....    1
 Number of Electrons    NEL             ....  164
 Basis Dimension        Dim             ....  358

ORBITAL ENERGIES
----------------

  NO   OCC          E(Eh)            E(eV)
   0   2.0000     -89.768423     -2442.7230
   1   2.0000     -19.622869      -533.9654
   2   2.0000     -19.593357      -533.1623
   3   2.0000     -14.840199      -403.8224
   4   2.0000     -10.680744      -290.6378
   5   2.0000     -10.660891      -290.0976
   6   2.0000     -10.635230      -289.3993
   7   2.0000     -10.631479      -289.2973
   8   2.0000     -10.630762      -289.2777
   9   2.0000     -10.627110      -289.1784
  10   2.0000     -10.624832      -289.1164
  11   2.0000     -10.622806      -289.0612
  12   2.0000     -10.614829      -288.8442
  13   2.0000     -10.612985      -288.7940
  14   2.0000     -10.590492      -288.1819
  15   2.0000     -10.587904      -288.1115
  16   2.0000     -10.556070      -287.2453
  17   2.0000     -10.551401      -287.1182
  18   2.0000     -10.533839      -286.6403
  19   2.0000      -8.407809      -228.7881
  20   2.0000      -6.297730      -171.3699
  21   2.0000      -6.294104      -171.2713
  22   2.0000      -6.292762      -171.2348
  23   2.0000      -4.025403      -109.5368
  24   2.0000      -2.343674       -63.7746
  25   2.0000      -2.310499       -62.8719
  26   2.0000      -2.309043       -62.8323
  27   2.0000      -1.306252       -35.5449
  28   2.0000      -1.213125       -33.0108
  29   2.0000      -1.208300       -32.8795
  30   2.0000      -1.167745       -31.7760
  31   2.0000      -1.131315       -30.7846
  32   2.0000      -1.027514       -27.9601
  33   2.0000      -0.981445       -26.7065
  34   2.0000      -0.973595       -26.4929
  35   2.0000      -0.970982       -26.4218
  36   2.0000      -0.962617       -26.1941
  37   2.0000      -0.927305       -25.2333
  38   2.0000      -0.902226       -24.5508
  39   2.0000      -0.875674       -23.8283
  40   2.0000      -0.800603       -21.7855
  41   2.0000      -0.784904       -21.3583
  42   2.0000      -0.783711       -21.3258
  43   2.0000      -0.782271       -21.2867
  44   2.0000      -0.768157       -20.9026
  45   2.0000      -0.754896       -20.5418
  46   2.0000      -0.743481       -20.2311
  47   2.0000      -0.724056       -19.7026
  48   2.0000      -0.691878       -18.8270
  49   2.0000      -0.675554       -18.3828
  50   2.0000      -0.665218       -18.1015
  51   2.0000      -0.649622       -17.6771
  52   2.0000      -0.646442       -17.5906
  53   2.0000      -0.636835       -17.3292
  54   2.0000      -0.634342       -17.2613
  55   2.0000      -0.628805       -17.1106
  56   2.0000      -0.622790       -16.9470
  57   2.0000      -0.613705       -16.6998
  58   2.0000      -0.603652       -16.4262
  59   2.0000      -0.603196       -16.4138
  60   2.0000      -0.600879       -16.3508
  61   2.0000      -0.592124       -16.1125
  62   2.0000      -0.581533       -15.8243
  63   2.0000      -0.573532       -15.6066
  64   2.0000      -0.564505       -15.3610
  65   2.0000      -0.556775       -15.1506
  66   2.0000      -0.551556       -15.0086
  67   2.0000      -0.548292       -14.9198
  68   2.0000      -0.540567       -14.7096
  69   2.0000      -0.536644       -14.6028
  70   2.0000      -0.528042       -14.3687
  71   2.0000      -0.519267       -14.1300
  72   2.0000      -0.515181       -14.0188
  73   2.0000      -0.500846       -13.6287
  74   2.0000      -0.487490       -13.2653
  75   2.0000      -0.481484       -13.1019
  76   2.0000      -0.475077       -12.9275
  77   2.0000      -0.445046       -12.1103
  78   2.0000      -0.443079       -12.0568
  79   2.0000      -0.424076       -11.5397
  80   2.0000      -0.416653       -11.3377
  81   2.0000      -0.399803       -10.8792
  82   0.0000      -0.207178        -5.6376
  83   0.0000      -0.150417        -4.0931
  84   0.0000      -0.141725        -3.8565
  85   0.0000      -0.095247        -2.5918
  86   0.0000      -0.077126        -2.0987

MULLIKEN ATOMIC CHARGES
-----------------------
   0 Ir:    0.606517
   1 C :   -0.218746
   2 C :   -0.275619
   3 C :   -0.250745
   4 C :   -0.239927
   5 C :   -0.160553
   6 N :   -0.424930
   7 C :   -0.127397
   8 C :   -0.685777
   9 H :    0.270717
  10 H :    0.223883
  11 H :    0.260181
  12 C :   -0.635170
  13 H :    0.283664
  14 H :    0.262636
  15 H :    0.231023
  16 H :    0.232486
  17 C :    0.072505
  18 C :   -0.149424
  19 H :    0.289949
  20 C :   -0.521056
  21 C :   -0.107539
  22 S :    0.327168
  23 C :   -0.433761
  24 H :    0.487966
  25 H :    0.268495
  26 H :    0.299344
  27 H :    0.288156
  28 H :    0.288118
  29 H :    0.304261
  30 O :   -0.472884
  31 O :   -0.534371
  32 C :    0.615789
  33 C :   -0.744128
  34 H :    0.269049
  35 H :    0.266873
  36 H :    0.253077
  37 H :    0.287601
  38 H :    0.292567
Sum of atomic charges:    1.0000000

LOEWDIN ATOMIC CHARGES
----------------------
   0 Ir:   -0.244249
   1 C :   -0.045967
   2 C :   -0.078878
   3 C :   -0.071731
   4 C :   -0.052987
   5 C :   -0.017368
   6 N :    0.000815
   7 C :   -0.070154
   8 C :   -0.363065
   9 H :    0.156956
  10 H :    0.132807
  11 H :    0.146574
  12 C :   -0.343368
  13 H :    0.157117
  14 H :    0.152465
  15 H :    0.137172
  16 H :    0.133554
  17 C :    0.031897
  18 C :   -0.172433
  19 H :    0.162534
  20 C :   -0.206446
  21 C :   -0.123177
  22 S :    0.491697
  23 C :   -0.262907
  24 H :    0.308079
  25 H :    0.163871
  26 H :    0.169317
  27 H :    0.183396
  28 H :    0.183311
  29 H :    0.192135
  30 O :   -0.271497
  31 O :   -0.204408
  32 C :    0.151294
  33 C :   -0.375440
  34 H :    0.159659
  35 H :    0.167366
  36 H :    0.153114
  37 H :    0.184264
  38 H :    0.184682

  Mayer bond orders larger than 0.100000
B(  0-Ir,  1-C ) :   0.4176 B(  0-Ir,  2-C ) :   0.4792 B(  0-Ir,  3-C ) :   0.4635
B(  0-Ir,  4-C ) :   0.4409 B(  0-Ir,  5-C ) :   0.3955 B(  0-Ir,  6-N ) :   0.4609
B(  0-Ir, 20-C ) :   0.3482 B(  0-Ir, 31-O ) :   0.5683 B(  1-C ,  2-C ) :   1.1262
B(  1-C ,  4-C ) :   1.2440 B(  1-C , 27-H ) :   0.9053 B(  2-C ,  5-C ) :   1.1576
B(  2-C , 28-H ) :   0.9091 B(  3-C ,  4-C ) :   1.1124 B(  3-C ,  5-C ) :   1.2162
B(  3-C , 37-H ) :   0.9089 B(  4-C , 38-H ) :   0.9002 B(  5-C , 29-H ) :   0.8986
B(  6-N ,  7-C ) :   0.8923 B(  6-N , 17-C ) :   1.6754 B(  7-C ,  8-C ) :   0.9908
B(  7-C , 12-C ) :   0.9674 B(  7-C , 13-H ) :   0.8726 B(  8-C ,  9-H ) :   0.9041
B(  8-C , 10-H ) :   0.9132 B(  8-C , 11-H ) :   0.9090 B( 12-C , 14-H ) :   0.9069
B( 12-C , 15-H ) :   0.9156 B( 12-C , 16-H ) :   0.9121 B( 17-C , 18-C ) :   1.0762
B( 17-C , 19-H ) :   0.8754 B( 18-C , 20-C ) :   1.2524 B( 18-C , 22-S ) :   1.2557
B( 20-C , 21-C ) :   1.2544 B( 20-C , 24-H ) :   0.4531 B( 21-C , 23-C ) :   1.5554
B( 21-C , 25-H ) :   0.9031 B( 22-S , 23-C ) :   1.2014 B( 23-C , 26-H ) :   0.8912
B( 24-H , 30-O ) :   0.2618 B( 30-O , 32-C ) :   1.6810 B( 31-O , 32-C ) :   1.2909
B( 32-C , 33-C ) :   0.9446 B( 33-C , 34-H ) :   0.9049 B( 33-C , 35-H ) :   0.8985
B( 33-C , 36-H ) :   0.9096

Dispersion correction           -0.030915325
FINAL SINGLE POINT ENERGY     -1288.400585364779

DIPOLE MOMENT
-------------
                                X             Y             Z
Electronic contribution:     38.74934     -68.33761      71.10645
Nuclear contribution   :    -39.37906      67.26168     -71.54010
                        -----------------------------------------
Total Dipole Moment    :     -0.62971      -1.07594      -0.43365
                        -----------------------------------------
Magnitude (a.u.)       :      1.31994
Magnitude (Debye)      :      3.35501

Rotational constants in cm-1:     0.010625     0.009141     0.008226
Rotational constants in MHz :   318.514887   274.053627   246.612090

                             ****ORCA TERMINATED NORMALLY****
TOTAL RUN TIME: 0 days 2 hours 1 minutes 55 seconds 774 msec
