                         Program Version 5.0.3 -  RELEASE  -
|  1> ! Opt PBEh-3c
|  2> %geom Constraints
|  3> { B 0 20 2.342857142857143 C }
|  4> { B 24 30 1.4142857142857144 C }
|  5>     end
|  6> end
|  7> %output
|  8> xyzfile=True
|  9> end
| 10> %scf
| 11> maxiter 250
| 12> end
| 13> %output
| 14> Print[P_Hirshfeld] = 1
| 15> end
| 16> % maxcore
| 17> 4000
| 18> *xyz 1 1
| 19> Ir   0.60042306  -0.71733752   0.45314156
| 20> C    0.05038522  -2.80548467   0.36003888
| 21> C    0.09282397  -2.34812183   1.72528167
| 22> C    2.20381661  -2.12437473   0.82521352
| 23> C    1.33113014  -2.64711720  -0.20146387
| 24> C    1.44798995  -1.97462461   2.00342207
| 25> N   -1.04543047   0.15541364  -0.52182000
| 26> C   -2.31707640   0.45886006   0.15363595
| 27> C   -3.11693588   1.56125066  -0.52242554
| 28> H   -3.94460975   1.84441096   0.12646140
| 29> H   -3.55922956   1.24718813  -1.46912832
| 30> H   -2.51726155   2.45582564  -0.69266224
| 31> C   -3.13385462  -0.81935093   0.30182731
| 32> H   -2.02736157   0.80364774   1.14746970
| 33> H   -4.04743983  -0.60735409   0.85528739
| 34> H   -3.41931827  -1.22218251  -0.67081054
| 35> H   -2.59338162  -1.58878077   0.85111954
| 36> C   -0.86091427   0.37923194  -1.76666342
| 37> C    0.48274809   0.17512002  -2.25149619
| 38> H   -1.65334457   0.74007796  -2.41577559
| 39> C    1.57381601   0.39912218  -1.41706071
| 40> C    2.78252633   0.02273241  -2.07147201
| 41> S    0.92319113  -0.44446733  -3.77444945
| 42> C    2.58256380  -0.44226700  -3.33380370
| 43> H    1.52966850   1.31615987  -0.63968696
| 44> H    3.76439571   0.14606827  -1.63810303
| 45> H    3.32480271  -0.76351344  -4.04885058
| 46> H   -0.82318223  -3.17611412  -0.15681223
| 47> H   -0.71601635  -2.37751972   2.44016135
| 48> H    1.80753406  -1.56931488   2.93839779
| 49> O    1.37252640   2.43894152   0.22949890
| 50> O    0.53368496   0.93618609   1.64615857
| 51> C    0.93895208   2.11858563   1.33729830
| 52> C    0.88466107   3.11883634   2.45706795
| 53> H    0.85774438   4.13285681   2.06767098
| 54> H    1.78545800   3.01878949   3.06579778
| 55> H    0.03215414   2.94605839   3.11040197
| 56> H    3.25450576  -1.90257253   0.71318993
| 57> H    1.61722495  -2.88567590  -1.21531809
| 58> *
| 59>
| 60>                          ****END OF INPUT****
 Total Charge           Charge          ....    1
 Multiplicity           Mult            ....    1
 Number of Electrons    NEL             ....  164
Dispersion correction           -0.030971579
FINAL SINGLE POINT ENERGY     -1288.399465473503
Dispersion correction            ... done
Dispersion correction           -0.031041932
FINAL SINGLE POINT ENERGY     -1288.396958068134
Dispersion correction            ... done
Dispersion correction           -0.030949719
FINAL SINGLE POINT ENERGY     -1288.399596957438
Dispersion correction            ... done
FINAL SINGLE POINT ENERGY     -1288.397984718311
FINAL SINGLE POINT ENERGY     -1288.399670053789
FINAL SINGLE POINT ENERGY     -1288.399701473137
FINAL SINGLE POINT ENERGY     -1288.399727679225
FINAL SINGLE POINT ENERGY     -1288.399751025740
FINAL SINGLE POINT ENERGY     -1288.399757843752
FINAL SINGLE POINT ENERGY     -1288.399761383437
FINAL SINGLE POINT ENERGY     -1288.399762112164
FINAL SINGLE POINT ENERGY     -1288.399763953759
FINAL SINGLE POINT ENERGY     -1288.399766325248
FINAL SINGLE POINT ENERGY     -1288.399766917636
Dispersion correction            ... done
Dispersion correction           -0.030796043
FINAL SINGLE POINT ENERGY     -1288.399766623967
Dispersion correction            ... done
Dispersion correction           -0.030793267
FINAL SINGLE POINT ENERGY     -1288.399766556461
Dispersion correction            ... done
                    ***********************HURRAY********************

CARTESIAN COORDINATES (ANGSTROEM)
---------------------------------
  Ir     0.609062   -0.720458    0.456484
  C      0.080786   -2.816759    0.351438
  C      0.047491   -2.355917    1.715373
  C      2.202325   -2.111359    0.925506
  C      1.389253   -2.649774   -0.140292
  C      1.379160   -1.964134    2.060469
  N     -1.043346    0.142178   -0.514822
  C     -2.314491    0.422992    0.172094
  C     -3.098179    1.571776   -0.444236
  H     -3.924426    1.829994    0.216726
  H     -3.540644    1.314792   -1.407675
  H     -2.485374    2.465386   -0.564621
  C     -3.146352   -0.852457    0.242356
  H     -2.026984    0.707755    1.185166
  H     -4.054838   -0.667909    0.813877
  H     -3.440917   -1.187782   -0.752918
  H     -2.610576   -1.662769    0.734500
  C     -0.874373    0.382602   -1.759920
  C      0.460952    0.190492   -2.265319
  H     -1.677687    0.748458   -2.392588
  C      1.551921    0.331593   -1.412522
  C      2.756291   -0.016023   -2.090542
  S      0.894972   -0.321592   -3.827927
  C      2.551877   -0.381043   -3.385282
  H      1.538719    1.270060   -0.631990
  H      3.739252    0.057106   -1.648448
  H      3.291178   -0.660647   -4.120526
  H     -0.759021   -3.202276   -0.208573
  H     -0.797134   -2.390937    2.387208
  H      1.683146   -1.548326    3.010608
  O      1.431208    2.412352    0.194942
  O      0.543130    0.954694    1.626843
  C      0.971681    2.121516    1.303347
  C      0.915590    3.150152    2.396304
  H      0.879157    4.153737    1.981264
  H      1.821720    3.073118    3.000390
  H      0.068218    2.987205    3.058399
  H      3.257280   -1.888875    0.872689
  H      1.729345   -2.889729   -1.137043

 Multiplicity           Mult            ....    1
 Number of Electrons    NEL             ....  164
 Basis Dimension        Dim             ....  358

ORBITAL ENERGIES
----------------

  NO   OCC          E(Eh)            E(eV)
   0   2.0000     -89.763882     -2442.5994
   1   2.0000     -19.625602      -534.0398
   2   2.0000     -19.596530      -533.2487
   3   2.0000     -14.838785      -403.7839
   4   2.0000     -10.684205      -290.7320
   5   2.0000     -10.659912      -290.0710
   6   2.0000     -10.632874      -289.3352
   7   2.0000     -10.631954      -289.3102
   8   2.0000     -10.630692      -289.2758
   9   2.0000     -10.628395      -289.2133
  10   2.0000     -10.627281      -289.1830
  11   2.0000     -10.624972      -289.1202
  12   2.0000     -10.614799      -288.8434
  13   2.0000     -10.610263      -288.7199
  14   2.0000     -10.586382      -288.0701
  15   2.0000     -10.584447      -288.0174
  16   2.0000     -10.556079      -287.2455
  17   2.0000     -10.551295      -287.1153
  18   2.0000     -10.535534      -286.6865
  19   2.0000      -8.403287      -228.6651
  20   2.0000      -6.293245      -171.2479
  21   2.0000      -6.289631      -171.1496
  22   2.0000      -6.288176      -171.1100
  23   2.0000      -4.026615      -109.5698
  24   2.0000      -2.345192       -63.8159
  25   2.0000      -2.311593       -62.9016
  26   2.0000      -2.309979       -62.8577
  27   2.0000      -1.310059       -35.6485
  28   2.0000      -1.213257       -33.0144
  29   2.0000      -1.210317       -32.9344
  30   2.0000      -1.169449       -31.8223
  31   2.0000      -1.127505       -30.6810
  32   2.0000      -1.026013       -27.9192
  33   2.0000      -0.983465       -26.7614
  34   2.0000      -0.974735       -26.5239
  35   2.0000      -0.967070       -26.3153
  36   2.0000      -0.959947       -26.1215
  37   2.0000      -0.929779       -25.3006
  38   2.0000      -0.902088       -24.5471
  39   2.0000      -0.873692       -23.7744
  40   2.0000      -0.798555       -21.7298
  41   2.0000      -0.785286       -21.3687
  42   2.0000      -0.784445       -21.3458
  43   2.0000      -0.781539       -21.2667
  44   2.0000      -0.769514       -20.9396
  45   2.0000      -0.756362       -20.5817
  46   2.0000      -0.743316       -20.2267
  47   2.0000      -0.722986       -19.6734
  48   2.0000      -0.691931       -18.8284
  49   2.0000      -0.676723       -18.4146
  50   2.0000      -0.664401       -18.0793
  51   2.0000      -0.650473       -17.7003
  52   2.0000      -0.647889       -17.6300
  53   2.0000      -0.637756       -17.3542
  54   2.0000      -0.636264       -17.3136
  55   2.0000      -0.630899       -17.1676
  56   2.0000      -0.622824       -16.9479
  57   2.0000      -0.611626       -16.6432
  58   2.0000      -0.605176       -16.4677
  59   2.0000      -0.604528       -16.4500
  60   2.0000      -0.598518       -16.2865
  61   2.0000      -0.590394       -16.0654
  62   2.0000      -0.578900       -15.7527
  63   2.0000      -0.570467       -15.5232
  64   2.0000      -0.563604       -15.3364
  65   2.0000      -0.557965       -15.1830
  66   2.0000      -0.551765       -15.0143
  67   2.0000      -0.548305       -14.9201
  68   2.0000      -0.539956       -14.6930
  69   2.0000      -0.536028       -14.5861
  70   2.0000      -0.528065       -14.3694
  71   2.0000      -0.519379       -14.1330
  72   2.0000      -0.515048       -14.0152
  73   2.0000      -0.502898       -13.6846
  74   2.0000      -0.489698       -13.3254
  75   2.0000      -0.480774       -13.0825
  76   2.0000      -0.470886       -12.8135
  77   2.0000      -0.446741       -12.1565
  78   2.0000      -0.443665       -12.0727
  79   2.0000      -0.422214       -11.4890
  80   2.0000      -0.417485       -11.3604
  81   2.0000      -0.401057       -10.9133
  82   0.0000      -0.203381        -5.5343
  83   0.0000      -0.155021        -4.2183
  84   0.0000      -0.141442        -3.8488
  85   0.0000      -0.094022        -2.5585
  86   0.0000      -0.075307        -2.0492

MULLIKEN ATOMIC CHARGES
-----------------------
   0 Ir:    0.609931
   1 C :   -0.216747
   2 C :   -0.282475
   3 C :   -0.245557
   4 C :   -0.240530
   5 C :   -0.162693
   6 N :   -0.428870
   7 C :   -0.126006
   8 C :   -0.686467
   9 H :    0.270624
  10 H :    0.224491
  11 H :    0.259627
  12 C :   -0.635542
  13 H :    0.282169
  14 H :    0.262735
  15 H :    0.231181
  16 H :    0.231663
  17 C :    0.071061
  18 C :   -0.164091
  19 H :    0.289050
  20 C :   -0.487545
  21 C :   -0.122593
  22 S :    0.319182
  23 C :   -0.431257
  24 H :    0.493431
  25 H :    0.266000
  26 H :    0.297861
  27 H :    0.289367
  28 H :    0.289452
  29 H :    0.304736
  30 O :   -0.480261
  31 O :   -0.533342
  32 C :    0.620139
  33 C :   -0.744780
  34 H :    0.270020
  35 H :    0.267878
  36 H :    0.254448
  37 H :    0.289782
  38 H :    0.293927
Sum of atomic charges:    1.0000000

LOEWDIN ATOMIC CHARGES
----------------------
   0 Ir:   -0.235320
   1 C :   -0.044734
   2 C :   -0.074276
   3 C :   -0.066415
   4 C :   -0.051773
   5 C :   -0.018837
   6 N :   -0.004460
   7 C :   -0.069706
   8 C :   -0.363225
   9 H :    0.156803
  10 H :    0.133024
  11 H :    0.146316
  12 C :   -0.343539
  13 H :    0.156351
  14 H :    0.152421
  15 H :    0.137272
  16 H :    0.133157
  17 C :    0.033473
  18 C :   -0.181663
  19 H :    0.161844
  20 C :   -0.204971
  21 C :   -0.131024
  22 S :    0.481627
  23 C :   -0.262274
  24 H :    0.309174
  25 H :    0.162398
  26 H :    0.168463
  27 H :    0.184061
  28 H :    0.184060
  29 H :    0.192451
  30 O :   -0.273059
  31 O :   -0.202054
  32 C :    0.156039
  33 C :   -0.374892
  34 H :    0.160370
  35 H :    0.168095
  36 H :    0.153780
  37 H :    0.185335
  38 H :    0.185708

  Mayer bond orders larger than 0.100000
B(  0-Ir,  1-C ) :   0.4194 B(  0-Ir,  2-C ) :   0.5023 B(  0-Ir,  3-C ) :   0.4618
B(  0-Ir,  4-C ) :   0.4463 B(  0-Ir,  5-C ) :   0.3994 B(  0-Ir,  6-N ) :   0.4637
B(  0-Ir, 20-C ) :   0.3137 B(  0-Ir, 31-O ) :   0.5661 B(  1-C ,  2-C ) :   1.1225
B(  1-C ,  4-C ) :   1.2432 B(  1-C , 27-H ) :   0.9046 B(  2-C ,  5-C ) :   1.1482
B(  2-C , 28-H ) :   0.9086 B(  3-C ,  4-C ) :   1.1107 B(  3-C ,  5-C ) :   1.2225
B(  3-C , 37-H ) :   0.9076 B(  4-C , 38-H ) :   0.9003 B(  5-C , 29-H ) :   0.8983
B(  6-N ,  7-C ) :   0.8920 B(  6-N , 17-C ) :   1.6762 B(  7-C ,  8-C ) :   0.9911
B(  7-C , 12-C ) :   0.9679 B(  7-C , 13-H ) :   0.8737 B(  8-C ,  9-H ) :   0.9041
B(  8-C , 10-H ) :   0.9131 B(  8-C , 11-H ) :   0.9092 B( 12-C , 14-H ) :   0.9069
B( 12-C , 15-H ) :   0.9156 B( 12-C , 16-H ) :   0.9123 B( 17-C , 18-C ) :   1.0756
B( 17-C , 19-H ) :   0.8752 B( 18-C , 20-C ) :   1.2719 B( 18-C , 22-S ) :   1.2393
B( 20-C , 21-C ) :   1.2680 B( 20-C , 24-H ) :   0.4383 B( 21-C , 23-C ) :   1.5485
B( 21-C , 25-H ) :   0.9043 B( 22-S , 23-C ) :   1.2063 B( 23-C , 26-H ) :   0.8916
B( 24-H , 30-O ) :   0.2673 B( 30-O , 32-C ) :   1.6625 B( 31-O , 32-C ) :   1.2994
B( 32-C , 33-C ) :   0.9463 B( 33-C , 34-H ) :   0.9043 B( 33-C , 35-H ) :   0.8977
B( 33-C , 36-H ) :   0.9092

Dispersion correction           -0.030791920
FINAL SINGLE POINT ENERGY     -1288.399766816933

DIPOLE MOMENT
-------------
                                X             Y             Z
Electronic contribution:     37.28388     -69.00278      73.85157
Nuclear contribution   :    -37.91129      67.94602     -74.15906
                        -----------------------------------------
Total Dipole Moment    :     -0.62741      -1.05676      -0.30750
                        -----------------------------------------
Magnitude (a.u.)       :      1.26686
Magnitude (Debye)      :      3.22011

Rotational constants in cm-1:     0.010600     0.009043     0.008199
Rotational constants in MHz :   317.771234   271.108909   245.789745

                             ****ORCA TERMINATED NORMALLY****
TOTAL RUN TIME: 0 days 2 hours 5 minutes 7 seconds 893 msec
