                         Program Version 5.0.3 -  RELEASE  -
|  1> ! Opt PBEh-3c
|  2> %geom Constraints
|  3> { B 0 20 2.2142857142857144 C }
|  4> { B 24 30 1.3571428571428572 C }
|  5>     end
|  6> end
|  7> %output
|  8> xyzfile=True
|  9> end
| 10> %scf
| 11> maxiter 250
| 12> end
| 13> %output
| 14> Print[P_Hirshfeld] = 1
| 15> end
| 16> % maxcore
| 17> 4000
| 18> *xyz 1 1
| 19> Ir   0.60870342  -0.72814934   0.45918497
| 20> C    0.11199983  -2.83370888   0.35403341
| 21> C   -0.04896933  -2.36746452   1.70703654
| 22> C    2.16699021  -2.09183287   1.10731092
| 23> C    1.46159832  -2.65923721  -0.01397040
| 24> C    1.23272886  -1.94316825   2.15953100
| 25> N   -1.05393947   0.12304907  -0.50556554
| 26> C   -2.33217950   0.34740503   0.18904647
| 27> C   -3.11932222   1.53553892  -0.34544742
| 28> H   -3.95180742   1.73737207   0.32693978
| 29> H   -3.55266498   1.34978656  -1.32912145
| 30> H   -2.51170752   2.43940383  -0.39390867
| 31> C   -3.16051625  -0.93196421   0.15119268
| 32> H   -2.05844191   0.55928712   1.22356994
| 33> H   -4.07230269  -0.80078009   0.73244843
| 34> H   -3.44974566  -1.18301118  -0.87016272
| 35> H   -2.62380289  -1.78076621   0.57194086
| 36> C   -0.89486074   0.43042529  -1.73932964
| 37> C    0.42712459   0.26338592  -2.27155228
| 38> H   -1.70712803   0.82696691  -2.34099615
| 39> C    1.50712384   0.18627977  -1.39859704
| 40> C    2.70306240  -0.09407117  -2.12095121
| 41> S    0.86003362   0.02920886  -3.89893087
| 42> C    2.50120875  -0.19640777  -3.46447161
| 43> H    1.62104188   1.17054085  -0.58742035
| 44> H    3.68216135  -0.15734395  -1.66886472
| 45> H    3.23840014  -0.37239012  -4.23309029
| 46> H   -0.66433317  -3.24503949  -0.27463228
| 47> H   -0.94886240  -2.40821615   2.30199095
| 48> H    1.44182499  -1.50820788   3.12674744
| 49> O    1.68852110   2.30558469   0.17935104
| 50> O    0.54380632   1.00213822   1.57344972
| 51> C    1.09528829   2.10709435   1.25287964
| 52> C    1.03061147   3.20785793   2.27042766
| 53> H    0.92364139   4.17370287   1.78217415
| 54> H    1.96953298   3.22974985   2.82644287
| 55> H    0.22151686   3.05446940   2.97921714
| 56> H    3.22193667  -1.87020938   1.15621400
| 57> H    1.89109694  -2.90808882  -0.97337693
| 58> *
| 59>
| 60>                          ****END OF INPUT****
 Total Charge           Charge          ....    1
 Multiplicity           Mult            ....    1
 Number of Electrons    NEL             ....  164
Dispersion correction           -0.030726283
FINAL SINGLE POINT ENERGY     -1288.402127181477
Dispersion correction            ... done
Dispersion correction           -0.030683131
FINAL SINGLE POINT ENERGY     -1288.402373111317
Dispersion correction            ... done
Dispersion correction           -0.030661237
FINAL SINGLE POINT ENERGY     -1288.402459262715
Dispersion correction            ... done
FINAL SINGLE POINT ENERGY     -1288.402514554094
FINAL SINGLE POINT ENERGY     -1288.402551506704
FINAL SINGLE POINT ENERGY     -1288.402566144688
FINAL SINGLE POINT ENERGY     -1288.402570068246
FINAL SINGLE POINT ENERGY     -1288.402569930347
FINAL SINGLE POINT ENERGY     -1288.402569157463
FINAL SINGLE POINT ENERGY     -1288.402568160619
FINAL SINGLE POINT ENERGY     -1288.402567917245
FINAL SINGLE POINT ENERGY     -1288.402568771186
FINAL SINGLE POINT ENERGY     -1288.402571037780
FINAL SINGLE POINT ENERGY     -1288.402574451669
Dispersion correction            ... done
Dispersion correction           -0.030586621
FINAL SINGLE POINT ENERGY     -1288.402578288828
Dispersion correction            ... done
Dispersion correction           -0.030587317
FINAL SINGLE POINT ENERGY     -1288.402581067397
Dispersion correction            ... done
                    ***********************HURRAY********************

CARTESIAN COORDINATES (ANGSTROEM)
---------------------------------
  Ir     0.605919   -0.731508    0.452169
  C      0.119224   -2.839453    0.358934
  C     -0.076233   -2.373677    1.707531
  C      2.151901   -2.082581    1.157371
  C      1.478809   -2.662460    0.025048
  C      1.187478   -1.935379    2.186157
  N     -1.061851    0.115600   -0.506959
  C     -2.341340    0.321546    0.190574
  C     -3.132479    1.517634   -0.319983
  H     -3.966647    1.701737    0.355282
  H     -3.563378    1.351369   -1.308206
  H     -2.528103    2.424539   -0.348207
  C     -3.165386   -0.959521    0.125252
  H     -2.070281    0.513719    1.229719
  H     -4.077957   -0.844377    0.708745
  H     -3.452969   -1.189741   -0.901441
  H     -2.625652   -1.815409    0.527259
  C     -0.904823    0.448659   -1.735041
  C      0.414178    0.287492   -2.271056
  H     -1.717911    0.858611   -2.326118
  C      1.480024    0.129563   -1.391078
  C      2.680490   -0.122726   -2.116784
  S      0.865388    0.163092   -3.905170
  C      2.494815   -0.124787   -3.467070
  H      1.637228    1.150445   -0.587066
  H      3.652359   -0.238189   -1.659358
  H      3.239649   -0.261203   -4.236372
  H     -0.637624   -3.261352   -0.286181
  H     -0.990295   -2.416243    2.280095
  H      1.369142   -1.492475    3.155330
  O      1.745885    2.280024    0.157300
  O      0.550611    1.019303    1.546995
  C      1.131597    2.104781    1.227332
  C      1.083796    3.222287    2.226406
  H      0.956061    4.178047    1.722956
  H      2.036872    3.263600    2.756369
  H      0.293114    3.075447    2.956592
  H      3.204958   -1.860523    1.234999
  H      1.932798   -2.916702   -0.921585

 Multiplicity           Mult            ....    1
 Number of Electrons    NEL             ....  164
 Basis Dimension        Dim             ....  358

ORBITAL ENERGIES
----------------

  NO   OCC          E(Eh)            E(eV)
   0   2.0000     -89.761234     -2442.5274
   1   2.0000     -19.634890      -534.2925
   2   2.0000     -19.619079      -533.8623
   3   2.0000     -14.833506      -403.6402
   4   2.0000     -10.696339      -291.0622
   5   2.0000     -10.654737      -289.9301
   6   2.0000     -10.628268      -289.2099
   7   2.0000     -10.625842      -289.1438
   8   2.0000     -10.625254      -289.1279
   9   2.0000     -10.623248      -289.0733
  10   2.0000     -10.618969      -288.9568
  11   2.0000     -10.615733      -288.8688
  12   2.0000     -10.612732      -288.7871
  13   2.0000     -10.608487      -288.6716
  14   2.0000     -10.587519      -288.1010
  15   2.0000     -10.586128      -288.0632
  16   2.0000     -10.553599      -287.1780
  17   2.0000     -10.550334      -287.0892
  18   2.0000     -10.543906      -286.9143
  19   2.0000      -8.400662      -228.5936
  20   2.0000      -6.290556      -171.1747
  21   2.0000      -6.287003      -171.0781
  22   2.0000      -6.285614      -171.0403
  23   2.0000      -4.022528      -109.4585
  24   2.0000      -2.340089       -63.6770
  25   2.0000      -2.308084       -62.8062
  26   2.0000      -2.305404       -62.7332
  27   2.0000      -1.324738       -36.0479
  28   2.0000      -1.226029       -33.3619
  29   2.0000      -1.205915       -32.8146
  30   2.0000      -1.163325       -31.6557
  31   2.0000      -1.125322       -30.6216
  32   2.0000      -1.023261       -27.8443
  33   2.0000      -0.976258       -26.5653
  34   2.0000      -0.969332       -26.3769
  35   2.0000      -0.965972       -26.2854
  36   2.0000      -0.957698       -26.0603
  37   2.0000      -0.939213       -25.5573
  38   2.0000      -0.900062       -24.4919
  39   2.0000      -0.870910       -23.6987
  40   2.0000      -0.796822       -21.6826
  41   2.0000      -0.780569       -21.2404
  42   2.0000      -0.779015       -21.1981
  43   2.0000      -0.778675       -21.1888
  44   2.0000      -0.764031       -20.7903
  45   2.0000      -0.761747       -20.7282
  46   2.0000      -0.741508       -20.1775
  47   2.0000      -0.721979       -19.6461
  48   2.0000      -0.691914       -18.8279
  49   2.0000      -0.683020       -18.5859
  50   2.0000      -0.662677       -18.0323
  51   2.0000      -0.659206       -17.9379
  52   2.0000      -0.648009       -17.6332
  53   2.0000      -0.638298       -17.3690
  54   2.0000      -0.632701       -17.2167
  55   2.0000      -0.630262       -17.1503
  56   2.0000      -0.621564       -16.9136
  57   2.0000      -0.609140       -16.5756
  58   2.0000      -0.599479       -16.3127
  59   2.0000      -0.598780       -16.2936
  60   2.0000      -0.597803       -16.2670
  61   2.0000      -0.590412       -16.0659
  62   2.0000      -0.577938       -15.7265
  63   2.0000      -0.567888       -15.4530
  64   2.0000      -0.564422       -15.3587
  65   2.0000      -0.561620       -15.2824
  66   2.0000      -0.554728       -15.0949
  67   2.0000      -0.546640       -14.8748
  68   2.0000      -0.541722       -14.7410
  69   2.0000      -0.534785       -14.5522
  70   2.0000      -0.528551       -14.3826
  71   2.0000      -0.517932       -14.0936
  72   2.0000      -0.513140       -13.9633
  73   2.0000      -0.501086       -13.6352
  74   2.0000      -0.495690       -13.4884
  75   2.0000      -0.480459       -13.0740
  76   2.0000      -0.478742       -13.0272
  77   2.0000      -0.448920       -12.2157
  78   2.0000      -0.445125       -12.1125
  79   2.0000      -0.417541       -11.3619
  80   2.0000      -0.417122       -11.3505
  81   2.0000      -0.396649       -10.7934
  82   0.0000      -0.201561        -5.4848
  83   0.0000      -0.142531        -3.8785
  84   0.0000      -0.139580        -3.7982
  85   0.0000      -0.086000        -2.3402
  86   0.0000      -0.072472        -1.9721

MULLIKEN ATOMIC CHARGES
-----------------------
   0 Ir:    0.603098
   1 C :   -0.235221
   2 C :   -0.269243
   3 C :   -0.262757
   4 C :   -0.227327
   5 C :   -0.156736
   6 N :   -0.436312
   7 C :   -0.125936
   8 C :   -0.682146
   9 H :    0.269208
  10 H :    0.224471
  11 H :    0.254464
  12 C :   -0.633998
  13 H :    0.279464
  14 H :    0.259391
  15 H :    0.232321
  16 H :    0.232210
  17 C :    0.069558
  18 C :   -0.136516
  19 H :    0.284885
  20 C :   -0.523013
  21 C :   -0.115020
  22 S :    0.335408
  23 C :   -0.426855
  24 H :    0.476302
  25 H :    0.265305
  26 H :    0.297272
  27 H :    0.286685
  28 H :    0.283958
  29 H :    0.299827
  30 O :   -0.484000
  31 O :   -0.513353
  32 C :    0.631812
  33 C :   -0.744478
  34 H :    0.272812
  35 H :    0.274937
  36 H :    0.260748
  37 H :    0.284764
  38 H :    0.294009
Sum of atomic charges:    1.0000000

LOEWDIN ATOMIC CHARGES
----------------------
   0 Ir:   -0.252701
   1 C :   -0.054917
   2 C :   -0.091107
   3 C :   -0.088890
   4 C :   -0.041059
   5 C :   -0.015488
   6 N :   -0.007407
   7 C :   -0.069162
   8 C :   -0.362294
   9 H :    0.156103
  10 H :    0.132760
  11 H :    0.143702
  12 C :   -0.343943
  13 H :    0.154726
  14 H :    0.150922
  15 H :    0.137807
  16 H :    0.132614
  17 C :    0.030352
  18 C :   -0.192067
  19 H :    0.159912
  20 C :   -0.216918
  21 C :   -0.130637
  22 S :    0.490214
  23 C :   -0.258560
  24 H :    0.348190
  25 H :    0.161443
  26 H :    0.168727
  27 H :    0.182808
  28 H :    0.180848
  29 H :    0.189456
  30 O :   -0.264050
  31 O :   -0.184753
  32 C :    0.165171
  33 C :   -0.372026
  34 H :    0.164832
  35 H :    0.171824
  36 H :    0.155192
  37 H :    0.183003
  38 H :    0.185373

  Mayer bond orders larger than 0.100000
B(  0-Ir,  1-C ) :   0.4347 B(  0-Ir,  2-C ) :   0.4445 B(  0-Ir,  3-C ) :   0.4650
B(  0-Ir,  4-C ) :   0.4344 B(  0-Ir,  5-C ) :   0.3875 B(  0-Ir,  6-N ) :   0.4657
B(  0-Ir, 20-C ) :   0.4239 B(  0-Ir, 31-O ) :   0.5287 B(  1-C ,  2-C ) :   1.1262
B(  1-C ,  4-C ) :   1.2302 B(  1-C , 27-H ) :   0.9071 B(  2-C ,  5-C ) :   1.1865
B(  2-C , 28-H ) :   0.9100 B(  3-C ,  4-C ) :   1.1295 B(  3-C ,  5-C ) :   1.1907
B(  3-C , 37-H ) :   0.9114 B(  4-C , 38-H ) :   0.8998 B(  5-C , 29-H ) :   0.9003
B(  6-N ,  7-C ) :   0.8950 B(  6-N , 17-C ) :   1.6512 B(  7-C ,  8-C ) :   0.9905
B(  7-C , 12-C ) :   0.9669 B(  7-C , 13-H ) :   0.8770 B(  8-C ,  9-H ) :   0.9047
B(  8-C , 10-H ) :   0.9130 B(  8-C , 11-H ) :   0.9118 B( 12-C , 14-H ) :   0.9077
B( 12-C , 15-H ) :   0.9154 B( 12-C , 16-H ) :   0.9124 B( 17-C , 18-C ) :   1.1078
B( 17-C , 19-H ) :   0.8763 B( 18-C , 20-C ) :   1.2487 B( 18-C , 22-S ) :   1.2332
B( 20-C , 21-C ) :   1.2809 B( 20-C , 24-H ) :   0.3586 B( 21-C , 23-C ) :   1.5403
B( 21-C , 25-H ) :   0.9035 B( 22-S , 23-C ) :   1.2195 B( 23-C , 26-H ) :   0.8914
B( 24-H , 30-O ) :   0.3298 B( 30-O , 32-C ) :   1.5758 B( 31-O , 32-C ) :   1.3678
B( 32-C , 33-C ) :   0.9458 B( 33-C , 34-H ) :   0.9001 B( 33-C , 35-H ) :   0.8938
B( 33-C , 36-H ) :   0.9084

Dispersion correction           -0.030586841
FINAL SINGLE POINT ENERGY     -1288.402582161850

DIPOLE MOMENT
-------------
                                X             Y             Z
Electronic contribution:     36.79817     -72.86113      73.98500
Nuclear contribution   :    -37.41373      72.26909     -74.19882
                        -----------------------------------------
Total Dipole Moment    :     -0.61556      -0.59204      -0.21382
                        -----------------------------------------
Magnitude (a.u.)       :      0.88043
Magnitude (Debye)      :      2.23786

Rotational constants in cm-1:     0.010535     0.008793     0.008178
Rotational constants in MHz :   315.832854   263.594066   245.176106

                             ****ORCA TERMINATED NORMALLY****
TOTAL RUN TIME: 0 days 2 hours 3 minutes 23 seconds 842 msec
