                         Program Version 5.0.3 -  RELEASE  -
|  1> ! Opt PBEh-3c
|  2> %geom Constraints
|  3> { B 0 20 2.0 C }
|  4> { B 24 30 1.5 C }
|  5>     end
|  6> end
|  7> %output
|  8> xyzfile=True
|  9> end
| 10> %scf
| 11> maxiter 250
| 12> end
| 13> %output
| 14> Print[P_Hirshfeld] = 1
| 15> end
| 16> % maxcore
| 17> 4000
| 18> *xyz 1 1
| 19> Ir   0.62941679  -0.71514447   0.38455188
| 20> C    0.16053631  -2.84175882   0.31677980
| 21> C   -0.02639982  -2.39335937   1.67179686
| 22> C    2.18756628  -2.05349053   1.09502440
| 23> C    1.51609299  -2.65007872  -0.02769582
| 24> C    1.22657012  -1.92904004   2.13573180
| 25> N   -1.06858262   0.13518357  -0.52179500
| 26> C   -2.32776062   0.35520611   0.20320402
| 27> C   -3.13108100   1.54227855  -0.30797876
| 28> H   -3.95199953   1.73389953   0.38123363
| 29> H   -3.58139390   1.35959352  -1.28466741
| 30> H   -2.52994075   2.45024908  -0.36104059
| 31> C   -3.15150486  -0.92820716   0.17775644
| 32> H   -2.02784246   0.56074782   1.23180788
| 33> H   -4.04690205  -0.80453291   0.78543920
| 34> H   -3.46797120  -1.17218044  -0.83712760
| 35> H   -2.59886008  -1.77730048   0.57624337
| 36> C   -0.92420942   0.47317466  -1.75009750
| 37> C    0.39451459   0.27133852  -2.27093884
| 38> H   -1.72741508   0.90900392  -2.33477277
| 39> C    1.41893919   0.05704183  -1.33406621
| 40> C    2.64291086  -0.21490569  -2.03669988
| 41> S    0.89899022   0.15559052  -3.87889670
| 42> C    2.50750566  -0.19134596  -3.38794975
| 43> H    1.59031108   1.10941708  -0.70088169
| 44> H    3.59542045  -0.35636491  -1.54651366
| 45> H    3.27448277  -0.33387634  -4.13393412
| 46> H   -0.59480524  -3.27922692  -0.31962339
| 47> H   -0.93634006  -2.44611371   2.24967446
| 48> H    1.40939759  -1.48233199   3.10285110
| 49> O    1.65995929   2.37176331   0.10635503
| 50> O    0.57282888   1.01677601   1.50066331
| 51> C    1.09579865   2.14059395   1.18311538
| 52> C    1.02330632   3.21556926   2.23116383
| 53> H    1.00759789   4.20060255   1.77185731
| 54> H    1.91585540   3.15798696   2.85662959
| 55> H    0.15781512   3.08919029   2.87670571
| 56> H    3.23970191  -1.82663215   1.17121764
| 57> H    1.96686043  -2.91012644  -0.97438284
| 58> *
| 59>
| 60>                          ****END OF INPUT****
 Total Charge           Charge          ....    1
 Multiplicity           Mult            ....    1
 Number of Electrons    NEL             ....  164
Dispersion correction           -0.030986170
FINAL SINGLE POINT ENERGY     -1288.391406126117
Dispersion correction            ... done
Dispersion correction           -0.030949234
FINAL SINGLE POINT ENERGY     -1288.391514464674
Dispersion correction            ... done
Dispersion correction           -0.030985839
FINAL SINGLE POINT ENERGY     -1288.390925270491
Dispersion correction            ... done
FINAL SINGLE POINT ENERGY     -1288.391689180721
FINAL SINGLE POINT ENERGY     -1288.391707678031
FINAL SINGLE POINT ENERGY     -1288.391733313351
FINAL SINGLE POINT ENERGY     -1288.391751694420
FINAL SINGLE POINT ENERGY     -1288.391759718459
FINAL SINGLE POINT ENERGY     -1288.391761878319
FINAL SINGLE POINT ENERGY     -1288.391762866373
FINAL SINGLE POINT ENERGY     -1288.391761593559
FINAL SINGLE POINT ENERGY     -1288.391762382917
FINAL SINGLE POINT ENERGY     -1288.391764480511
FINAL SINGLE POINT ENERGY     -1288.391767471199
Dispersion correction            ... done
Dispersion correction           -0.030917978
FINAL SINGLE POINT ENERGY     -1288.391770736268
Dispersion correction            ... done
Dispersion correction           -0.030919507
FINAL SINGLE POINT ENERGY     -1288.391772367771
Dispersion correction            ... done
                    ***********************HURRAY********************

CARTESIAN COORDINATES (ANGSTROEM)
---------------------------------
  Ir     0.635168   -0.724387    0.374336
  C      0.181916   -2.853456    0.299234
  C     -0.044108   -2.422424    1.655131
  C      2.179250   -2.052226    1.138248
  C      1.547659   -2.653158   -0.002224
  C      1.185436   -1.947956    2.155353
  N     -1.068750    0.127717   -0.516601
  C     -2.323052    0.343033    0.217522
  C     -3.113821    1.552168   -0.260440
  H     -3.932175    1.734021    0.434420
  H     -3.566233    1.402246   -1.241692
  H     -2.502102    2.454185   -0.288973
  C     -3.159762   -0.931068    0.162145
  H     -2.018246    0.519595    1.250063
  H     -4.048659   -0.817028    0.781152
  H     -3.487067   -1.142439   -0.856609
  H     -2.611163   -1.796584    0.529910
  C     -0.930981    0.475831   -1.743368
  C      0.385017    0.270764   -2.267332
  H     -1.734655    0.921274   -2.319763
  C      1.395842    0.014995   -1.321155
  C      2.627907   -0.237978   -2.023026
  S      0.909883    0.221203   -3.870764
  C      2.509776   -0.157399   -3.373095
  H      1.577032    1.111615   -0.745976
  H      3.573627   -0.406471   -1.528053
  H      3.285733   -0.274132   -4.114297
  H     -0.549114   -3.300248   -0.358599
  H     -0.970623   -2.484065    2.205025
  H      1.335989   -1.505618    3.129948
  O      1.626943    2.384700    0.045708
  O      0.603485    1.018960    1.478356
  C      1.095368    2.148250    1.139768
  C      1.031938    3.231384    2.180176
  H      0.965434    4.210759    1.713259
  H      1.951926    3.209592    2.767043
  H      0.198754    3.083848    2.862444
  H      3.227702   -1.822914    1.249376
  H      2.028098   -2.907401   -0.935910

 Multiplicity           Mult            ....    1
 Number of Electrons    NEL             ....  164
 Basis Dimension        Dim             ....  358

ORBITAL ENERGIES
----------------

  NO   OCC          E(Eh)            E(eV)
   0   2.0000     -89.772833     -2442.8430
   1   2.0000     -19.627640      -534.0952
   2   2.0000     -19.609150      -533.5921
   3   2.0000     -14.838897      -403.7869
   4   2.0000     -10.687548      -290.8230
   5   2.0000     -10.657597      -290.0079
   6   2.0000     -10.635612      -289.4097
   7   2.0000     -10.622822      -289.0617
   8   2.0000     -10.621898      -289.0365
   9   2.0000     -10.620814      -289.0070
  10   2.0000     -10.615329      -288.8578
  11   2.0000     -10.614185      -288.8266
  12   2.0000     -10.612677      -288.7856
  13   2.0000     -10.610090      -288.7152
  14   2.0000     -10.596312      -288.3403
  15   2.0000     -10.592992      -288.2500
  16   2.0000     -10.554442      -287.2010
  17   2.0000     -10.551543      -287.1221
  18   2.0000     -10.539015      -286.7812
  19   2.0000      -8.412143      -228.9060
  20   2.0000      -6.301968      -171.4853
  21   2.0000      -6.298388      -171.3879
  22   2.0000      -6.297220      -171.3561
  23   2.0000      -4.019308      -109.3709
  24   2.0000      -2.336181       -63.5707
  25   2.0000      -2.306907       -62.7741
  26   2.0000      -2.302777       -62.6618
  27   2.0000      -1.313478       -35.7415
  28   2.0000      -1.216077       -33.0911
  29   2.0000      -1.211532       -32.9675
  30   2.0000      -1.157879       -31.5075
  31   2.0000      -1.134542       -30.8725
  32   2.0000      -1.028327       -27.9822
  33   2.0000      -0.978020       -26.6133
  34   2.0000      -0.970842       -26.4180
  35   2.0000      -0.966263       -26.2933
  36   2.0000      -0.961064       -26.1519
  37   2.0000      -0.932115       -25.3642
  38   2.0000      -0.901506       -24.5312
  39   2.0000      -0.876798       -23.8589
  40   2.0000      -0.803031       -21.8516
  41   2.0000      -0.786844       -21.4111
  42   2.0000      -0.774942       -21.0872
  43   2.0000      -0.773846       -21.0574
  44   2.0000      -0.759568       -20.6689
  45   2.0000      -0.754427       -20.5290
  46   2.0000      -0.744995       -20.2724
  47   2.0000      -0.723525       -19.6881
  48   2.0000      -0.691653       -18.8208
  49   2.0000      -0.684078       -18.6147
  50   2.0000      -0.665669       -18.1138
  51   2.0000      -0.652951       -17.7677
  52   2.0000      -0.646330       -17.5875
  53   2.0000      -0.634446       -17.2642
  54   2.0000      -0.630751       -17.1636
  55   2.0000      -0.624589       -16.9959
  56   2.0000      -0.622649       -16.9431
  57   2.0000      -0.615569       -16.7505
  58   2.0000      -0.605035       -16.4638
  59   2.0000      -0.596661       -16.2360
  60   2.0000      -0.594372       -16.1737
  61   2.0000      -0.592630       -16.1263
  62   2.0000      -0.582784       -15.8584
  63   2.0000      -0.573215       -15.5980
  64   2.0000      -0.564415       -15.3585
  65   2.0000      -0.562340       -15.3020
  66   2.0000      -0.552123       -15.0240
  67   2.0000      -0.547786       -14.9060
  68   2.0000      -0.541976       -14.7479
  69   2.0000      -0.537159       -14.6168
  70   2.0000      -0.531603       -14.4657
  71   2.0000      -0.519327       -14.1316
  72   2.0000      -0.513981       -13.9861
  73   2.0000      -0.498357       -13.5610
  74   2.0000      -0.492346       -13.3974
  75   2.0000      -0.488049       -13.2805
  76   2.0000      -0.475561       -12.9407
  77   2.0000      -0.449091       -12.2204
  78   2.0000      -0.441020       -12.0008
  79   2.0000      -0.423857       -11.5337
  80   2.0000      -0.412458       -11.2236
  81   2.0000      -0.391793       -10.6612
  82   0.0000      -0.214183        -5.8282
  83   0.0000      -0.144211        -3.9242
  84   0.0000      -0.125568        -3.4169
  85   0.0000      -0.091140        -2.4801
  86   0.0000      -0.079032        -2.1506

MULLIKEN ATOMIC CHARGES
-----------------------
   0 Ir:    0.618517
   1 C :   -0.250233
   2 C :   -0.249656
   3 C :   -0.279642
   4 C :   -0.222178
   5 C :   -0.148650
   6 N :   -0.425387
   7 C :   -0.129131
   8 C :   -0.681760
   9 H :    0.270154
  10 H :    0.223820
  11 H :    0.255787
  12 C :   -0.633447
  13 H :    0.282602
  14 H :    0.259756
  15 H :    0.232450
  16 H :    0.235395
  17 C :    0.071266
  18 C :   -0.111909
  19 H :    0.288023
  20 C :   -0.618675
  21 C :   -0.075284
  22 S :    0.354527
  23 C :   -0.429364
  24 H :    0.467312
  25 H :    0.272734
  26 H :    0.300613
  27 H :    0.283040
  28 H :    0.280046
  29 H :    0.297140
  30 O :   -0.464667
  31 O :   -0.519092
  32 C :    0.620585
  33 C :   -0.742854
  34 H :    0.269930
  35 H :    0.271556
  36 H :    0.256443
  37 H :    0.279589
  38 H :    0.290643
Sum of atomic charges:    1.0000000

LOEWDIN ATOMIC CHARGES
----------------------
   0 Ir:   -0.258947
   1 C :   -0.062735
   2 C :   -0.099213
   3 C :   -0.100865
   4 C :   -0.044584
   5 C :   -0.018586
   6 N :    0.007520
   7 C :   -0.070185
   8 C :   -0.362181
   9 H :    0.156758
  10 H :    0.132739
  11 H :    0.144370
  12 C :   -0.343257
  13 H :    0.156504
  14 H :    0.151307
  15 H :    0.137901
  16 H :    0.134271
  17 C :    0.025305
  18 C :   -0.172284
  19 H :    0.162156
  20 C :   -0.221390
  21 C :   -0.114450
  22 S :    0.513229
  23 C :   -0.258450
  24 H :    0.348393
  25 H :    0.165366
  26 H :    0.170912
  27 H :    0.180831
  28 H :    0.178109
  29 H :    0.187410
  30 O :   -0.262042
  31 O :   -0.192512
  32 C :    0.153790
  33 C :   -0.373478
  34 H :    0.161263
  35 H :    0.169881
  36 H :    0.154037
  37 H :    0.180520
  38 H :    0.182588

  Mayer bond orders larger than 0.100000
B(  0-Ir,  1-C ) :   0.4470 B(  0-Ir,  2-C ) :   0.3702 B(  0-Ir,  3-C ) :   0.4714
B(  0-Ir,  4-C ) :   0.4132 B(  0-Ir,  5-C ) :   0.3470 B(  0-Ir,  6-N ) :   0.4616
B(  0-Ir, 20-C ) :   0.5531 B(  0-Ir, 31-O ) :   0.5368 B(  1-C ,  2-C ) :   1.1252
B(  1-C ,  4-C ) :   1.2263 B(  1-C , 27-H ) :   0.9097 B(  2-C ,  5-C ) :   1.2408
B(  2-C , 28-H ) :   0.9101 B(  3-C ,  4-C ) :   1.1422 B(  3-C ,  5-C ) :   1.1642
B(  3-C , 37-H ) :   0.9148 B(  4-C , 38-H ) :   0.8989 B(  5-C , 29-H ) :   0.9016
B(  6-N ,  7-C ) :   0.8955 B(  6-N , 17-C ) :   1.6486 B(  7-C ,  8-C ) :   0.9901
B(  7-C , 12-C ) :   0.9654 B(  7-C , 13-H ) :   0.8742 B(  8-C ,  9-H ) :   0.9044
B(  8-C , 10-H ) :   0.9132 B(  8-C , 11-H ) :   0.9112 B( 12-C , 14-H ) :   0.9074
B( 12-C , 15-H ) :   0.9151 B( 12-C , 16-H ) :   0.9111 B( 17-C , 18-C ) :   1.1102
B( 17-C , 19-H ) :   0.8764 B( 18-C , 20-C ) :   1.1847 B( 18-C , 22-S ) :   1.2723
B( 20-C , 21-C ) :   1.2243 B( 20-C , 24-H ) :   0.4009 B( 21-C , 23-C ) :   1.5621
B( 21-C , 25-H ) :   0.8995 B( 22-S , 23-C ) :   1.2005 B( 23-C , 26-H ) :   0.8908
B( 24-H , 30-O ) :   0.3024 B( 30-O , 32-C ) :   1.6358 B( 31-O , 32-C ) :   1.3356
B( 32-C , 33-C ) :   0.9413 B( 33-C , 34-H ) :   0.9031 B( 33-C , 35-H ) :   0.8959
B( 33-C , 36-H ) :   0.9089

Dispersion correction           -0.030920755
FINAL SINGLE POINT ENERGY     -1288.391772489507

DIPOLE MOMENT
-------------
                                X             Y             Z
Electronic contribution:     39.55060     -72.70152      66.39107
Nuclear contribution   :    -40.20610      72.08110     -66.90650
                        -----------------------------------------
Total Dipole Moment    :     -0.65551      -0.62042      -0.51543
                        -----------------------------------------
Magnitude (a.u.)       :      1.03937
Magnitude (Debye)      :      2.64186

Rotational constants in cm-1:     0.010515     0.009139     0.008273
Rotational constants in MHz :   315.235889   273.990071   248.013829

                             ****ORCA TERMINATED NORMALLY****
TOTAL RUN TIME: 0 days 2 hours 1 minutes 11 seconds 360 msec
