                         Program Version 5.0.3 -  RELEASE  -
|  1> ! Opt PBEh-3c
|  2> %geom Constraints
|  3> { B 0 20 2.085714285714286 C }
|  4> { B 24 30 1.4142857142857144 C }
|  5>     end
|  6> end
|  7> %output
|  8> xyzfile=True
|  9> end
| 10> %scf
| 11> maxiter 250
| 12> end
| 13> %output
| 14> Print[P_Hirshfeld] = 1
| 15> end
| 16> % maxcore
| 17> 4000
| 18> *xyz 1 1
| 19> Ir   0.61974823  -0.72222893   0.41801134
| 20> C    0.13978877  -2.83863153   0.33243850
| 21> C   -0.04778799  -2.38176530   1.68485689
| 22> C    2.17283545  -2.06997591   1.11689775
| 23> C    1.49638519  -2.65516704  -0.01013540
| 24> C    1.21321800  -1.93338522   2.15392575
| 25> N   -1.06421748   0.12801053  -0.51294664
| 26> C   -2.33334676   0.34163949   0.19868860
| 27> C   -3.13062579   1.53278635  -0.31323239
| 28> H   -3.95832205   1.72112524   0.36877181
| 29> H   -3.57105905   1.35754703  -1.29573188
| 30> H   -2.52792226   2.44032984  -0.35440765
| 31> C   -3.15743456  -0.94062821   0.15438531
| 32> H   -2.04745384   0.54147204   1.23235537
| 33> H   -4.06111054  -0.82090238   0.75058116
| 34> H   -3.46023526  -1.17835582  -0.86616728
| 35> H   -2.61112134  -1.79296529   0.55487087
| 36> C   -0.91298315   0.46344491  -1.74088501
| 37> C    0.40666708   0.28004796  -2.26819450
| 38> H   -1.72035019   0.88688803  -2.32960782
| 39> C    1.45299432   0.09891931  -1.36025548
| 40> C    2.66392326  -0.17068872  -2.07269461
| 41> S    0.88225590   0.14381539  -3.88884592
| 42> C    2.50179092  -0.17200093  -3.42366187
| 43> H    1.61605423   1.12562204  -0.63548573
| 44> H    3.62651026  -0.29606755  -1.59834253
| 45> H    3.25645100  -0.31948455  -4.18118800
| 46> H   -0.61880130  -3.26568812  -0.30721312
| 47> H   -0.95832684  -2.42906681   2.26247130
| 48> H    1.39883759  -1.49075626   3.12243316
| 49> O    1.70884405   2.32132622   0.14072164
| 50> O    0.55719569   1.01589219   1.52735018
| 51> C    1.11131655   2.12104120   1.20999525
| 52> C    1.04138926   3.22056962   2.23000570
| 53> H    0.94478082   4.18785453   1.74251834
| 54> H    1.97409610   3.23567928   2.79646035
| 55> H    0.22370515   3.07030023   2.92955664
| 56> H    3.22588133  -1.84673012   1.19109405
| 57> H    1.94579931  -2.91063275  -0.95865405
| 58> *
| 59>
| 60>                          ****END OF INPUT****
 Total Charge           Charge          ....    1
 Multiplicity           Mult            ....    1
 Number of Electrons    NEL             ....  164
Dispersion correction           -0.030877811
FINAL SINGLE POINT ENERGY     -1288.399431965910
Dispersion correction            ... done
Dispersion correction           -0.030830767
FINAL SINGLE POINT ENERGY     -1288.399479442788
Dispersion correction            ... done
Dispersion correction           -0.030835440
FINAL SINGLE POINT ENERGY     -1288.398544470459
Dispersion correction            ... done
FINAL SINGLE POINT ENERGY     -1288.399766158495
FINAL SINGLE POINT ENERGY     -1288.399795374374
FINAL SINGLE POINT ENERGY     -1288.399825605225
FINAL SINGLE POINT ENERGY     -1288.399859019283
FINAL SINGLE POINT ENERGY     -1288.399865788506
FINAL SINGLE POINT ENERGY     -1288.399867711196
FINAL SINGLE POINT ENERGY     -1288.399867415713
FINAL SINGLE POINT ENERGY     -1288.399866770262
FINAL SINGLE POINT ENERGY     -1288.399866236710
FINAL SINGLE POINT ENERGY     -1288.399867356094
Dispersion correction            ... done
Dispersion correction           -0.030768333
FINAL SINGLE POINT ENERGY     -1288.399870728548
Dispersion correction            ... done
Dispersion correction           -0.030767720
FINAL SINGLE POINT ENERGY     -1288.399874727097
Dispersion correction            ... done
                    ***********************HURRAY********************

CARTESIAN COORDINATES (ANGSTROEM)
---------------------------------
  Ir     0.619240   -0.727677    0.407229
  C      0.153015   -2.846988    0.328834
  C     -0.068804   -2.398381    1.679296
  C      2.160401   -2.061319    1.160502
  C      1.518663   -2.656992    0.021530
  C      1.171394   -1.935787    2.175862
  N     -1.070644    0.121823   -0.512663
  C     -2.338672    0.322159    0.203922
  C     -3.135568    1.524163   -0.282445
  H     -3.963658    1.697619    0.402920
  H     -3.575045    1.370769   -1.269014
  H     -2.532306    2.432050   -0.303391
  C     -3.163253   -0.958724    0.134196
  H     -2.052189    0.500909    1.241403
  H     -4.065507   -0.852405    0.735090
  H     -3.468215   -1.174032   -0.890677
  H     -2.615488   -1.819653    0.513757
  C     -0.922307    0.477257   -1.735871
  C      0.395142    0.296004   -2.265664
  H     -1.729671    0.913515   -2.314855
  C      1.425063    0.054038   -1.350547
  C      2.642567   -0.195657   -2.062633
  S      0.891809    0.242949   -3.884040
  C      2.499571   -0.120947   -3.413596
  H      1.617305    1.130214   -0.661709
  H      3.597035   -0.361339   -1.584034
  H      3.263568   -0.238626   -4.167000
  H     -0.584379   -3.286025   -0.327183
  H     -0.993197   -2.451528    2.233723
  H      1.328559   -1.489652    3.147769
  O      1.722008    2.318872    0.097457
  O      0.576511    1.026406    1.501583
  C      1.132061    2.124086    1.175832
  C      1.081989    3.232826    2.186550
  H      0.969913    4.195454    1.693069
  H      2.027770    3.257170    2.730532
  H      0.280944    3.084962    2.905379
  H      3.210228   -1.834718    1.263879
  H      1.993517   -2.913605   -0.914251

 Multiplicity           Mult            ....    1
 Number of Electrons    NEL             ....  164
 Basis Dimension        Dim             ....  358

ORBITAL ENERGIES
----------------

  NO   OCC          E(Eh)            E(eV)
   0   2.0000     -89.766674     -2442.6754
   1   2.0000     -19.632759      -534.2345
   2   2.0000     -19.617683      -533.8243
   3   2.0000     -14.835450      -403.6931
   4   2.0000     -10.693846      -290.9943
   5   2.0000     -10.655501      -289.9509
   6   2.0000     -10.628429      -289.2143
   7   2.0000     -10.624918      -289.1187
   8   2.0000     -10.623154      -289.0707
   9   2.0000     -10.622269      -289.0466
  10   2.0000     -10.614627      -288.8387
  11   2.0000     -10.613128      -288.7979
  12   2.0000     -10.611828      -288.7625
  13   2.0000     -10.611642      -288.7574
  14   2.0000     -10.591220      -288.2018
  15   2.0000     -10.590253      -288.1754
  16   2.0000     -10.553603      -287.1781
  17   2.0000     -10.550815      -287.1023
  18   2.0000     -10.542766      -286.8832
  19   2.0000      -8.406031      -228.7397
  20   2.0000      -6.295892      -171.3199
  21   2.0000      -6.292330      -171.2230
  22   2.0000      -6.291046      -171.1881
  23   2.0000      -4.020254      -109.3967
  24   2.0000      -2.337273       -63.6004
  25   2.0000      -2.306712       -62.7688
  26   2.0000      -2.303456       -62.6802
  27   2.0000      -1.321387       -35.9568
  28   2.0000      -1.222971       -33.2787
  29   2.0000      -1.208302       -32.8796
  30   2.0000      -1.159750       -31.5584
  31   2.0000      -1.129658       -30.7395
  32   2.0000      -1.025452       -27.9040
  33   2.0000      -0.972590       -26.4655
  34   2.0000      -0.971718       -26.4418
  35   2.0000      -0.966044       -26.2874
  36   2.0000      -0.959957       -26.1218
  37   2.0000      -0.937218       -25.5030
  38   2.0000      -0.900554       -24.5053
  39   2.0000      -0.873380       -23.7659
  40   2.0000      -0.799440       -21.7539
  41   2.0000      -0.783422       -21.3180
  42   2.0000      -0.776232       -21.1223
  43   2.0000      -0.775550       -21.1038
  44   2.0000      -0.761052       -20.7093
  45   2.0000      -0.758133       -20.6299
  46   2.0000      -0.743419       -20.2295
  47   2.0000      -0.722075       -19.6487
  48   2.0000      -0.692803       -18.8521
  49   2.0000      -0.684623       -18.6295
  50   2.0000      -0.663946       -18.0669
  51   2.0000      -0.657454       -17.8902
  52   2.0000      -0.647388       -17.6163
  53   2.0000      -0.637236       -17.3401
  54   2.0000      -0.630894       -17.1675
  55   2.0000      -0.626789       -17.0558
  56   2.0000      -0.621896       -16.9226
  57   2.0000      -0.612008       -16.6536
  58   2.0000      -0.601371       -16.3641
  59   2.0000      -0.596818       -16.2402
  60   2.0000      -0.595736       -16.2108
  61   2.0000      -0.591776       -16.1031
  62   2.0000      -0.580177       -15.7874
  63   2.0000      -0.568608       -15.4726
  64   2.0000      -0.565796       -15.3961
  65   2.0000      -0.562700       -15.3118
  66   2.0000      -0.553759       -15.0685
  67   2.0000      -0.546847       -14.8805
  68   2.0000      -0.542230       -14.7548
  69   2.0000      -0.535660       -14.5761
  70   2.0000      -0.530011       -14.4223
  71   2.0000      -0.518389       -14.1061
  72   2.0000      -0.513127       -13.9629
  73   2.0000      -0.499298       -13.5866
  74   2.0000      -0.493423       -13.4267
  75   2.0000      -0.488520       -13.2933
  76   2.0000      -0.477146       -12.9838
  77   2.0000      -0.450157       -12.2494
  78   2.0000      -0.443317       -12.0633
  79   2.0000      -0.419914       -11.4264
  80   2.0000      -0.414662       -11.2835
  81   2.0000      -0.393842       -10.7170
  82   0.0000      -0.207192        -5.6380
  83   0.0000      -0.143430        -3.9029
  84   0.0000      -0.129741        -3.5304
  85   0.0000      -0.088027        -2.3953
  86   0.0000      -0.075561        -2.0561

MULLIKEN ATOMIC CHARGES
-----------------------
   0 Ir:    0.609246
   1 C :   -0.244850
   2 C :   -0.257117
   3 C :   -0.272860
   4 C :   -0.223826
   5 C :   -0.151809
   6 N :   -0.430890
   7 C :   -0.126716
   8 C :   -0.682145
   9 H :    0.269710
  10 H :    0.224214
  11 H :    0.254366
  12 C :   -0.633717
  13 H :    0.280517
  14 H :    0.259147
  15 H :    0.232525
  16 H :    0.234055
  17 C :    0.069476
  18 C :   -0.119176
  19 H :    0.286129
  20 C :   -0.579893
  21 C :   -0.092043
  22 S :    0.345526
  23 C :   -0.428167
  24 H :    0.470973
  25 H :    0.268689
  26 H :    0.298775
  27 H :    0.284578
  28 H :    0.281362
  29 H :    0.297752
  30 O :   -0.474712
  31 O :   -0.512810
  32 C :    0.628321
  33 C :   -0.743748
  34 H :    0.271838
  35 H :    0.274219
  36 H :    0.259677
  37 H :    0.281379
  38 H :    0.292003
Sum of atomic charges:    1.0000000

LOEWDIN ATOMIC CHARGES
----------------------
   0 Ir:   -0.259040
   1 C :   -0.059447
   2 C :   -0.097292
   3 C :   -0.097083
   4 C :   -0.042328
   5 C :   -0.016974
   6 N :   -0.000116
   7 C :   -0.069589
   8 C :   -0.362272
   9 H :    0.156404
  10 H :    0.132777
  11 H :    0.143661
  12 C :   -0.343622
  13 H :    0.155355
  14 H :    0.150900
  15 H :    0.137931
  16 H :    0.133496
  17 C :    0.027554
  18 C :   -0.183405
  19 H :    0.160865
  20 C :   -0.220486
  21 C :   -0.122611
  22 S :    0.502177
  23 C :   -0.258354
  24 H :    0.353830
  25 H :    0.163176
  26 H :    0.169776
  27 H :    0.181689
  28 H :    0.179116
  29 H :    0.188000
  30 O :   -0.262010
  31 O :   -0.185722
  32 C :    0.160806
  33 C :   -0.372350
  34 H :    0.163701
  35 H :    0.171391
  36 H :    0.154911
  37 H :    0.181391
  38 H :    0.183793

  Mayer bond orders larger than 0.100000
B(  0-Ir,  1-C ) :   0.4435 B(  0-Ir,  2-C ) :   0.3991 B(  0-Ir,  3-C ) :   0.4690
B(  0-Ir,  4-C ) :   0.4227 B(  0-Ir,  5-C ) :   0.3659 B(  0-Ir,  6-N ) :   0.4634
B(  0-Ir, 20-C ) :   0.4995 B(  0-Ir, 31-O ) :   0.5275 B(  1-C ,  2-C ) :   1.1266
B(  1-C ,  4-C ) :   1.2262 B(  1-C , 27-H ) :   0.9087 B(  2-C ,  5-C ) :   1.2188
B(  2-C , 28-H ) :   0.9102 B(  3-C ,  4-C ) :   1.1386 B(  3-C ,  5-C ) :   1.1730
B(  3-C , 37-H ) :   0.9136 B(  4-C , 38-H ) :   0.8995 B(  5-C , 29-H ) :   0.9013
B(  6-N ,  7-C ) :   0.8958 B(  6-N , 17-C ) :   1.6490 B(  7-C ,  8-C ) :   0.9903
B(  7-C , 12-C ) :   0.9662 B(  7-C , 13-H ) :   0.8758 B(  8-C ,  9-H ) :   0.9046
B(  8-C , 10-H ) :   0.9130 B(  8-C , 11-H ) :   0.9118 B( 12-C , 14-H ) :   0.9077
B( 12-C , 15-H ) :   0.9152 B( 12-C , 16-H ) :   0.9116 B( 17-C , 18-C ) :   1.1107
B( 17-C , 19-H ) :   0.8763 B( 18-C , 20-C ) :   1.2152 B( 18-C , 22-S ) :   1.2519
B( 20-C , 21-C ) :   1.2538 B( 20-C , 24-H ) :   0.3653 B( 21-C , 23-C ) :   1.5495
B( 21-C , 25-H ) :   0.9015 B( 22-S , 23-C ) :   1.2119 B( 23-C , 26-H ) :   0.8912
B( 24-H , 30-O ) :   0.3284 B( 30-O , 32-C ) :   1.5906 B( 31-O , 32-C ) :   1.3628
B( 32-C , 33-C ) :   0.9435 B( 33-C , 34-H ) :   0.9010 B( 33-C , 35-H ) :   0.8943
B( 33-C , 36-H ) :   0.9084

Dispersion correction           -0.030768990
FINAL SINGLE POINT ENERGY     -1288.399877424064

DIPOLE MOMENT
-------------
                                X             Y             Z
Electronic contribution:     37.99566     -73.05793      69.59033
Nuclear contribution   :    -38.62407      72.52087     -69.93703
                        -----------------------------------------
Total Dipole Moment    :     -0.62841      -0.53706      -0.34670
                        -----------------------------------------
Magnitude (a.u.)       :      0.89640
Magnitude (Debye)      :      2.27847

Rotational constants in cm-1:     0.010528     0.008954     0.008246
Rotational constants in MHz :   315.627924   268.440161   247.222641

                             ****ORCA TERMINATED NORMALLY****
TOTAL RUN TIME: 0 days 1 hours 57 minutes 54 seconds 757 msec
