                         Program Version 5.0.3 -  RELEASE  -
|  1> ! Opt PBEh-3c
|  2> %geom Constraints
|  3> { B 0 20 2.5142857142857142 C }
|  4> { B 24 30 1.4 C }
|  5>     end
|  6> end
|  7> %output
|  8> xyzfile=True
|  9> end
| 10> %scf
| 11> maxiter 250
| 12> end
| 13> %output
| 14> Print[P_Hirshfeld] = 1
| 15> end
| 16> % maxcore
| 17> 4000
| 18> *xyz 1 1
| 19> Ir   0.57508340  -0.73198981   0.47717869
| 20> C    0.01806291  -2.81005898   0.35019803
| 21> C    0.10565623  -2.36736099   1.72118127
| 22> C    2.18715630  -2.14725501   0.76424660
| 23> C    1.28064700  -2.64595305  -0.24585060
| 24> C    1.47560584  -2.01571542   1.96880792
| 25> N   -1.04343993   0.16988199  -0.51447509
| 26> C   -2.31777776   0.50530083   0.14046288
| 27> C   -3.13651647   1.53993430  -0.61431737
| 28> H   -3.97126136   1.85193316   0.01177177
| 29> H   -3.56937123   1.14940544  -1.53676999
| 30> H   -2.55616799   2.43327598  -0.84738998
| 31> C   -3.11648110  -0.76790294   0.39064970
| 32> H   -2.02918951   0.92993232   1.10357371
| 33> H   -4.03329584  -0.52393741   0.92512935
| 34> H   -3.39654142  -1.25088739  -0.54649772
| 35> H   -2.56863822  -1.48363007   1.00197622
| 36> C   -0.82998048   0.37608788  -1.75614388
| 37> C    0.52335830   0.15621799  -2.22150494
| 38> H   -1.60620172   0.73522225  -2.42601387
| 39> C    1.63045004   0.53912549  -1.47460171
| 40> C    2.83091472   0.12698278  -2.12143264
| 41> S    0.94080836  -0.63264236  -3.67991386
| 42> C    2.61175429  -0.50542761  -3.30500274
| 43> H    1.54401225   1.40666828  -0.66618069
| 44> H    3.81988942   0.34239001  -1.74366876
| 45> H    3.34533171  -0.88808420  -3.99849342
| 46> H   -0.87462690  -3.16609789  -0.14369124
| 47> H   -0.68100008  -2.40386245   2.46059188
| 48> H    1.86740915  -1.63155868   2.89964897
| 49> O    1.31535285   2.44239770   0.26933176
| 50> O    0.53569472   0.90146671   1.68203623
| 51> C    0.91196390   2.09955428   1.37830855
| 52> C    0.85616561   3.07791064   2.51760392
| 53> H    0.81593277   4.09813739   2.14588696
| 54> H    1.76192467   2.97683018   3.11875875
| 55> H    0.01039108   2.88610256   3.17460167
| 56> H    3.23114651  -1.91456662   0.61484934
| 57> H    1.53514797  -2.85863726  -1.27410552
| 58> *
| 59>
| 60>                          ****END OF INPUT****
 Total Charge           Charge          ....    1
 Multiplicity           Mult            ....    1
 Number of Electrons    NEL             ....  164
Dispersion correction           -0.030955475
FINAL SINGLE POINT ENERGY     -1288.395807218904
Dispersion correction            ... done
Dispersion correction           -0.030996182
FINAL SINGLE POINT ENERGY     -1288.394151369638
Dispersion correction            ... done
Dispersion correction           -0.030935126
FINAL SINGLE POINT ENERGY     -1288.395862058897
Dispersion correction            ... done
FINAL SINGLE POINT ENERGY     -1288.393938784200
FINAL SINGLE POINT ENERGY     -1288.395969074666
FINAL SINGLE POINT ENERGY     -1288.395995115369
FINAL SINGLE POINT ENERGY     -1288.396012728827
FINAL SINGLE POINT ENERGY     -1288.396023655503
FINAL SINGLE POINT ENERGY     -1288.396034239836
Dispersion correction            ... done
Dispersion correction           -0.030834360
FINAL SINGLE POINT ENERGY     -1288.396046283459
Dispersion correction            ... done
Dispersion correction           -0.030831388
FINAL SINGLE POINT ENERGY     -1288.396048746212
Dispersion correction            ... done
                    ***********************HURRAY********************

CARTESIAN COORDINATES (ANGSTROEM)
---------------------------------
  Ir     0.580080   -0.729240    0.480621
  C      0.024142   -2.808505    0.359547
  C      0.097661   -2.363469    1.729720
  C      2.189147   -2.143438    0.791665
  C      1.292628   -2.645887   -0.225372
  C      1.464011   -2.007684    1.988284
  N     -1.042770    0.160415   -0.513965
  C     -2.318699    0.484233    0.144488
  C     -3.126335    1.547408   -0.582717
  H     -3.958243    1.851447    0.051110
  H     -3.563142    1.187509   -1.515659
  H     -2.535461    2.439814   -0.791388
  C     -3.126733   -0.790876    0.351965
  H     -2.033365    0.878129    1.121445
  H     -4.045186   -0.557712    0.888536
  H     -3.403895   -1.243988   -0.600801
  H     -2.585996   -1.527948    0.943921
  C     -0.839450    0.368368   -1.757962
  C      0.510017    0.161693   -2.232967
  H     -1.624650    0.720341   -2.421096
  C      1.613171    0.496019   -1.456670
  C      2.815959    0.102353   -2.109358
  S      0.934511   -0.563295   -3.720082
  C      2.602099   -0.471661   -3.323920
  H      1.535531    1.380287   -0.646346
  H      3.803465    0.289772   -1.713268
  H      3.338358   -0.828288   -4.028378
  H     -0.862977   -3.166675   -0.142797
  H     -0.696346   -2.398362    2.461169
  H      1.846356   -1.619850    2.921542
  O      1.338887    2.433532    0.254767
  O      0.535498    0.914601    1.677116
  C      0.924993    2.104034    1.366160
  C      0.874666    3.096667    2.492662
  H      0.833015    4.112345    2.108843
  H      1.783897    3.002755    3.089775
  H      0.032259    2.912460    3.155943
  H      3.235459   -1.914248    0.654182
  H      1.556807   -2.863865   -1.249975

 Multiplicity           Mult            ....    1
 Number of Electrons    NEL             ....  164
 Basis Dimension        Dim             ....  358

ORBITAL ENERGIES
----------------

  NO   OCC          E(Eh)            E(eV)
   0   2.0000     -89.759793     -2442.4881
   1   2.0000     -19.624667      -534.0143
   2   2.0000     -19.589200      -533.0492
   3   2.0000     -14.840256      -403.8239
   4   2.0000     -10.682105      -290.6749
   5   2.0000     -10.661379      -290.1109
   6   2.0000     -10.638100      -289.4774
   7   2.0000     -10.634924      -289.3910
   8   2.0000     -10.634340      -289.3751
   9   2.0000     -10.632680      -289.3299
  10   2.0000     -10.631728      -289.3040
  11   2.0000     -10.629492      -289.2432
  12   2.0000     -10.616175      -288.8808
  13   2.0000     -10.608375      -288.6686
  14   2.0000     -10.581902      -287.9482
  15   2.0000     -10.579799      -287.8910
  16   2.0000     -10.557179      -287.2754
  17   2.0000     -10.552071      -287.1364
  18   2.0000     -10.533367      -286.6275
  19   2.0000      -8.399137      -228.5521
  20   2.0000      -6.289202      -171.1379
  21   2.0000      -6.285571      -171.0391
  22   2.0000      -6.283875      -170.9929
  23   2.0000      -4.030752      -109.6823
  24   2.0000      -2.350052       -63.9482
  25   2.0000      -2.315724       -63.0140
  26   2.0000      -2.314059       -62.9687
  27   2.0000      -1.306756       -35.5586
  28   2.0000      -1.212856       -33.0035
  29   2.0000      -1.209733       -32.9185
  30   2.0000      -1.174536       -31.9607
  31   2.0000      -1.124231       -30.5919
  32   2.0000      -1.026327       -27.9278
  33   2.0000      -0.989325       -26.9209
  34   2.0000      -0.979496       -26.6534
  35   2.0000      -0.963808       -26.2266
  36   2.0000      -0.957750       -26.0617
  37   2.0000      -0.927689       -25.2437
  38   2.0000      -0.903443       -24.5839
  39   2.0000      -0.872824       -23.7508
  40   2.0000      -0.797158       -21.6918
  41   2.0000      -0.790344       -21.5063
  42   2.0000      -0.788679       -21.4610
  43   2.0000      -0.780055       -21.2264
  44   2.0000      -0.773415       -21.0457
  45   2.0000      -0.756786       -20.5932
  46   2.0000      -0.743934       -20.2435
  47   2.0000      -0.722528       -19.6610
  48   2.0000      -0.694131       -18.8883
  49   2.0000      -0.673942       -18.3389
  50   2.0000      -0.665026       -18.0963
  51   2.0000      -0.651627       -17.7317
  52   2.0000      -0.649020       -17.6607
  53   2.0000      -0.640857       -17.4386
  54   2.0000      -0.637795       -17.3553
  55   2.0000      -0.630541       -17.1579
  56   2.0000      -0.623830       -16.9753
  57   2.0000      -0.611419       -16.6375
  58   2.0000      -0.609922       -16.5968
  59   2.0000      -0.608422       -16.5560
  60   2.0000      -0.596593       -16.2341
  61   2.0000      -0.587714       -15.9925
  62   2.0000      -0.576333       -15.6828
  63   2.0000      -0.569555       -15.4984
  64   2.0000      -0.563111       -15.3230
  65   2.0000      -0.555209       -15.1080
  66   2.0000      -0.552643       -15.0382
  67   2.0000      -0.548533       -14.9263
  68   2.0000      -0.539371       -14.6770
  69   2.0000      -0.534793       -14.5524
  70   2.0000      -0.528062       -14.3693
  71   2.0000      -0.521158       -14.1814
  72   2.0000      -0.516141       -14.0449
  73   2.0000      -0.507185       -13.8012
  74   2.0000      -0.489987       -13.3332
  75   2.0000      -0.480999       -13.0887
  76   2.0000      -0.464433       -12.6379
  77   2.0000      -0.450641       -12.2626
  78   2.0000      -0.441529       -12.0146
  79   2.0000      -0.422484       -11.4964
  80   2.0000      -0.417269       -11.3545
  81   2.0000      -0.403479       -10.9792
  82   0.0000      -0.200769        -5.4632
  83   0.0000      -0.164898        -4.4871
  84   0.0000      -0.141645        -3.8544
  85   0.0000      -0.098634        -2.6840
  86   0.0000      -0.076248        -2.0748

MULLIKEN ATOMIC CHARGES
-----------------------
   0 Ir:    0.619229
   1 C :   -0.208374
   2 C :   -0.294286
   3 C :   -0.231937
   4 C :   -0.245342
   5 C :   -0.166505
   6 N :   -0.428988
   7 C :   -0.117955
   8 C :   -0.694236
   9 H :    0.272646
  10 H :    0.226098
  11 H :    0.260558
  12 C :   -0.639091
  13 H :    0.280922
  14 H :    0.264808
  15 H :    0.230893
  16 H :    0.232443
  17 C :    0.068168
  18 C :   -0.208086
  19 H :    0.291515
  20 C :   -0.418426
  21 C :   -0.142025
  22 S :    0.296762
  23 C :   -0.428693
  24 H :    0.500659
  25 H :    0.265573
  26 H :    0.296474
  27 H :    0.292650
  28 H :    0.293766
  29 H :    0.306793
  30 O :   -0.485088
  31 O :   -0.541280
  32 C :    0.616327
  33 C :   -0.745895
  34 H :    0.269460
  35 H :    0.266166
  36 H :    0.252885
  37 H :    0.295525
  38 H :    0.295887
Sum of atomic charges:    1.0000000

LOEWDIN ATOMIC CHARGES
----------------------
   0 Ir:   -0.213610
   1 C :   -0.039087
   2 C :   -0.058572
   3 C :   -0.048083
   4 C :   -0.054900
   5 C :   -0.026078
   6 N :   -0.008576
   7 C :   -0.068473
   8 C :   -0.364746
   9 H :    0.157464
  10 H :    0.133880
  11 H :    0.146835
  12 C :   -0.343586
  13 H :    0.156307
  14 H :    0.153146
  15 H :    0.137278
  16 H :    0.134062
  17 C :    0.036269
  18 C :   -0.190287
  19 H :    0.162675
  20 C :   -0.189941
  21 C :   -0.143349
  22 S :    0.460627
  23 C :   -0.262471
  24 H :    0.289179
  25 H :    0.161614
  26 H :    0.167443
  27 H :    0.185909
  28 H :    0.186410
  29 H :    0.193793
  30 O :   -0.277444
  31 O :   -0.207479
  32 C :    0.155747
  33 C :   -0.376208
  34 H :    0.159702
  35 H :    0.167041
  36 H :    0.153080
  37 H :    0.187920
  38 H :    0.186509

  Mayer bond orders larger than 0.100000
B(  0-Ir,  1-C ) :   0.4214 B(  0-Ir,  2-C ) :   0.5467 B(  0-Ir,  3-C ) :   0.4622
B(  0-Ir,  4-C ) :   0.4533 B(  0-Ir,  5-C ) :   0.4032 B(  0-Ir,  6-N ) :   0.4657
B(  0-Ir, 20-C ) :   0.2311 B(  0-Ir, 31-O ) :   0.5842 B(  1-C ,  2-C ) :   1.1145
B(  1-C ,  4-C ) :   1.2449 B(  1-C , 27-H ) :   0.9028 B(  2-C ,  5-C ) :   1.1309
B(  2-C , 28-H ) :   0.9067 B(  3-C ,  4-C ) :   1.1047 B(  3-C ,  5-C ) :   1.2349
B(  3-C , 37-H ) :   0.9031 B(  4-C , 38-H ) :   0.8984 B(  5-C , 29-H ) :   0.8978
B(  6-N ,  7-C ) :   0.8912 B(  6-N , 17-C ) :   1.6922 B(  7-C ,  8-C ) :   0.9924
B(  7-C , 12-C ) :   0.9693 B(  7-C , 13-H ) :   0.8722 B(  8-C ,  9-H ) :   0.9034
B(  8-C , 10-H ) :   0.9124 B(  8-C , 11-H ) :   0.9081 B( 12-C , 14-H ) :   0.9063
B( 12-C , 15-H ) :   0.9153 B( 12-C , 16-H ) :   0.9112 B( 17-C , 18-C ) :   1.0550
B( 17-C , 19-H ) :   0.8739 B( 18-C , 20-C ) :   1.3027 B( 18-C , 22-S ) :   1.2167
B( 20-C , 21-C ) :   1.2684 B( 20-C , 24-H ) :   0.4790 B( 21-C , 23-C ) :   1.5458
B( 21-C , 25-H ) :   0.9046 B( 22-S , 23-C ) :   1.2038 B( 23-C , 26-H ) :   0.8926
B( 24-H , 30-O ) :   0.2330 B( 30-O , 32-C ) :   1.6909 B( 31-O , 32-C ) :   1.2752
B( 32-C , 33-C ) :   0.9471 B( 33-C , 34-H ) :   0.9051 B( 33-C , 35-H ) :   0.8987
B( 33-C , 36-H ) :   0.9095

Dispersion correction           -0.030827983
FINAL SINGLE POINT ENERGY     -1288.396050654909

DIPOLE MOMENT
-------------
                                X             Y             Z
Electronic contribution:     34.23283     -68.37081      75.37562
Nuclear contribution   :    -34.86388      67.14134     -75.58296
                        -----------------------------------------
Total Dipole Moment    :     -0.63105      -1.22947      -0.20734
                        -----------------------------------------
Magnitude (a.u.)       :      1.39743
Magnitude (Debye)      :      3.55199

Rotational constants in cm-1:     0.010682     0.009039     0.008227
Rotational constants in MHz :   320.252753   270.975174   246.631229

                             ****ORCA TERMINATED NORMALLY****
TOTAL RUN TIME: 0 days 1 hours 38 minutes 28 seconds 80 msec
