                         Program Version 5.0.3 -  RELEASE  -
|  1> ! Opt PBEh-3c
|  2> %geom Constraints
|  3> { B 0 20 2.1285714285714286 C }
|  4> { B 24 30 1.4714285714285715 C }
|  5>     end
|  6> end
|  7> %output
|  8> xyzfile=True
|  9> end
| 10> %scf
| 11> maxiter 250
| 12> end
| 13> %output
| 14> Print[P_Hirshfeld] = 1
| 15> end
| 16> % maxcore
| 17> 4000
| 18> *xyz 1 1
| 19> Ir   0.63427814  -0.71289126   0.41395630
| 20> C    0.14286851  -2.82896825   0.30967172
| 21> C    0.02848555  -2.37797086   1.67138286
| 22> C    2.21733038  -2.07718551   0.99308832
| 23> C    1.47592696  -2.64294595  -0.10689612
| 24> C    1.32155968  -1.94564184   2.08055935
| 25> N   -1.04897046   0.13740888  -0.51803691
| 26> C   -2.30645158   0.40546054   0.19621863
| 27> C   -3.08166581   1.59111741  -0.35903824
| 28> H   -3.89889042   1.82771733   0.32089423
| 29> H   -3.53495882   1.38433861  -1.32941447
| 30> H   -2.45867735   2.48173588  -0.44381558
| 31> C   -3.15367703  -0.86202800   0.21779357
| 32> H   -2.00330657   0.64099610   1.21709037
| 33> H   -4.04472560  -0.69922642   0.82244125
| 34> H   -3.47760176  -1.13765005  -0.78662029
| 35> H   -2.61489020  -1.70507461   0.64786991
| 36> C   -0.90278187   0.39911555  -1.76290471
| 37> C    0.42404209   0.19287740  -2.27589108
| 38> H   -1.70939134   0.78832108  -2.37627090
| 39> C    1.48730747   0.18960855  -1.36731767
| 40> C    2.70457986  -0.12370499  -2.05080664
| 41> S    0.88963264  -0.17501019  -3.86165061
| 42> C    2.53036812  -0.34192798  -3.38076391
| 43> H    1.52826315   1.18175019  -0.67131476
| 44> H    3.67523913  -0.12987931  -1.57656554
| 45> H    3.28264530  -0.56851079  -4.12094187
| 46> H   -0.65508604  -3.23788030  -0.29313122
| 47> H   -0.85060981  -2.42749163   2.29597488
| 48> H    1.56251147  -1.51692202   3.04305919
| 49> O    1.44933532   2.42514574   0.13805836
| 50> O    0.56125069   0.97518956   1.57644716
| 51> C    0.98607952   2.14059526   1.24604174
| 52> C    0.91969543   3.17912592   2.33040897
| 53> H    0.87532858   4.17870530   1.90652110
| 54> H    1.82573331   3.11491585   2.93592221
| 55> H    0.07257919   3.01485680   2.99241773
| 56> H    3.27256039  -1.85180511   1.00748629
| 57> H    1.87345383  -2.88707695  -1.08118349
| 58> *
| 59>
| 60>                          ****END OF INPUT****
 Total Charge           Charge          ....    1
 Multiplicity           Mult            ....    1
 Number of Electrons    NEL             ....  164
Dispersion correction           -0.031045983
FINAL SINGLE POINT ENERGY     -1288.398587011995
Dispersion correction            ... done
Dispersion correction           -0.030970867
FINAL SINGLE POINT ENERGY     -1288.398560871821
Dispersion correction            ... done
Dispersion correction           -0.030980221
FINAL SINGLE POINT ENERGY     -1288.398282502010
Dispersion correction            ... done
FINAL SINGLE POINT ENERGY     -1288.398896544402
FINAL SINGLE POINT ENERGY     -1288.398939515840
FINAL SINGLE POINT ENERGY     -1288.398992184602
FINAL SINGLE POINT ENERGY     -1288.399016949488
FINAL SINGLE POINT ENERGY     -1288.399021002176
FINAL SINGLE POINT ENERGY     -1288.399024567793
FINAL SINGLE POINT ENERGY     -1288.399029740779
FINAL SINGLE POINT ENERGY     -1288.399036441835
Dispersion correction            ... done
Dispersion correction           -0.030889238
FINAL SINGLE POINT ENERGY     -1288.399038822720
Dispersion correction            ... done
Dispersion correction           -0.030877364
FINAL SINGLE POINT ENERGY     -1288.399040987543
Dispersion correction            ... done
                    ***********************HURRAY********************

CARTESIAN COORDINATES (ANGSTROEM)
---------------------------------
  Ir     0.630326   -0.715503    0.410802
  C      0.133984   -2.833043    0.330761
  C     -0.000115   -2.374711    1.687836
  C      2.199369   -2.078955    1.038146
  C      1.475315   -2.654878   -0.066204
  C      1.283846   -1.937164    2.110406
  N     -1.054629    0.135454   -0.518093
  C     -2.317025    0.377271    0.196166
  C     -3.109787    1.558993   -0.343304
  H     -3.931075    1.772537    0.339168
  H     -3.559202    1.358454   -1.316851
  H     -2.501545    2.460925   -0.414893
  C     -3.149094   -0.900684    0.195548
  H     -2.020491    0.602507    1.221510
  H     -4.048158   -0.756097    0.793066
  H     -3.459867   -1.167615   -0.815356
  H     -2.605350   -1.743005    0.620164
  C     -0.905951    0.436225   -1.754788
  C      0.416153    0.238557   -2.274204
  H     -1.711884    0.846988   -2.354481
  C      1.465861    0.127215   -1.356265
  C      2.683135   -0.158595   -2.053561
  S      0.893562    0.008960   -3.882083
  C      2.520888   -0.247359   -3.400352
  H      1.566709    1.140539   -0.658156
  H      3.647756   -0.234295   -1.573000
  H      3.277553   -0.426151   -4.149064
  H     -0.653399   -3.249294   -0.280765
  H     -0.888126   -2.418568    2.299871
  H      1.510157   -1.498878    3.072195
  O      1.573672    2.380200    0.134495
  O      0.562396    0.993482    1.553023
  C      1.045219    2.133545    1.225193
  C      0.969976    3.200234    2.280739
  H      0.958025    4.189393    1.830756
  H      1.857857    3.134130    2.912140
  H      0.101098    3.069179    2.921250
  H      3.255216   -1.858635    1.070071
  H      1.886996   -2.912169   -1.031145

 Multiplicity           Mult            ....    1
 Number of Electrons    NEL             ....  164
 Basis Dimension        Dim             ....  358

ORBITAL ENERGIES
----------------

  NO   OCC          E(Eh)            E(eV)
   0   2.0000     -89.769197     -2442.7440
   1   2.0000     -19.626498      -534.0642
   2   2.0000     -19.603947      -533.4505
   3   2.0000     -14.838451      -403.7748
   4   2.0000     -10.685642      -290.7711
   5   2.0000     -10.658284      -290.0267
   6   2.0000     -10.632947      -289.3372
   7   2.0000     -10.627687      -289.1941
   8   2.0000     -10.626647      -289.1658
   9   2.0000     -10.624554      -289.1088
  10   2.0000     -10.618342      -288.9398
  11   2.0000     -10.616441      -288.8880
  12   2.0000     -10.614082      -288.8239
  13   2.0000     -10.613206      -288.8000
  14   2.0000     -10.592358      -288.2327
  15   2.0000     -10.590398      -288.1794
  16   2.0000     -10.554905      -287.2136
  17   2.0000     -10.551311      -287.1158
  18   2.0000     -10.537619      -286.7432
  19   2.0000      -8.408577      -228.8090
  20   2.0000      -6.298437      -171.3892
  21   2.0000      -6.294844      -171.2914
  22   2.0000      -6.293607      -171.2577
  23   2.0000      -4.022699      -109.4632
  24   2.0000      -2.340214       -63.6805
  25   2.0000      -2.308651       -62.8216
  26   2.0000      -2.306112       -62.7525
  27   2.0000      -1.312005       -35.7015
  28   2.0000      -1.214358       -33.0444
  29   2.0000      -1.210549       -32.9407
  30   2.0000      -1.163192       -31.6521
  31   2.0000      -1.131793       -30.7976
  32   2.0000      -1.027054       -27.9476
  33   2.0000      -0.976004       -26.5584
  34   2.0000      -0.973583       -26.4925
  35   2.0000      -0.969179       -26.3727
  36   2.0000      -0.962255       -26.1843
  37   2.0000      -0.931133       -25.3374
  38   2.0000      -0.901459       -24.5300
  39   2.0000      -0.875374       -23.8201
  40   2.0000      -0.801196       -21.8016
  41   2.0000      -0.784972       -21.3602
  42   2.0000      -0.779333       -21.2067
  43   2.0000      -0.778542       -21.1852
  44   2.0000      -0.763973       -20.7888
  45   2.0000      -0.755234       -20.5510
  46   2.0000      -0.743738       -20.2381
  47   2.0000      -0.723758       -19.6945
  48   2.0000      -0.691043       -18.8042
  49   2.0000      -0.680339       -18.5130
  50   2.0000      -0.664851       -18.0915
  51   2.0000      -0.651324       -17.7234
  52   2.0000      -0.646718       -17.5981
  53   2.0000      -0.634601       -17.2684
  54   2.0000      -0.633011       -17.2251
  55   2.0000      -0.628861       -17.1122
  56   2.0000      -0.622704       -16.9446
  57   2.0000      -0.613708       -16.6998
  58   2.0000      -0.602445       -16.3934
  59   2.0000      -0.599527       -16.3140
  60   2.0000      -0.598826       -16.2949
  61   2.0000      -0.592841       -16.1320
  62   2.0000      -0.581800       -15.8316
  63   2.0000      -0.572512       -15.5788
  64   2.0000      -0.563928       -15.3453
  65   2.0000      -0.560582       -15.2542
  66   2.0000      -0.551812       -15.0156
  67   2.0000      -0.547979       -14.9113
  68   2.0000      -0.541637       -14.7387
  69   2.0000      -0.536772       -14.6063
  70   2.0000      -0.529122       -14.3981
  71   2.0000      -0.518913       -14.1203
  72   2.0000      -0.514279       -13.9942
  73   2.0000      -0.498722       -13.5709
  74   2.0000      -0.489289       -13.3142
  75   2.0000      -0.485531       -13.2120
  76   2.0000      -0.478263       -13.0142
  77   2.0000      -0.446618       -12.1531
  78   2.0000      -0.443219       -12.0606
  79   2.0000      -0.422483       -11.4964
  80   2.0000      -0.415604       -11.3092
  81   2.0000      -0.395754       -10.7690
  82   0.0000      -0.209824        -5.7096
  83   0.0000      -0.143385        -3.9017
  84   0.0000      -0.137421        -3.7394
  85   0.0000      -0.090848        -2.4721
  86   0.0000      -0.077043        -2.0964

MULLIKEN ATOMIC CHARGES
-----------------------
   0 Ir:    0.606821
   1 C :   -0.229932
   2 C :   -0.264514
   3 C :   -0.263569
   4 C :   -0.232551
   5 C :   -0.155061
   6 N :   -0.427907
   7 C :   -0.127671
   8 C :   -0.684117
   9 H :    0.270322
  10 H :    0.224042
  11 H :    0.257145
  12 C :   -0.634403
  13 H :    0.283156
  14 H :    0.260882
  15 H :    0.231682
  16 H :    0.233484
  17 C :    0.071385
  18 C :   -0.126279
  19 H :    0.288162
  20 C :   -0.566883
  21 C :   -0.093392
  22 S :    0.342485
  23 C :   -0.431849
  24 H :    0.473928
  25 H :    0.269263
  26 H :    0.299612
  27 H :    0.285928
  28 H :    0.284076
  29 H :    0.301075
  30 O :   -0.468987
  31 O :   -0.525190
  32 C :    0.620615
  33 C :   -0.743359
  34 H :    0.270251
  35 H :    0.269811
  36 H :    0.255508
  37 H :    0.283789
  38 H :    0.292241
Sum of atomic charges:    1.0000000

LOEWDIN ATOMIC CHARGES
----------------------
   0 Ir:   -0.254693
   1 C :   -0.052138
   2 C :   -0.092337
   3 C :   -0.087002
   4 C :   -0.048418
   5 C :   -0.015529
   6 N :    0.002005
   7 C :   -0.070093
   8 C :   -0.362728
   9 H :    0.156768
  10 H :    0.132802
  11 H :    0.144996
  12 C :   -0.343439
  13 H :    0.156761
  14 H :    0.151700
  15 H :    0.137500
  16 H :    0.133543
  17 C :    0.028574
  18 C :   -0.174603
  19 H :    0.161893
  20 C :   -0.216293
  21 C :   -0.118832
  22 S :    0.502442
  23 C :   -0.260340
  24 H :    0.332193
  25 H :    0.164019
  26 H :    0.169934
  27 H :    0.182241
  28 H :    0.180886
  29 H :    0.190088
  30 O :   -0.265108
  31 O :   -0.197510
  32 C :    0.154033
  33 C :   -0.373816
  34 H :    0.160834
  35 H :    0.169042
  36 H :    0.154168
  37 H :    0.182452
  38 H :    0.184007

  Mayer bond orders larger than 0.100000
B(  0-Ir,  1-C ) :   0.4253 B(  0-Ir,  2-C ) :   0.4301 B(  0-Ir,  3-C ) :   0.4640
B(  0-Ir,  4-C ) :   0.4291 B(  0-Ir,  5-C ) :   0.3817 B(  0-Ir,  6-N ) :   0.4629
B(  0-Ir, 20-C ) :   0.4422 B(  0-Ir, 31-O ) :   0.5504 B(  1-C ,  2-C ) :   1.1294
B(  1-C ,  4-C ) :   1.2373 B(  1-C , 27-H ) :   0.9071 B(  2-C ,  5-C ) :   1.1873
B(  2-C , 28-H ) :   0.9101 B(  3-C ,  4-C ) :   1.1251 B(  3-C ,  5-C ) :   1.1946
B(  3-C , 37-H ) :   0.9118 B(  4-C , 38-H ) :   0.8997 B(  5-C , 29-H ) :   0.9000
B(  6-N ,  7-C ) :   0.8945 B(  6-N , 17-C ) :   1.6571 B(  7-C ,  8-C ) :   0.9904
B(  7-C , 12-C ) :   0.9662 B(  7-C , 13-H ) :   0.8736 B(  8-C ,  9-H ) :   0.9043
B(  8-C , 10-H ) :   0.9131 B(  8-C , 11-H ) :   0.9105 B( 12-C , 14-H ) :   0.9073
B( 12-C , 15-H ) :   0.9154 B( 12-C , 16-H ) :   0.9118 B( 17-C , 18-C ) :   1.0990
B( 17-C , 19-H ) :   0.8761 B( 18-C , 20-C ) :   1.2218 B( 18-C , 22-S ) :   1.2610
B( 20-C , 21-C ) :   1.2501 B( 20-C , 24-H ) :   0.4183 B( 21-C , 23-C ) :   1.5570
B( 21-C , 25-H ) :   0.9018 B( 22-S , 23-C ) :   1.2043 B( 23-C , 26-H ) :   0.8909
B( 24-H , 30-O ) :   0.2882 B( 30-O , 32-C ) :   1.6493 B( 31-O , 32-C ) :   1.3179
B( 32-C , 33-C ) :   0.9433 B( 33-C , 34-H ) :   0.9037 B( 33-C , 35-H ) :   0.8968
B( 33-C , 36-H ) :   0.9089

Dispersion correction           -0.030867155
FINAL SINGLE POINT ENERGY     -1288.399041939782

DIPOLE MOMENT
-------------
                                X             Y             Z
Electronic contribution:     39.18015     -70.54929      69.84548
Nuclear contribution   :    -39.82742      69.73121     -70.29171
                        -----------------------------------------
Total Dipole Moment    :     -0.64727      -0.81808      -0.44623
                        -----------------------------------------
Magnitude (a.u.)       :      1.13461
Magnitude (Debye)      :      2.88394

Rotational constants in cm-1:     0.010537     0.009089     0.008229
Rotational constants in MHz :   315.897148   272.480540   246.691247

                             ****ORCA TERMINATED NORMALLY****
TOTAL RUN TIME: 0 days 1 hours 43 minutes 54 seconds 972 msec
