                         Program Version 5.0.3 -  RELEASE  -
|  1> ! Opt PBEh-3c
|  2> %geom Constraints
|  3> { B 0 20 2.0 C }
|  4> { B 24 30 1.3142857142857143 C }
|  5>     end
|  6> end
|  7> %output
|  8> xyzfile=True
|  9> end
| 10> %scf
| 11> maxiter 250
| 12> end
| 13> %output
| 14> Print[P_Hirshfeld] = 1
| 15> end
| 16> % maxcore
| 17> 4000
| 18> %pal nprocs 4
| 19> end
| 20> *xyz 1 1
| 21> Ir   0.61200679  -0.74768475   0.39953668
| 22> C    0.17693632  -2.86332327   0.33225393
| 23> C   -0.13141170  -2.43442910   1.67449999
| 24> C    2.11454748  -2.04459885   1.28616169
| 25> C    1.56281891  -2.66052532   0.11827602
| 26> C    1.05561395  -1.94536371   2.24379761
| 27> N   -1.08644023   0.09641857  -0.50504328
| 28> C   -2.35818919   0.25925671   0.21445365
| 29> C   -3.14465778   1.49430852  -0.20092662
| 30> H   -3.97774033   1.62901601   0.48708491
| 31> H   -3.57582712   1.40868471  -1.19927755
| 32> H   -2.53512477   2.39723976  -0.15868104
| 33> C   -3.18873364  -1.01026349   0.06269487
| 34> H   -2.07892514   0.37462698   1.26295828
| 35> H   -4.08909336  -0.94231040   0.67207993
| 36> H   -3.49696128  -1.15532235  -0.97348812
| 37> H   -2.64201904  -1.89712641   0.37938058
| 38> C   -0.94154880   0.49326053  -1.71703711
| 39> C    0.37216882   0.32805220  -2.25524737
| 40> H   -1.75200258   0.94736224  -2.27757560
| 41> C    1.37704501  -0.03309322  -1.35469845
| 42> C    2.60444430  -0.22343455  -2.06529386
| 43> S    0.90417235   0.45754305  -3.86244132
| 44> C    2.49064405   0.01320485  -3.40320924
| 45> H    1.64815763   1.19861583  -0.71811702
| 46> H    3.54496045  -0.47238152  -1.59507824
| 47> H    3.27010125  -0.03473377  -4.14850182
| 48> H   -0.50558104  -3.32805698  -0.36404540
| 49> H   -1.09068444  -2.49733757   2.16477781
| 50> H    1.14217660  -1.49780847   3.22367813
| 51> O    1.77426729   2.31119747  -0.00302227
| 52> O    0.62636534   1.05880202   1.43757379
| 53> C    1.19309180   2.13211058   1.09775058
| 54> C    1.19933026   3.26376460   2.08024983
| 55> H    1.07774059   4.21744731   1.57168371
| 56> H    2.16710743   3.28800499   2.58431565
| 57> H    0.42615388   3.13893045   2.83271036
| 58> H    3.15267740  -1.80732620   1.45975083
| 59> H    2.10178267  -2.91353753  -0.78324439
| 60> *
| 61>
| 62>                          ****END OF INPUT****
 Total Charge           Charge          ....    1
 Multiplicity           Mult            ....    1
 Number of Electrons    NEL             ....  164
Dispersion correction           -0.030772879
FINAL SINGLE POINT ENERGY     -1288.403698310992
Dispersion correction            ... done
Dispersion correction           -0.030746706
FINAL SINGLE POINT ENERGY     -1288.403925087854
Dispersion correction            ... done
Dispersion correction           -0.030742082
FINAL SINGLE POINT ENERGY     -1288.404027528598
Dispersion correction            ... done
FINAL SINGLE POINT ENERGY     -1288.404102645098
FINAL SINGLE POINT ENERGY     -1288.404169653526
FINAL SINGLE POINT ENERGY     -1288.404213167888
FINAL SINGLE POINT ENERGY     -1288.404237619513
FINAL SINGLE POINT ENERGY     -1288.404257978996
FINAL SINGLE POINT ENERGY     -1288.404266723857
FINAL SINGLE POINT ENERGY     -1288.404273194792
FINAL SINGLE POINT ENERGY     -1288.404275562115
FINAL SINGLE POINT ENERGY     -1288.404276004769
FINAL SINGLE POINT ENERGY     -1288.404274848544
Dispersion correction            ... done
Dispersion correction           -0.030724803
FINAL SINGLE POINT ENERGY     -1288.404273637269
Dispersion correction            ... done
Dispersion correction           -0.030724078
FINAL SINGLE POINT ENERGY     -1288.404274761579
Dispersion correction            ... done
                    ***********************HURRAY********************

CARTESIAN COORDINATES (ANGSTROEM)
---------------------------------
  Ir     0.605371   -0.750015    0.381798
  C      0.193907   -2.867852    0.332820
  C     -0.154275   -2.447974    1.669703
  C      2.091998   -2.020752    1.337084
  C      1.586193   -2.653644    0.161310
  C      1.003148   -1.938810    2.268855
  N     -1.102099    0.089786   -0.505003
  C     -2.374773    0.228165    0.217244
  C     -3.164796    1.471470   -0.164827
  H     -4.000355    1.583719    0.524255
  H     -3.592925    1.412669   -1.166450
  H     -2.558324    2.374721   -0.095393
  C     -3.200997   -1.039472    0.030263
  H     -2.097083    0.315847    1.268955
  H     -4.098612   -0.994427    0.645833
  H     -3.513870   -1.152887   -1.008458
  H     -2.648898   -1.933904    0.314940
  C     -0.957197    0.514676   -1.707893
  C      0.355913    0.353534   -2.245557
  H     -1.766539    0.982529   -2.258424
  C      1.341138   -0.074901   -1.351080
  C      2.575332   -0.246306   -2.057185
  S      0.911893    0.559372   -3.838379
  C      2.482532    0.064495   -3.382804
  H      1.684883    1.228442   -0.768603
  H      3.505476   -0.539274   -1.591627
  H      3.271661    0.041485   -4.119043
  H     -0.460369   -3.352232   -0.376986
  H     -1.127945   -2.518449    2.129690
  H      1.056338   -1.489211    3.249991
  O      1.832949    2.315447   -0.044832
  O      0.648689    1.081521    1.385727
  C      1.238511    2.140431    1.054598
  C      1.266653    3.272186    2.035775
  H      1.164134    4.228267    1.527490
  H      2.234102    3.277295    2.541121
  H      0.490122    3.161745    2.786930
  H      3.121859   -1.770835    1.539964
  H      2.155626   -2.907665   -0.721062

 Multiplicity           Mult            ....    1
 Number of Electrons    NEL             ....  164
 Basis Dimension        Dim             ....  358

ORBITAL ENERGIES
----------------

  NO   OCC          E(Eh)            E(eV)
   0   2.0000     -89.761127     -2442.5244
   1   2.0000     -19.648220      -534.6553
   2   2.0000     -19.644893      -534.5647
   3   2.0000     -14.828463      -403.5030
   4   2.0000     -10.710931      -291.4592
   5   2.0000     -10.650585      -289.8171
   6   2.0000     -10.619587      -288.9737
   7   2.0000     -10.619091      -288.9601
   8   2.0000     -10.617393      -288.9139
   9   2.0000     -10.614682      -288.8402
  10   2.0000     -10.610989      -288.7397
  11   2.0000     -10.610259      -288.7198
  12   2.0000     -10.608895      -288.6827
  13   2.0000     -10.605089      -288.5791
  14   2.0000     -10.593212      -288.2559
  15   2.0000     -10.589085      -288.1437
  16   2.0000     -10.552797      -287.1562
  17   2.0000     -10.550795      -287.1017
  18   2.0000     -10.549348      -287.0623
  19   2.0000      -8.400461      -228.5882
  20   2.0000      -6.290349      -171.1691
  21   2.0000      -6.286892      -171.0750
  22   2.0000      -6.285350      -171.0331
  23   2.0000      -4.014587      -109.2425
  24   2.0000      -2.330677       -63.4209
  25   2.0000      -2.302519       -62.6547
  26   2.0000      -2.297909       -62.5293
  27   2.0000      -1.340013       -36.4636
  28   2.0000      -1.242522       -33.8107
  29   2.0000      -1.203179       -32.7402
  30   2.0000      -1.152797       -31.3692
  31   2.0000      -1.126155       -30.6442
  32   2.0000      -1.022590       -27.8261
  33   2.0000      -0.968719       -26.3602
  34   2.0000      -0.966769       -26.3071
  35   2.0000      -0.959346       -26.1051
  36   2.0000      -0.955306       -25.9952
  37   2.0000      -0.948905       -25.8210
  38   2.0000      -0.898207       -24.4415
  39   2.0000      -0.869404       -23.6577
  40   2.0000      -0.795828       -21.6556
  41   2.0000      -0.780866       -21.2484
  42   2.0000      -0.773649       -21.0521
  43   2.0000      -0.770182       -20.9577
  44   2.0000      -0.767658       -20.8890
  45   2.0000      -0.754717       -20.5369
  46   2.0000      -0.740771       -20.1574
  47   2.0000      -0.721384       -19.6299
  48   2.0000      -0.704930       -19.1821
  49   2.0000      -0.683100       -18.5881
  50   2.0000      -0.671151       -18.2630
  51   2.0000      -0.664620       -18.0852
  52   2.0000      -0.653781       -17.7903
  53   2.0000      -0.637331       -17.3427
  54   2.0000      -0.627732       -17.0815
  55   2.0000      -0.621037       -16.8993
  56   2.0000      -0.617766       -16.8103
  57   2.0000      -0.609585       -16.5876
  58   2.0000      -0.599191       -16.3048
  59   2.0000      -0.593038       -16.1374
  60   2.0000      -0.590181       -16.0596
  61   2.0000      -0.588371       -16.0104
  62   2.0000      -0.577714       -15.7204
  63   2.0000      -0.576835       -15.6965
  64   2.0000      -0.562147       -15.2968
  65   2.0000      -0.561229       -15.2718
  66   2.0000      -0.560229       -15.2446
  67   2.0000      -0.544438       -14.8149
  68   2.0000      -0.542398       -14.7594
  69   2.0000      -0.536482       -14.5984
  70   2.0000      -0.530219       -14.4280
  71   2.0000      -0.518740       -14.1156
  72   2.0000      -0.512783       -13.9535
  73   2.0000      -0.507139       -13.8000
  74   2.0000      -0.504410       -13.7257
  75   2.0000      -0.490714       -13.3530
  76   2.0000      -0.472876       -12.8676
  77   2.0000      -0.454553       -12.3690
  78   2.0000      -0.441514       -12.0142
  79   2.0000      -0.416232       -11.3262
  80   2.0000      -0.411831       -11.2065
  81   2.0000      -0.389712       -10.6046
  82   0.0000      -0.196965        -5.3597
  83   0.0000      -0.143540        -3.9059
  84   0.0000      -0.114538        -3.1167
  85   0.0000      -0.085412        -2.3242
  86   0.0000      -0.079707        -2.1689

MULLIKEN ATOMIC CHARGES
-----------------------
   0 Ir:    0.610413
   1 C :   -0.279305
   2 C :   -0.238410
   3 C :   -0.287305
   4 C :   -0.208355
   5 C :   -0.151536
   6 N :   -0.440033
   7 C :   -0.125379
   8 C :   -0.676367
   9 H :    0.267565
  10 H :    0.224298
  11 H :    0.250582
  12 C :   -0.631537
  13 H :    0.272096
  14 H :    0.255682
  15 H :    0.233455
  16 H :    0.234945
  17 C :    0.073528
  18 C :   -0.135370
  19 H :    0.282747
  20 C :   -0.550128
  21 C :   -0.107773
  22 S :    0.342380
  23 C :   -0.417992
  24 H :    0.478559
  25 H :    0.266382
  26 H :    0.297930
  27 H :    0.282119
  28 H :    0.277214
  29 H :    0.290168
  30 O :   -0.489791
  31 O :   -0.485645
  32 C :    0.638197
  33 C :   -0.743556
  34 H :    0.276448
  35 H :    0.279488
  36 H :    0.267298
  37 H :    0.277001
  38 H :    0.289985
Sum of atomic charges:    1.0000000

LOEWDIN ATOMIC CHARGES
----------------------
   0 Ir:   -0.266903
   1 C :   -0.073100
   2 C :   -0.096932
   3 C :   -0.108019
   4 C :   -0.036517
   5 C :   -0.029499
   6 N :   -0.007984
   7 C :   -0.068913
   8 C :   -0.361222
   9 H :    0.155372
  10 H :    0.132676
  11 H :    0.141868
  12 C :   -0.344364
  13 H :    0.151112
  14 H :    0.149370
  15 H :    0.138455
  16 H :    0.133766
  17 C :    0.028910
  18 C :   -0.209865
  19 H :    0.159201
  20 C :   -0.199676
  21 C :   -0.141582
  22 S :    0.493602
  23 C :   -0.253487
  24 H :    0.387331
  25 H :    0.161848
  26 H :    0.169612
  27 H :    0.180568
  28 H :    0.176120
  29 H :    0.183209
  30 O :   -0.250058
  31 O :   -0.160822
  32 C :    0.173799
  33 C :   -0.370289
  34 H :    0.166670
  35 H :    0.174643
  36 H :    0.159194
  37 H :    0.179054
  38 H :    0.182855

  Mayer bond orders larger than 0.100000
B(  0-Ir,  1-C ) :   0.4860 B(  0-Ir,  2-C ) :   0.3312 B(  0-Ir,  3-C ) :   0.4809
B(  0-Ir,  4-C ) :   0.4093 B(  0-Ir,  5-C ) :   0.3205 B(  0-Ir,  6-N ) :   0.4674
B(  0-Ir, 20-C ) :   0.6258 B(  0-Ir, 31-O ) :   0.4822 B(  1-C ,  2-C ) :   1.1195
B(  1-C ,  4-C ) :   1.2005 B(  1-C , 27-H ) :   0.9116 B(  2-C ,  5-C ) :   1.2963
B(  2-C , 28-H ) :   0.9099 B(  3-C ,  4-C ) :   1.1685 B(  3-C ,  5-C ) :   1.1340
B(  3-C , 37-H ) :   0.9159 B(  4-C , 38-H ) :   0.9003 B(  5-C , 29-H ) :   0.9044
B(  6-N ,  7-C ) :   0.8978 B(  6-N , 17-C ) :   1.6339 B(  7-C ,  8-C ) :   0.9898
B(  7-C , 12-C ) :   0.9681 B(  7-C , 13-H ) :   0.8810 B(  8-C ,  9-H ) :   0.9055
B(  8-C , 10-H ) :   0.9132 B(  8-C , 11-H ) :   0.9139 B( 12-C , 14-H ) :   0.9083
B( 12-C , 15-H ) :   0.9150 B( 12-C , 16-H ) :   0.9121 B( 17-C , 18-C ) :   1.1305
B( 17-C , 19-H ) :   0.8770 B( 18-C , 20-C ) :   1.2281 B( 18-C , 22-S ) :   1.2149
B( 20-C , 21-C ) :   1.2575 B( 20-C , 24-H ) :   0.2371 B( 21-C , 23-C ) :   1.5176
B( 21-C , 25-H ) :   0.9027 B( 22-S , 23-C ) :   1.2361 B( 23-C , 26-H ) :   0.8919
B( 24-H , 30-O ) :   0.4348 B( 30-O , 32-C ) :   1.4764 B( 31-O , 32-C ) :   1.4514
B( 32-C , 33-C ) :   0.9453 B( 33-C , 34-H ) :   0.8976 B( 33-C , 35-H ) :   0.8902
B( 33-C , 36-H ) :   0.9065

Dispersion correction           -0.030723728
FINAL SINGLE POINT ENERGY     -1288.404277239492

DIPOLE MOMENT
-------------
                                X             Y             Z
Electronic contribution:     36.68568     -77.04082      67.33332
Nuclear contribution   :    -37.18709      76.99404     -67.42914
                        -----------------------------------------
Total Dipole Moment    :     -0.50141      -0.04678      -0.09582
                        -----------------------------------------
Magnitude (a.u.)       :      0.51263
Magnitude (Debye)      :      1.30299

Rotational constants in cm-1:     0.010628     0.008781     0.008247
Rotational constants in MHz :   318.625524   263.248081   247.228979

                             ****ORCA TERMINATED NORMALLY****
TOTAL RUN TIME: 0 days 0 hours 34 minutes 29 seconds 144 msec
