                         Program Version 5.0.3 -  RELEASE  -
|  1> ! Opt PBEh-3c
|  2> %geom Constraints
|  3> { B 0 20 2.3 C }
|  4> { B 24 30 1.3142857142857143 C }
|  5>     end
|  6> end
|  7> %output
|  8> xyzfile=True
|  9> end
| 10> %scf
| 11> maxiter 250
| 12> end
| 13> %output
| 14> Print[P_Hirshfeld] = 1
| 15> end
| 16> % maxcore
| 17> 4000
| 18> *xyz 1 1
| 19> Ir   0.59613293  -0.73641292   0.48810072
| 20> C    0.09353580  -2.83536038   0.37522547
| 21> C   -0.05582288  -2.36526053   1.72871866
| 22> C    2.15757053  -2.10484152   1.11527717
| 23> C    1.44005434  -2.66415944  -0.00369785
| 24> C    1.23509612  -1.95191623   2.17428754
| 25> N   -1.04937794   0.11617274  -0.50145539
| 26> C   -2.33396006   0.34507459   0.18182783
| 27> C   -3.11636571   1.52977616  -0.36706244
| 28> H   -3.95247315   1.73851070   0.29879442
| 29> H   -3.54455791   1.33682342  -1.35156820
| 30> H   -2.50722456   2.43236445  -0.41964670
| 31> C   -3.16294306  -0.93379810   0.14803452
| 32> H   -2.06889990   0.56505487   1.21695737
| 33> H   -4.07972707  -0.79691158   0.72005682
| 34> H   -3.44337893  -1.19374650  -0.87355289
| 35> H   -2.63075477  -1.77916787   0.58129757
| 36> C   -0.88433543   0.41197527  -1.73734026
| 37> C    0.43795023   0.25806125  -2.27436261
| 38> H   -1.69983039   0.79367526  -2.34475782
| 39> C    1.53596467   0.23453142  -1.42578617
| 40> C    2.72290235  -0.04217847  -2.15932862
| 41> S    0.84706683  -0.00740640  -3.90711513
| 42> C    2.49917306  -0.18501989  -3.49682926
| 43> H    1.63346909   1.20642109  -0.56640114
| 44> H    3.71085370  -0.07529649  -1.72363265
| 45> H    3.22667530  -0.36619489  -4.27350042
| 46> H   -0.69050356  -3.23970456  -0.24841768
| 47> H   -0.95109804  -2.40373235   2.33096193
| 48> H    1.45410822  -1.52027357   3.14079502
| 49> O    1.68634448   2.29324574   0.19591008
| 50> O    0.53787747   0.99706964   1.59488346
| 51> C    1.09335696   2.09782255   1.27229941
| 52> C    1.03949329   3.20046511   2.28734247
| 53> H    0.95776173   4.16818428   1.79821372
| 54> H    1.97165720   3.20237665   2.85523694
| 55> H    0.21954167   3.06298770   2.98696810
| 56> H    3.21282663  -1.88194981   1.15207180
| 57> H    1.86121079  -2.90807135  -0.96806559
| 58> *
| 59>
| 60>                          ****END OF INPUT****
 Total Charge           Charge          ....    1
 Multiplicity           Mult            ....    1
 Number of Electrons    NEL             ....  164
Dispersion correction           -0.030564840
FINAL SINGLE POINT ENERGY     -1288.401334303851
Dispersion correction            ... done
Dispersion correction           -0.030526106
FINAL SINGLE POINT ENERGY     -1288.401513342153
Dispersion correction            ... done
Dispersion correction           -0.030494398
FINAL SINGLE POINT ENERGY     -1288.401634244059
Dispersion correction            ... done
FINAL SINGLE POINT ENERGY     -1288.401685059925
FINAL SINGLE POINT ENERGY     -1288.401699322493
Dispersion correction            ... done
Dispersion correction           -0.030440859
FINAL SINGLE POINT ENERGY     -1288.401706536753
Dispersion correction            ... done
Dispersion correction           -0.030442130
FINAL SINGLE POINT ENERGY     -1288.401711264135
Dispersion correction            ... done
                    ***********************HURRAY********************

CARTESIAN COORDINATES (ANGSTROEM)
---------------------------------
  Ir     0.596578   -0.740231    0.481688
  C      0.080906   -2.837725    0.398355
  C     -0.070444   -2.358893    1.747616
  C      2.146409   -2.111454    1.136452
  C      1.430756   -2.678199    0.021362
  C      1.218696   -1.943691    2.190538
  N     -1.052500    0.109510   -0.505411
  C     -2.339029    0.322701    0.178980
  C     -3.128466    1.509495   -0.355683
  H     -3.965618    1.705027    0.312736
  H     -3.555411    1.325905   -1.342534
  H     -2.524677    2.416282   -0.397352
  C     -3.161967   -0.959500    0.128853
  H     -2.076900    0.531977    1.217162
  H     -4.082679   -0.832242    0.696861
  H     -3.435377   -1.211062   -0.896726
  H     -2.628772   -1.806622    0.557120
  C     -0.887220    0.430533   -1.735814
  C      0.432985    0.284047   -2.274564
  H     -1.702593    0.825684   -2.334348
  C      1.517515    0.177838   -1.415422
  C      2.709746   -0.068540   -2.150303
  S      0.861079    0.130636   -3.916632
  C      2.502079   -0.108948   -3.498169
  H      1.645880    1.186261   -0.554936
  H      3.690840   -0.154668   -1.706502
  H      3.237715   -0.249208   -4.275653
  H     -0.701967   -3.245111   -0.224751
  H     -0.967422   -2.388656    2.347572
  H      1.436811   -1.503119    3.153234
  O      1.729299    2.272869    0.179688
  O      0.541179    1.010330    1.574753
  C      1.117313    2.096179    1.253123
  C      1.072831    3.213576    2.251234
  H      0.997987    4.174790    1.748188
  H      2.005449    3.217038    2.818296
  H      0.251620    3.091627    2.951988
  H      3.203157   -1.896869    1.177651
  H      1.853581   -2.938379   -0.937910

 Multiplicity           Mult            ....    1
 Number of Electrons    NEL             ....  164
 Basis Dimension        Dim             ....  358

ORBITAL ENERGIES
----------------

  NO   OCC          E(Eh)            E(eV)
   0   2.0000     -89.757345     -2442.4215
   1   2.0000     -19.636980      -534.3494
   2   2.0000     -19.622003      -533.9418
   3   2.0000     -14.832115      -403.6024
   4   2.0000     -10.699219      -291.1405
   5   2.0000     -10.653920      -289.9079
   6   2.0000     -10.629630      -289.2469
   7   2.0000     -10.627747      -289.1957
   8   2.0000     -10.626213      -289.1539
   9   2.0000     -10.621041      -289.0132
  10   2.0000     -10.619481      -288.9708
  11   2.0000     -10.618345      -288.9398
  12   2.0000     -10.612498      -288.7807
  13   2.0000     -10.606154      -288.6081
  14   2.0000     -10.584825      -288.0277
  15   2.0000     -10.582573      -287.9665
  16   2.0000     -10.553495      -287.1752
  17   2.0000     -10.550069      -287.0820
  18   2.0000     -10.545268      -286.9513
  19   2.0000      -8.396808      -228.4888
  20   2.0000      -6.286722      -171.0704
  21   2.0000      -6.283185      -170.9741
  22   2.0000      -6.281715      -170.9342
  23   2.0000      -4.023491      -109.4848
  24   2.0000      -2.341404       -63.7128
  25   2.0000      -2.308858       -62.8272
  26   2.0000      -2.306082       -62.7517
  27   2.0000      -1.328087       -36.1391
  28   2.0000      -1.229581       -33.4586
  29   2.0000      -1.204099       -32.7652
  30   2.0000      -1.165127       -31.7047
  31   2.0000      -1.121956       -30.5300
  32   2.0000      -1.021762       -27.8036
  33   2.0000      -0.978411       -26.6239
  34   2.0000      -0.970745       -26.4153
  35   2.0000      -0.962407       -26.1884
  36   2.0000      -0.955488       -26.0002
  37   2.0000      -0.941014       -25.6063
  38   2.0000      -0.899792       -24.4846
  39   2.0000      -0.869022       -23.6473
  40   2.0000      -0.795061       -21.6347
  41   2.0000      -0.781000       -21.2521
  42   2.0000      -0.780452       -21.2372
  43   2.0000      -0.777625       -21.1603
  44   2.0000      -0.765688       -20.8354
  45   2.0000      -0.765064       -20.8185
  46   2.0000      -0.740409       -20.1476
  47   2.0000      -0.721971       -19.6458
  48   2.0000      -0.691619       -18.8199
  49   2.0000      -0.681947       -18.5567
  50   2.0000      -0.662341       -18.0232
  51   2.0000      -0.660872       -17.9832
  52   2.0000      -0.648767       -17.6539
  53   2.0000      -0.639239       -17.3946
  54   2.0000      -0.633864       -17.2483
  55   2.0000      -0.631896       -17.1948
  56   2.0000      -0.621127       -16.9017
  57   2.0000      -0.607308       -16.5257
  58   2.0000      -0.601028       -16.3548
  59   2.0000      -0.600307       -16.3352
  60   2.0000      -0.595470       -16.2036
  61   2.0000      -0.588761       -16.0210
  62   2.0000      -0.576053       -15.6752
  63   2.0000      -0.568776       -15.4772
  64   2.0000      -0.562281       -15.3004
  65   2.0000      -0.560539       -15.2530
  66   2.0000      -0.555812       -15.1244
  67   2.0000      -0.546587       -14.8734
  68   2.0000      -0.541139       -14.7251
  69   2.0000      -0.534139       -14.5347
  70   2.0000      -0.527955       -14.3664
  71   2.0000      -0.517849       -14.0914
  72   2.0000      -0.513116       -13.9626
  73   2.0000      -0.503028       -13.6881
  74   2.0000      -0.497401       -13.5350
  75   2.0000      -0.479431       -13.0460
  76   2.0000      -0.474947       -12.9240
  77   2.0000      -0.448455       -12.2031
  78   2.0000      -0.446008       -12.1365
  79   2.0000      -0.418134       -11.3780
  80   2.0000      -0.415603       -11.3091
  81   2.0000      -0.397430       -10.8146
  82   0.0000      -0.198037        -5.3889
  83   0.0000      -0.145642        -3.9631
  84   0.0000      -0.141816        -3.8590
  85   0.0000      -0.084375        -2.2960
  86   0.0000      -0.071976        -1.9586

MULLIKEN ATOMIC CHARGES
-----------------------
   0 Ir:    0.603100
   1 C :   -0.228635
   2 C :   -0.277157
   3 C :   -0.254862
   4 C :   -0.232153
   5 C :   -0.160846
   6 N :   -0.440544
   7 C :   -0.124777
   8 C :   -0.683287
   9 H :    0.269043
  10 H :    0.225046
  11 H :    0.254351
  12 C :   -0.634302
  13 H :    0.278354
  14 H :    0.259557
  15 H :    0.232275
  16 H :    0.231145
  17 C :    0.069788
  18 C :   -0.148226
  19 H :    0.284122
  20 C :   -0.486816
  21 C :   -0.130788
  22 S :    0.328583
  23 C :   -0.424974
  24 H :    0.481218
  25 H :    0.262767
  26 H :    0.296034
  27 H :    0.287997
  28 H :    0.285412
  29 H :    0.300502
  30 O :   -0.491546
  31 O :   -0.512388
  32 C :    0.634013
  33 C :   -0.744648
  34 H :    0.273959
  35 H :    0.275155
  36 H :    0.261650
  37 H :    0.286810
  38 H :    0.295069
Sum of atomic charges:    1.0000000

LOEWDIN ATOMIC CHARGES
----------------------
   0 Ir:   -0.246981
   1 C :   -0.050641
   2 C :   -0.088011
   3 C :   -0.081696
   4 C :   -0.042928
   5 C :   -0.016399
   6 N :   -0.012604
   7 C :   -0.068849
   8 C :   -0.362579
   9 H :    0.155913
  10 H :    0.132941
  11 H :    0.143636
  12 C :   -0.344101
  13 H :    0.154167
  14 H :    0.150920
  15 H :    0.137807
  16 H :    0.132175
  17 C :    0.031813
  18 C :   -0.199038
  19 H :    0.159285
  20 C :   -0.215708
  21 C :   -0.137006
  22 S :    0.481734
  23 C :   -0.258358
  24 H :    0.346778
  25 H :    0.160065
  26 H :    0.167965
  27 H :    0.183374
  28 H :    0.181861
  29 H :    0.189972
  30 O :   -0.263833
  31 O :   -0.182723
  32 C :    0.169000
  33 C :   -0.371603
  34 H :    0.164887
  35 H :    0.172291
  36 H :    0.156207
  37 H :    0.183914
  38 H :    0.186353

  Mayer bond orders larger than 0.100000
B(  0-Ir,  1-C ) :   0.4309 B(  0-Ir,  2-C ) :   0.4692 B(  0-Ir,  3-C ) :   0.4609
B(  0-Ir,  4-C ) :   0.4436 B(  0-Ir,  5-C ) :   0.3967 B(  0-Ir,  6-N ) :   0.4685
B(  0-Ir, 20-C ) :   0.3897 B(  0-Ir, 31-O ) :   0.5258 B(  1-C ,  2-C ) :   1.1264
B(  1-C ,  4-C ) :   1.2309 B(  1-C , 27-H ) :   0.9059 B(  2-C ,  5-C ) :   1.1688
B(  2-C , 28-H ) :   0.9100 B(  3-C ,  4-C ) :   1.1237 B(  3-C ,  5-C ) :   1.2036
B(  3-C , 37-H ) :   0.9099 B(  4-C , 38-H ) :   0.9006 B(  5-C , 29-H ) :   0.8999
B(  6-N ,  7-C ) :   0.8948 B(  6-N , 17-C ) :   1.6507 B(  7-C ,  8-C ) :   0.9908
B(  7-C , 12-C ) :   0.9674 B(  7-C , 13-H ) :   0.8776 B(  8-C ,  9-H ) :   0.9048
B(  8-C , 10-H ) :   0.9129 B(  8-C , 11-H ) :   0.9118 B( 12-C , 14-H ) :   0.9077
B( 12-C , 15-H ) :   0.9155 B( 12-C , 16-H ) :   0.9127 B( 17-C , 18-C ) :   1.1069
B( 17-C , 19-H ) :   0.8762 B( 18-C , 20-C ) :   1.2668 B( 18-C , 22-S ) :   1.2199
B( 20-C , 21-C ) :   1.2955 B( 20-C , 24-H ) :   0.3496 B( 21-C , 23-C ) :   1.5344
B( 21-C , 25-H ) :   0.9048 B( 22-S , 23-C ) :   1.2237 B( 23-C , 26-H ) :   0.8917
B( 24-H , 30-O ) :   0.3340 B( 30-O , 32-C ) :   1.5618 B( 31-O , 32-C ) :   1.3748
B( 32-C , 33-C ) :   0.9476 B( 33-C , 34-H ) :   0.9000 B( 33-C , 35-H ) :   0.8932
B( 33-C , 36-H ) :   0.9078

Dispersion correction           -0.030442468
FINAL SINGLE POINT ENERGY     -1288.401712948383

DIPOLE MOMENT
-------------
                                X             Y             Z
Electronic contribution:     35.92167     -73.47166      76.92628
Nuclear contribution   :    -36.51753      72.86988     -77.03213
                        -----------------------------------------
Total Dipole Moment    :     -0.59585      -0.60177      -0.10585
                        -----------------------------------------
Magnitude (a.u.)       :      0.85345
Magnitude (Debye)      :      2.16930

Rotational constants in cm-1:     0.010547     0.008685     0.008109
Rotational constants in MHz :   316.202817   260.379319   243.112868

                             ****ORCA TERMINATED NORMALLY****
TOTAL RUN TIME: 0 days 1 hours 5 minutes 0 seconds 923 msec
