                         Program Version 5.0.3 -  RELEASE  -
|  1> ! Opt PBEh-3c
|  2> %geom Constraints
|  3> { B 0 20 2.428571428571429 C }
|  4> { B 24 30 1.5 C }
|  5>     end
|  6> end
|  7> %output
|  8> xyzfile=True
|  9> end
| 10> %scf
| 11> maxiter 250
| 12> end
| 13> %output
| 14> Print[P_Hirshfeld] = 1
| 15> end
| 16> % maxcore
| 17> 4000
| 18> *xyz 1 1
| 19> Ir   0.59747421  -0.71605688   0.43184329
| 20> C    0.04092737  -2.79954174   0.33019404
| 21> C    0.13325026  -2.34590961   1.69676186
| 22> C    2.21039830  -2.12926561   0.72760119
| 23> C    1.30129262  -2.64159105  -0.27286473
| 24> C    1.50188481  -1.98659045   1.93352759
| 25> N   -1.04520585   0.18293562  -0.52713628
| 26> C   -2.30991768   0.52123954   0.14259761
| 27> C   -3.13458103   1.55723434  -0.60334460
| 28> H   -3.96351819   1.86915722   0.03045469
| 29> H   -3.57594182   1.16792229  -1.52237026
| 30> H   -2.55553894   2.45051319  -0.83995346
| 31> C   -3.10662799  -0.75158066   0.40127918
| 32> H   -2.00822317   0.94411129   1.10230157
| 33> H   -4.01466273  -0.50731565   0.95037831
| 34> H   -3.40174569  -1.23162799  -0.53272642
| 35> H   -2.55001668  -1.46944205   1.00200413
| 36> C   -0.84013819   0.39155253  -1.76858060
| 37> C    0.51294158   0.14843749  -2.22676725
| 38> H   -1.61121508   0.76353549  -2.43696719
| 39> C    1.61663548   0.50578089  -1.45928917
| 40> C    2.82069323   0.06822353  -2.08569305
| 41> S    0.93763887  -0.66332638  -3.66555857
| 42> C    2.60685443  -0.56826984  -3.26648097
| 43> H    1.54556400   1.38146198  -0.70120861
| 44> H    3.80682006   0.26950931  -1.69317492
| 45> H    3.34206239  -0.97062374  -3.94685744
| 46> H   -0.85300110  -3.16233014  -0.15649398
| 47> H   -0.64986160  -2.37640850   2.44004778
| 48> H    1.89604277  -1.59017308   2.85823874
| 49> O    1.27620482   2.48671610   0.27647179
| 50> O    0.53566337   0.89961637   1.65907932
| 51> C    0.88630894   2.11388382   1.37688076
| 52> C    0.81002835   3.06293542   2.54133750
| 53> H    0.75704791   4.09126431   2.19427748
| 54> H    1.71319657   2.96015755   3.14596357
| 55> H   -0.03684943   2.84403546   3.18857301
| 56> H    3.25470771  -1.90095685   0.57468989
| 57> H    1.55277713  -2.87002356  -1.29829575
| 58> *
| 59>
| 60>                          ****END OF INPUT****
 Total Charge           Charge          ....    1
 Multiplicity           Mult            ....    1
 Number of Electrons    NEL             ....  164
Dispersion correction           -0.031088646
FINAL SINGLE POINT ENERGY     -1288.399988653759
Dispersion correction            ... done
Dispersion correction           -0.031103963
FINAL SINGLE POINT ENERGY     -1288.399047074861
Dispersion correction            ... done
Dispersion correction           -0.031049941
FINAL SINGLE POINT ENERGY     -1288.400069753829
Dispersion correction            ... done
FINAL SINGLE POINT ENERGY     -1288.399156476978
FINAL SINGLE POINT ENERGY     -1288.400119695863
FINAL SINGLE POINT ENERGY     -1288.400121605218
FINAL SINGLE POINT ENERGY     -1288.400146261362
FINAL SINGLE POINT ENERGY     -1288.400152030743
FINAL SINGLE POINT ENERGY     -1288.400159597413
Dispersion correction            ... done
Dispersion correction           -0.030988437
FINAL SINGLE POINT ENERGY     -1288.400171458228
Dispersion correction            ... done
Dispersion correction           -0.030988240
FINAL SINGLE POINT ENERGY     -1288.400171841339
Dispersion correction            ... done
                    ***********************HURRAY********************

CARTESIAN COORDINATES (ANGSTROEM)
---------------------------------
  Ir     0.603800   -0.711997    0.430676
  C      0.052343   -2.798692    0.335543
  C      0.130854   -2.342258    1.701199
  C      2.216617   -2.120687    0.749036
  C      1.317806   -2.639649   -0.257304
  C      1.495068   -1.975338    1.947662
  N     -1.045936    0.175394   -0.527242
  C     -2.310861    0.503770    0.147357
  C     -3.122848    1.569620   -0.570373
  H     -3.948623    1.874037    0.071236
  H     -3.568398    1.211934   -1.500110
  H     -2.531908    2.461324   -0.781914
  C     -3.118207   -0.770483    0.363133
  H     -2.010564    0.894727    1.120780
  H     -4.026276   -0.537170    0.916951
  H     -3.413179   -1.218737   -0.586540
  H     -2.568057   -1.511137    0.941825
  C     -0.851402    0.383673   -1.771005
  C      0.498638    0.148199   -2.236650
  H     -1.630049    0.749931   -2.433710
  C      1.597340    0.468979   -1.444460
  C      2.804510    0.044866   -2.074110
  S      0.931084   -0.621196   -3.693566
  C      2.597091   -0.551614   -3.276940
  H      1.533618    1.357355   -0.693842
  H      3.788401    0.226977   -1.666907
  H      3.335161   -0.936209   -3.964444
  H     -0.835638   -3.165885   -0.158703
  H     -0.659271   -2.371682    2.436945
  H      1.879486   -1.573652    2.874218
  O      1.288455    2.486405    0.262788
  O      0.535787    0.911576    1.652170
  C      0.893640    2.121245    1.364991
  C      0.822907    3.078127    2.523212
  H      0.775070    4.104656    2.170234
  H      1.725976    2.974044    3.127807
  H     -0.024669    2.867147    3.172126
  H      3.262856   -1.894208    0.607571
  H      1.578749   -2.874202   -1.278902

 Multiplicity           Mult            ....    1
 Number of Electrons    NEL             ....  164
 Basis Dimension        Dim             ....  358

ORBITAL ENERGIES
----------------

  NO   OCC          E(Eh)            E(eV)
   0   2.0000     -89.766240     -2442.6636
   1   2.0000     -19.619226      -533.8663
   2   2.0000     -19.581238      -532.8326
   3   2.0000     -14.842904      -403.8959
   4   2.0000     -10.675008      -290.4817
   5   2.0000     -10.663883      -290.1790
   6   2.0000     -10.637598      -289.4638
   7   2.0000     -10.637512      -289.4614
   8   2.0000     -10.633838      -289.3614
   9   2.0000     -10.632871      -289.3351
  10   2.0000     -10.631175      -289.2890
  11   2.0000     -10.630544      -289.2718
  12   2.0000     -10.616543      -288.8908
  13   2.0000     -10.612678      -288.7856
  14   2.0000     -10.587913      -288.1118
  15   2.0000     -10.586304      -288.0680
  16   2.0000     -10.557561      -287.2858
  17   2.0000     -10.552428      -287.1462
  18   2.0000     -10.529606      -286.5252
  19   2.0000      -8.405549      -228.7266
  20   2.0000      -6.295607      -171.3122
  21   2.0000      -6.291940      -171.2124
  22   2.0000      -6.290312      -171.1681
  23   2.0000      -4.029859      -109.6580
  24   2.0000      -2.348781       -63.9136
  25   2.0000      -2.314802       -62.9890
  26   2.0000      -2.313573       -62.9555
  27   2.0000      -1.298768       -35.3413
  28   2.0000      -1.215782       -33.0831
  29   2.0000      -1.202405       -32.7191
  30   2.0000      -1.173278       -31.9265
  31   2.0000      -1.130494       -30.7623
  32   2.0000      -1.028841       -27.9962
  33   2.0000      -0.987967       -26.8840
  34   2.0000      -0.978460       -26.6253
  35   2.0000      -0.969184       -26.3728
  36   2.0000      -0.962995       -26.2044
  37   2.0000      -0.922559       -25.1041
  38   2.0000      -0.904020       -24.5996
  39   2.0000      -0.876061       -23.8388
  40   2.0000      -0.799715       -21.7613
  41   2.0000      -0.789367       -21.4798
  42   2.0000      -0.787924       -21.4405
  43   2.0000      -0.783538       -21.3212
  44   2.0000      -0.773167       -21.0389
  45   2.0000      -0.754982       -20.5441
  46   2.0000      -0.743525       -20.2323
  47   2.0000      -0.723963       -19.7000
  48   2.0000      -0.694643       -18.9022
  49   2.0000      -0.671203       -18.2644
  50   2.0000      -0.665476       -18.1085
  51   2.0000      -0.651850       -17.7377
  52   2.0000      -0.646643       -17.5961
  53   2.0000      -0.640493       -17.4287
  54   2.0000      -0.634461       -17.2646
  55   2.0000      -0.626008       -17.0345
  56   2.0000      -0.623519       -16.9668
  57   2.0000      -0.613588       -16.6966
  58   2.0000      -0.608932       -16.5699
  59   2.0000      -0.608186       -16.5496
  60   2.0000      -0.599469       -16.3124
  61   2.0000      -0.590546       -16.0696
  62   2.0000      -0.580820       -15.8049
  63   2.0000      -0.574634       -15.6366
  64   2.0000      -0.565006       -15.3746
  65   2.0000      -0.553380       -15.0582
  66   2.0000      -0.552271       -15.0280
  67   2.0000      -0.548603       -14.9282
  68   2.0000      -0.539473       -14.6798
  69   2.0000      -0.535896       -14.5825
  70   2.0000      -0.528017       -14.3681
  71   2.0000      -0.521352       -14.1867
  72   2.0000      -0.516361       -14.0509
  73   2.0000      -0.504774       -13.7356
  74   2.0000      -0.486763       -13.2455
  75   2.0000      -0.481645       -13.1062
  76   2.0000      -0.468563       -12.7502
  77   2.0000      -0.447602       -12.1799
  78   2.0000      -0.440286       -11.9808
  79   2.0000      -0.425655       -11.5827
  80   2.0000      -0.416697       -11.3389
  81   2.0000      -0.404177       -10.9982
  82   0.0000      -0.202543        -5.5115
  83   0.0000      -0.162919        -4.4332
  84   0.0000      -0.142389        -3.8746
  85   0.0000      -0.103172        -2.8075
  86   0.0000      -0.078123        -2.1258

MULLIKEN ATOMIC CHARGES
-----------------------
   0 Ir:    0.613628
   1 C :   -0.209157
   2 C :   -0.290088
   3 C :   -0.235183
   4 C :   -0.247567
   5 C :   -0.163507
   6 N :   -0.420865
   7 C :   -0.119239
   8 C :   -0.694199
   9 H :    0.273231
  10 H :    0.225253
  11 H :    0.261766
  12 C :   -0.639079
  13 H :    0.283148
  14 H :    0.265141
  15 H :    0.230711
  16 H :    0.233338
  17 C :    0.070428
  18 C :   -0.196938
  19 H :    0.293810
  20 C :   -0.447127
  21 C :   -0.124115
  22 S :    0.303060
  23 C :   -0.433098
  24 H :    0.495041
  25 H :    0.269867
  26 H :    0.298893
  27 H :    0.291575
  28 H :    0.292927
  29 H :    0.307254
  30 O :   -0.473568
  31 O :   -0.545512
  32 C :    0.607710
  33 C :   -0.745135
  34 H :    0.267612
  35 H :    0.263701
  36 H :    0.249806
  37 H :    0.293141
  38 H :    0.293334
Sum of atomic charges:    1.0000000

LOEWDIN ATOMIC CHARGES
----------------------
   0 Ir:   -0.223975
   1 C :   -0.039103
   2 C :   -0.061822
   3 C :   -0.052385
   4 C :   -0.058376
   5 C :   -0.023232
   6 N :   -0.000452
   7 C :   -0.068875
   8 C :   -0.364678
   9 H :    0.157869
  10 H :    0.133624
  11 H :    0.147449
  12 C :   -0.343272
  13 H :    0.157602
  14 H :    0.153406
  15 H :    0.137183
  16 H :    0.134498
  17 C :    0.035144
  18 C :   -0.176016
  19 H :    0.164006
  20 C :   -0.184139
  21 C :   -0.133778
  22 S :    0.471252
  23 C :   -0.263857
  24 H :    0.277232
  25 H :    0.164064
  26 H :    0.168648
  27 H :    0.185299
  28 H :    0.186074
  29 H :    0.193982
  30 O :   -0.275867
  31 O :   -0.213611
  32 C :    0.147085
  33 C :   -0.377751
  34 H :    0.158358
  35 H :    0.165306
  36 H :    0.151492
  37 H :    0.186775
  38 H :    0.184842

  Mayer bond orders larger than 0.100000
B(  0-Ir,  1-C ) :   0.4171 B(  0-Ir,  2-C ) :   0.5293 B(  0-Ir,  3-C ) :   0.4637
B(  0-Ir,  4-C ) :   0.4469 B(  0-Ir,  5-C ) :   0.4006 B(  0-Ir,  6-N ) :   0.4591
B(  0-Ir, 20-C ) :   0.2501 B(  0-Ir, 31-O ) :   0.5943 B(  1-C ,  2-C ) :   1.1180
B(  1-C ,  4-C ) :   1.2483 B(  1-C , 27-H ) :   0.9033 B(  2-C ,  5-C ) :   1.1368
B(  2-C , 28-H ) :   0.9073 B(  3-C ,  4-C ) :   1.1046 B(  3-C ,  5-C ) :   1.2320
B(  3-C , 37-H ) :   0.9043 B(  4-C , 38-H ) :   0.8989 B(  5-C , 29-H ) :   0.8975
B(  6-N ,  7-C ) :   0.8911 B(  6-N , 17-C ) :   1.7007 B(  7-C ,  8-C ) :   0.9921
B(  7-C , 12-C ) :   0.9690 B(  7-C , 13-H ) :   0.8703 B(  8-C ,  9-H ) :   0.9033
B(  8-C , 10-H ) :   0.9125 B(  8-C , 11-H ) :   0.9075 B( 12-C , 14-H ) :   0.9062
B( 12-C , 15-H ) :   0.9153 B( 12-C , 16-H ) :   0.9110 B( 17-C , 18-C ) :   1.0441
B( 17-C , 19-H ) :   0.8737 B( 18-C , 20-C ) :   1.2907 B( 18-C , 22-S ) :   1.2358
B( 20-C , 21-C ) :   1.2509 B( 20-C , 24-H ) :   0.5129 B( 21-C , 23-C ) :   1.5538
B( 21-C , 25-H ) :   0.9030 B( 22-S , 23-C ) :   1.1976 B( 23-C , 26-H ) :   0.8917
B( 24-H , 30-O ) :   0.2201 B( 30-O , 32-C ) :   1.7315 B( 31-O , 32-C ) :   1.2527
B( 32-C , 33-C ) :   0.9446 B( 33-C , 34-H ) :   0.9062 B( 33-C , 35-H ) :   0.9005
B( 33-C , 36-H ) :   0.9105

Dispersion correction           -0.030987072
FINAL SINGLE POINT ENERGY     -1288.400172167235

DIPOLE MOMENT
-------------
                                X             Y             Z
Electronic contribution:     36.66779     -66.53878      70.32065
Nuclear contribution   :    -37.30124      65.20943     -70.71183
                        -----------------------------------------
Total Dipole Moment    :     -0.63345      -1.32935      -0.39118
                        -----------------------------------------
Magnitude (a.u.)       :      1.52363
Magnitude (Debye)      :      3.87276

Rotational constants in cm-1:     0.010818     0.009155     0.008283
Rotational constants in MHz :   324.329296   274.474562   248.307034

                             ****ORCA TERMINATED NORMALLY****
TOTAL RUN TIME: 0 days 1 hours 31 minutes 13 seconds 641 msec
