                         Program Version 5.0.3 -  RELEASE  -
|  1> ! Opt PBEh-3c
|  2> %geom Constraints
|  3> { B 0 20 2.3 C }
|  4> { B 24 30 1.3714285714285714 C }
|  5>     end
|  6> end
|  7> %output
|  8> xyzfile=True
|  9> end
| 10> %scf
| 11> maxiter 250
| 12> end
| 13> %output
| 14> Print[P_Hirshfeld] = 1
| 15> end
| 16> % maxcore
| 17> 4000
| 18> *xyz 1 1
| 19> Ir   0.60311507  -0.72526169   0.46582181
| 20> C    0.05954431  -2.81732537   0.37840355
| 21> C    0.03882338  -2.35095529   1.73995830
| 22> C    2.18978770  -2.12507842   0.93269971
| 23> C    1.36553587  -2.66159530  -0.12521278
| 24> C    1.37579985  -1.96569312   2.07255077
| 25> N   -1.04318827   0.13678728  -0.51742411
| 26> C   -2.31870076   0.41108359   0.16472716
| 27> C   -3.10995880   1.55216613  -0.45651360
| 28> H   -3.93907912   1.80585460   0.20260399
| 29> H   -3.54942412   1.28927987  -1.41975860
| 30> H   -2.50439590   2.45051052  -0.57857448
| 31> C   -3.14410213  -0.86837514   0.23828444
| 32> H   -2.03633715   0.70186694   1.17768377
| 33> H   -4.05837462  -0.68390266   0.80059582
| 34> H   -3.42868185  -1.21318262  -0.75665662
| 35> H   -2.60903497  -1.67180685   0.74201183
| 36> C   -0.87005596   0.38911258  -1.76038787
| 37> C    0.46442283   0.20863492  -2.26834608
| 38> H   -1.67411916   0.75768101  -2.39045468
| 39> C    1.55186925   0.31367884  -1.40753018
| 40> C    2.75722303  -0.01222722  -2.09302841
| 41> S    0.90254476  -0.24154057  -3.84957801
| 42> C    2.55656540  -0.32348857  -3.40306379
| 43> H    1.54960721   1.26300790  -0.60752576
| 44> H    3.73887749   0.03847665  -1.64490894
| 45> H    3.29822298  -0.57582914  -4.14574609
| 46> H   -0.78701648  -3.19845495  -0.17441499
| 47> H   -0.80107451  -2.37750629   2.41797906
| 48> H    1.69006099  -1.54796718   3.01847573
| 49> O    1.47642688   2.38832192   0.19777983
| 50> O    0.53914918   0.95998416   1.62739507
| 51> C    0.99291912   2.11406871   1.30328683
| 52> C    0.93926122   3.15655726   2.38219116
| 53> H    0.92412976   4.15579145   1.95554095
| 54> H    1.83601267   3.07190026   2.99908909
| 55> H    0.08065277   3.01389672   3.03431718
| 56> H    3.24569091  -1.90933699   0.87128727
| 57> H    1.69667109  -2.90994393  -1.12281829
| 58> *
| 59>
| 60>                          ****END OF INPUT****
 Total Charge           Charge          ....    1
 Multiplicity           Mult            ....    1
 Number of Electrons    NEL             ....  164
Dispersion correction           -0.030822021
FINAL SINGLE POINT ENERGY     -1288.400167550436
Dispersion correction            ... done
Dispersion correction           -0.030936031
FINAL SINGLE POINT ENERGY     -1288.395980698949
Dispersion correction            ... done
Dispersion correction           -0.030823870
FINAL SINGLE POINT ENERGY     -1288.400298200524
Dispersion correction            ... done
FINAL SINGLE POINT ENERGY     -1288.397948105776
FINAL SINGLE POINT ENERGY     -1288.400414398548
FINAL SINGLE POINT ENERGY     -1288.400444595068
FINAL SINGLE POINT ENERGY     -1288.400493510123
FINAL SINGLE POINT ENERGY     -1288.400529395500
FINAL SINGLE POINT ENERGY     -1288.400537079800
FINAL SINGLE POINT ENERGY     -1288.400543674574
FINAL SINGLE POINT ENERGY     -1288.400552202444
FINAL SINGLE POINT ENERGY     -1288.400562148301
FINAL SINGLE POINT ENERGY     -1288.400577552640
FINAL SINGLE POINT ENERGY     -1288.400584877262
Dispersion correction            ... done
Dispersion correction           -0.030641393
FINAL SINGLE POINT ENERGY     -1288.400588325534
Dispersion correction            ... done
Dispersion correction           -0.030637484
FINAL SINGLE POINT ENERGY     -1288.400587735310
Dispersion correction            ... done
                    ***********************HURRAY********************

CARTESIAN COORDINATES (ANGSTROEM)
---------------------------------
  Ir     0.610496   -0.728461    0.466997
  C      0.109894   -2.831172    0.348730
  C     -0.024987   -2.369494    1.706307
  C      2.179910   -2.098717    1.068915
  C      1.451250   -2.654934   -0.044680
  C      1.269028   -1.954690    2.139547
  N     -1.047231    0.123124   -0.504522
  C     -2.322736    0.368554    0.188693
  C     -3.099591    1.554960   -0.363993
  H     -3.928926    1.776442    0.306255
  H     -3.536555    1.357091   -1.343647
  H     -2.483228    2.451833   -0.428793
  C     -3.160816   -0.904806    0.174439
  H     -2.044838    0.594367    1.219083
  H     -4.069540   -0.756612    0.756302
  H     -3.455397   -1.171008   -0.841534
  H     -2.628624   -1.749896    0.608496
  C     -0.889380    0.399402   -1.745297
  C      0.435305    0.228081   -2.274449
  H     -1.703139    0.778048   -2.356710
  C      1.524613    0.236295   -1.410138
  C      2.721793   -0.058046   -2.123676
  S      0.861500   -0.098659   -3.888365
  C      2.512304   -0.253194   -3.455392
  H      1.580983    1.210185   -0.602785
  H      3.705409   -0.067060   -1.677136
  H      3.247916   -0.458932   -4.218144
  H     -0.680558   -3.233900   -0.267888
  H     -0.913772   -2.412559    2.317769
  H      1.497808   -1.527663    3.105819
  O      1.585158    2.343942    0.168833
  O      0.550393    0.985409    1.597222
  C      1.049401    2.113893    1.263917
  C      0.993086    3.192960    2.305299
  H      0.946654    4.175077    1.841907
  H      1.906547    3.154074    2.901754
  H      0.151605    3.055504    2.979662
  H      3.235262   -1.874970    1.096221
  H      1.862373   -2.895277   -1.014280

 Multiplicity           Mult            ....    1
 Number of Electrons    NEL             ....  164
 Basis Dimension        Dim             ....  358

ORBITAL ENERGIES
----------------

  NO   OCC          E(Eh)            E(eV)
   0   2.0000     -89.761462     -2442.5335
   1   2.0000     -19.630622      -534.1764
   2   2.0000     -19.608368      -533.5708
   3   2.0000     -14.835735      -403.7009
   4   2.0000     -10.690993      -290.9167
   5   2.0000     -10.657122      -289.9950
   6   2.0000     -10.630793      -289.2786
   7   2.0000     -10.629282      -289.2375
   8   2.0000     -10.627598      -289.1917
   9   2.0000     -10.625784      -289.1423
  10   2.0000     -10.623867      -289.0901
  11   2.0000     -10.620358      -288.9946
  12   2.0000     -10.613723      -288.8141
  13   2.0000     -10.608622      -288.6753
  14   2.0000     -10.585360      -288.0423
  15   2.0000     -10.584838      -288.0281
  16   2.0000     -10.554891      -287.2132
  17   2.0000     -10.550727      -287.0999
  18   2.0000     -10.540081      -286.8102
  19   2.0000      -8.400911      -228.6004
  20   2.0000      -6.290832      -171.1822
  21   2.0000      -6.287255      -171.0849
  22   2.0000      -6.285831      -171.0462
  23   2.0000      -4.024878      -109.5225
  24   2.0000      -2.343086       -63.7586
  25   2.0000      -2.310020       -62.8588
  26   2.0000      -2.307920       -62.8017
  27   2.0000      -1.318218       -35.8705
  28   2.0000      -1.220176       -33.2027
  29   2.0000      -1.207787       -32.8655
  30   2.0000      -1.166902       -31.7530
  31   2.0000      -1.125397       -30.6236
  32   2.0000      -1.024115       -27.8676
  33   2.0000      -0.980381       -26.6775
  34   2.0000      -0.972415       -26.4607
  35   2.0000      -0.965456       -26.2714
  36   2.0000      -0.958109       -26.0715
  37   2.0000      -0.935037       -25.4437
  38   2.0000      -0.900844       -24.5132
  39   2.0000      -0.871867       -23.7247
  40   2.0000      -0.797350       -21.6970
  41   2.0000      -0.782738       -21.2994
  42   2.0000      -0.781988       -21.2790
  43   2.0000      -0.780090       -21.2273
  44   2.0000      -0.767113       -20.8742
  45   2.0000      -0.759609       -20.6700
  46   2.0000      -0.742083       -20.1931
  47   2.0000      -0.722494       -19.6601
  48   2.0000      -0.691049       -18.8044
  49   2.0000      -0.680239       -18.5102
  50   2.0000      -0.663007       -18.0413
  51   2.0000      -0.654641       -17.8137
  52   2.0000      -0.647496       -17.6193
  53   2.0000      -0.637806       -17.3556
  54   2.0000      -0.635327       -17.2881
  55   2.0000      -0.632068       -17.1994
  56   2.0000      -0.622219       -16.9314
  57   2.0000      -0.609877       -16.5956
  58   2.0000      -0.602684       -16.3999
  59   2.0000      -0.602018       -16.3817
  60   2.0000      -0.597491       -16.2586
  61   2.0000      -0.590194       -16.0600
  62   2.0000      -0.577731       -15.7209
  63   2.0000      -0.567909       -15.4536
  64   2.0000      -0.562829       -15.3154
  65   2.0000      -0.561741       -15.2858
  66   2.0000      -0.552758       -15.0413
  67   2.0000      -0.547621       -14.9015
  68   2.0000      -0.540904       -14.7187
  69   2.0000      -0.535122       -14.5614
  70   2.0000      -0.528278       -14.3752
  71   2.0000      -0.518528       -14.1099
  72   2.0000      -0.514139       -13.9904
  73   2.0000      -0.502010       -13.6604
  74   2.0000      -0.493121       -13.4185
  75   2.0000      -0.480071       -13.0634
  76   2.0000      -0.473651       -12.8887
  77   2.0000      -0.446506       -12.1501
  78   2.0000      -0.445864       -12.1326
  79   2.0000      -0.419513       -11.4155
  80   2.0000      -0.417693       -11.3660
  81   2.0000      -0.399130       -10.8609
  82   0.0000      -0.202062        -5.4984
  83   0.0000      -0.149233        -4.0608
  84   0.0000      -0.141541        -3.8515
  85   0.0000      -0.088856        -2.4179
  86   0.0000      -0.073190        -1.9916

MULLIKEN ATOMIC CHARGES
-----------------------
   0 Ir:    0.607730
   1 C :   -0.225668
   2 C :   -0.277595
   3 C :   -0.254257
   4 C :   -0.232329
   5 C :   -0.160440
   6 N :   -0.433837
   7 C :   -0.127727
   8 C :   -0.682313
   9 H :    0.269323
  10 H :    0.224360
  11 H :    0.256940
  12 C :   -0.634274
  13 H :    0.280591
  14 H :    0.260942
  15 H :    0.231628
  16 H :    0.231471
  17 C :    0.070522
  18 C :   -0.151946
  19 H :    0.286159
  20 C :   -0.497588
  21 C :   -0.123690
  22 S :    0.326911
  23 C :   -0.428610
  24 H :    0.485469
  25 H :    0.264997
  26 H :    0.297223
  27 H :    0.288039
  28 H :    0.286806
  29 H :    0.302778
  30 O :   -0.483843
  31 O :   -0.523934
  32 C :    0.627320
  33 C :   -0.744589
  34 H :    0.271710
  35 H :    0.271520
  36 H :    0.257693
  37 H :    0.287814
  38 H :    0.294692
Sum of atomic charges:    1.0000000

LOEWDIN ATOMIC CHARGES
----------------------
   0 Ir:   -0.241869
   1 C :   -0.050777
   2 C :   -0.081679
   3 C :   -0.078429
   4 C :   -0.044062
   5 C :   -0.015836
   6 N :   -0.007540
   7 C :   -0.069612
   8 C :   -0.362403
   9 H :    0.156243
  10 H :    0.132792
  11 H :    0.144946
  12 C :   -0.343837
  13 H :    0.155302
  14 H :    0.151638
  15 H :    0.137451
  16 H :    0.132585
  17 C :    0.032450
  18 C :   -0.188408
  19 H :    0.160467
  20 C :   -0.212485
  21 C :   -0.131841
  22 S :    0.484515
  23 C :   -0.260282
  24 H :    0.328997
  25 H :    0.161596
  26 H :    0.168388
  27 H :    0.183519
  28 H :    0.182542
  29 H :    0.191253
  30 O :   -0.268733
  31 O :   -0.193538
  32 C :    0.161901
  33 C :   -0.373166
  34 H :    0.162274
  35 H :    0.170274
  36 H :    0.154911
  37 H :    0.184472
  38 H :    0.185980

  Mayer bond orders larger than 0.100000
B(  0-Ir,  1-C ) :   0.4258 B(  0-Ir,  2-C ) :   0.4819 B(  0-Ir,  3-C ) :   0.4632
B(  0-Ir,  4-C ) :   0.4414 B(  0-Ir,  5-C ) :   0.3968 B(  0-Ir,  6-N ) :   0.4653
B(  0-Ir, 20-C ) :   0.3578 B(  0-Ir, 31-O ) :   0.5470 B(  1-C ,  2-C ) :   1.1232
B(  1-C ,  4-C ) :   1.2382 B(  1-C , 27-H ) :   0.9059 B(  2-C ,  5-C ) :   1.1624
B(  2-C , 28-H ) :   0.9094 B(  3-C ,  4-C ) :   1.1187 B(  3-C ,  5-C ) :   1.2087
B(  3-C , 37-H ) :   0.9094 B(  4-C , 38-H ) :   0.8998 B(  5-C , 29-H ) :   0.8990
B(  6-N ,  7-C ) :   0.8931 B(  6-N , 17-C ) :   1.6626 B(  7-C ,  8-C ) :   0.9906
B(  7-C , 12-C ) :   0.9674 B(  7-C , 13-H ) :   0.8761 B(  8-C ,  9-H ) :   0.9046
B(  8-C , 10-H ) :   0.9132 B(  8-C , 11-H ) :   0.9107 B( 12-C , 14-H ) :   0.9074
B( 12-C , 15-H ) :   0.9155 B( 12-C , 16-H ) :   0.9127 B( 17-C , 18-C ) :   1.0937
B( 17-C , 19-H ) :   0.8760 B( 18-C , 20-C ) :   1.2638 B( 18-C , 22-S ) :   1.2337
B( 20-C , 21-C ) :   1.2799 B( 20-C , 24-H ) :   0.3964 B( 21-C , 23-C ) :   1.5437
B( 21-C , 25-H ) :   0.9043 B( 22-S , 23-C ) :   1.2136 B( 23-C , 26-H ) :   0.8915
B( 24-H , 30-O ) :   0.2979 B( 30-O , 32-C ) :   1.6166 B( 31-O , 32-C ) :   1.3333
B( 32-C , 33-C ) :   0.9467 B( 33-C , 34-H ) :   0.9025 B( 33-C , 35-H ) :   0.8955
B( 33-C , 36-H ) :   0.9085

Dispersion correction           -0.030635664
FINAL SINGLE POINT ENERGY     -1288.400588397487

DIPOLE MOMENT
-------------
                                X             Y             Z
Electronic contribution:     37.42989     -70.98505      75.33142
Nuclear contribution   :    -38.05881      70.15107     -75.56300
                        -----------------------------------------
Total Dipole Moment    :     -0.62892      -0.83398      -0.23157
                        -----------------------------------------
Magnitude (a.u.)       :      1.06990
Magnitude (Debye)      :      2.71947

Rotational constants in cm-1:     0.010537     0.008894     0.008158
Rotational constants in MHz :   315.894119   266.623079   244.572389

                             ****ORCA TERMINATED NORMALLY****
TOTAL RUN TIME: 0 days 2 hours 5 minutes 49 seconds 116 msec
