                         Program Version 5.0.3 -  RELEASE  -
|  1> ! Opt PBEh-3c
|  2> %geom Constraints
|  3> { B 0 20 2.4714285714285715 C }
|  4> { B 24 30 1.3285714285714287 C }
|  5>     end
|  6> end
|  7> %output
|  8> xyzfile=True
|  9> end
| 10> %scf
| 11> maxiter 250
| 12> end
| 13> %output
| 14> Print[P_Hirshfeld] = 1
| 15> end
| 16> % maxcore
| 17> 4000
| 18> *xyz 1 1
| 19> Ir   0.57801485  -0.73832003   0.51016002
| 20> C    0.02831722  -2.81908194   0.38667498
| 21> C    0.04636319  -2.36503959   1.75494164
| 22> C    2.17547092  -2.14824738   0.89974287
| 23> C    1.31963564  -2.65858283  -0.14771032
| 24> C    1.39999019  -2.00428941   2.06430776
| 25> N   -1.03732557   0.13750460  -0.50370216
| 26> C   -2.32120329   0.43493833   0.15449692
| 27> C   -3.10688564   1.54914415  -0.51964071
| 28> H   -3.94093127   1.83038576   0.12190818
| 29> H   -3.53927346   1.24750507  -1.47478744
| 30> H   -2.49989283   2.44156568  -0.67402197
| 31> C   -3.14555466  -0.84154170   0.27222280
| 32> H   -2.04971732   0.76700538   1.15790569
| 33> H   -4.06874745  -0.63373509   0.81125597
| 34> H   -3.41434069  -1.23127257  -0.71050743
| 35> H   -2.61839417  -1.62036374   0.82127868
| 36> C   -0.84539309   0.35783940  -1.74935694
| 37> C    0.49505348   0.18189021  -2.25039244
| 38> H   -1.64643012   0.70145360  -2.39800206
| 39> C    1.60449991   0.44327260  -1.45752896
| 40> C    2.79903798   0.09611177  -2.14729640
| 41> S    0.90450520  -0.41176175  -3.79957193
| 42> C    2.57284217  -0.36727213  -3.40782291
| 43> H    1.55196503   1.34887948  -0.60704812
| 44> H    3.79127240   0.23895785  -1.74448668
| 45> H    3.30302689  -0.66642543  -4.14463929
| 46> H   -0.83611920  -3.18468348  -0.14868029
| 47> H   -0.77621230  -2.39685220   2.45416176
| 48> H    1.74314394  -1.60847181   3.00947098
| 49> O    1.42297787   2.39142364   0.22945011
| 50> O    0.53897600   0.93731850   1.67091806
| 51> C    0.96990441   2.10145145   1.34237600
| 52> C    0.92855352   3.13191503   2.43296699
| 53> H    0.87685607   4.13402693   2.01583802
| 54> H    1.84809448   3.06390772   3.01775329
| 55> H    0.09643575   2.96482395   3.11294676
| 56> H    3.22736740  -1.92366401   0.80506667
| 57> H    1.62348654  -2.88252602  -1.15990799
| 58> *
| 59>
| 60>                          ****END OF INPUT****
 Total Charge           Charge          ....    1
 Multiplicity           Mult            ....    1
 Number of Electrons    NEL             ....  164
Dispersion correction           -0.030712805
FINAL SINGLE POINT ENERGY     -1288.395066979655
Dispersion correction            ... done
Dispersion correction           -0.030671657
FINAL SINGLE POINT ENERGY     -1288.395209915115
Dispersion correction            ... done
Dispersion correction           -0.030640898
FINAL SINGLE POINT ENERGY     -1288.395277695136
Dispersion correction            ... done
FINAL SINGLE POINT ENERGY     -1288.395303609673
FINAL SINGLE POINT ENERGY     -1288.395313381709
FINAL SINGLE POINT ENERGY     -1288.395321619599
FINAL SINGLE POINT ENERGY     -1288.395327527764
FINAL SINGLE POINT ENERGY     -1288.395332746544
FINAL SINGLE POINT ENERGY     -1288.395336940589
FINAL SINGLE POINT ENERGY     -1288.395340667380
FINAL SINGLE POINT ENERGY     -1288.395343434172
FINAL SINGLE POINT ENERGY     -1288.395345176036
FINAL SINGLE POINT ENERGY     -1288.395345992858
Dispersion correction            ... done
Dispersion correction           -0.030527772
FINAL SINGLE POINT ENERGY     -1288.395346343759
Dispersion correction            ... done
Dispersion correction           -0.030525519
FINAL SINGLE POINT ENERGY     -1288.395346759977
Dispersion correction            ... done
                    ***********************HURRAY********************

CARTESIAN COORDINATES (ANGSTROEM)
---------------------------------
  Ir     0.588505   -0.741812    0.511748
  C      0.061294   -2.829408    0.377372
  C     -0.001278   -2.370397    1.742312
  C      2.172748   -2.135866    1.005986
  C      1.381002   -2.662254   -0.082039
  C      1.326594   -1.991037    2.122204
  N     -1.034542    0.125305   -0.497526
  C     -2.318025    0.398317    0.172738
  C     -3.090215    1.557414   -0.439803
  H     -3.924142    1.810453    0.213533
  H     -3.521111    1.314235   -1.411933
  H     -2.473084    2.450249   -0.542114
  C     -3.154979   -0.874939    0.211554
  H     -2.049262    0.670747    1.194423
  H     -4.072836   -0.696499    0.770023
  H     -3.433468   -1.194924   -0.793405
  H     -2.630617   -1.694815    0.700153
  C     -0.858432    0.366137   -1.742675
  C      0.472411    0.201458   -2.265740
  H     -1.669955    0.717218   -2.374036
  C      1.586306    0.372876   -1.455439
  C      2.773161    0.051836   -2.169650
  S      0.868949   -0.280053   -3.855281
  C      2.536405   -0.305425   -3.463228
  H      1.574189    1.304113   -0.597129
  H      3.768313    0.138651   -1.758272
  H      3.259888   -0.562793   -4.222058
  H     -0.766624   -3.209275   -0.203693
  H     -0.860664   -2.406719    2.395383
  H      1.610840   -1.582972    3.081800
  O      1.493029    2.362684    0.201585
  O      0.546926    0.956219    1.649329
  C      1.004919    2.103013    1.310678
  C      0.957509    3.162074    2.372519
  H      0.894798    4.152027    1.928421
  H      1.880958    3.119637    2.953438
  H      0.129566    3.005097    3.059567
  H      3.228298   -1.911996    0.974575
  H      1.741997   -2.889385   -1.074582

 Multiplicity           Mult            ....    1
 Number of Electrons    NEL             ....  164
 Basis Dimension        Dim             ....  358

ORBITAL ENERGIES
----------------

  NO   OCC          E(Eh)            E(eV)
   0   2.0000     -89.756114     -2442.3880
   1   2.0000     -19.631339      -534.1959
   2   2.0000     -19.604590      -533.4680
   3   2.0000     -14.835565      -403.6963
   4   2.0000     -10.691458      -290.9294
   5   2.0000     -10.657344      -290.0011
   6   2.0000     -10.633781      -289.3599
   7   2.0000     -10.633756      -289.3592
   8   2.0000     -10.630763      -289.2778
   9   2.0000     -10.630589      -289.2730
  10   2.0000     -10.626859      -289.1715
  11   2.0000     -10.622124      -289.0427
  12   2.0000     -10.614359      -288.8314
  13   2.0000     -10.605403      -288.5877
  14   2.0000     -10.579487      -287.8825
  15   2.0000     -10.578500      -287.8556
  16   2.0000     -10.555710      -287.2355
  17   2.0000     -10.550773      -287.1011
  18   2.0000     -10.539281      -286.7884
  19   2.0000      -8.395567      -228.4550
  20   2.0000      -6.285558      -171.0387
  21   2.0000      -6.281982      -170.9414
  22   2.0000      -6.280379      -170.8978
  23   2.0000      -4.028185      -109.6125
  24   2.0000      -2.347190       -63.8703
  25   2.0000      -2.313212       -62.9457
  26   2.0000      -2.311043       -62.8867
  27   2.0000      -1.318024       -35.8653
  28   2.0000      -1.221045       -33.2263
  29   2.0000      -1.207048       -32.8455
  30   2.0000      -1.171546       -31.8794
  31   2.0000      -1.120530       -30.4912
  32   2.0000      -1.023049       -27.8386
  33   2.0000      -0.985831       -26.8258
  34   2.0000      -0.976581       -26.5741
  35   2.0000      -0.960843       -26.1459
  36   2.0000      -0.954291       -25.9676
  37   2.0000      -0.934676       -25.4338
  38   2.0000      -0.901338       -24.5267
  39   2.0000      -0.869993       -23.6737
  40   2.0000      -0.795394       -21.6438
  41   2.0000      -0.787149       -21.4194
  42   2.0000      -0.785925       -21.3861
  43   2.0000      -0.777456       -21.1556
  44   2.0000      -0.770670       -20.9710
  45   2.0000      -0.762115       -20.7382
  46   2.0000      -0.741422       -20.1751
  47   2.0000      -0.722385       -19.6571
  48   2.0000      -0.691465       -18.8157
  49   2.0000      -0.677341       -18.4314
  50   2.0000      -0.662599       -18.0302
  51   2.0000      -0.654558       -17.8114
  52   2.0000      -0.648378       -17.6433
  53   2.0000      -0.639657       -17.4059
  54   2.0000      -0.638972       -17.3873
  55   2.0000      -0.633951       -17.2507
  56   2.0000      -0.622604       -16.9419
  57   2.0000      -0.608661       -16.5625
  58   2.0000      -0.606982       -16.5168
  59   2.0000      -0.605846       -16.4859
  60   2.0000      -0.595032       -16.1916
  61   2.0000      -0.587112       -15.9761
  62   2.0000      -0.574512       -15.6333
  63   2.0000      -0.566636       -15.4190
  64   2.0000      -0.561477       -15.2786
  65   2.0000      -0.559068       -15.2130
  66   2.0000      -0.552923       -15.0458
  67   2.0000      -0.548015       -14.9122
  68   2.0000      -0.540076       -14.6962
  69   2.0000      -0.533722       -14.5233
  70   2.0000      -0.527666       -14.3585
  71   2.0000      -0.519353       -14.1323
  72   2.0000      -0.514900       -14.0111
  73   2.0000      -0.505981       -13.7684
  74   2.0000      -0.494056       -13.4439
  75   2.0000      -0.480131       -13.0650
  76   2.0000      -0.464981       -12.6528
  77   2.0000      -0.449088       -12.2203
  78   2.0000      -0.444750       -12.1023
  79   2.0000      -0.419138       -11.4053
  80   2.0000      -0.417042       -11.3483
  81   2.0000      -0.400600       -10.9009
  82   0.0000      -0.199508        -5.4289
  83   0.0000      -0.160241        -4.3604
  84   0.0000      -0.141112        -3.8398
  85   0.0000      -0.089774        -2.4429
  86   0.0000      -0.073498        -2.0000

MULLIKEN ATOMIC CHARGES
-----------------------
   0 Ir:    0.614981
   1 C :   -0.217372
   2 C :   -0.290181
   3 C :   -0.241555
   4 C :   -0.236994
   5 C :   -0.165325
   6 N :   -0.437623
   7 C :   -0.126047
   8 C :   -0.684900
   9 H :    0.269640
  10 H :    0.225167
  11 H :    0.258410
  12 C :   -0.635025
  13 H :    0.279335
  14 H :    0.262169
  15 H :    0.231611
  16 H :    0.230007
  17 C :    0.070103
  18 C :   -0.183669
  19 H :    0.286335
  20 C :   -0.436586
  21 C :   -0.145586
  22 S :    0.309842
  23 C :   -0.425658
  24 H :    0.496044
  25 H :    0.262156
  26 H :    0.295318
  27 H :    0.290837
  28 H :    0.290840
  29 H :    0.305141
  30 O :   -0.492916
  31 O :   -0.529557
  32 C :    0.627271
  33 C :   -0.745523
  34 H :    0.271780
  35 H :    0.270680
  36 H :    0.257065
  37 H :    0.292806
  38 H :    0.296978
Sum of atomic charges:    1.0000000

LOEWDIN ATOMIC CHARGES
----------------------
   0 Ir:   -0.221960
   1 C :   -0.046361
   2 C :   -0.068261
   3 C :   -0.063178
   4 C :   -0.045633
   5 C :   -0.019892
   6 N :   -0.014154
   7 C :   -0.069179
   8 C :   -0.362957
   9 H :    0.156251
  10 H :    0.133170
  11 H :    0.145733
  12 C :   -0.343863
  13 H :    0.154778
  14 H :    0.152078
  15 H :    0.137478
  16 H :    0.132233
  17 C :    0.035401
  18 C :   -0.197854
  19 H :    0.160237
  20 C :   -0.206920
  21 C :   -0.143326
  22 S :    0.467411
  23 C :   -0.260514
  24 H :    0.316499
  25 H :    0.159836
  26 H :    0.167122
  27 H :    0.184943
  28 H :    0.184724
  29 H :    0.192684
  30 O :   -0.272914
  31 O :   -0.195724
  32 C :    0.164732
  33 C :   -0.373684
  34 H :    0.162017
  35 H :    0.169913
  36 H :    0.154722
  37 H :    0.186776
  38 H :    0.187638

  Mayer bond orders larger than 0.100000
B(  0-Ir,  1-C ) :   0.4245 B(  0-Ir,  2-C ) :   0.5293 B(  0-Ir,  3-C ) :   0.4604
B(  0-Ir,  4-C ) :   0.4532 B(  0-Ir,  5-C ) :   0.4035 B(  0-Ir,  6-N ) :   0.4699
B(  0-Ir, 20-C ) :   0.2825 B(  0-Ir, 31-O ) :   0.5567 B(  1-C ,  2-C ) :   1.1167
B(  1-C ,  4-C ) :   1.2406 B(  1-C , 27-H ) :   0.9041 B(  2-C ,  5-C ) :   1.1393
B(  2-C , 28-H ) :   0.9078 B(  3-C ,  4-C ) :   1.1096 B(  3-C ,  5-C ) :   1.2272
B(  3-C , 37-H ) :   0.9061 B(  4-C , 38-H ) :   0.8998 B(  5-C , 29-H ) :   0.8980
B(  6-N ,  7-C ) :   0.8918 B(  6-N , 17-C ) :   1.6691 B(  7-C ,  8-C ) :   0.9914
B(  7-C , 12-C ) :   0.9684 B(  7-C , 13-H ) :   0.8763 B(  8-C ,  9-H ) :   0.9044
B(  8-C , 10-H ) :   0.9130 B(  8-C , 11-H ) :   0.9099 B( 12-C , 14-H ) :   0.9070
B( 12-C , 15-H ) :   0.9156 B( 12-C , 16-H ) :   0.9128 B( 17-C , 18-C ) :   1.0839
B( 17-C , 19-H ) :   0.8755 B( 18-C , 20-C ) :   1.2943 B( 18-C , 22-S ) :   1.2137
B( 20-C , 21-C ) :   1.2880 B( 20-C , 24-H ) :   0.4157 B( 21-C , 23-C ) :   1.5381
B( 21-C , 25-H ) :   0.9057 B( 22-S , 23-C ) :   1.2145 B( 23-C , 26-H ) :   0.8923
B( 24-H , 30-O ) :   0.2764 B( 30-O , 32-C ) :   1.6257 B( 31-O , 32-C ) :   1.3216
B( 32-C , 33-C ) :   0.9487 B( 33-C , 34-H ) :   0.9028 B( 33-C , 35-H ) :   0.8958
B( 33-C , 36-H ) :   0.9085

Dispersion correction           -0.030523786
FINAL SINGLE POINT ENERGY     -1288.395347122498

DIPOLE MOMENT
-------------
                                X             Y             Z
Electronic contribution:     35.31707     -71.15134      79.42916
Nuclear contribution   :    -35.93785      70.17235     -79.51355
                        -----------------------------------------
Total Dipole Moment    :     -0.62078      -0.97899      -0.08439
                        -----------------------------------------
Magnitude (a.u.)       :      1.16228
Magnitude (Debye)      :      2.95429

Rotational constants in cm-1:     0.010547     0.008822     0.008095
Rotational constants in MHz :   316.202433   264.490670   242.674044

                             ****ORCA TERMINATED NORMALLY****
TOTAL RUN TIME: 0 days 1 hours 53 minutes 40 seconds 398 msec
