                         Program Version 5.0.3 -  RELEASE  -
|  1> ! Opt PBEh-3c
|  2> %geom Constraints
|  3> { B 0 20 2.5571428571428574 C }
|  4> { B 24 30 1.3571428571428572 C }
|  5>     end
|  6> end
|  7> %output
|  8> xyzfile=True
|  9> end
| 10> %scf
| 11> maxiter 250
| 12> end
| 13> %output
| 14> Print[P_Hirshfeld] = 1
| 15> end
| 16> % maxcore
| 17> 4000
| 18> *xyz 1 1
| 19> Ir   0.56467039  -0.74045470   0.50390140
| 20> C    0.00808785  -2.81594070   0.36382747
| 21> C    0.08847416  -2.37855666   1.73705636
| 22> C    2.17552964  -2.15641281   0.79354190
| 23> C    1.27384678  -2.64859446  -0.22430921
| 24> C    1.45793106  -2.03019487   1.99473724
| 25> N   -1.04036295   0.16055188  -0.50599195
| 26> C   -2.32034642   0.49218595   0.14126259
| 27> C   -3.13076159   1.53606805  -0.61022140
| 28> H   -3.96747969   1.84698994   0.01379537
| 29> H   -3.56058820   1.15490211  -1.53792679
| 30> H   -2.54498474   2.42827428  -0.83371887
| 31> C   -3.12409527  -0.78137179   0.37280629
| 32> H   -2.04020327   0.90780780   1.11084838
| 33> H   -4.04625199  -0.54039396   0.89944034
| 34> H   -3.39473724  -1.25636087  -0.57116816
| 35> H   -2.58408968  -1.50316008   0.98405648
| 36> C   -0.82503484   0.36388155  -1.74865336
| 37> C    0.52686476   0.15861689  -2.22087729
| 38> H   -1.60627026   0.71348006  -2.41799294
| 39> C    1.63658103   0.54922129  -1.48299152
| 40> C    2.83349784   0.15474367  -2.14541734
| 41> S    0.93756864  -0.60826234  -3.69530045
| 42> C    2.60941317  -0.46718416  -3.33454537
| 43> H    1.54423065   1.41753536  -0.64699758
| 44> H    3.82460323   0.37472306  -1.77580215
| 45> H    3.34069323  -0.83492599  -4.03852696
| 46> H   -0.88194930  -3.16917443  -0.13679342
| 47> H   -0.70278956  -2.41739487   2.47148071
| 48> H    1.84508312  -1.65172372   2.92983002
| 49> O    1.33396402   2.42187359   0.26289746
| 50> O    0.53893411   0.90492857   1.69351541
| 51> C    0.92581042   2.09418411   1.37712371
| 52> C    0.88030837   3.08899373   2.50148377
| 53> H    0.83712698   4.10380314   2.11551384
| 54> H    1.79201445   2.99646618   3.09505263
| 55> H    0.04066396   2.90629802   3.16865628
| 56> H    3.22009409  -1.92232354   0.65004573
| 57> H    1.53332303  -2.85390927  -1.25289850
| 58> *
| 59>
| 60>                          ****END OF INPUT****
 Total Charge           Charge          ....    1
 Multiplicity           Mult            ....    1
 Number of Electrons    NEL             ....  164
Dispersion correction           -0.030885578
FINAL SINGLE POINT ENERGY     -1288.393152013685
Dispersion correction            ... done
Dispersion correction           -0.030832335
FINAL SINGLE POINT ENERGY     -1288.393311664903
Dispersion correction            ... done
Dispersion correction           -0.030804111
FINAL SINGLE POINT ENERGY     -1288.393367707336
Dispersion correction            ... done
FINAL SINGLE POINT ENERGY     -1288.393385065866
FINAL SINGLE POINT ENERGY     -1288.393398479431
FINAL SINGLE POINT ENERGY     -1288.393403889822
FINAL SINGLE POINT ENERGY     -1288.393409674845
FINAL SINGLE POINT ENERGY     -1288.393414748514
FINAL SINGLE POINT ENERGY     -1288.393419349752
FINAL SINGLE POINT ENERGY     -1288.393423561392
Dispersion correction            ... done
Dispersion correction           -0.030734063
FINAL SINGLE POINT ENERGY     -1288.393426643082
Dispersion correction            ... done
Dispersion correction           -0.030728702
FINAL SINGLE POINT ENERGY     -1288.393428558565
Dispersion correction            ... done
                    ***********************HURRAY********************

CARTESIAN COORDINATES (ANGSTROEM)
---------------------------------
  Ir     0.571505   -0.737312    0.507187
  C      0.019564   -2.815402    0.373584
  C      0.073524   -2.371530    1.745183
  C      2.178494   -2.149726    0.838171
  C      1.295993   -2.649595   -0.192486
  C      1.436448   -2.017006    2.024569
  N     -1.040159    0.148766   -0.503897
  C     -2.322413    0.464129    0.148008
  C     -3.116451    1.548086   -0.563848
  H     -3.951059    1.846159    0.069290
  H     -3.548642    1.210330   -1.507049
  H     -2.516376    2.439134   -0.750484
  C     -3.139073   -0.811220    0.317621
  H     -2.047324    0.834712    1.136963
  H     -4.062157   -0.586599    0.849924
  H     -3.407913   -1.240884   -0.648302
  H     -2.607411   -1.564556    0.897266
  C     -0.836890    0.355684   -1.748870
  C      0.510301    0.164287   -2.233597
  H     -1.628256    0.698805   -2.409634
  C      1.619128    0.502308   -1.468871
  C      2.816025    0.127078   -2.141371
  S      0.922192   -0.533587   -3.739774
  C      2.592552   -0.430944   -3.362527
  H      1.542504    1.389163   -0.628364
  H      3.807286    0.316277   -1.755514
  H      3.324220   -0.770574   -4.080096
  H     -0.859734   -3.174085   -0.141921
  H     -0.731034   -2.408400    2.464976
  H      1.805129   -1.631851    2.964422
  O      1.370127    2.411851    0.246982
  O      0.537635    0.921779    1.683634
  C      0.943958    2.099996    1.361538
  C      0.902970    3.110378    2.471511
  H      0.844202    4.119263    2.072080
  H      1.825188    3.036601    3.051384
  H      0.075101    2.928045    3.152977
  H      3.226255   -1.919009    0.714896
  H      1.573964   -2.861361   -1.214821

 Multiplicity           Mult            ....    1
 Number of Electrons    NEL             ....  164
 Basis Dimension        Dim             ....  358

ORBITAL ENERGIES
----------------

  NO   OCC          E(Eh)            E(eV)
   0   2.0000     -89.756471     -2442.3978
   1   2.0000     -19.627575      -534.0935
   2   2.0000     -19.593575      -533.1683
   3   2.0000     -14.838753      -403.7830
   4   2.0000     -10.685849      -290.7767
   5   2.0000     -10.660056      -290.0749
   6   2.0000     -10.638122      -289.4780
   7   2.0000     -10.635761      -289.4138
   8   2.0000     -10.634947      -289.3916
   9   2.0000     -10.633040      -289.3397
  10   2.0000     -10.632458      -289.3239
  11   2.0000     -10.625450      -289.1332
  12   2.0000     -10.615900      -288.8733
  13   2.0000     -10.606078      -288.6061
  14   2.0000     -10.578821      -287.8643
  15   2.0000     -10.576605      -287.8040
  16   2.0000     -10.557039      -287.2716
  17   2.0000     -10.551736      -287.1273
  18   2.0000     -10.535337      -286.6811
  19   2.0000      -8.395839      -228.4624
  20   2.0000      -6.285905      -171.0482
  21   2.0000      -6.282294      -170.9499
  22   2.0000      -6.280565      -170.9029
  23   2.0000      -4.031161      -109.6935
  24   2.0000      -2.350628       -63.9638
  25   2.0000      -2.316171       -63.0262
  26   2.0000      -2.314272       -62.9745
  27   2.0000      -1.310926       -35.6721
  28   2.0000      -1.214998       -33.0618
  29   2.0000      -1.210078       -32.9279
  30   2.0000      -1.175090       -31.9758
  31   2.0000      -1.120959       -30.5028
  32   2.0000      -1.024945       -27.8902
  33   2.0000      -0.989889       -26.9362
  34   2.0000      -0.979989       -26.6669
  35   2.0000      -0.961280       -26.1578
  36   2.0000      -0.954790       -25.9812
  37   2.0000      -0.930265       -25.3138
  38   2.0000      -0.902985       -24.5715
  39   2.0000      -0.871201       -23.7066
  40   2.0000      -0.795944       -21.6587
  41   2.0000      -0.790723       -21.5167
  42   2.0000      -0.789084       -21.4721
  43   2.0000      -0.778690       -21.1892
  44   2.0000      -0.773032       -21.0353
  45   2.0000      -0.759417       -20.6648
  46   2.0000      -0.743130       -20.2216
  47   2.0000      -0.722449       -19.6588
  48   2.0000      -0.693516       -18.8715
  49   2.0000      -0.674656       -18.3583
  50   2.0000      -0.664143       -18.0723
  51   2.0000      -0.652284       -17.7495
  52   2.0000      -0.649750       -17.6806
  53   2.0000      -0.641236       -17.4489
  54   2.0000      -0.639228       -17.3943
  55   2.0000      -0.632689       -17.2163
  56   2.0000      -0.623714       -16.9721
  57   2.0000      -0.611119       -16.6294
  58   2.0000      -0.610329       -16.6079
  59   2.0000      -0.607851       -16.5405
  60   2.0000      -0.595353       -16.2004
  61   2.0000      -0.586399       -15.9567
  62   2.0000      -0.574376       -15.6296
  63   2.0000      -0.567670       -15.4471
  64   2.0000      -0.562088       -15.2952
  65   2.0000      -0.556037       -15.1305
  66   2.0000      -0.552530       -15.0351
  67   2.0000      -0.548516       -14.9259
  68   2.0000      -0.539713       -14.6863
  69   2.0000      -0.533943       -14.5293
  70   2.0000      -0.527554       -14.3555
  71   2.0000      -0.521039       -14.1782
  72   2.0000      -0.516173       -14.0458
  73   2.0000      -0.508155       -13.8276
  74   2.0000      -0.491954       -13.3867
  75   2.0000      -0.480558       -13.0767
  76   2.0000      -0.462600       -12.5880
  77   2.0000      -0.451897       -12.2967
  78   2.0000      -0.442230       -12.0337
  79   2.0000      -0.420666       -11.4469
  80   2.0000      -0.416984       -11.3467
  81   2.0000      -0.402587       -10.9549
  82   0.0000      -0.200409        -5.4534
  83   0.0000      -0.165434        -4.5017
  84   0.0000      -0.141482        -3.8499
  85   0.0000      -0.096145        -2.6162
  86   0.0000      -0.075644        -2.0584

MULLIKEN ATOMIC CHARGES
-----------------------
   0 Ir:    0.621413
   1 C :   -0.209071
   2 C :   -0.295837
   3 C :   -0.231515
   4 C :   -0.243208
   5 C :   -0.167513
   6 N :   -0.432820
   7 C :   -0.119684
   8 C :   -0.692229
   9 H :    0.271862
  10 H :    0.226138
  11 H :    0.260284
  12 C :   -0.638005
  13 H :    0.279830
  14 H :    0.264452
  15 H :    0.231110
  16 H :    0.231259
  17 C :    0.067887
  18 C :   -0.212849
  19 H :    0.289901
  20 C :   -0.404121
  21 C :   -0.149923
  22 S :    0.294020
  23 C :   -0.426303
  24 H :    0.502150
  25 H :    0.263519
  26 H :    0.295225
  27 H :    0.293005
  28 H :    0.294117
  29 H :    0.306719
  30 O :   -0.490941
  31 O :   -0.538967
  32 C :    0.620112
  33 C :   -0.746206
  34 H :    0.270343
  35 H :    0.267643
  36 H :    0.254342
  37 H :    0.296539
  38 H :    0.297322
Sum of atomic charges:    1.0000000

LOEWDIN ATOMIC CHARGES
----------------------
   0 Ir:   -0.208927
   1 C :   -0.040286
   2 C :   -0.057114
   3 C :   -0.047926
   4 C :   -0.051897
   5 C :   -0.026351
   6 N :   -0.012589
   7 C :   -0.068536
   8 C :   -0.364369
   9 H :    0.157108
  10 H :    0.133815
  11 H :    0.146719
  12 C :   -0.343714
  13 H :    0.155538
  14 H :    0.152974
  15 H :    0.137351
  16 H :    0.133434
  17 C :    0.037031
  18 C :   -0.197053
  19 H :    0.161855
  20 C :   -0.193806
  21 C :   -0.147705
  22 S :    0.455593
  23 C :   -0.261719
  24 H :    0.295546
  25 H :    0.160387
  26 H :    0.166854
  27 H :    0.186087
  28 H :    0.186530
  29 H :    0.193736
  30 O :   -0.277360
  31 O :   -0.203967
  32 C :    0.160152
  33 C :   -0.375462
  34 H :    0.160533
  35 H :    0.168064
  36 H :    0.153591
  37 H :    0.188421
  38 H :    0.187465

  Mayer bond orders larger than 0.100000
B(  0-Ir,  1-C ) :   0.4231 B(  0-Ir,  2-C ) :   0.5541 B(  0-Ir,  3-C ) :   0.4617
B(  0-Ir,  4-C ) :   0.4563 B(  0-Ir,  5-C ) :   0.4041 B(  0-Ir,  6-N ) :   0.4691
B(  0-Ir, 20-C ) :   0.2254 B(  0-Ir, 31-O ) :   0.5780 B(  1-C ,  2-C ) :   1.1126
B(  1-C ,  4-C ) :   1.2435 B(  1-C , 27-H ) :   0.9027 B(  2-C ,  5-C ) :   1.1287
B(  2-C , 28-H ) :   0.9064 B(  3-C ,  4-C ) :   1.1045 B(  3-C ,  5-C ) :   1.2359
B(  3-C , 37-H ) :   0.9028 B(  4-C , 38-H ) :   0.8982 B(  5-C , 29-H ) :   0.8978
B(  6-N ,  7-C ) :   0.8910 B(  6-N , 17-C ) :   1.6868 B(  7-C ,  8-C ) :   0.9923
B(  7-C , 12-C ) :   0.9692 B(  7-C , 13-H ) :   0.8738 B(  8-C ,  9-H ) :   0.9036
B(  8-C , 10-H ) :   0.9125 B(  8-C , 11-H ) :   0.9084 B( 12-C , 14-H ) :   0.9064
B( 12-C , 15-H ) :   0.9154 B( 12-C , 16-H ) :   0.9117 B( 17-C , 18-C ) :   1.0618
B( 17-C , 19-H ) :   0.8742 B( 18-C , 20-C ) :   1.3078 B( 18-C , 22-S ) :   1.2076
B( 20-C , 21-C ) :   1.2758 B( 20-C , 24-H ) :   0.4651 B( 21-C , 23-C ) :   1.5424
B( 21-C , 25-H ) :   0.9052 B( 22-S , 23-C ) :   1.2065 B( 23-C , 26-H ) :   0.8930
B( 24-H , 30-O ) :   0.2380 B( 30-O , 32-C ) :   1.6708 B( 31-O , 32-C ) :   1.2879
B( 32-C , 33-C ) :   0.9482 B( 33-C , 34-H ) :   0.9043 B( 33-C , 35-H ) :   0.8976
B( 33-C , 36-H ) :   0.9092

Dispersion correction           -0.030726616
FINAL SINGLE POINT ENERGY     -1288.393429763699

DIPOLE MOMENT
-------------
                                X             Y             Z
Electronic contribution:     33.43147     -69.24831      78.10507
Nuclear contribution   :    -34.06289      68.06679     -78.21069
                        -----------------------------------------
Total Dipole Moment    :     -0.63142      -1.18152      -0.10562
                        -----------------------------------------
Magnitude (a.u.)       :      1.34382
Magnitude (Debye)      :      3.41571

Rotational constants in cm-1:     0.010617     0.008956     0.008185
Rotational constants in MHz :   318.281416   268.484801   245.382907

                             ****ORCA TERMINATED NORMALLY****
TOTAL RUN TIME: 0 days 1 hours 30 minutes 9 seconds 872 msec
