                         Program Version 5.0.3 -  RELEASE  -
|  1> ! Opt PBEh-3c
|  2> %geom Constraints
|  3> { B 0 20 2.085714285714286 C }
|  4> { B 24 30 1.4714285714285715 C }
|  5>     end
|  6> end
|  7> %output
|  8> xyzfile=True
|  9> end
| 10> %scf
| 11> maxiter 250
| 12> end
| 13> %output
| 14> Print[P_Hirshfeld] = 1
| 15> end
| 16> % maxcore
| 17> 4000
| 18> *xyz 1 1
| 19> Ir   0.63517105  -0.71621010   0.40755795
| 20> C    0.14971452  -2.83503790   0.30999243
| 21> C    0.00588832  -2.38533943   1.66941414
| 22> C    2.20738570  -2.07454496   1.03460896
| 23> C    1.49253334  -2.64841807  -0.07688146
| 24> C    1.28498595  -1.94406359   2.10262551
| 25> N   -1.05250755   0.13463947  -0.51677975
| 26> C   -2.31028952   0.38774850   0.20184472
| 27> C   -3.09135288   1.57872590  -0.33417115
| 28> H   -3.90924885   1.80013906   0.34996040
| 29> H   -3.54423533   1.38542109  -1.30753013
| 30> H   -2.47299707   2.47380025  -0.40497682
| 31> C   -3.15385510  -0.88254060   0.20246945
| 32> H   -2.00814632   0.60880871   1.22631157
| 33> H   -4.04581096  -0.73265344   0.80919980
| 34> H   -3.47642817  -1.14213888  -0.80663453
| 35> H   -2.61308488  -1.73146829   0.61793307
| 36> C   -0.90828454   0.42036207  -1.75729701
| 37> C    0.41485180   0.21588164  -2.27499037
| 38> H   -1.71467774   0.82494649  -2.36056949
| 39> C    1.46760034   0.13787758  -1.35551098
| 40> C    2.68653038  -0.15523650  -2.04816900
| 41> S    0.89063083  -0.05746782  -3.87548293
| 42> C    2.52251655  -0.28481719  -3.39088001
| 43> H    1.54827870   1.15092722  -0.67395953
| 44> H    3.65249689  -0.20828144  -1.56722988
| 45> H    3.27846963  -0.47768859  -4.13680867
| 46> H   -0.63213344  -3.25169194  -0.30830536
| 47> H   -0.88629645  -2.43494168   2.27497655
| 48> H    1.50324879  -1.51019342   3.06824493
| 49> O    1.51558034   2.40480348   0.12232688
| 50> O    0.56794706   0.98720305   1.55475915
| 51> C    1.01987359   2.14007146   1.22279022
| 52> C    0.94756817   3.19556724   2.29008755
| 53> H    0.89985205   4.18779183   1.84927899
| 54> H    1.85408285   3.14605946   2.89611876
| 55> H    0.10023088   3.03877766   2.95328290
| 56> H    3.26218872  -1.85057582   1.07433100
| 57> H    1.91109243  -2.89705252  -1.04119771
| 58> *
| 59>
| 60>                          ****END OF INPUT****
 Total Charge           Charge          ....    1
 Multiplicity           Mult            ....    1
 Number of Electrons    NEL             ....  164
Dispersion correction           -0.031023483
FINAL SINGLE POINT ENERGY     -1288.397266859024
Dispersion correction            ... done
Dispersion correction           -0.030955638
FINAL SINGLE POINT ENERGY     -1288.397290856688
Dispersion correction            ... done
Dispersion correction           -0.030963471
FINAL SINGLE POINT ENERGY     -1288.396888985007
Dispersion correction            ... done
FINAL SINGLE POINT ENERGY     -1288.397592740617
FINAL SINGLE POINT ENERGY     -1288.397634912807
FINAL SINGLE POINT ENERGY     -1288.397691865476
FINAL SINGLE POINT ENERGY     -1288.397689444756
FINAL SINGLE POINT ENERGY     -1288.397691456526
FINAL SINGLE POINT ENERGY     -1288.397692059645
FINAL SINGLE POINT ENERGY     -1288.397683225807
FINAL SINGLE POINT ENERGY     -1288.397676867836
FINAL SINGLE POINT ENERGY     -1288.397670843221
FINAL SINGLE POINT ENERGY     -1288.397677886796
Dispersion correction            ... done
Dispersion correction           -0.030840831
FINAL SINGLE POINT ENERGY     -1288.397681652234
Dispersion correction            ... done
Dispersion correction           -0.030837722
FINAL SINGLE POINT ENERGY     -1288.397682918944
Dispersion correction            ... done
                    ***********************HURRAY********************

CARTESIAN COORDINATES (ANGSTROEM)
---------------------------------
  Ir     0.623402   -0.714285    0.399338
  C      0.143046   -2.836225    0.331789
  C     -0.025715   -2.379044    1.685836
  C      2.184873   -2.060637    1.083627
  C      1.494104   -2.651631   -0.031744
  C      1.239568   -1.924450    2.134305
  N     -1.067663    0.134475   -0.521041
  C     -2.332124    0.353718    0.195842
  C     -3.137981    1.533778   -0.327608
  H     -3.962289    1.727610    0.356945
  H     -3.583978    1.341742   -1.304487
  H     -2.540246    2.443683   -0.385518
  C     -3.151102   -0.932691    0.175426
  H     -2.038870    0.567860    1.224627
  H     -4.051951   -0.806853    0.774570
  H     -3.458459   -1.186961   -0.839746
  H     -2.599175   -1.776237    0.586486
  C     -0.918312    0.467730   -1.749788
  C      0.402099    0.274551   -2.270979
  H     -1.722859    0.895264   -2.339088
  C      1.437442    0.085865   -1.346315
  C      2.655682   -0.189399   -2.050803
  S      0.892536    0.132367   -3.883637
  C      2.507373   -0.191643   -3.401972
  H      1.599661    1.118098   -0.665062
  H      3.613330   -0.315983   -1.566785
  H      3.268594   -0.342609   -4.152189
  H     -0.624112   -3.266406   -0.295459
  H     -0.928076   -2.426113    2.276048
  H      1.438106   -1.477699    3.098336
  O      1.682162    2.350847    0.134078
  O      0.558669    1.015955    1.517531
  C      1.100318    2.131471    1.205087
  C      1.029771    3.211877    2.246741
  H      1.025162    4.194615    1.782253
  H      1.917871    3.150440    2.878154
  H      0.159054    3.095719    2.887084
  H      3.238647   -1.836371    1.143355
  H      1.930815   -2.913236   -0.984500

 Multiplicity           Mult            ....    1
 Number of Electrons    NEL             ....  164
 Basis Dimension        Dim             ....  358

ORBITAL ENERGIES
----------------

  NO   OCC          E(Eh)            E(eV)
   0   2.0000     -89.769636     -2442.7560
   1   2.0000     -19.627757      -534.0984
   2   2.0000     -19.607436      -533.5455
   3   2.0000     -14.837926      -403.7605
   4   2.0000     -10.687383      -290.8185
   5   2.0000     -10.657417      -290.0031
   6   2.0000     -10.632541      -289.3262
   7   2.0000     -10.626339      -289.1574
   8   2.0000     -10.624749      -289.1141
   9   2.0000     -10.623578      -289.0823
  10   2.0000     -10.616127      -288.8795
  11   2.0000     -10.614189      -288.8268
  12   2.0000     -10.613851      -288.8176
  13   2.0000     -10.613357      -288.8041
  14   2.0000     -10.593204      -288.2557
  15   2.0000     -10.591095      -288.1984
  16   2.0000     -10.554486      -287.2022
  17   2.0000     -10.551324      -287.1161
  18   2.0000     -10.538828      -286.7761
  19   2.0000      -8.409003      -228.8206
  20   2.0000      -6.298849      -171.4004
  21   2.0000      -6.295263      -171.3028
  22   2.0000      -6.294054      -171.2699
  23   2.0000      -4.021605      -109.4334
  24   2.0000      -2.338850       -63.6433
  25   2.0000      -2.307978       -62.8033
  26   2.0000      -2.304996       -62.7221
  27   2.0000      -1.313845       -35.7515
  28   2.0000      -1.215979       -33.0885
  29   2.0000      -1.210305       -32.9341
  30   2.0000      -1.161391       -31.6031
  31   2.0000      -1.132072       -30.8052
  32   2.0000      -1.026990       -27.9458
  33   2.0000      -0.974526       -26.5182
  34   2.0000      -0.973996       -26.5038
  35   2.0000      -0.967881       -26.3374
  36   2.0000      -0.961832       -26.1728
  37   2.0000      -0.932373       -25.3712
  38   2.0000      -0.901381       -24.5278
  39   2.0000      -0.875249       -23.8167
  40   2.0000      -0.801247       -21.8030
  41   2.0000      -0.785130       -21.3645
  42   2.0000      -0.777762       -21.1640
  43   2.0000      -0.776978       -21.1427
  44   2.0000      -0.762394       -20.7458
  45   2.0000      -0.755341       -20.5539
  46   2.0000      -0.744159       -20.2496
  47   2.0000      -0.723482       -19.6870
  48   2.0000      -0.691079       -18.8052
  49   2.0000      -0.682067       -18.5600
  50   2.0000      -0.664778       -18.0895
  51   2.0000      -0.652563       -17.7571
  52   2.0000      -0.646650       -17.5962
  53   2.0000      -0.634887       -17.2761
  54   2.0000      -0.632173       -17.2023
  55   2.0000      -0.627748       -17.0819
  56   2.0000      -0.622554       -16.9406
  57   2.0000      -0.613784       -16.7019
  58   2.0000      -0.602885       -16.4053
  59   2.0000      -0.598176       -16.2772
  60   2.0000      -0.597264       -16.2524
  61   2.0000      -0.592697       -16.1281
  62   2.0000      -0.582000       -15.8370
  63   2.0000      -0.572049       -15.5662
  64   2.0000      -0.563621       -15.3369
  65   2.0000      -0.561871       -15.2893
  66   2.0000      -0.552082       -15.0229
  67   2.0000      -0.547823       -14.9070
  68   2.0000      -0.542180       -14.7535
  69   2.0000      -0.536600       -14.6016
  70   2.0000      -0.529578       -14.4105
  71   2.0000      -0.518971       -14.1219
  72   2.0000      -0.513853       -13.9827
  73   2.0000      -0.497916       -13.5490
  74   2.0000      -0.490590       -13.3496
  75   2.0000      -0.488006       -13.2793
  76   2.0000      -0.477684       -12.9984
  77   2.0000      -0.447372       -12.1736
  78   2.0000      -0.442850       -12.0506
  79   2.0000      -0.422221       -11.4892
  80   2.0000      -0.414746       -11.2858
  81   2.0000      -0.394520       -10.7354
  82   0.0000      -0.210664        -5.7325
  83   0.0000      -0.143786        -3.9126
  84   0.0000      -0.132744        -3.6122
  85   0.0000      -0.090214        -2.4548
  86   0.0000      -0.077219        -2.1012

MULLIKEN ATOMIC CHARGES
-----------------------
   0 Ir:    0.607430
   1 C :   -0.236212
   2 C :   -0.259922
   3 C :   -0.268082
   4 C :   -0.229441
   5 C :   -0.152866
   6 N :   -0.427805
   7 C :   -0.126413
   8 C :   -0.684791
   9 H :    0.270614
  10 H :    0.224192
  11 H :    0.255928
  12 C :   -0.634519
  13 H :    0.283068
  14 H :    0.260301
  15 H :    0.232177
  16 H :    0.234052
  17 C :    0.070378
  18 C :   -0.120822
  19 H :    0.287944
  20 C :   -0.583433
  21 C :   -0.086940
  22 S :    0.346712
  23 C :   -0.430582
  24 H :    0.470645
  25 H :    0.270017
  26 H :    0.299734
  27 H :    0.285220
  28 H :    0.282688
  29 H :    0.299472
  30 O :   -0.467836
  31 O :   -0.522007
  32 C :    0.621942
  33 C :   -0.743186
  34 H :    0.270723
  35 H :    0.270737
  36 H :    0.256502
  37 H :    0.282448
  38 H :    0.291932
Sum of atomic charges:    1.0000000

LOEWDIN ATOMIC CHARGES
----------------------
   0 Ir:   -0.257065
   1 C :   -0.055252
   2 C :   -0.096201
   3 C :   -0.092243
   4 C :   -0.046745
   5 C :   -0.015833
   6 N :    0.003112
   7 C :   -0.069813
   8 C :   -0.362790
   9 H :    0.156835
  10 H :    0.132878
  11 H :    0.144400
  12 C :   -0.343398
  13 H :    0.156798
  14 H :    0.151423
  15 H :    0.137760
  16 H :    0.133649
  17 C :    0.026915
  18 C :   -0.175671
  19 H :    0.161824
  20 C :   -0.219149
  21 C :   -0.117661
  22 S :    0.505909
  23 C :   -0.259686
  24 H :    0.340532
  25 H :    0.164142
  26 H :    0.170188
  27 H :    0.181868
  28 H :    0.179931
  29 H :    0.189078
  30 O :   -0.263316
  31 O :   -0.195072
  32 C :    0.155177
  33 C :   -0.373368
  34 H :    0.161618
  35 H :    0.169559
  36 H :    0.154198
  37 H :    0.181798
  38 H :    0.183671

  Mayer bond orders larger than 0.100000
B(  0-Ir,  1-C ) :   0.4321 B(  0-Ir,  2-C ) :   0.4097 B(  0-Ir,  3-C ) :   0.4660
B(  0-Ir,  4-C ) :   0.4251 B(  0-Ir,  5-C ) :   0.3729 B(  0-Ir,  6-N ) :   0.4623
B(  0-Ir, 20-C ) :   0.4799 B(  0-Ir, 31-O ) :   0.5432 B(  1-C ,  2-C ) :   1.1291
B(  1-C ,  4-C ) :   1.2331 B(  1-C , 27-H ) :   0.9078 B(  2-C ,  5-C ) :   1.2036
B(  2-C , 28-H ) :   0.9101 B(  3-C ,  4-C ) :   1.1307 B(  3-C ,  5-C ) :   1.1838
B(  3-C , 37-H ) :   0.9127 B(  4-C , 38-H ) :   0.8995 B(  5-C , 29-H ) :   0.9006
B(  6-N ,  7-C ) :   0.8955 B(  6-N , 17-C ) :   1.6533 B(  7-C ,  8-C ) :   0.9905
B(  7-C , 12-C ) :   0.9657 B(  7-C , 13-H ) :   0.8736 B(  8-C ,  9-H ) :   0.9043
B(  8-C , 10-H ) :   0.9130 B(  8-C , 11-H ) :   0.9110 B( 12-C , 14-H ) :   0.9074
B( 12-C , 15-H ) :   0.9152 B( 12-C , 16-H ) :   0.9114 B( 17-C , 18-C ) :   1.1035
B( 17-C , 19-H ) :   0.8759 B( 18-C , 20-C ) :   1.2120 B( 18-C , 22-S ) :   1.2634
B( 20-C , 21-C ) :   1.2439 B( 20-C , 24-H ) :   0.4052 B( 21-C , 23-C ) :   1.5572
B( 21-C , 25-H ) :   0.9010 B( 22-S , 23-C ) :   1.2052 B( 23-C , 26-H ) :   0.8909
B( 24-H , 30-O ) :   0.2984 B( 30-O , 32-C ) :   1.6377 B( 31-O , 32-C ) :   1.3291
B( 32-C , 33-C ) :   0.9426 B( 33-C , 34-H ) :   0.9030 B( 33-C , 35-H ) :   0.8962
B( 33-C , 36-H ) :   0.9088

Dispersion correction           -0.030836824
FINAL SINGLE POINT ENERGY     -1288.397682466499

DIPOLE MOMENT
-------------
                                X             Y             Z
Electronic contribution:     38.37572     -71.27260      68.73531
Nuclear contribution   :    -39.03515      70.55611     -69.18475
                        -----------------------------------------
Total Dipole Moment    :     -0.65944      -0.71648      -0.44944
                        -----------------------------------------
Magnitude (a.u.)       :      1.07247
Magnitude (Debye)      :      2.72601

Rotational constants in cm-1:     0.010515     0.009037     0.008265
Rotational constants in MHz :   315.239213   270.919140   247.784254

                             ****ORCA TERMINATED NORMALLY****
TOTAL RUN TIME: 0 days 1 hours 57 minutes 9 seconds 722 msec
