                         Program Version 5.0.3 -  RELEASE  -
|  1> ! Opt PBEh-3c
|  2> %geom Constraints
|  3> { B 0 20 2.0428571428571427 C }
|  4> { B 24 30 1.4 C }
|  5>     end
|  6> end
|  7> %output
|  8> xyzfile=True
|  9> end
| 10> %scf
| 11> maxiter 250
| 12> end
| 13> %output
| 14> Print[P_Hirshfeld] = 1
| 15> end
| 16> % maxcore
| 17> 4000
| 18> *xyz 1 1
| 19> Ir   0.61924049  -0.72767678   0.40722923
| 20> C    0.15301458  -2.84698759   0.32883357
| 21> C   -0.06880429  -2.39838076   1.67929606
| 22> C    2.16040124  -2.06131894   1.16050220
| 23> C    1.51866324  -2.65699180   0.02153029
| 24> C    1.17139421  -1.93578748   2.17586235
| 25> N   -1.07064428   0.12182261  -0.51266251
| 26> C   -2.33867178   0.32215901   0.20392196
| 27> C   -3.13556816   1.52416331  -0.28244513
| 28> H   -3.96365777   1.69761935   0.40292003
| 29> H   -3.57504539   1.37076940  -1.26901399
| 30> H   -2.53230616   2.43205038  -0.30339081
| 31> C   -3.16325287  -0.95872413   0.13419603
| 32> H   -2.05218918   0.50090931   1.24140316
| 33> H   -4.06550725  -0.85240548   0.73509034
| 34> H   -3.46821458  -1.17403225  -0.89067724
| 35> H   -2.61548753  -1.81965318   0.51375681
| 36> C   -0.92230666   0.47725698  -1.73587144
| 37> C    0.39514152   0.29600391  -2.26566430
| 38> H   -1.72967074   0.91351525  -2.31485459
| 39> C    1.42506335   0.05403790  -1.35054656
| 40> C    2.64256741  -0.19565676  -2.06263311
| 41> S    0.89180879   0.24294874  -3.88403998
| 42> C    2.49957150  -0.12094741  -3.41359647
| 43> H    1.61730463   1.13021383  -0.66170925
| 44> H    3.59703457  -0.36133945  -1.58403361
| 45> H    3.26356754  -0.23862608  -4.16700044
| 46> H   -0.58437875  -3.28602508  -0.32718291
| 47> H   -0.99319664  -2.45152831   2.23372264
| 48> H    1.32855906  -1.48965168   3.14776891
| 49> O    1.72200763   2.31887180   0.09745712
| 50> O    0.57651063   1.02640552   1.50158272
| 51> C    1.13206086   2.12408633   1.17583197
| 52> C    1.08198888   3.23282560   2.18654964
| 53> H    0.96991302   4.19545444   1.69306912
| 54> H    2.02776995   3.25717024   2.73053173
| 55> H    0.28094386   3.08496227   2.90537881
| 56> H    3.21022848  -1.83471849   1.26387852
| 57> H    1.99351661  -2.91360458  -0.91425078
| 58> *
| 59>
| 60>                          ****END OF INPUT****
 Total Charge           Charge          ....    1
 Multiplicity           Mult            ....    1
 Number of Electrons    NEL             ....  164
Dispersion correction           -0.030878415
FINAL SINGLE POINT ENERGY     -1288.398736000164
Dispersion correction            ... done
Dispersion correction           -0.030834065
FINAL SINGLE POINT ENERGY     -1288.398754194714
Dispersion correction            ... done
Dispersion correction           -0.030850124
FINAL SINGLE POINT ENERGY     -1288.397736838979
Dispersion correction            ... done
FINAL SINGLE POINT ENERGY     -1288.399065000661
FINAL SINGLE POINT ENERGY     -1288.399101422033
FINAL SINGLE POINT ENERGY     -1288.399138574423
FINAL SINGLE POINT ENERGY     -1288.399193655132
FINAL SINGLE POINT ENERGY     -1288.399201795396
FINAL SINGLE POINT ENERGY     -1288.399206367043
FINAL SINGLE POINT ENERGY     -1288.399209566133
FINAL SINGLE POINT ENERGY     -1288.399211288192
FINAL SINGLE POINT ENERGY     -1288.399212766251
FINAL SINGLE POINT ENERGY     -1288.399214720015
FINAL SINGLE POINT ENERGY     -1288.399217503986
Dispersion correction            ... done
Dispersion correction           -0.030783920
FINAL SINGLE POINT ENERGY     -1288.399220251107
Dispersion correction            ... done
Dispersion correction           -0.030785597
FINAL SINGLE POINT ENERGY     -1288.399221623674
Dispersion correction            ... done
                    ***********************HURRAY********************

CARTESIAN COORDINATES (ANGSTROEM)
---------------------------------
  Ir     0.620487   -0.734434    0.396119
  C      0.170426   -2.855273    0.319440
  C     -0.087072   -2.420970    1.669275
  C      2.148474   -2.053397    1.203238
  C      1.544674   -2.656889    0.050792
  C      1.129818   -1.945451    2.196639
  N     -1.076678    0.113487   -0.509872
  C     -2.342258    0.303407    0.213205
  C     -3.133448    1.520689   -0.243500
  H     -3.961026    1.681080    0.445640
  H     -3.572852    1.394740   -1.233966
  H     -2.525450    2.425669   -0.241471
  C     -3.172506   -0.971932    0.115478
  H     -2.053522    0.457265    1.254080
  H     -4.070639   -0.878373    0.724649
  H     -3.484435   -1.159361   -0.912762
  H     -2.625022   -1.844519    0.468034
  C     -0.932671    0.483694   -1.729793
  C      0.383104    0.302833   -2.261085
  H     -1.740369    0.929545   -2.300647
  C      1.397205    0.009972   -1.340497
  C      2.623112   -0.217091   -2.049337
  S      0.902838    0.325494   -3.872650
  C      2.499733   -0.075113   -3.396943
  H      1.613940    1.143548   -0.700588
  H      3.569459   -0.416414   -1.567289
  H      3.273871   -0.163716   -4.143983
  H     -0.543780   -3.305393   -0.354387
  H     -1.026178   -2.481263    2.197494
  H      1.257086   -1.500795    3.173507
  O      1.720856    2.324554    0.043585
  O      0.600699    1.036314    1.472799
  C      1.147241    2.130838    1.134763
  C      1.114704    3.246870    2.137523
  H      1.005377    4.207648    1.640008
  H      2.065042    3.266430    2.673827
  H      0.318776    3.108022    2.863735
  H      3.193878   -1.822697    1.337592
  H      2.046477   -2.909825   -0.871911

 Multiplicity           Mult            ....    1
 Number of Electrons    NEL             ....  164
 Basis Dimension        Dim             ....  358

ORBITAL ENERGIES
----------------

  NO   OCC          E(Eh)            E(eV)
   0   2.0000     -89.766584     -2442.6729
   1   2.0000     -19.635031      -534.2964
   2   2.0000     -19.624075      -533.9982
   3   2.0000     -14.834518      -403.6678
   4   2.0000     -10.697205      -291.0857
   5   2.0000     -10.654658      -289.9280
   6   2.0000     -10.627729      -289.1952
   7   2.0000     -10.622547      -289.0542
   8   2.0000     -10.621708      -289.0314
   9   2.0000     -10.619838      -288.9805
  10   2.0000     -10.612841      -288.7901
  11   2.0000     -10.612302      -288.7754
  12   2.0000     -10.611837      -288.7628
  13   2.0000     -10.609228      -288.6918
  14   2.0000     -10.591747      -288.2161
  15   2.0000     -10.591050      -288.1971
  16   2.0000     -10.553074      -287.1637
  17   2.0000     -10.550648      -287.0977
  18   2.0000     -10.544845      -286.9398
  19   2.0000      -8.405920      -228.7367
  20   2.0000      -6.295780      -171.3169
  21   2.0000      -6.292236      -171.2204
  22   2.0000      -6.290921      -171.1847
  23   2.0000      -4.018513      -109.3493
  24   2.0000      -2.335235       -63.5450
  25   2.0000      -2.305558       -62.7374
  26   2.0000      -2.301753       -62.6339
  27   2.0000      -1.324985       -36.0547
  28   2.0000      -1.226664       -33.3792
  29   2.0000      -1.207780       -32.8654
  30   2.0000      -1.157374       -31.4937
  31   2.0000      -1.129729       -30.7415
  32   2.0000      -1.025325       -27.9005
  33   2.0000      -0.972294       -26.4575
  34   2.0000      -0.970274       -26.4025
  35   2.0000      -0.964023       -26.2324
  36   2.0000      -0.959173       -26.1004
  37   2.0000      -0.939583       -25.5674
  38   2.0000      -0.900190       -24.4954
  39   2.0000      -0.873115       -23.7587
  40   2.0000      -0.799294       -21.7499
  41   2.0000      -0.783453       -21.3189
  42   2.0000      -0.774373       -21.0718
  43   2.0000      -0.773489       -21.0477
  44   2.0000      -0.760444       -20.6927
  45   2.0000      -0.758215       -20.6321
  46   2.0000      -0.743275       -20.2256
  47   2.0000      -0.721463       -19.6320
  48   2.0000      -0.695821       -18.9342
  49   2.0000      -0.685189       -18.6449
  50   2.0000      -0.664162       -18.0728
  51   2.0000      -0.660028       -17.9603
  52   2.0000      -0.648334       -17.6421
  53   2.0000      -0.637883       -17.3577
  54   2.0000      -0.629671       -17.1342
  55   2.0000      -0.624717       -16.9994
  56   2.0000      -0.621335       -16.9074
  57   2.0000      -0.612103       -16.6562
  58   2.0000      -0.601627       -16.3711
  59   2.0000      -0.595400       -16.2017
  60   2.0000      -0.593766       -16.1572
  61   2.0000      -0.591299       -16.0901
  62   2.0000      -0.579879       -15.7793
  63   2.0000      -0.568586       -15.4720
  64   2.0000      -0.567086       -15.4312
  65   2.0000      -0.562589       -15.3088
  66   2.0000      -0.554929       -15.1004
  67   2.0000      -0.546272       -14.8648
  68   2.0000      -0.542270       -14.7559
  69   2.0000      -0.535353       -14.5677
  70   2.0000      -0.531139       -14.4530
  71   2.0000      -0.518330       -14.1045
  72   2.0000      -0.512823       -13.9546
  73   2.0000      -0.500692       -13.6245
  74   2.0000      -0.495324       -13.4785
  75   2.0000      -0.490531       -13.3480
  76   2.0000      -0.475815       -12.9476
  77   2.0000      -0.451930       -12.2976
  78   2.0000      -0.442632       -12.0446
  79   2.0000      -0.419562       -11.4169
  80   2.0000      -0.413469       -11.2511
  81   2.0000      -0.392300       -10.6750
  82   0.0000      -0.206533        -5.6201
  83   0.0000      -0.143521        -3.9054
  84   0.0000      -0.124604        -3.3906
  85   0.0000      -0.087654        -2.3852
  86   0.0000      -0.075770        -2.0618

MULLIKEN ATOMIC CHARGES
-----------------------
   0 Ir:    0.614214
   1 C :   -0.254578
   2 C :   -0.250908
   3 C :   -0.279552
   4 C :   -0.218881
   5 C :   -0.150022
   6 N :   -0.431550
   7 C :   -0.127276
   8 C :   -0.680257
   9 H :    0.269195
  10 H :    0.224164
  11 H :    0.253502
  12 C :   -0.633036
  13 H :    0.278965
  14 H :    0.258379
  15 H :    0.232735
  16 H :    0.234651
  17 C :    0.069696
  18 C :   -0.116039
  19 H :    0.285507
  20 C :   -0.592615
  21 C :   -0.089168
  22 S :    0.347481
  23 C :   -0.426369
  24 H :    0.471112
  25 H :    0.269074
  26 H :    0.298789
  27 H :    0.283483
  28 H :    0.279761
  29 H :    0.295659
  30 O :   -0.476198
  31 O :   -0.506894
  32 C :    0.630470
  33 C :   -0.743579
  34 H :    0.272572
  35 H :    0.275340
  36 H :    0.261252
  37 H :    0.279561
  38 H :    0.291362
Sum of atomic charges:    1.0000000

LOEWDIN ATOMIC CHARGES
----------------------
   0 Ir:   -0.261424
   1 C :   -0.063683
   2 C :   -0.099063
   3 C :   -0.102013
   4 C :   -0.040699
   5 C :   -0.019572
   6 N :   -0.000115
   7 C :   -0.069599
   8 C :   -0.361921
   9 H :    0.156194
  10 H :    0.132731
  11 H :    0.143260
  12 C :   -0.343697
  13 H :    0.154545
  14 H :    0.150591
  15 H :    0.138049
  16 H :    0.133750
  17 C :    0.027204
  18 C :   -0.186615
  19 H :    0.160650
  20 C :   -0.219635
  21 C :   -0.124313
  22 S :    0.503040
  23 C :   -0.257149
  24 H :    0.363436
  25 H :    0.163266
  26 H :    0.169927
  27 H :    0.181174
  28 H :    0.178014
  29 H :    0.186630
  30 O :   -0.259577
  31 O :   -0.180507
  32 C :    0.163002
  33 C :   -0.371805
  34 H :    0.163997
  35 H :    0.172114
  36 H :    0.155954
  37 H :    0.180531
  38 H :    0.183330

  Mayer bond orders larger than 0.100000
B(  0-Ir,  1-C ) :   0.4552 B(  0-Ir,  2-C ) :   0.3748 B(  0-Ir,  3-C ) :   0.4726
B(  0-Ir,  4-C ) :   0.4171 B(  0-Ir,  5-C ) :   0.3507 B(  0-Ir,  6-N ) :   0.4638
B(  0-Ir, 20-C ) :   0.5431 B(  0-Ir, 31-O ) :   0.5172 B(  1-C ,  2-C ) :   1.1246
B(  1-C ,  4-C ) :   1.2195 B(  1-C , 27-H ) :   0.9097 B(  2-C ,  5-C ) :   1.2431
B(  2-C , 28-H ) :   0.9102 B(  3-C ,  4-C ) :   1.1471 B(  3-C ,  5-C ) :   1.1602
B(  3-C , 37-H ) :   0.9147 B(  4-C , 38-H ) :   0.8993 B(  5-C , 29-H ) :   0.9022
B(  6-N ,  7-C ) :   0.8962 B(  6-N , 17-C ) :   1.6450 B(  7-C ,  8-C ) :   0.9901
B(  7-C , 12-C ) :   0.9665 B(  7-C , 13-H ) :   0.8769 B(  8-C ,  9-H ) :   0.9048
B(  8-C , 10-H ) :   0.9131 B(  8-C , 11-H ) :   0.9123 B( 12-C , 14-H ) :   0.9078
B( 12-C , 15-H ) :   0.9152 B( 12-C , 16-H ) :   0.9116 B( 17-C , 18-C ) :   1.1164
B( 17-C , 19-H ) :   0.8766 B( 18-C , 20-C ) :   1.2075 B( 18-C , 22-S ) :   1.2484
B( 20-C , 21-C ) :   1.2492 B( 20-C , 24-H ) :   0.3403 B( 21-C , 23-C ) :   1.5459
B( 21-C , 25-H ) :   0.9012 B( 22-S , 23-C ) :   1.2145 B( 23-C , 26-H ) :   0.8914
B( 24-H , 30-O ) :   0.3486 B( 30-O , 32-C ) :   1.5678 B( 31-O , 32-C ) :   1.3808
B( 32-C , 33-C ) :   0.9436 B( 33-C , 34-H ) :   0.9006 B( 33-C , 35-H ) :   0.8934
B( 33-C , 36-H ) :   0.9079

Dispersion correction           -0.030787159
FINAL SINGLE POINT ENERGY     -1288.399221798410

DIPOLE MOMENT
-------------
                                X             Y             Z
Electronic contribution:     38.12472     -74.13789      68.58113
Nuclear contribution   :    -38.73042      73.72613     -68.90152
                        -----------------------------------------
Total Dipole Moment    :     -0.60570      -0.41175      -0.32038
                        -----------------------------------------
Magnitude (a.u.)       :      0.79941
Magnitude (Debye)      :      2.03194

Rotational constants in cm-1:     0.010546     0.008958     0.008256
Rotational constants in MHz :   316.149858   268.549806   247.494015

                             ****ORCA TERMINATED NORMALLY****
TOTAL RUN TIME: 0 days 2 hours 4 minutes 0 seconds 439 msec
