                         Program Version 5.0.3 -  RELEASE  -
|  1> ! Opt PBEh-3c
|  2> %geom Constraints
|  3> { B 0 20 2.3857142857142857 C }
|  4> { B 24 30 1.4 C }
|  5>     end
|  6> end
|  7> %output
|  8> xyzfile=True
|  9> end
| 10> %scf
| 11> maxiter 250
| 12> end
| 13> %output
| 14> Print[P_Hirshfeld] = 1
| 15> end
| 16> % maxcore
| 17> 4000
| 18> *xyz 1 1
| 19> Ir   0.59347728  -0.72129811   0.46362941
| 20> C    0.04169123  -2.80621376   0.36115028
| 21> C    0.09306117  -2.35246946   1.72801059
| 22> C    2.19872090  -2.13054757   0.81730169
| 23> C    1.31897920  -2.64663704  -0.20702237
| 24> C    1.45186572  -1.98497842   2.00090638
| 25> N   -1.04471808   0.15589754  -0.51883393
| 26> C   -2.31833879   0.46492862   0.15072355
| 27> C   -3.11950127   1.55702608  -0.54023390
| 28> H   -3.94870449   1.84634247   0.10397624
| 29> H   -3.55981392   1.23059823  -1.48370472
| 30> H   -2.52177519   2.45095049  -0.72060351
| 31> C   -3.13306506  -0.81259610   0.31418612
| 32> H   -2.03095602   0.82325104   1.14051968
| 33> H   -4.04870967  -0.59453508   0.86183999
| 34> H   -3.41497299  -1.22935481  -0.65362341
| 35> H   -2.59337901  -1.57341250   0.87616786
| 36> C   -0.85453485   0.37425975  -1.76362281
| 37> C    0.49081577   0.17100406  -2.24624366
| 38> H   -1.64542648   0.73098364  -2.41706880
| 39> C    1.58654449   0.43044226  -1.42985173
| 40> C    2.79309958   0.04939979  -2.08424563
| 41> S    0.92552296  -0.48008199  -3.75990703
| 42> C    2.58794398  -0.44924114  -3.33304179
| 43> H    1.53122556   1.33744893  -0.63859753
| 44> H    3.77715909   0.19297471  -1.66219582
| 45> H    3.32800742  -0.78070550  -4.04570821
| 46> H   -0.83590009  -3.17276416  -0.15178243
| 47> H   -0.71154773  -2.38363071   2.44769302
| 48> H    1.81808060  -1.58519422   2.93564744
| 49> O    1.36501366   2.43531191   0.23734458
| 50> O    0.53387053   0.93017057   1.65671036
| 51> C    0.93640502   2.11356675   1.34662405
| 52> C    0.88462940   3.11293649   2.46711089
| 53> H    0.85208294   4.12696833   2.07813907
| 54> H    1.78921681   3.01606320   3.07074786
| 55> H    0.03643345   2.93704176   3.12519138
| 56> H    3.24813935  -1.90635130   0.69769845
| 57> H    1.59872746  -2.87836469  -1.22429156
| 58> *
| 59>
| 60>                          ****END OF INPUT****
 Total Charge           Charge          ....    1
 Multiplicity           Mult            ....    1
 Number of Electrons    NEL             ....  164
Dispersion correction           -0.030942728
FINAL SINGLE POINT ENERGY     -1288.398563909289
Dispersion correction            ... done
Dispersion correction           -0.031016110
FINAL SINGLE POINT ENERGY     -1288.395992429844
Dispersion correction            ... done
Dispersion correction           -0.030923888
FINAL SINGLE POINT ENERGY     -1288.398679314162
Dispersion correction            ... done
FINAL SINGLE POINT ENERGY     -1288.396884055031
FINAL SINGLE POINT ENERGY     -1288.398757155318
FINAL SINGLE POINT ENERGY     -1288.398786546251
FINAL SINGLE POINT ENERGY     -1288.398814776638
FINAL SINGLE POINT ENERGY     -1288.398835870335
FINAL SINGLE POINT ENERGY     -1288.398846013172
FINAL SINGLE POINT ENERGY     -1288.398850496126
FINAL SINGLE POINT ENERGY     -1288.398849809837
FINAL SINGLE POINT ENERGY     -1288.398851347594
FINAL SINGLE POINT ENERGY     -1288.398853067290
Dispersion correction            ... done
Dispersion correction           -0.030771633
FINAL SINGLE POINT ENERGY     -1288.398853409374
Dispersion correction            ... done
Dispersion correction           -0.030768416
FINAL SINGLE POINT ENERGY     -1288.398853329575
Dispersion correction            ... done
                    ***********************HURRAY********************

CARTESIAN COORDINATES (ANGSTROEM)
---------------------------------
  Ir     0.601587   -0.722704    0.466607
  C      0.065903   -2.814567    0.359721
  C      0.055606   -2.354719    1.724803
  C      2.198419   -2.119621    0.903017
  C      1.366392   -2.650095   -0.152643
  C      1.396184   -1.972389    2.051553
  N     -1.042982    0.143567   -0.513456
  C     -2.317041    0.430552    0.165851
  C     -3.102551    1.567125   -0.470153
  H     -3.930678    1.833741    0.185118
  H     -3.542764    1.293847   -1.430184
  H     -2.492018    2.460463   -0.603560
  C     -3.145401   -0.845924    0.254628
  H     -2.032869    0.731922    1.175141
  H     -4.057961   -0.653297    0.816891
  H     -3.432883   -1.200774   -0.735951
  H     -2.610737   -1.645042    0.765926
  C     -0.867329    0.376215   -1.758884
  C      0.470665    0.185697   -2.259978
  H     -1.668842    0.735696   -2.397653
  C      1.566325    0.368453   -1.422913
  C      2.769215    0.013300   -2.098069
  S      0.900158   -0.366309   -3.812355
  C      2.560296   -0.393030   -3.379925
  H      1.539233    1.295843   -0.627710
  H      3.754301    0.110313   -1.665369
  H      3.298055   -0.686222   -4.111464
  H     -0.784675   -3.194004   -0.188071
  H     -0.778630   -2.388330    2.409677
  H      1.717384   -1.561940    2.998294
  O      1.419836    2.412810    0.207831
  O      0.539732    0.948660    1.638857
  C      0.965844    2.117367    1.317154
  C      0.913514    3.141331    2.414468
  H      0.876473    4.146616    2.003622
  H      1.821277    3.061353    3.015767
  H      0.068000    2.976222    3.078426
  H      3.252209   -1.896396    0.831405
  H      1.690123   -2.886539   -1.155682

 Multiplicity           Mult            ....    1
 Number of Electrons    NEL             ....  164
 Basis Dimension        Dim             ....  358

ORBITAL ENERGIES
----------------

  NO   OCC          E(Eh)            E(eV)
   0   2.0000     -89.762369     -2442.5582
   1   2.0000     -19.625974      -534.0499
   2   2.0000     -19.595960      -533.2332
   3   2.0000     -14.838706      -403.7817
   4   2.0000     -10.684569      -290.7419
   5   2.0000     -10.659944      -290.0718
   6   2.0000     -10.634056      -289.3674
   7   2.0000     -10.632583      -289.3273
   8   2.0000     -10.629644      -289.2473
   9   2.0000     -10.629125      -289.2332
  10   2.0000     -10.628917      -289.2275
  11   2.0000     -10.626706      -289.1674
  12   2.0000     -10.614971      -288.8480
  13   2.0000     -10.609416      -288.6969
  14   2.0000     -10.584859      -288.0287
  15   2.0000     -10.582927      -287.9761
  16   2.0000     -10.556263      -287.2505
  17   2.0000     -10.551353      -287.1169
  18   2.0000     -10.535500      -286.6855
  19   2.0000      -8.401771      -228.6238
  20   2.0000      -6.291751      -171.2073
  21   2.0000      -6.288137      -171.1089
  22   2.0000      -6.286628      -171.0678
  23   2.0000      -4.027478      -109.5933
  24   2.0000      -2.346237       -63.8444
  25   2.0000      -2.312445       -62.9248
  26   2.0000      -2.310777       -62.8794
  27   2.0000      -1.310313       -35.6554
  28   2.0000      -1.213595       -33.0236
  29   2.0000      -1.210270       -32.9331
  30   2.0000      -1.170601       -31.8537
  31   2.0000      -1.126242       -30.6466
  32   2.0000      -1.025739       -27.9118
  33   2.0000      -0.984822       -26.7984
  34   2.0000      -0.975752       -26.5516
  35   2.0000      -0.965746       -26.2793
  36   2.0000      -0.959035       -26.0967
  37   2.0000      -0.929931       -25.3047
  38   2.0000      -0.902250       -24.5515
  39   2.0000      -0.873168       -23.7601
  40   2.0000      -0.797941       -21.7131
  41   2.0000      -0.786407       -21.3992
  42   2.0000      -0.785339       -21.3702
  43   2.0000      -0.780827       -21.2474
  44   2.0000      -0.770455       -20.9651
  45   2.0000      -0.756938       -20.5973
  46   2.0000      -0.743268       -20.2253
  47   2.0000      -0.722812       -19.6687
  48   2.0000      -0.692190       -18.8354
  49   2.0000      -0.676392       -18.4056
  50   2.0000      -0.664311       -18.0768
  51   2.0000      -0.650772       -17.7084
  52   2.0000      -0.648226       -17.6391
  53   2.0000      -0.638493       -17.3743
  54   2.0000      -0.636984       -17.3332
  55   2.0000      -0.631316       -17.1790
  56   2.0000      -0.622943       -16.9511
  57   2.0000      -0.611136       -16.6299
  58   2.0000      -0.606263       -16.4973
  59   2.0000      -0.605527       -16.4772
  60   2.0000      -0.597776       -16.2663
  61   2.0000      -0.589615       -16.0442
  62   2.0000      -0.578022       -15.7288
  63   2.0000      -0.569767       -15.5042
  64   2.0000      -0.563354       -15.3296
  65   2.0000      -0.557687       -15.1754
  66   2.0000      -0.551906       -15.0181
  67   2.0000      -0.548385       -14.9223
  68   2.0000      -0.539774       -14.6880
  69   2.0000      -0.535639       -14.5755
  70   2.0000      -0.528036       -14.3686
  71   2.0000      -0.519632       -14.1399
  72   2.0000      -0.515204       -14.0194
  73   2.0000      -0.504000       -13.7145
  74   2.0000      -0.490206       -13.3392
  75   2.0000      -0.480747       -13.0818
  76   2.0000      -0.468795       -12.7566
  77   2.0000      -0.447658       -12.1814
  78   2.0000      -0.443339       -12.0639
  79   2.0000      -0.421928       -11.4812
  80   2.0000      -0.417557       -11.3623
  81   2.0000      -0.401643       -10.9292
  82   0.0000      -0.202199        -5.5021
  83   0.0000      -0.157726        -4.2919
  84   0.0000      -0.141367        -3.8468
  85   0.0000      -0.094439        -2.5698
  86   0.0000      -0.075111        -2.0439

MULLIKEN ATOMIC CHARGES
-----------------------
   0 Ir:    0.611843
   1 C :   -0.214507
   2 C :   -0.285962
   3 C :   -0.241991
   4 C :   -0.241883
   5 C :   -0.163926
   6 N :   -0.429737
   7 C :   -0.124831
   8 C :   -0.687645
   9 H :    0.270867
  10 H :    0.224793
  11 H :    0.259793
  12 C :   -0.635978
  13 H :    0.281723
  14 H :    0.263096
  15 H :    0.231129
  16 H :    0.231462
  17 C :    0.070620
  18 C :   -0.173317
  19 H :    0.289209
  20 C :   -0.471164
  21 C :   -0.128387
  22 S :    0.314175
  23 C :   -0.430444
  24 H :    0.496587
  25 H :    0.265344
  26 H :    0.297346
  27 H :    0.290133
  28 H :    0.290434
  29 H :    0.305130
  30 O :   -0.482774
  31 O :   -0.534422
  32 C :    0.620433
  33 C :   -0.745074
  34 H :    0.270139
  35 H :    0.267745
  36 H :    0.254485
  37 H :    0.291092
  38 H :    0.294463
Sum of atomic charges:    1.0000000

LOEWDIN ATOMIC CHARGES
----------------------
   0 Ir:   -0.230313
   1 C :   -0.043299
   2 C :   -0.070945
   3 C :   -0.062105
   4 C :   -0.052430
   5 C :   -0.020380
   6 N :   -0.006159
   7 C :   -0.069487
   8 C :   -0.363460
   9 H :    0.156850
  10 H :    0.133165
  11 H :    0.146416
  12 C :   -0.343579
  13 H :    0.156191
  14 H :    0.152537
  15 H :    0.137269
  16 H :    0.133159
  17 C :    0.034223
  18 C :   -0.184622
  19 H :    0.161824
  20 C :   -0.202806
  21 C :   -0.134408
  22 S :    0.476572
  23 C :   -0.262281
  24 H :    0.306408
  25 H :    0.161941
  26 H :    0.168130
  27 H :    0.184463
  28 H :    0.184614
  29 H :    0.192717
  30 O :   -0.274181
  31 O :   -0.202358
  32 C :    0.157034
  33 C :   -0.374975
  34 H :    0.160411
  35 H :    0.168052
  36 H :    0.153803
  37 H :    0.185942
  38 H :    0.186066

  Mayer bond orders larger than 0.100000
B(  0-Ir,  1-C ) :   0.4197 B(  0-Ir,  2-C ) :   0.5139 B(  0-Ir,  3-C ) :   0.4612
B(  0-Ir,  4-C ) :   0.4490 B(  0-Ir,  5-C ) :   0.4009 B(  0-Ir,  6-N ) :   0.4648
B(  0-Ir, 20-C ) :   0.2944 B(  0-Ir, 31-O ) :   0.5682 B(  1-C ,  2-C ) :   1.1208
B(  1-C ,  4-C ) :   1.2433 B(  1-C , 27-H ) :   0.9041 B(  2-C ,  5-C ) :   1.1430
B(  2-C , 28-H ) :   0.9083 B(  3-C ,  4-C ) :   1.1090 B(  3-C ,  5-C ) :   1.2264
B(  3-C , 37-H ) :   0.9066 B(  4-C , 38-H ) :   0.9002 B(  5-C , 29-H ) :   0.8982
B(  6-N ,  7-C ) :   0.8918 B(  6-N , 17-C ) :   1.6785 B(  7-C ,  8-C ) :   0.9913
B(  7-C , 12-C ) :   0.9682 B(  7-C , 13-H ) :   0.8737 B(  8-C ,  9-H ) :   0.9041
B(  8-C , 10-H ) :   0.9130 B(  8-C , 11-H ) :   0.9091 B( 12-C , 14-H ) :   0.9068
B( 12-C , 15-H ) :   0.9155 B( 12-C , 16-H ) :   0.9122 B( 17-C , 18-C ) :   1.0725
B( 17-C , 19-H ) :   0.8750 B( 18-C , 20-C ) :   1.2805 B( 18-C , 22-S ) :   1.2329
B( 20-C , 21-C ) :   1.2704 B( 20-C , 24-H ) :   0.4406 B( 21-C , 23-C ) :   1.5467
B( 21-C , 25-H ) :   0.9046 B( 22-S , 23-C ) :   1.2069 B( 23-C , 26-H ) :   0.8919
B( 24-H , 30-O ) :   0.2633 B( 30-O , 32-C ) :   1.6629 B( 31-O , 32-C ) :   1.2976
B( 32-C , 33-C ) :   0.9468 B( 33-C , 34-H ) :   0.9043 B( 33-C , 35-H ) :   0.8977
B( 33-C , 36-H ) :   0.9091

Dispersion correction           -0.030767144
FINAL SINGLE POINT ENERGY     -1288.398853784962

DIPOLE MOMENT
-------------
                                X             Y             Z
Electronic contribution:     36.52203     -68.94332      74.70905
Nuclear contribution   :    -37.14812      67.85898     -74.97579
                        -----------------------------------------
Total Dipole Moment    :     -0.62609      -1.08434      -0.26674
                        -----------------------------------------
Magnitude (a.u.)       :      1.28021
Magnitude (Debye)      :      3.25403

Rotational constants in cm-1:     0.010604     0.009023     0.008198
Rotational constants in MHz :   317.908833   270.510172   245.756324

                             ****ORCA TERMINATED NORMALLY****
TOTAL RUN TIME: 0 days 2 hours 1 minutes 13 seconds 398 msec
