                         Program Version 5.0.3 -  RELEASE  -
|  1> ! Opt PBEh-3c
|  2> %geom Constraints
|  3> { B 0 20 2.1714285714285713 C }
|  4> { B 24 30 1.3285714285714287 C }
|  5>     end
|  6> end
|  7> %output
|  8> xyzfile=True
|  9> end
| 10> %scf
| 11> maxiter 250
| 12> end
| 13> %output
| 14> Print[P_Hirshfeld] = 1
| 15> end
| 16> % maxcore
| 17> 4000
| 18> *xyz 1 1
| 19> Ir   0.60494975  -0.73432018   0.45402355
| 20> C    0.12028963  -2.84159625   0.36296132
| 21> C   -0.08647646  -2.37574023   1.70987387
| 22> C    2.14580323  -2.08208226   1.17714307
| 23> C    1.48316668  -2.66456525   0.04071922
| 24> C    1.17176140  -1.93476133   2.19780800
| 25> N   -1.06272288   0.11155037  -0.50598822
| 26> C   -2.34336188   0.31190450   0.19121608
| 27> C   -3.13364462   1.51233142  -0.31050858
| 28> H   -3.96874155   1.69090850   0.36506600
| 29> H   -3.56303895   1.35467455  -1.30078503
| 30> H   -2.52889855   2.41921855  -0.33025107
| 31> C   -3.16751949  -0.96841319   0.11453098
| 32> H   -2.07426606   0.49598674   1.23236377
| 33> H   -4.08077904  -0.85825428   0.69793153
| 34> H   -3.45382269  -1.19020627  -0.91437304
| 35> H   -2.62814861  -1.82768328   0.50979504
| 36> C   -0.90626332   0.45068012  -1.73266551
| 37> C    0.41143919   0.29363200  -2.27170913
| 38> H   -1.72062302   0.86251562  -2.32069684
| 39> C    1.47612022   0.11814228  -1.39460596
| 40> C    2.67621530  -0.12478033  -2.12306374
| 41> S    0.86377715   0.19864204  -3.90812991
| 42> C    2.49146796  -0.10143708  -3.47369650
| 43> H    1.64426715   1.15358548  -0.58426961
| 44> H    3.64739230  -0.25260081  -1.66744146
| 45> H    3.23683572  -0.22640225  -4.24444100
| 46> H   -0.63024534  -3.26612544  -0.28775726
| 47> H   -1.00527354  -2.41837997   2.27475734
| 48> H    1.34452325  -1.49006535   3.16779232
| 49> O    1.75827519   2.27296772   0.14870437
| 50> O    0.55450479   1.02403614   1.54138451
| 51> C    1.14057037   2.10401039   1.22002359
| 52> C    1.09975526   3.22716710   2.21248021
| 53> H    0.98157115   4.18153684   1.70415864
| 54> H    2.05152106   3.26275959   2.74527001
| 55> H    0.30569726   3.09016653   2.94088702
| 56> H    3.19810814  -1.85994000   1.26396669
| 57> H    1.94518375  -2.91987277  -0.90173427
| 58> *
| 59>
| 60>                          ****END OF INPUT****
 Total Charge           Charge          ....    1
 Multiplicity           Mult            ....    1
 Number of Electrons    NEL             ....  164
Dispersion correction           -0.030663723
FINAL SINGLE POINT ENERGY     -1288.404079410422
Dispersion correction            ... done
Dispersion correction           -0.030622033
FINAL SINGLE POINT ENERGY     -1288.404329538299
Dispersion correction            ... done
Dispersion correction           -0.030603241
FINAL SINGLE POINT ENERGY     -1288.404412862445
Dispersion correction            ... done
FINAL SINGLE POINT ENERGY     -1288.404458916831
FINAL SINGLE POINT ENERGY     -1288.404493967772
FINAL SINGLE POINT ENERGY     -1288.404507916530
FINAL SINGLE POINT ENERGY     -1288.404513039652
FINAL SINGLE POINT ENERGY     -1288.404515370537
FINAL SINGLE POINT ENERGY     -1288.404518905232
FINAL SINGLE POINT ENERGY     -1288.404523730347
FINAL SINGLE POINT ENERGY     -1288.404555855492
FINAL SINGLE POINT ENERGY     -1288.404559692000
FINAL SINGLE POINT ENERGY     -1288.404564100527
FINAL SINGLE POINT ENERGY     -1288.404568064885
FINAL SINGLE POINT ENERGY     -1288.404570501210
FINAL SINGLE POINT ENERGY     -1288.404571474923
FINAL SINGLE POINT ENERGY     -1288.404571851803
Dispersion correction            ... done
Dispersion correction           -0.030559191
FINAL SINGLE POINT ENERGY     -1288.404572118243
Dispersion correction            ... done
Dispersion correction           -0.030558795
FINAL SINGLE POINT ENERGY     -1288.404572401241
Dispersion correction            ... done
                    ***********************HURRAY********************

CARTESIAN COORDINATES (ANGSTROEM)
---------------------------------
  Ir     0.606841   -0.740360    0.442259
  C      0.130701   -2.848864    0.361085
  C     -0.104586   -2.388116    1.705354
  C      2.135141   -2.076206    1.213859
  C      1.501488   -2.668715    0.068701
  C      1.135974   -1.934841    2.215432
  N     -1.067605    0.106135   -0.506156
  C     -2.346842    0.294234    0.196162
  C     -3.137650    1.504019   -0.281714
  H     -3.972818    1.668742    0.397213
  H     -3.566510    1.366284   -1.275178
  H     -2.533037    2.411243   -0.283143
  C     -3.171153   -0.984390    0.096779
  H     -2.076562    0.459344    1.240252
  H     -4.082897   -0.886363    0.684739
  H     -3.459921   -1.185892   -0.935589
  H     -2.630140   -1.851268    0.472707
  C     -0.913905    0.465195   -1.728080
  C      0.401819    0.307934   -2.269263
  H     -1.727481    0.891252   -2.306639
  C      1.451119    0.069918   -1.386879
  C      2.657081   -0.153692   -2.113765
  S      0.873948    0.293254   -3.902341
  C      2.490262   -0.055216   -3.463516
  H      1.653906    1.164138   -0.607924
  H      3.620402   -0.323126   -1.654873
  H      3.244112   -0.152209   -4.230054
  H     -0.602070   -3.283749   -0.302832
  H     -1.035233   -2.433025    2.250091
  H      1.285227   -1.486026    3.187396
  O      1.769992    2.276206    0.109664
  O      0.572167    1.034335    1.514615
  C      1.157125    2.109076    1.188349
  C      1.130416    3.238443    2.173408
  H      1.005255    4.190047    1.661491
  H      2.089348    3.276964    2.693016
  H      0.345957    3.104992    2.912624
  H      3.184861   -1.853241    1.325719
  H      1.984639   -2.927267   -0.862231

 Multiplicity           Mult            ....    1
 Number of Electrons    NEL             ....  164
 Basis Dimension        Dim             ....  358

ORBITAL ENERGIES
----------------

  NO   OCC          E(Eh)            E(eV)
   0   2.0000     -89.760258     -2442.5008
   1   2.0000     -19.638900      -534.4016
   2   2.0000     -19.629697      -534.1512
   3   2.0000     -14.831539      -403.5867
   4   2.0000     -10.701963      -291.2152
   5   2.0000     -10.653023      -289.8835
   6   2.0000     -10.625929      -289.1462
   7   2.0000     -10.623875      -289.0903
   8   2.0000     -10.622612      -289.0560
   9   2.0000     -10.620940      -289.0105
  10   2.0000     -10.615805      -288.8707
  11   2.0000     -10.612398      -288.7780
  12   2.0000     -10.611976      -288.7665
  13   2.0000     -10.607931      -288.6565
  14   2.0000     -10.588087      -288.1165
  15   2.0000     -10.585907      -288.0572
  16   2.0000     -10.552585      -287.1504
  17   2.0000     -10.549915      -287.0778
  18   2.0000     -10.547495      -287.0119
  19   2.0000      -8.399652      -228.5662
  20   2.0000      -6.289544      -171.1472
  21   2.0000      -6.286014      -171.0511
  22   2.0000      -6.284597      -171.0126
  23   2.0000      -4.020300      -109.3979
  24   2.0000      -2.337430       -63.6047
  25   2.0000      -2.306265       -62.7567
  26   2.0000      -2.303013       -62.6682
  27   2.0000      -1.331165       -36.2228
  28   2.0000      -1.232487       -33.5377
  29   2.0000      -1.204304       -32.7708
  30   2.0000      -1.160579       -31.5810
  31   2.0000      -1.124418       -30.5970
  32   2.0000      -1.022386       -27.8205
  33   2.0000      -0.973358       -26.4864
  34   2.0000      -0.966950       -26.3120
  35   2.0000      -0.965138       -26.2627
  36   2.0000      -0.956740       -26.0342
  37   2.0000      -0.943208       -25.6660
  38   2.0000      -0.899352       -24.4726
  39   2.0000      -0.869745       -23.6670
  40   2.0000      -0.795835       -21.6558
  41   2.0000      -0.779705       -21.2169
  42   2.0000      -0.776869       -21.1397
  43   2.0000      -0.776306       -21.1244
  44   2.0000      -0.765522       -20.8309
  45   2.0000      -0.761311       -20.7163
  46   2.0000      -0.740819       -20.1587
  47   2.0000      -0.721536       -19.6340
  48   2.0000      -0.694717       -18.9042
  49   2.0000      -0.683620       -18.6023
  50   2.0000      -0.663693       -18.0600
  51   2.0000      -0.662752       -18.0344
  52   2.0000      -0.649955       -17.6862
  53   2.0000      -0.638187       -17.3660
  54   2.0000      -0.630810       -17.1652
  55   2.0000      -0.628078       -17.0909
  56   2.0000      -0.620821       -16.8934
  57   2.0000      -0.608357       -16.5542
  58   2.0000      -0.597517       -16.2593
  59   2.0000      -0.597104       -16.2480
  60   2.0000      -0.596309       -16.2264
  61   2.0000      -0.589949       -16.0533
  62   2.0000      -0.577188       -15.7061
  63   2.0000      -0.570948       -15.5363
  64   2.0000      -0.562740       -15.3129
  65   2.0000      -0.560777       -15.2595
  66   2.0000      -0.557063       -15.1585
  67   2.0000      -0.545529       -14.8446
  68   2.0000      -0.541944       -14.7470
  69   2.0000      -0.534951       -14.5568
  70   2.0000      -0.528591       -14.3837
  71   2.0000      -0.517579       -14.0841
  72   2.0000      -0.512541       -13.9469
  73   2.0000      -0.503112       -13.6904
  74   2.0000      -0.497396       -13.5348
  75   2.0000      -0.483760       -13.1638
  76   2.0000      -0.477746       -13.0001
  77   2.0000      -0.450858       -12.2685
  78   2.0000      -0.444503       -12.0955
  79   2.0000      -0.416204       -11.3255
  80   2.0000      -0.415821       -11.3151
  81   2.0000      -0.394708       -10.7405
  82   0.0000      -0.199785        -5.4364
  83   0.0000      -0.142539        -3.8787
  84   0.0000      -0.133496        -3.6326
  85   0.0000      -0.084482        -2.2989
  86   0.0000      -0.073998        -2.0136

MULLIKEN ATOMIC CHARGES
-----------------------
   0 Ir:    0.604185
   1 C :   -0.244648
   2 C :   -0.262763
   3 C :   -0.269408
   4 C :   -0.222904
   5 C :   -0.154905
   6 N :   -0.437769
   7 C :   -0.125615
   8 C :   -0.680725
   9 H :    0.268631
  10 H :    0.224573
  11 H :    0.252963
  12 C :   -0.633342
  13 H :    0.277265
  14 H :    0.258180
  15 H :    0.232661
  16 H :    0.232805
  17 C :    0.068842
  18 C :   -0.128914
  19 H :    0.283717
  20 C :   -0.535147
  21 C :   -0.113402
  22 S :    0.337676
  23 C :   -0.425216
  24 H :    0.476480
  25 H :    0.264961
  26 H :    0.296900
  27 H :    0.285567
  28 H :    0.281983
  29 H :    0.297418
  30 O :   -0.487544
  31 O :   -0.503737
  32 C :    0.635114
  33 C :   -0.744199
  34 H :    0.274316
  35 H :    0.276880
  36 H :    0.263364
  37 H :    0.282470
  38 H :    0.293288
Sum of atomic charges:    1.0000000

LOEWDIN ATOMIC CHARGES
----------------------
   0 Ir:   -0.258927
   1 C :   -0.058624
   2 C :   -0.095286
   3 C :   -0.095467
   4 C :   -0.038843
   5 C :   -0.016797
   6 N :   -0.008328
   7 C :   -0.069086
   8 C :   -0.362064
   9 H :    0.155809
  10 H :    0.132751
  11 H :    0.142975
  12 C :   -0.344052
  13 H :    0.153583
  14 H :    0.150380
  15 H :    0.137995
  16 H :    0.132788
  17 C :    0.029984
  18 C :   -0.196676
  19 H :    0.159358
  20 C :   -0.218591
  21 C :   -0.133089
  22 S :    0.490757
  23 C :   -0.257425
  24 H :    0.362143
  25 H :    0.161011
  26 H :    0.168678
  27 H :    0.182287
  28 H :    0.179644
  29 H :    0.187967
  30 O :   -0.258945
  31 O :   -0.176326
  32 C :    0.169092
  33 C :   -0.371071
  34 H :    0.165755
  35 H :    0.173010
  36 H :    0.156735
  37 H :    0.181930
  38 H :    0.184967

  Mayer bond orders larger than 0.100000
B(  0-Ir,  1-C ) :   0.4462 B(  0-Ir,  2-C ) :   0.4181 B(  0-Ir,  3-C ) :   0.4680
B(  0-Ir,  4-C ) :   0.4302 B(  0-Ir,  5-C ) :   0.3774 B(  0-Ir,  6-N ) :   0.4659
B(  0-Ir, 20-C ) :   0.4704 B(  0-Ir, 31-O ) :   0.5122 B(  1-C ,  2-C ) :   1.1267
B(  1-C ,  4-C ) :   1.2223 B(  1-C , 27-H ) :   0.9081 B(  2-C ,  5-C ) :   1.2079
B(  2-C , 28-H ) :   0.9103 B(  3-C ,  4-C ) :   1.1386 B(  3-C ,  5-C ) :   1.1768
B(  3-C , 37-H ) :   0.9128 B(  4-C , 38-H ) :   0.9000 B(  5-C , 29-H ) :   0.9013
B(  6-N ,  7-C ) :   0.8961 B(  6-N , 17-C ) :   1.6458 B(  7-C ,  8-C ) :   0.9904
B(  7-C , 12-C ) :   0.9672 B(  7-C , 13-H ) :   0.8783 B(  8-C ,  9-H ) :   0.9050
B(  8-C , 10-H ) :   0.9131 B(  8-C , 11-H ) :   0.9126 B( 12-C , 14-H ) :   0.9080
B( 12-C , 15-H ) :   0.9153 B( 12-C , 16-H ) :   0.9123 B( 17-C , 18-C ) :   1.1155
B( 17-C , 19-H ) :   0.8766 B( 18-C , 20-C ) :   1.2417 B( 18-C , 22-S ) :   1.2285
B( 20-C , 21-C ) :   1.2825 B( 20-C , 24-H ) :   0.3196 B( 21-C , 23-C ) :   1.5355
B( 21-C , 25-H ) :   0.9033 B( 22-S , 23-C ) :   1.2240 B( 23-C , 26-H ) :   0.8916
B( 24-H , 30-O ) :   0.3620 B( 30-O , 32-C ) :   1.5375 B( 31-O , 32-C ) :   1.3981
B( 32-C , 33-C ) :   0.9461 B( 33-C , 34-H ) :   0.8990 B( 33-C , 35-H ) :   0.8923
B( 33-C , 36-H ) :   0.9076

Dispersion correction           -0.030558171
FINAL SINGLE POINT ENERGY     -1288.404572573683

DIPOLE MOMENT
-------------
                                X             Y             Z
Electronic contribution:     36.90736     -74.43608      73.17030
Nuclear contribution   :    -37.48506      74.02954     -73.32327
                        -----------------------------------------
Total Dipole Moment    :     -0.57770      -0.40653      -0.15297
                        -----------------------------------------
Magnitude (a.u.)       :      0.72278
Magnitude (Debye)      :      1.83715

Rotational constants in cm-1:     0.010557     0.008751     0.008171
Rotational constants in MHz :   316.484797   262.362945   244.970188

                             ****ORCA TERMINATED NORMALLY****
TOTAL RUN TIME: 0 days 3 hours 14 minutes 46 seconds 775 msec
