                         Program Version 5.0.3 -  RELEASE  -
|  1> ! Opt PBEh-3c
|  2> %geom Constraints
|  3> { B 0 20 2.6 C }
|  4> { B 24 30 1.342857142857143 C }
|  5>     end
|  6> end
|  7> %output
|  8> xyzfile=True
|  9> end
| 10> %scf
| 11> maxiter 250
| 12> end
| 13> %output
| 14> Print[P_Hirshfeld] = 1
| 15> end
| 16> % maxcore
| 17> 4000
| 18> *xyz 1 1
| 19> Ir   0.56321364  -0.74206417   0.50977823
| 20> C    0.00593504  -2.81675074   0.36934733
| 21> C    0.08261438  -2.37993238   1.74272589
| 22> C    2.17267536  -2.15857170   0.80502808
| 23> C    1.27349764  -2.64982899  -0.21544328
| 24> C    1.45140834  -2.03184081   2.00405815
| 25> N   -1.03967328   0.15654190  -0.50453176
| 26> C   -2.32126261   0.48525355   0.14146851
| 27> C   -3.12864987   1.53499904  -0.60530948
| 28> H   -3.96554175   1.84421878   0.01933899
| 29> H   -3.55817940   1.16012035  -1.53569364
| 30> H   -2.54058879   2.42708104  -0.82316887
| 31> C   -3.12734492  -0.78864668   0.36299319
| 32> H   -2.04363805   0.89469254   1.11442166
| 33> H   -4.05102493  -0.54973248   0.88791905
| 34> H   -3.39526727  -1.25788100  -0.58462586
| 35> H   -2.59018328  -1.51460182   0.97178307
| 36> C   -0.82539165   0.36012390  -1.74768849
| 37> C    0.52562163   0.16093654  -2.22282748
| 38> H   -1.60919547   0.70642334  -2.41579107
| 39> C    1.63517351   0.54283022  -1.48018369
| 40> C    2.83174823   0.15624329  -2.14752742
| 41> S    0.93596538  -0.58755391  -3.70696219
| 42> C    2.60755691  -0.45056321  -3.34471739
| 43> H    1.54336483   1.41895534  -0.63903014
| 44> H    3.82318158   0.37113804  -1.77575529
| 45> H    3.33889413  -0.80914929  -4.05337175
| 46> H   -0.88276586  -3.16948428  -0.13399534
| 47> H   -0.71076619  -2.41864764   2.47484240
| 48> H    1.83612872  -1.65376295   2.94031147
| 49> O    1.34277744   2.41663926   0.25887198
| 50> O    0.53923507   0.90826497   1.69383099
| 51> C    0.93145696   2.09349364   1.37463774
| 52> C    0.89050884   3.09416479   2.49357776
| 53> H    0.84486836   4.10697944   2.10269773
| 54> H    1.80538970   3.00539778   3.08286265
| 55> H    0.05424266   2.91399730   3.16558266
| 56> H    3.21784844  -1.92533235   0.66469568
| 57> H    1.53553652  -2.85496065  -1.24340994
| 58> *
| 59>
| 60>                          ****END OF INPUT****
 Total Charge           Charge          ....    1
 Multiplicity           Mult            ....    1
 Number of Electrons    NEL             ....  164
Dispersion correction           -0.030772789
FINAL SINGLE POINT ENERGY     -1288.391542329930
Dispersion correction            ... done
Dispersion correction           -0.030762494
FINAL SINGLE POINT ENERGY     -1288.391564999719
Dispersion correction            ... done
Dispersion correction           -0.030755835
FINAL SINGLE POINT ENERGY     -1288.391570188650
Dispersion correction            ... done
FINAL SINGLE POINT ENERGY     -1288.391574995460
Dispersion correction            ... done
Dispersion correction           -0.030742301
FINAL SINGLE POINT ENERGY     -1288.391578875208
Dispersion correction            ... done
Dispersion correction           -0.030733802
FINAL SINGLE POINT ENERGY     -1288.391584344197
Dispersion correction            ... done
                    ***********************HURRAY********************

CARTESIAN COORDINATES (ANGSTROEM)
---------------------------------
  Ir     0.561733   -0.743921    0.517446
  C      0.004288   -2.818049    0.376637
  C      0.074220   -2.380979    1.750043
  C      2.169370   -2.160769    0.822662
  C      1.274885   -2.651730   -0.202065
  C      1.441738   -2.032910    2.017814
  N     -1.038731    0.151298   -0.502708
  C     -2.322365    0.475655    0.142052
  C     -3.125372    1.534405   -0.597002
  H     -3.962414    1.840778    0.028877
  H     -3.554594    1.169302   -1.531382
  H     -2.533974    2.426345   -0.806126
  C     -3.131695   -0.798804    0.348241
  H     -2.048023    0.875331    1.119981
  H     -4.057341   -0.563302    0.871276
  H     -3.396073   -1.258810   -0.604879
  H     -2.598364   -1.531348    0.952481
  C     -0.826379    0.355428   -1.746600
  C      0.523074    0.163940   -2.226340
  H     -1.613765    0.697581   -2.412682
  C      1.633097    0.532861   -1.478050
  C      2.828818    0.156928   -2.152202
  S      0.932184   -0.558346   -3.723928
  C      2.603574   -0.428282   -3.360336
  H      1.544094    1.415630   -0.628901
  H      3.820836    0.364184   -1.777640
  H      3.334489   -0.774462   -4.075587
  H     -0.881836   -3.170794   -0.131226
  H     -0.722893   -2.419208    2.478091
  H      1.821919   -1.654719    2.955875
  O      1.358187    2.409608    0.254678
  O      0.539361    0.913388    1.693924
  C      0.940103    2.093292    1.371325
  C      0.903226    3.101423    2.483343
  H      0.853272    4.111542    2.086019
  H      1.822169    3.018815    3.067219
  H      0.071400    2.923682    3.161346
  H      3.215487   -1.928616    0.687796
  H      1.541666   -2.857175   -1.228731

 Multiplicity           Mult            ....    1
 Number of Electrons    NEL             ....  164
 Basis Dimension        Dim             ....  358

ORBITAL ENERGIES
----------------

  NO   OCC          E(Eh)            E(eV)
   0   2.0000     -89.754791     -2442.3520
   1   2.0000     -19.628389      -534.1156
   2   2.0000     -19.593846      -533.1757
   3   2.0000     -14.838660      -403.7805
   4   2.0000     -10.686748      -290.8012
   5   2.0000     -10.659845      -290.0691
   6   2.0000     -10.638920      -289.4997
   7   2.0000     -10.637169      -289.4521
   8   2.0000     -10.635451      -289.4053
   9   2.0000     -10.634329      -289.3748
  10   2.0000     -10.633230      -289.3449
  11   2.0000     -10.624022      -289.0943
  12   2.0000     -10.616140      -288.8799
  13   2.0000     -10.605024      -288.5774
  14   2.0000     -10.577115      -287.8179
  15   2.0000     -10.574597      -287.7494
  16   2.0000     -10.557133      -287.2742
  17   2.0000     -10.551888      -287.1315
  18   2.0000     -10.535631      -286.6891
  19   2.0000      -8.394152      -228.4165
  20   2.0000      -6.284235      -171.0027
  21   2.0000      -6.280629      -170.9046
  22   2.0000      -6.278848      -170.8561
  23   2.0000      -4.031967      -109.7154
  24   2.0000      -2.351604       -63.9904
  25   2.0000      -2.316997       -63.0487
  26   2.0000      -2.315007       -62.9945
  27   2.0000      -1.311692       -35.6930
  28   2.0000      -1.215980       -33.0885
  29   2.0000      -1.209869       -32.9222
  30   2.0000      -1.176053       -32.0020
  31   2.0000      -1.119311       -30.4580
  32   2.0000      -1.024713       -27.8839
  33   2.0000      -0.990915       -26.9642
  34   2.0000      -0.980938       -26.6927
  35   2.0000      -0.960163       -26.1274
  36   2.0000      -0.953346       -25.9419
  37   2.0000      -0.930706       -25.3258
  38   2.0000      -0.903191       -24.5771
  39   2.0000      -0.870510       -23.6878
  40   2.0000      -0.795440       -21.6450
  41   2.0000      -0.791592       -21.5403
  42   2.0000      -0.789883       -21.4938
  43   2.0000      -0.778596       -21.1867
  44   2.0000      -0.772821       -21.0295
  45   2.0000      -0.760540       -20.6953
  46   2.0000      -0.743008       -20.2183
  47   2.0000      -0.722444       -19.6587
  48   2.0000      -0.694050       -18.8861
  49   2.0000      -0.674372       -18.3506
  50   2.0000      -0.664152       -18.0725
  51   2.0000      -0.652870       -17.7655
  52   2.0000      -0.650135       -17.6911
  53   2.0000      -0.641849       -17.4656
  54   2.0000      -0.639720       -17.4077
  55   2.0000      -0.633349       -17.2343
  56   2.0000      -0.623867       -16.9763
  57   2.0000      -0.611841       -16.6490
  58   2.0000      -0.611096       -16.6288
  59   2.0000      -0.607373       -16.5275
  60   2.0000      -0.594654       -16.1814
  61   2.0000      -0.585364       -15.9286
  62   2.0000      -0.573372       -15.6022
  63   2.0000      -0.567050       -15.4302
  64   2.0000      -0.561466       -15.2783
  65   2.0000      -0.555749       -15.1227
  66   2.0000      -0.552738       -15.0408
  67   2.0000      -0.548486       -14.9251
  68   2.0000      -0.539860       -14.6903
  69   2.0000      -0.533668       -14.5218
  70   2.0000      -0.527090       -14.3428
  71   2.0000      -0.521373       -14.1873
  72   2.0000      -0.516441       -14.0531
  73   2.0000      -0.509077       -13.8527
  74   2.0000      -0.492699       -13.4070
  75   2.0000      -0.480371       -13.0716
  76   2.0000      -0.461548       -12.5594
  77   2.0000      -0.453121       -12.3301
  78   2.0000      -0.442173       -12.0321
  79   2.0000      -0.420090       -11.4312
  80   2.0000      -0.416392       -11.3306
  81   2.0000      -0.402370       -10.9491
  82   0.0000      -0.200745        -5.4625
  83   0.0000      -0.166216        -4.5230
  84   0.0000      -0.141492        -3.8502
  85   0.0000      -0.096128        -2.6158
  86   0.0000      -0.075926        -2.0661

MULLIKEN ATOMIC CHARGES
-----------------------
   0 Ir:    0.623950
   1 C :   -0.208083
   2 C :   -0.297131
   3 C :   -0.229112
   4 C :   -0.243465
   5 C :   -0.168471
   6 N :   -0.434130
   7 C :   -0.117054
   8 C :   -0.694317
   9 H :    0.272298
  10 H :    0.226705
  11 H :    0.260099
  12 C :   -0.639159
  13 H :    0.279142
  14 H :    0.264791
  15 H :    0.231102
  16 H :    0.231690
  17 C :    0.067419
  18 C :   -0.221450
  19 H :    0.290130
  20 C :   -0.389340
  21 C :   -0.154915
  22 S :    0.289107
  23 C :   -0.424866
  24 H :    0.502574
  25 H :    0.262933
  26 H :    0.294545
  27 H :    0.293672
  28 H :    0.294868
  29 H :    0.306942
  30 O :   -0.493631
  31 O :   -0.539319
  32 C :    0.620077
  33 C :   -0.746323
  34 H :    0.270635
  35 H :    0.267687
  36 H :    0.254489
  37 H :    0.297839
  38 H :    0.298070
Sum of atomic charges:    1.0000000

LOEWDIN ATOMIC CHARGES
----------------------
   0 Ir:   -0.203915
   1 C :   -0.039699
   2 C :   -0.054101
   3 C :   -0.044513
   4 C :   -0.051685
   5 C :   -0.028091
   6 N :   -0.014458
   7 C :   -0.068134
   8 C :   -0.364770
   9 H :    0.157221
  10 H :    0.134101
  11 H :    0.146617
  12 C :   -0.343770
  13 H :    0.155322
  14 H :    0.153044
  15 H :    0.137389
  16 H :    0.133740
  17 C :    0.037421
  18 C :   -0.200441
  19 H :    0.161857
  20 C :   -0.193020
  21 C :   -0.150932
  22 S :    0.450295
  23 C :   -0.261455
  24 H :    0.294511
  25 H :    0.159888
  26 H :    0.166480
  27 H :    0.186500
  28 H :    0.186880
  29 H :    0.193883
  30 O :   -0.277811
  31 O :   -0.203564
  32 C :    0.161396
  33 C :   -0.375437
  34 H :    0.160556
  35 H :    0.168085
  36 H :    0.153813
  37 H :    0.189007
  38 H :    0.187786

  Mayer bond orders larger than 0.100000
B(  0-Ir,  1-C ) :   0.4249 B(  0-Ir,  2-C ) :   0.5617 B(  0-Ir,  3-C ) :   0.4622
B(  0-Ir,  4-C ) :   0.4584 B(  0-Ir,  5-C ) :   0.4047 B(  0-Ir,  6-N ) :   0.4703
B(  0-Ir, 20-C ) :   0.2118 B(  0-Ir, 31-O ) :   0.5788 B(  1-C ,  2-C ) :   1.1109
B(  1-C ,  4-C ) :   1.2428 B(  1-C , 27-H ) :   0.9023 B(  2-C ,  5-C ) :   1.1264
B(  2-C , 28-H ) :   0.9059 B(  3-C ,  4-C ) :   1.1039 B(  3-C ,  5-C ) :   1.2371
B(  3-C , 37-H ) :   0.9020 B(  4-C , 38-H ) :   0.8976 B(  5-C , 29-H ) :   0.8978
B(  6-N ,  7-C ) :   0.8911 B(  6-N , 17-C ) :   1.6879 B(  7-C ,  8-C ) :   0.9928
B(  7-C , 12-C ) :   0.9695 B(  7-C , 13-H ) :   0.8735 B(  8-C ,  9-H ) :   0.9034
B(  8-C , 10-H ) :   0.9123 B(  8-C , 11-H ) :   0.9083 B( 12-C , 14-H ) :   0.9063
B( 12-C , 15-H ) :   0.9153 B( 12-C , 16-H ) :   0.9113 B( 17-C , 18-C ) :   1.0597
B( 17-C , 19-H ) :   0.8739 B( 18-C , 20-C ) :   1.3126 B( 18-C , 22-S ) :   1.2012
B( 20-C , 21-C ) :   1.2768 B( 20-C , 24-H ) :   0.4714 B( 21-C , 23-C ) :   1.5419
B( 21-C , 25-H ) :   0.9053 B( 22-S , 23-C ) :   1.2062 B( 23-C , 26-H ) :   0.8933
B( 24-H , 30-O ) :   0.2316 B( 30-O , 32-C ) :   1.6698 B( 31-O , 32-C ) :   1.2880
B( 32-C , 33-C ) :   0.9485 B( 33-C , 34-H ) :   0.9043 B( 33-C , 35-H ) :   0.8976
B( 33-C , 36-H ) :   0.9090

Dispersion correction           -0.030728128
FINAL SINGLE POINT ENERGY     -1288.391588295483

DIPOLE MOMENT
-------------
                                X             Y             Z
Electronic contribution:     32.40123     -69.70979      78.99976
Nuclear contribution   :    -33.03476      68.52079     -79.05935
                        -----------------------------------------
Total Dipole Moment    :     -0.63353      -1.18899      -0.05959
                        -----------------------------------------
Magnitude (a.u.)       :      1.34856
Magnitude (Debye)      :      3.42777

Rotational constants in cm-1:     0.010615     0.008936     0.008175
Rotational constants in MHz :   318.222173   267.887687   245.090033

                             ****ORCA TERMINATED NORMALLY****
TOTAL RUN TIME: 0 days 0 hours 49 minutes 10 seconds 73 msec
