                         Program Version 5.0.3 -  RELEASE  -
|  1> ! Opt PBEh-3c
|  2> %geom Constraints
|  3> { B 0 20 2.2142857142857144 C }
|  4> { B 24 30 1.4285714285714286 C }
|  5>     end
|  6> end
|  7> %output
|  8> xyzfile=True
|  9> end
| 10> %scf
| 11> maxiter 250
| 12> end
| 13> %output
| 14> Print[P_Hirshfeld] = 1
| 15> end
| 16> % maxcore
| 17> 4000
| 18> *xyz 1 1
| 19> Ir   0.61918661  -0.71462491   0.43630279
| 20> C    0.09061136  -2.81721772   0.35182263
| 21> C    0.05075122  -2.35375834   1.71323304
| 22> C    2.20845405  -2.10415042   0.92863300
| 23> C    1.40168699  -2.65243093  -0.13595339
| 24> C    1.37688077  -1.95142833   2.05870985
| 25> N   -1.04558000   0.14168121  -0.52138402
| 26> C   -2.31229113   0.41608424   0.17521067
| 27> C   -3.09912023   1.57226941  -0.42340245
| 28> H   -3.92221227   1.82186438   0.24472198
| 29> H   -3.54600466   1.32678626  -1.38778560
| 30> H   -2.48721884   2.46756409  -0.53566940
| 31> C   -3.14485794  -0.85960329   0.23517112
| 32> H   -2.01885032   0.68885798   1.18982542
| 33> H   -4.05000840  -0.68102062   0.81387173
| 34> H   -3.44523485  -1.18286923  -0.76234087
| 35> H   -2.60685840  -1.67602533   0.71450414
| 36> C   -0.88336792   0.39449348  -1.76568825
| 37> C    0.44957534   0.19866478  -2.27115719
| 38> H   -1.68676980   0.77213112  -2.39079576
| 39> C    1.52425664   0.26400788  -1.38518563
| 40> C    2.73697592  -0.06554385  -2.06141535
| 41> S    0.90430863  -0.23825673  -3.84704446
| 42> C    2.55139736  -0.35374913  -3.37772457
| 43> H    1.53416646   1.22698339  -0.63712299
| 44> H    3.71251348  -0.03388880  -1.59844629
| 45> H    3.29964316  -0.60569557  -4.11384790
| 46> H   -0.74539407  -3.20840471  -0.20995299
| 47> H   -0.79670252  -2.38642925   2.38135042
| 48> H    1.67558145  -1.52813402   3.00723134
| 49> O    1.44444898   2.41350189   0.17894157
| 50> O    0.54329875   0.96322377   1.60875868
| 51> C    0.97663559   2.12746622   1.28531078
| 52> C    0.91541341   3.16038718   2.37436034
| 53> H    0.89207571   4.16311816   1.95640877
| 54> H    1.81283207   3.07723237   2.99041551
| 55> H    0.05825598   3.00577138   3.02581554
| 56> H    3.26455790  -1.88604184   0.88331926
| 57> H    1.74633355  -2.90362625  -1.12826140
| 58> *
| 59>
| 60>                          ****END OF INPUT****
 Total Charge           Charge          ....    1
 Multiplicity           Mult            ....    1
 Number of Electrons    NEL             ....  164
Dispersion correction           -0.030978846
FINAL SINGLE POINT ENERGY     -1288.400412921437
Dispersion correction            ... done
Dispersion correction           -0.030902507
FINAL SINGLE POINT ENERGY     -1288.400252528797
Dispersion correction            ... done
Dispersion correction           -0.030910099
FINAL SINGLE POINT ENERGY     -1288.400116273757
Dispersion correction            ... done
FINAL SINGLE POINT ENERGY     -1288.400676978561
FINAL SINGLE POINT ENERGY     -1288.400732422685
FINAL SINGLE POINT ENERGY     -1288.400758710459
FINAL SINGLE POINT ENERGY     -1288.400795130885
FINAL SINGLE POINT ENERGY     -1288.400808902891
FINAL SINGLE POINT ENERGY     -1288.400819767363
FINAL SINGLE POINT ENERGY     -1288.400830246175
FINAL SINGLE POINT ENERGY     -1288.400841590406
FINAL SINGLE POINT ENERGY     -1288.400849157250
FINAL SINGLE POINT ENERGY     -1288.400856511648
FINAL SINGLE POINT ENERGY     -1288.400864688895
FINAL SINGLE POINT ENERGY     -1288.400870590607
Dispersion correction            ... done
Dispersion correction           -0.030791133
FINAL SINGLE POINT ENERGY     -1288.400872192995
Dispersion correction            ... done
Dispersion correction           -0.030791606
FINAL SINGLE POINT ENERGY     -1288.400871521870
Dispersion correction            ... done
                    ***********************HURRAY********************

CARTESIAN COORDINATES (ANGSTROEM)
---------------------------------
  Ir     0.622610   -0.719982    0.435349
  C      0.129205   -2.830539    0.327159
  C     -0.004089   -2.374426    1.686077
  C      2.196367   -2.084297    1.040071
  C      1.469155   -2.648753   -0.069623
  C      1.285145   -1.946875    2.113563
  N     -1.051301    0.130315   -0.512273
  C     -2.317642    0.381558    0.193624
  C     -3.098160    1.567032   -0.355373
  H     -3.921808    1.790324    0.321252
  H     -3.543305    1.366821   -1.330881
  H     -2.481908    2.463470   -0.427036
  C     -3.157216   -0.891126    0.193374
  H     -2.026670    0.609671    1.219824
  H     -4.057205   -0.740063    0.787865
  H     -3.466505   -1.159073   -0.817727
  H     -2.619434   -1.735521    0.621804
  C     -0.899867    0.408056   -1.753353
  C      0.425374    0.219169   -2.274555
  H     -1.709476    0.797755   -2.362727
  C      1.496724    0.194854   -1.381809
  C      2.705716   -0.103658   -2.080476
  S      0.877491   -0.099052   -3.878306
  C      2.519584   -0.281509   -3.416417
  H      1.559840    1.183348   -0.635540
  H      3.680410   -0.127454   -1.615231
  H      3.265906   -0.487654   -4.168517
  H     -0.660344   -3.238991   -0.286865
  H     -0.891661   -2.421142    2.298820
  H      1.513315   -1.516802    3.078611
  O      1.547584    2.376003    0.150743
  O      0.555415    0.985178    1.578274
  C      1.032114    2.126784    1.248148
  C      0.968515    3.191192    2.305661
  H      0.923921    4.179831    1.856390
  H      1.877582    3.143423    2.908087
  H      0.123015    3.043763    2.973138
  H      3.251511   -1.859898    1.068306
  H      1.879465   -2.892542   -1.038693

 Multiplicity           Mult            ....    1
 Number of Electrons    NEL             ....  164
 Basis Dimension        Dim             ....  358

ORBITAL ENERGIES
----------------

  NO   OCC          E(Eh)            E(eV)
   0   2.0000     -89.766153     -2442.6612
   1   2.0000     -19.627456      -534.0902
   2   2.0000     -19.603961      -533.4509
   3   2.0000     -14.837649      -403.7530
   4   2.0000     -10.686949      -290.8067
   5   2.0000     -10.658375      -290.0291
   6   2.0000     -10.630688      -289.2757
   7   2.0000     -10.629453      -289.2421
   8   2.0000     -10.628175      -289.2073
   9   2.0000     -10.626298      -289.1563
  10   2.0000     -10.621623      -289.0290
  11   2.0000     -10.618681      -288.9490
  12   2.0000     -10.614005      -288.8218
  13   2.0000     -10.611414      -288.7513
  14   2.0000     -10.589322      -288.1501
  15   2.0000     -10.587866      -288.1105
  16   2.0000     -10.555065      -287.2179
  17   2.0000     -10.551034      -287.1082
  18   2.0000     -10.537990      -286.7533
  19   2.0000      -8.405568      -228.7271
  20   2.0000      -6.295459      -171.3082
  21   2.0000      -6.291866      -171.2104
  22   2.0000      -6.290547      -171.1745
  23   2.0000      -4.023902      -109.4959
  24   2.0000      -2.341827       -63.7243
  25   2.0000      -2.309246       -62.8378
  26   2.0000      -2.307245       -62.7833
  27   2.0000      -1.313538       -35.7432
  28   2.0000      -1.215640       -33.0792
  29   2.0000      -1.209827       -32.9211
  30   2.0000      -1.165337       -31.7104
  31   2.0000      -1.129310       -30.7301
  32   2.0000      -1.025942       -27.9173
  33   2.0000      -0.978542       -26.6275
  34   2.0000      -0.971507       -26.4361
  35   2.0000      -0.969420       -26.3793
  36   2.0000      -0.960875       -26.1467
  37   2.0000      -0.932113       -25.3641
  38   2.0000      -0.901241       -24.5240
  39   2.0000      -0.874089       -23.7852
  40   2.0000      -0.799542       -21.7567
  41   2.0000      -0.783335       -21.3156
  42   2.0000      -0.781136       -21.2558
  43   2.0000      -0.780391       -21.2355
  44   2.0000      -0.765861       -20.8401
  45   2.0000      -0.756470       -20.5846
  46   2.0000      -0.743308       -20.2264
  47   2.0000      -0.723224       -19.6799
  48   2.0000      -0.691020       -18.8036
  49   2.0000      -0.679820       -18.4988
  50   2.0000      -0.664078       -18.0705
  51   2.0000      -0.651918       -17.7396
  52   2.0000      -0.647192       -17.6110
  53   2.0000      -0.635902       -17.3038
  54   2.0000      -0.634192       -17.2572
  55   2.0000      -0.630382       -17.1536
  56   2.0000      -0.622508       -16.9393
  57   2.0000      -0.612188       -16.6585
  58   2.0000      -0.601361       -16.3639
  59   2.0000      -0.600895       -16.3512
  60   2.0000      -0.600021       -16.3274
  61   2.0000      -0.591834       -16.1046
  62   2.0000      -0.580242       -15.7892
  63   2.0000      -0.570719       -15.5301
  64   2.0000      -0.563607       -15.3365
  65   2.0000      -0.560714       -15.2578
  66   2.0000      -0.551861       -15.0169
  67   2.0000      -0.547860       -14.9080
  68   2.0000      -0.541108       -14.7243
  69   2.0000      -0.536310       -14.5937
  70   2.0000      -0.528510       -14.3815
  71   2.0000      -0.518672       -14.1138
  72   2.0000      -0.514340       -13.9959
  73   2.0000      -0.500112       -13.6087
  74   2.0000      -0.490413       -13.3448
  75   2.0000      -0.481294       -13.0967
  76   2.0000      -0.477441       -12.9918
  77   2.0000      -0.446242       -12.1429
  78   2.0000      -0.444397       -12.0927
  79   2.0000      -0.421499       -11.4696
  80   2.0000      -0.416857       -11.3433
  81   2.0000      -0.398016       -10.8306
  82   0.0000      -0.206259        -5.6126
  83   0.0000      -0.144627        -3.9355
  84   0.0000      -0.141677        -3.8552
  85   0.0000      -0.090739        -2.4691
  86   0.0000      -0.075430        -2.0526

MULLIKEN ATOMIC CHARGES
-----------------------
   0 Ir:    0.606724
   1 C :   -0.227406
   2 C :   -0.270726
   3 C :   -0.258753
   4 C :   -0.232288
   5 C :   -0.158020
   6 N :   -0.429306
   7 C :   -0.128333
   8 C :   -0.682744
   9 H :    0.269757
  10 H :    0.223964
  11 H :    0.257597
  12 C :   -0.634258
  13 H :    0.282291
  14 H :    0.261101
  15 H :    0.231497
  16 H :    0.232501
  17 C :    0.071328
  18 C :   -0.139268
  19 H :    0.287528
  20 C :   -0.533798
  21 C :   -0.107152
  22 S :    0.333982
  23 C :   -0.431338
  24 H :    0.480936
  25 H :    0.267552
  26 H :    0.298691
  27 H :    0.286957
  28 H :    0.285688
  29 H :    0.302328
  30 O :   -0.475520
  31 O :   -0.526219
  32 C :    0.622836
  33 C :   -0.744044
  34 H :    0.270563
  35 H :    0.270173
  36 H :    0.256057
  37 H :    0.285860
  38 H :    0.293263
Sum of atomic charges:    1.0000000

LOEWDIN ATOMIC CHARGES
----------------------
   0 Ir:   -0.248807
   1 C :   -0.051491
   2 C :   -0.085701
   3 C :   -0.082160
   4 C :   -0.046247
   5 C :   -0.015421
   6 N :   -0.001776
   7 C :   -0.070021
   8 C :   -0.362477
   9 H :    0.156529
  10 H :    0.132707
  11 H :    0.145253
  12 C :   -0.343613
  13 H :    0.156222
  14 H :    0.151790
  15 H :    0.137382
  16 H :    0.133140
  17 C :    0.030872
  18 C :   -0.179035
  19 H :    0.161398
  20 C :   -0.213616
  21 C :   -0.124140
  22 S :    0.493983
  23 C :   -0.260966
  24 H :    0.326873
  25 H :    0.163130
  26 H :    0.169231
  27 H :    0.182907
  28 H :    0.181860
  29 H :    0.190927
  30 O :   -0.267989
  31 O :   -0.197022
  32 C :    0.156787
  33 C :   -0.373815
  34 H :    0.161302
  35 H :    0.169371
  36 H :    0.154202
  37 H :    0.183540
  38 H :    0.184890

  Mayer bond orders larger than 0.100000
B(  0-Ir,  1-C ) :   0.4248 B(  0-Ir,  2-C ) :   0.4594 B(  0-Ir,  3-C ) :   0.4647
B(  0-Ir,  4-C ) :   0.4356 B(  0-Ir,  5-C ) :   0.3907 B(  0-Ir,  6-N ) :   0.4628
B(  0-Ir, 20-C ) :   0.3906 B(  0-Ir, 31-O ) :   0.5515 B(  1-C ,  2-C ) :   1.1259
B(  1-C ,  4-C ) :   1.2390 B(  1-C , 27-H ) :   0.9065 B(  2-C ,  5-C ) :   1.1728
B(  2-C , 28-H ) :   0.9097 B(  3-C ,  4-C ) :   1.1207 B(  3-C ,  5-C ) :   1.2026
B(  3-C , 37-H ) :   0.9106 B(  4-C , 38-H ) :   0.8996 B(  5-C , 29-H ) :   0.8993
B(  6-N ,  7-C ) :   0.8934 B(  6-N , 17-C ) :   1.6632 B(  7-C ,  8-C ) :   0.9905
B(  7-C , 12-C ) :   0.9669 B(  7-C , 13-H ) :   0.8746 B(  8-C ,  9-H ) :   0.9045
B(  8-C , 10-H ) :   0.9133 B(  8-C , 11-H ) :   0.9104 B( 12-C , 14-H ) :   0.9073
B( 12-C , 15-H ) :   0.9155 B( 12-C , 16-H ) :   0.9123 B( 17-C , 18-C ) :   1.0928
B( 17-C , 19-H ) :   0.8761 B( 18-C , 20-C ) :   1.2439 B( 18-C , 22-S ) :   1.2503
B( 20-C , 21-C ) :   1.2633 B( 20-C , 24-H ) :   0.4142 B( 21-C , 23-C ) :   1.5516
B( 21-C , 25-H ) :   0.9030 B( 22-S , 23-C ) :   1.2075 B( 23-C , 26-H ) :   0.8911
B( 24-H , 30-O ) :   0.2892 B( 30-O , 32-C ) :   1.6399 B( 31-O , 32-C ) :   1.3204
B( 32-C , 33-C ) :   0.9449 B( 33-C , 34-H ) :   0.9033 B( 33-C , 35-H ) :   0.8965
B( 33-C , 36-H ) :   0.9089

Dispersion correction           -0.030793624
FINAL SINGLE POINT ENERGY     -1288.400870504618

DIPOLE MOMENT
-------------
                                X             Y             Z
Electronic contribution:     38.58391     -70.22800      72.20823
Nuclear contribution   :    -39.22060      69.36234     -72.57097
                        -----------------------------------------
Total Dipole Moment    :     -0.63669      -0.86566      -0.36274
                        -----------------------------------------
Magnitude (a.u.)       :      1.13416
Magnitude (Debye)      :      2.88280

Rotational constants in cm-1:     0.010543     0.009031     0.008206
Rotational constants in MHz :   316.082862   270.742146   246.012464

                             ****ORCA TERMINATED NORMALLY****
TOTAL RUN TIME: 0 days 2 hours 9 minutes 8 seconds 903 msec
