                         Program Version 5.0.3 -  RELEASE  -
|  1> ! Opt PBEh-3c
|  2> %geom Constraints
|  3> { B 0 20 2.6 C }
|  4> { B 24 30 1.4142857142857144 C }
|  5>     end
|  6> end
|  7> %output
|  8> xyzfile=True
|  9> end
| 10> %scf
| 11> maxiter 250
| 12> end
| 13> %output
| 14> Print[P_Hirshfeld] = 1
| 15> end
| 16> % maxcore
| 17> 4000
| 18> *xyz 1 1
| 19> Ir   0.57145766  -0.73453405   0.48576950
| 20> C    0.01767074  -2.81229211   0.34574374
| 21> C    0.10664837  -2.37380601   1.71875777
| 22> C    2.18634058  -2.14843337   0.76151204
| 23> C    1.27907061  -2.64327736  -0.25011714
| 24> C    1.47736663  -2.02407898   1.96783151
| 25> N   -1.04062157   0.17287489  -0.50983257
| 26> C   -2.31547311   0.51323831   0.14175562
| 27> C   -3.13259508   1.54372158  -0.62023006
| 28> H   -3.96790900   1.85988544   0.00297127
| 29> H   -3.56445062   1.14772796  -1.54081406
| 30> H   -2.55133634   2.43523481  -0.85793747
| 31> C   -3.11452388  -0.75842573   0.39842245
| 32> H   -2.02772167   0.94327613   1.10273695
| 33> H   -4.03187828  -0.51142418   0.93055645
| 34> H   -3.39366073  -1.24679145  -0.53621641
| 35> H   -2.56745613  -1.47075141   1.01451250
| 36> C   -0.82341538   0.37493715  -1.75112148
| 37> C    0.53031017   0.14982312  -2.21544231
| 38> H   -1.59757454   0.73374047  -2.42367379
| 39> C    1.64241176   0.56571266  -1.49473948
| 40> C    2.83916985   0.14483754  -2.14198436
| 41> S    0.93944335  -0.67682789  -3.65686017
| 42> C    2.61282884  -0.52492261  -3.30350511
| 43> H    1.54968356   1.41977343  -0.68696431
| 44> H    3.83013643   0.37921187  -1.78120305
| 45> H    3.34250124  -0.92294190  -3.99245270
| 46> H   -0.87521226  -3.16739099  -0.14842423
| 47> H   -0.67953154  -2.41334128   2.45866014
| 48> H    1.86995713  -1.64431681   2.90013925
| 49> O    1.29098027   2.44434958   0.27435387
| 50> O    0.54026713   0.89350596   1.69280387
| 51> C    0.90155354   2.09732448   1.38533606
| 52> C    0.84365106   3.07211982   2.52790588
| 53> H    0.79381056   4.09279873   2.15857958
| 54> H    1.75290244   2.97673512   3.12467295
| 55> H    0.00254232   2.87268697   3.18866795
| 56> H    3.22936230  -1.91198835   0.61071077
| 57> H    1.53266360  -2.84878153  -1.28014130
| 58> *
| 59>
| 60>                          ****END OF INPUT****
 Total Charge           Charge          ....    1
 Multiplicity           Mult            ....    1
 Number of Electrons    NEL             ....  164
Dispersion correction           -0.030900067
FINAL SINGLE POINT ENERGY     -1288.394628736853
Dispersion correction            ... done
Dispersion correction           -0.030871077
FINAL SINGLE POINT ENERGY     -1288.394626281373
Dispersion correction            ... done
Dispersion correction           -0.030830269
FINAL SINGLE POINT ENERGY     -1288.394481347493
Dispersion correction            ... done
FINAL SINGLE POINT ENERGY     -1288.394562929043
FINAL SINGLE POINT ENERGY     -1288.394535867193
Dispersion correction            ... done
Dispersion correction           -0.030870367
FINAL SINGLE POINT ENERGY     -1288.394645800066
Dispersion correction            ... done
Dispersion correction           -0.030877030
FINAL SINGLE POINT ENERGY     -1288.394645274668
Dispersion correction            ... done
                    ***********************HURRAY********************

CARTESIAN COORDINATES (ANGSTROEM)
---------------------------------
  Ir     0.569797   -0.735917    0.489396
  C      0.015420   -2.813159    0.349376
  C      0.103023   -2.375039    1.722449
  C      2.183949   -2.150218    0.767426
  C      1.277547   -2.644414   -0.245278
  C      1.473558   -2.025590    1.972916
  N     -1.040816    0.170342   -0.509087
  C     -2.316700    0.509055    0.141566
  C     -3.132701    1.541710   -0.618800
  H     -3.968370    1.856914    0.004423
  H     -3.564047    1.148150   -1.540653
  H     -2.550759    2.433419   -0.854073
  C     -3.116541   -0.762979    0.393929
  H     -2.030434    0.936758    1.104051
  H     -4.034874   -0.517006    0.924861
  H     -3.393959   -1.249219   -0.542327
  H     -2.570805   -1.476798    1.009456
  C     -0.823774    0.372785   -1.750593
  C      0.529761    0.151922   -2.216212
  H     -1.599244    0.729825   -2.422603
  C      1.641046    0.563223   -1.491680
  C      2.838057    0.147680   -2.141779
  S      0.939686   -0.662771   -3.664375
  C      2.612643   -0.512792   -3.308954
  H      1.547909    1.420296   -0.677785
  H      3.828927    0.379377   -1.778941
  H      3.342906   -0.904758   -4.000758
  H     -0.877037   -3.167805   -0.145890
  H     -0.683983   -2.414522    2.461458
  H      1.865311   -1.646178    2.905716
  O      1.300221    2.438971    0.271508
  O      0.539701    0.895570    1.692715
  C      0.906790    2.096189    1.383303
  C      0.851800    3.075347    2.521967
  H      0.804295    4.094838    2.149072
  H      1.761224    2.979876    3.118481
  H      0.010551    2.880090    3.183746
  H      3.227231   -1.914181    0.617816
  H      1.532060   -2.849801   -1.275101

 Multiplicity           Mult            ....    1
 Number of Electrons    NEL             ....  164
 Basis Dimension        Dim             ....  358

ORBITAL ENERGIES
----------------

  NO   OCC          E(Eh)            E(eV)
   0   2.0000     -89.758176     -2442.4442
   1   2.0000     -19.623867      -533.9926
   2   2.0000     -19.585245      -532.9416
   3   2.0000     -14.841243      -403.8508
   4   2.0000     -10.680379      -290.6279
   5   2.0000     -10.662229      -290.1340
   6   2.0000     -10.639712      -289.5213
   7   2.0000     -10.638216      -289.4806
   8   2.0000     -10.635892      -289.4173
   9   2.0000     -10.635063      -289.3948
  10   2.0000     -10.633649      -289.3563
  11   2.0000     -10.629139      -289.2336
  12   2.0000     -10.616955      -288.9020
  13   2.0000     -10.607730      -288.6510
  14   2.0000     -10.580198      -287.9018
  15   2.0000     -10.578506      -287.8558
  16   2.0000     -10.557786      -287.2920
  17   2.0000     -10.552512      -287.1485
  18   2.0000     -10.532155      -286.5945
  19   2.0000      -8.397468      -228.5067
  20   2.0000      -6.287592      -171.0941
  21   2.0000      -6.283957      -170.9952
  22   2.0000      -6.282120      -170.9452
  23   2.0000      -4.032646      -109.7339
  24   2.0000      -2.352253       -64.0081
  25   2.0000      -2.317605       -63.0652
  26   2.0000      -2.315977       -63.0209
  27   2.0000      -1.304305       -35.4919
  28   2.0000      -1.213439       -33.0194
  29   2.0000      -1.208141       -32.8752
  30   2.0000      -1.176632       -32.0178
  31   2.0000      -1.123016       -30.5588
  32   2.0000      -1.026708       -27.9382
  33   2.0000      -0.991623       -26.9834
  34   2.0000      -0.981558       -26.7095
  35   2.0000      -0.962869       -26.2010
  36   2.0000      -0.956932       -26.0394
  37   2.0000      -0.926241       -25.2043
  38   2.0000      -0.904141       -24.6029
  39   2.0000      -0.872732       -23.7482
  40   2.0000      -0.796776       -21.6814
  41   2.0000      -0.792353       -21.5610
  42   2.0000      -0.790470       -21.5098
  43   2.0000      -0.780115       -21.2280
  44   2.0000      -0.774402       -21.0725
  45   2.0000      -0.756390       -20.5824
  46   2.0000      -0.744489       -20.2586
  47   2.0000      -0.722129       -19.6501
  48   2.0000      -0.695248       -18.9187
  49   2.0000      -0.672553       -18.3011
  50   2.0000      -0.665223       -18.1016
  51   2.0000      -0.652522       -17.7560
  52   2.0000      -0.649719       -17.6797
  53   2.0000      -0.641663       -17.4605
  54   2.0000      -0.637739       -17.3538
  55   2.0000      -0.629702       -17.1351
  56   2.0000      -0.624432       -16.9916
  57   2.0000      -0.612770       -16.6743
  58   2.0000      -0.611697       -16.6451
  59   2.0000      -0.608826       -16.5670
  60   2.0000      -0.595971       -16.2172
  61   2.0000      -0.586963       -15.9721
  62   2.0000      -0.575341       -15.6558
  63   2.0000      -0.569536       -15.4979
  64   2.0000      -0.563153       -15.3242
  65   2.0000      -0.554356       -15.0848
  66   2.0000      -0.552596       -15.0369
  67   2.0000      -0.548497       -14.9254
  68   2.0000      -0.539421       -14.6784
  69   2.0000      -0.534158       -14.5352
  70   2.0000      -0.527911       -14.3652
  71   2.0000      -0.522374       -14.2145
  72   2.0000      -0.516482       -14.0542
  73   2.0000      -0.508764       -13.8442
  74   2.0000      -0.489797       -13.3281
  75   2.0000      -0.480930       -13.0868
  76   2.0000      -0.462754       -12.5922
  77   2.0000      -0.452188       -12.3047
  78   2.0000      -0.440461       -11.9856
  79   2.0000      -0.422652       -11.5010
  80   2.0000      -0.417252       -11.3540
  81   2.0000      -0.404309       -11.0018
  82   0.0000      -0.201139        -5.4733
  83   0.0000      -0.167250        -4.5511
  84   0.0000      -0.142055        -3.8655
  85   0.0000      -0.101499        -2.7619
  86   0.0000      -0.077022        -2.0959

MULLIKEN ATOMIC CHARGES
-----------------------
   0 Ir:    0.625353
   1 C :   -0.207396
   2 C :   -0.298140
   3 C :   -0.229328
   4 C :   -0.244305
   5 C :   -0.165914
   6 N :   -0.427140
   7 C :   -0.115468
   8 C :   -0.696325
   9 H :    0.273419
  10 H :    0.226583
  11 H :    0.260939
  12 C :   -0.640462
  13 H :    0.280582
  14 H :    0.265632
  15 H :    0.231016
  16 H :    0.232932
  17 C :    0.066194
  18 C :   -0.233228
  19 H :    0.292556
  20 C :   -0.379535
  21 C :   -0.149940
  22 S :    0.287205
  23 C :   -0.426938
  24 H :    0.494311
  25 H :    0.266164
  26 H :    0.295932
  27 H :    0.293658
  28 H :    0.295424
  29 H :    0.308131
  30 O :   -0.484108
  31 O :   -0.545628
  32 C :    0.613116
  33 C :   -0.746456
  34 H :    0.268920
  35 H :    0.265418
  36 H :    0.251756
  37 H :    0.297996
  38 H :    0.297071
Sum of atomic charges:    1.0000000

LOEWDIN ATOMIC CHARGES
----------------------
   0 Ir:   -0.202744
   1 C :   -0.039319
   2 C :   -0.051400
   3 C :   -0.043696
   4 C :   -0.053555
   5 C :   -0.027367
   6 N :   -0.009478
   7 C :   -0.067965
   8 C :   -0.365045
   9 H :    0.157775
  10 H :    0.134246
  11 H :    0.147068
  12 C :   -0.343481
  13 H :    0.156326
  14 H :    0.153414
  15 H :    0.137383
  16 H :    0.134487
  17 C :    0.037768
  18 C :   -0.194624
  19 H :    0.163088
  20 C :   -0.179889
  21 C :   -0.148610
  22 S :    0.451181
  23 C :   -0.262142
  24 H :    0.277161
  25 H :    0.161619
  26 H :    0.167095
  27 H :    0.186608
  28 H :    0.187205
  29 H :    0.194537
  30 O :   -0.277851
  31 O :   -0.210821
  32 C :    0.154132
  33 C :   -0.377076
  34 H :    0.159232
  35 H :    0.166491
  36 H :    0.152527
  37 H :    0.189039
  38 H :    0.186679

  Mayer bond orders larger than 0.100000
B(  0-Ir,  1-C ) :   0.4218 B(  0-Ir,  2-C ) :   0.5650 B(  0-Ir,  3-C ) :   0.4651
B(  0-Ir,  4-C ) :   0.4534 B(  0-Ir,  5-C ) :   0.4038 B(  0-Ir,  6-N ) :   0.4656
B(  0-Ir, 20-C ) :   0.1946 B(  0-Ir, 31-O ) :   0.5958 B(  1-C ,  2-C ) :   1.1097
B(  1-C ,  4-C ) :   1.2477 B(  1-C , 27-H ) :   0.9025 B(  2-C ,  5-C ) :   1.1264
B(  2-C , 28-H ) :   0.9056 B(  3-C ,  4-C ) :   1.1024 B(  3-C ,  5-C ) :   1.2368
B(  3-C , 37-H ) :   0.9016 B(  4-C , 38-H ) :   0.8964 B(  5-C , 29-H ) :   0.8972
B(  6-N ,  7-C ) :   0.8904 B(  6-N , 17-C ) :   1.7014 B(  7-C ,  8-C ) :   0.9930
B(  7-C , 12-C ) :   0.9698 B(  7-C , 13-H ) :   0.8716 B(  8-C ,  9-H ) :   0.9031
B(  8-C , 10-H ) :   0.9121 B(  8-C , 11-H ) :   0.9077 B( 12-C , 14-H ) :   0.9061
B( 12-C , 15-H ) :   0.9151 B( 12-C , 16-H ) :   0.9105 B( 17-C , 18-C ) :   1.0453
B( 17-C , 19-H ) :   0.8735 B( 18-C , 20-C ) :   1.3167 B( 18-C , 22-S ) :   1.2058
B( 20-C , 21-C ) :   1.2668 B( 20-C , 24-H ) :   0.5155 B( 21-C , 23-C ) :   1.5455
B( 21-C , 25-H ) :   0.9042 B( 22-S , 23-C ) :   1.2020 B( 23-C , 26-H ) :   0.8930
B( 24-H , 30-O ) :   0.2101 B( 30-O , 32-C ) :   1.7130 B( 31-O , 32-C ) :   1.2589
B( 32-C , 33-C ) :   0.9469 B( 33-C , 34-H ) :   0.9056 B( 33-C , 35-H ) :   0.8992
B( 33-C , 36-H ) :   0.9098

Dispersion correction           -0.030876484
FINAL SINGLE POINT ENERGY     -1288.394649114993

DIPOLE MOMENT
-------------
                                X             Y             Z
Electronic contribution:     33.19593     -68.39856      75.83428
Nuclear contribution   :    -33.83696      67.09599     -76.00182
                        -----------------------------------------
Total Dipole Moment    :     -0.64102      -1.30257      -0.16754
                        -----------------------------------------
Magnitude (a.u.)       :      1.46139
Magnitude (Debye)      :      3.71455

Rotational constants in cm-1:     0.010727     0.009040     0.008231
Rotational constants in MHz :   321.577805   271.004889   246.748500

                             ****ORCA TERMINATED NORMALLY****
TOTAL RUN TIME: 0 days 1 hours 2 minutes 2 seconds 678 msec
