                         Program Version 5.0.3 -  RELEASE  -
|  1> ! Opt PBEh-3c
|  2> %geom Constraints
|  3> { B 0 20 2.1714285714285713 C }
|  4> { B 24 30 1.4142857142857144 C }
|  5>     end
|  6> end
|  7> %output
|  8> xyzfile=True
|  9> end
| 10> %scf
| 11> maxiter 250
| 12> end
| 13> %output
| 14> Print[P_Hirshfeld] = 1
| 15> end
| 16> % maxcore
| 17> 4000
| 18> *xyz 1 1
| 19> Ir   0.62260981  -0.71998194   0.43534858
| 20> C    0.12920487  -2.83053869   0.32715926
| 21> C   -0.00408916  -2.37442559   1.68607727
| 22> C    2.19636745  -2.08429717   1.04007077
| 23> C    1.46915478  -2.64875259  -0.06962335
| 24> C    1.28514476  -1.94687462   2.11356349
| 25> N   -1.05130119   0.13031479  -0.51227320
| 26> C   -2.31764243   0.38155809   0.19362410
| 27> C   -3.09815979   1.56703201  -0.35537297
| 28> H   -3.92180769   1.79032358   0.32125237
| 29> H   -3.54330549   1.36682089  -1.33088118
| 30> H   -2.48190807   2.46346960  -0.42703621
| 31> C   -3.15721576  -0.89112640   0.19337357
| 32> H   -2.02666976   0.60967123   1.21982421
| 33> H   -4.05720480  -0.74006291   0.78786470
| 34> H   -3.46650465  -1.15907296  -0.81772656
| 35> H   -2.61943440  -1.73552129   0.62180434
| 36> C   -0.89986720   0.40805627  -1.75335290
| 37> C    0.42537362   0.21916941  -2.27455505
| 38> H   -1.70947648   0.79775508  -2.36272696
| 39> C    1.49672414   0.19485397  -1.38180873
| 40> C    2.70571575  -0.10365773  -2.08047562
| 41> S    0.87749139  -0.09905154  -3.87830610
| 42> C    2.51958402  -0.28150933  -3.41641736
| 43> H    1.55983976   1.18334806  -0.63553996
| 44> H    3.68041005  -0.12745422  -1.61523082
| 45> H    3.26590587  -0.48765426  -4.16851662
| 46> H   -0.66034438  -3.23899119  -0.28686472
| 47> H   -0.89166063  -2.42114231   2.29881952
| 48> H    1.51331502  -1.51680176   3.07861096
| 49> O    1.54758353   2.37600290   0.15074277
| 50> O    0.55541488   0.98517764   1.57827446
| 51> C    1.03211444   2.12678411   1.24814838
| 52> C    0.96851463   3.19119179   2.30566076
| 53> H    0.92392054   4.17983055   1.85638989
| 54> H    1.87758183   3.14342324   2.90808746
| 55> H    0.12301505   3.04376316   2.97313812
| 56> H    3.25151070  -1.85989837   1.06830616
| 57> H    1.87946503  -2.89254156  -1.03869276
| 58> *
| 59>
| 60>                          ****END OF INPUT****
 Total Charge           Charge          ....    1
 Multiplicity           Mult            ....    1
 Number of Electrons    NEL             ....  164
Dispersion correction           -0.030908320
FINAL SINGLE POINT ENERGY     -1288.400644277915
Dispersion correction            ... done
Dispersion correction           -0.030845443
FINAL SINGLE POINT ENERGY     -1288.400598081512
Dispersion correction            ... done
Dispersion correction           -0.030854185
FINAL SINGLE POINT ENERGY     -1288.400041626044
Dispersion correction            ... done
FINAL SINGLE POINT ENERGY     -1288.400949772291
FINAL SINGLE POINT ENERGY     -1288.401000538909
FINAL SINGLE POINT ENERGY     -1288.401037513668
FINAL SINGLE POINT ENERGY     -1288.401081762572
FINAL SINGLE POINT ENERGY     -1288.401083916599
FINAL SINGLE POINT ENERGY     -1288.401082820146
FINAL SINGLE POINT ENERGY     -1288.401078081327
FINAL SINGLE POINT ENERGY     -1288.401081623408
FINAL SINGLE POINT ENERGY     -1288.401083167470
FINAL SINGLE POINT ENERGY     -1288.401083182736
FINAL SINGLE POINT ENERGY     -1288.401082402340
FINAL SINGLE POINT ENERGY     -1288.401081542992
FINAL SINGLE POINT ENERGY     -1288.401080574155
FINAL SINGLE POINT ENERGY     -1288.401079595105
Dispersion correction            ... done
Dispersion correction           -0.030726709
FINAL SINGLE POINT ENERGY     -1288.401078949076
Dispersion correction            ... done
Dispersion correction           -0.030725475
FINAL SINGLE POINT ENERGY     -1288.401080015505
Dispersion correction            ... done
                    ***********************HURRAY********************

CARTESIAN COORDINATES (ANGSTROEM)
---------------------------------
  Ir     0.617346   -0.722379    0.431157
  C      0.130444   -2.835620    0.338074
  C     -0.045005   -2.374784    1.690725
  C      2.173166   -2.077103    1.107285
  C      1.483692   -2.655642   -0.016528
  C      1.224740   -1.935474    2.151466
  N     -1.060095    0.128508   -0.510501
  C     -2.332285    0.346695    0.195028
  C     -3.126845    1.535489   -0.326558
  H     -3.956300    1.728959    0.351902
  H     -3.564838    1.354579   -1.309114
  H     -2.523154    2.442163   -0.371789
  C     -3.157358   -0.935023    0.155166
  H     -2.050328    0.552321    1.228639
  H     -4.064196   -0.810478    0.745536
  H     -3.454920   -1.179284   -0.865418
  H     -2.614294   -1.785225    0.564593
  C     -0.905999    0.452697   -1.740714
  C      0.414498    0.273556   -2.269238
  H     -1.714633    0.867019   -2.334597
  C      1.473373    0.131351   -1.372579
  C      2.678502   -0.146375   -2.087699
  S      0.873442    0.093415   -3.892216
  C      2.501194   -0.189976   -3.436582
  H      1.616796    1.137645   -0.616324
  H      3.647351   -0.247721   -1.620551
  H      3.249010   -0.352032   -4.197919
  H     -0.636110   -3.256444   -0.296233
  H     -0.950421   -2.419827    2.276664
  H      1.420865   -1.495849    3.119285
  O      1.700268    2.316909    0.159931
  O      0.551560    1.009345    1.546760
  C      1.103587    2.115793    1.229486
  C      1.031900    3.215150    2.249295
  H      0.913149    4.180076    1.761792
  H      1.973017    3.246718    2.800929
  H      0.227078    3.053834    2.961131
  H      3.227149   -1.854727    1.170272
  H      1.924023   -2.909068   -0.969816

 Multiplicity           Mult            ....    1
 Number of Electrons    NEL             ....  164
 Basis Dimension        Dim             ....  358

ORBITAL ENERGIES
----------------

  NO   OCC          E(Eh)            E(eV)
   0   2.0000     -89.765295     -2442.6379
   1   2.0000     -19.630546      -534.1743
   2   2.0000     -19.610554      -533.6303
   3   2.0000     -14.836099      -403.7108
   4   2.0000     -10.690589      -290.9057
   5   2.0000     -10.656584      -289.9804
   6   2.0000     -10.628215      -289.2084
   7   2.0000     -10.628092      -289.2051
   8   2.0000     -10.626092      -289.1507
   9   2.0000     -10.625172      -289.1256
  10   2.0000     -10.618866      -288.9540
  11   2.0000     -10.616020      -288.8766
  12   2.0000     -10.613481      -288.8075
  13   2.0000     -10.610855      -288.7360
  14   2.0000     -10.589446      -288.1535
  15   2.0000     -10.588789      -288.1356
  16   2.0000     -10.554348      -287.1984
  17   2.0000     -10.550929      -287.1054
  18   2.0000     -10.540502      -286.8216
  19   2.0000      -8.404709      -228.7038
  20   2.0000      -6.294585      -171.2844
  21   2.0000      -6.291008      -171.1870
  22   2.0000      -6.289705      -171.1516
  23   2.0000      -4.022720      -109.4638
  24   2.0000      -2.340274       -63.6821
  25   2.0000      -2.308370       -62.8140
  26   2.0000      -2.305916       -62.7472
  27   2.0000      -1.317899       -35.8619
  28   2.0000      -1.219519       -33.1848
  29   2.0000      -1.208526       -32.8857
  30   2.0000      -1.163351       -31.6564
  31   2.0000      -1.128684       -30.7131
  32   2.0000      -1.025216       -27.8976
  33   2.0000      -0.976238       -26.5648
  34   2.0000      -0.970453       -26.4074
  35   2.0000      -0.968661       -26.3586
  36   2.0000      -0.960113       -26.1260
  37   2.0000      -0.934903       -25.4400
  38   2.0000      -0.900858       -24.5136
  39   2.0000      -0.873231       -23.7618
  40   2.0000      -0.799043       -21.7431
  41   2.0000      -0.782770       -21.3002
  42   2.0000      -0.779234       -21.2040
  43   2.0000      -0.778732       -21.1904
  44   2.0000      -0.764034       -20.7904
  45   2.0000      -0.757645       -20.6166
  46   2.0000      -0.743094       -20.2206
  47   2.0000      -0.722685       -19.6653
  48   2.0000      -0.691094       -18.8056
  49   2.0000      -0.682202       -18.5637
  50   2.0000      -0.663675       -18.0595
  51   2.0000      -0.654818       -17.8185
  52   2.0000      -0.647058       -17.6073
  53   2.0000      -0.636585       -17.3224
  54   2.0000      -0.633010       -17.2251
  55   2.0000      -0.629770       -17.1369
  56   2.0000      -0.622147       -16.9295
  57   2.0000      -0.611342       -16.6355
  58   2.0000      -0.600249       -16.3336
  59   2.0000      -0.599570       -16.3151
  60   2.0000      -0.598827       -16.2949
  61   2.0000      -0.591703       -16.1011
  62   2.0000      -0.580007       -15.7828
  63   2.0000      -0.569270       -15.4906
  64   2.0000      -0.563455       -15.3324
  65   2.0000      -0.562726       -15.3126
  66   2.0000      -0.552807       -15.0427
  67   2.0000      -0.547431       -14.8963
  68   2.0000      -0.541871       -14.7451
  69   2.0000      -0.535649       -14.5758
  70   2.0000      -0.528760       -14.3883
  71   2.0000      -0.518450       -14.1077
  72   2.0000      -0.513675       -13.9778
  73   2.0000      -0.499184       -13.5835
  74   2.0000      -0.492749       -13.4084
  75   2.0000      -0.482877       -13.1398
  76   2.0000      -0.478535       -13.0216
  77   2.0000      -0.447700       -12.1825
  78   2.0000      -0.444279       -12.0894
  79   2.0000      -0.420005       -11.4289
  80   2.0000      -0.416599       -11.3362
  81   2.0000      -0.396629       -10.7928
  82   0.0000      -0.205855        -5.6016
  83   0.0000      -0.142988        -3.8909
  84   0.0000      -0.138440        -3.7671
  85   0.0000      -0.088634        -2.4119
  86   0.0000      -0.074643        -2.0311

MULLIKEN ATOMIC CHARGES
-----------------------
   0 Ir:    0.604157
   1 C :   -0.233309
   2 C :   -0.266848
   3 C :   -0.263398
   4 C :   -0.228853
   5 C :   -0.155638
   6 N :   -0.431524
   7 C :   -0.126655
   8 C :   -0.683204
   9 H :    0.269930
  10 H :    0.224218
  11 H :    0.255551
  12 C :   -0.634366
  13 H :    0.281651
  14 H :    0.260175
  15 H :    0.232086
  16 H :    0.232862
  17 C :    0.070141
  18 C :   -0.131764
  19 H :    0.286570
  20 C :   -0.545866
  21 C :   -0.103295
  22 S :    0.338952
  23 C :   -0.429330
  24 H :    0.474942
  25 H :    0.267543
  26 H :    0.298491
  27 H :    0.286285
  28 H :    0.284001
  29 H :    0.300493
  30 O :   -0.476184
  31 O :   -0.519945
  32 C :    0.626675
  33 C :   -0.744261
  34 H :    0.271100
  35 H :    0.273025
  36 H :    0.257996
  37 H :    0.284429
  38 H :    0.293165
Sum of atomic charges:    1.0000000

LOEWDIN ATOMIC CHARGES
----------------------
   0 Ir:   -0.253104
   1 C :   -0.054251
   2 C :   -0.091282
   3 C :   -0.088382
   4 C :   -0.043865
   5 C :   -0.015270
   6 N :   -0.002355
   7 C :   -0.069582
   8 C :   -0.362481
   9 H :    0.156508
  10 H :    0.132772
  11 H :    0.144231
  12 C :   -0.343681
  13 H :    0.155906
  14 H :    0.151320
  15 H :    0.137692
  16 H :    0.133018
  17 C :    0.029189
  18 C :   -0.183008
  19 H :    0.160900
  20 C :   -0.216953
  21 C :   -0.124278
  22 S :    0.496663
  23 C :   -0.259632
  24 H :    0.339924
  25 H :    0.162796
  26 H :    0.169359
  27 H :    0.182550
  28 H :    0.180822
  29 H :    0.189811
  30 O :   -0.265743
  31 O :   -0.191382
  32 C :    0.159441
  33 C :   -0.373065
  34 H :    0.163328
  35 H :    0.170685
  36 H :    0.153886
  37 H :    0.182827
  38 H :    0.184686

  Mayer bond orders larger than 0.100000
B(  0-Ir,  1-C ) :   0.4305 B(  0-Ir,  2-C ) :   0.4387 B(  0-Ir,  3-C ) :   0.4655
B(  0-Ir,  4-C ) :   0.4312 B(  0-Ir,  5-C ) :   0.3843 B(  0-Ir,  6-N ) :   0.4635
B(  0-Ir, 20-C ) :   0.4300 B(  0-Ir, 31-O ) :   0.5403 B(  1-C ,  2-C ) :   1.1267
B(  1-C ,  4-C ) :   1.2342 B(  1-C , 27-H ) :   0.9072 B(  2-C ,  5-C ) :   1.1876
B(  2-C , 28-H ) :   0.9100 B(  3-C ,  4-C ) :   1.1275 B(  3-C ,  5-C ) :   1.1915
B(  3-C , 37-H ) :   0.9116 B(  4-C , 38-H ) :   0.8996 B(  5-C , 29-H ) :   0.9001
B(  6-N ,  7-C ) :   0.8948 B(  6-N , 17-C ) :   1.6555 B(  7-C ,  8-C ) :   0.9906
B(  7-C , 12-C ) :   0.9664 B(  7-C , 13-H ) :   0.8752 B(  8-C ,  9-H ) :   0.9045
B(  8-C , 10-H ) :   0.9131 B(  8-C , 11-H ) :   0.9113 B( 12-C , 14-H ) :   0.9075
B( 12-C , 15-H ) :   0.9154 B( 12-C , 16-H ) :   0.9120 B( 17-C , 18-C ) :   1.1020
B( 17-C , 19-H ) :   0.8760 B( 18-C , 20-C ) :   1.2363 B( 18-C , 22-S ) :   1.2481
B( 20-C , 21-C ) :   1.2645 B( 20-C , 24-H ) :   0.3901 B( 21-C , 23-C ) :   1.5488
B( 21-C , 25-H ) :   0.9025 B( 22-S , 23-C ) :   1.2119 B( 23-C , 26-H ) :   0.8911
B( 24-H , 30-O ) :   0.3075 B( 30-O , 32-C ) :   1.6132 B( 31-O , 32-C ) :   1.3425
B( 32-C , 33-C ) :   0.9442 B( 33-C , 34-H ) :   0.9016 B( 33-C , 35-H ) :   0.8951
B( 33-C , 36-H ) :   0.9090

Dispersion correction           -0.030723667
FINAL SINGLE POINT ENERGY     -1288.401082484526

DIPOLE MOMENT
-------------
                                X             Y             Z
Electronic contribution:     37.85133     -71.65401      71.80686
Nuclear contribution   :    -38.50060      70.94792     -72.14733
                        -----------------------------------------
Total Dipole Moment    :     -0.64927      -0.70609      -0.34047
                        -----------------------------------------
Magnitude (a.u.)       :      1.01786
Magnitude (Debye)      :      2.58720

Rotational constants in cm-1:     0.010521     0.008935     0.008219
Rotational constants in MHz :   315.404579   267.858960   246.387781

                             ****ORCA TERMINATED NORMALLY****
TOTAL RUN TIME: 0 days 2 hours 36 minutes 39 seconds 143 msec
