                         Program Version 5.0.3 -  RELEASE  -
|  1> ! Opt PBEh-3c
|  2> %geom Constraints
|  3> { B 0 20 2.0428571428571427 C }
|  4> { B 24 30 1.3571428571428572 C }
|  5>     end
|  6> end
|  7> %output
|  8> xyzfile=True
|  9> end
| 10> %scf
| 11> maxiter 250
| 12> end
| 13> %output
| 14> Print[P_Hirshfeld] = 1
| 15> end
| 16> % maxcore
| 17> 4000
| 18> *xyz 1 1
| 19> Ir   0.61554241  -0.73628593   0.41157274
| 20> C    0.15645209  -2.85275860   0.33388319
| 21> C   -0.09414070  -2.40875089   1.68144975
| 22> C    2.14339262  -2.06052084   1.20741620
| 23> C    1.52973263  -2.66071912   0.05745230
| 24> C    1.13067361  -1.94021990   2.20296752
| 25> N   -1.07432374   0.11102566  -0.50891149
| 26> C   -2.34497941   0.29902843   0.20673470
| 27> C   -3.13708487   1.51316834  -0.25704271
| 28> H   -3.96765857   1.67403747   0.42837178
| 29> H   -3.57242104   1.38304417  -1.24875044
| 30> H   -2.53109495   2.41948951  -0.25574040
| 31> C   -3.17208282  -0.97810757   0.10789286
| 32> H   -2.06300562   0.45662537   1.24891653
| 33> H   -4.07526534  -0.88388628   0.70947538
| 34> H   -3.47544455  -1.17046908  -0.92200909
| 35> H   -2.62612941  -1.84833749   0.46856977
| 36> C   -0.92665696   0.47903778  -1.72894062
| 37> C    0.38923308   0.30694176  -2.26357200
| 38> H   -1.73631893   0.91878430  -2.30209697
| 39> C    1.41464337   0.02938610  -1.35630398
| 40> C    2.63363374  -0.19674946  -2.07067804
| 41> S    0.89325738   0.31912498  -3.88262644
| 42> C    2.49623211  -0.06664838  -3.41923398
| 43> H    1.62886452   1.15227863  -0.66545674
| 44> H    3.58534649  -0.38843554  -1.59628937
| 45> H    3.26374396  -0.15790320  -4.17277571
| 46> H   -0.56394965  -3.29780492  -0.33674688
| 47> H   -1.03052789  -2.46370324   2.21511231
| 48> H    1.26499976  -1.49345638   3.17797808
| 49> O    1.74254878   2.30578209   0.06756576
| 50> O    0.59011203   1.03649223   1.48689488
| 51> C    1.15267816   2.12271518   1.15398627
| 52> C    1.12393028   3.24431903   2.14949645
| 53> H    1.00441426   4.20106597   1.64626684
| 54> H    2.07976119   3.27388111   2.67541750
| 55> H    0.33553114   3.10618642   2.88383146
| 56> H    3.19029259  -1.83255443   1.33453205
| 57> H    2.02543821  -2.91591337  -0.86786939
| 58> *
| 59>
| 60>                          ****END OF INPUT****
 Total Charge           Charge          ....    1
 Multiplicity           Mult            ....    1
 Number of Electrons    NEL             ....  164
Dispersion correction           -0.030817611
FINAL SINGLE POINT ENERGY     -1288.401519145330
Dispersion correction            ... done
Dispersion correction           -0.030782378
FINAL SINGLE POINT ENERGY     -1288.401757653563
Dispersion correction            ... done
Dispersion correction           -0.030767382
FINAL SINGLE POINT ENERGY     -1288.401852713448
Dispersion correction            ... done
FINAL SINGLE POINT ENERGY     -1288.401915832820
FINAL SINGLE POINT ENERGY     -1288.401968416178
FINAL SINGLE POINT ENERGY     -1288.401998621743
FINAL SINGLE POINT ENERGY     -1288.402015473420
FINAL SINGLE POINT ENERGY     -1288.402025482497
FINAL SINGLE POINT ENERGY     -1288.402033132514
FINAL SINGLE POINT ENERGY     -1288.402037191111
FINAL SINGLE POINT ENERGY     -1288.402039366920
FINAL SINGLE POINT ENERGY     -1288.402040681974
FINAL SINGLE POINT ENERGY     -1288.402042043590
Dispersion correction            ... done
Dispersion correction           -0.030727074
FINAL SINGLE POINT ENERGY     -1288.402043688859
Dispersion correction            ... done
Dispersion correction           -0.030727654
FINAL SINGLE POINT ENERGY     -1288.402045480216
Dispersion correction            ... done
                    ***********************HURRAY********************

CARTESIAN COORDINATES (ANGSTROEM)
---------------------------------
  Ir     0.615802   -0.742144    0.398972
  C      0.173076   -2.859794    0.326599
  C     -0.111944   -2.429132    1.672809
  C      2.129865   -2.050050    1.249064
  C      1.554008   -2.659466    0.087634
  C      1.089097   -1.947012    2.223268
  N     -1.081917    0.103300   -0.506845
  C     -2.350977    0.278564    0.214229
  C     -3.138813    1.506450   -0.219421
  H     -3.969522    1.652745    0.469084
  H     -3.573427    1.403543   -1.214641
  H     -2.529454    2.410165   -0.194542
  C     -3.181937   -0.993401    0.086023
  H     -2.067657    0.410822    1.259603
  H     -4.081609   -0.913734    0.694962
  H     -3.491304   -1.157237   -0.947016
  H     -2.635432   -1.874323    0.419049
  C     -0.937553    0.487572   -1.722708
  C      0.377238    0.316011   -2.257665
  H     -1.746976    0.937385   -2.288084
  C      1.386202   -0.013690   -1.347196
  C      2.613472   -0.218808   -2.056698
  S      0.904555    0.399965   -3.867323
  C      2.495913   -0.023264   -3.399628
  H      1.628339    1.173961   -0.709462
  H      3.556639   -0.444997   -1.580324
  H      3.273549   -0.087714   -4.145553
  H     -0.524186   -3.317100   -0.359980
  H     -1.062161   -2.490886    2.180555
  H      1.194380   -1.501241    3.202187
  O      1.746376    2.315341    0.015214
  O      0.614847    1.048363    1.454886
  C      1.171139    2.130960    1.113417
  C      1.162450    3.256998    2.103622
  H      1.045791    4.213306    1.599033
  H      2.123568    3.279417    2.620323
  H      0.380384    3.126948    2.846105
  H      3.171622   -1.816566    1.405147
  H      2.075926   -2.912068   -0.823958

 Multiplicity           Mult            ....    1
 Number of Electrons    NEL             ....  164
 Basis Dimension        Dim             ....  358

ORBITAL ENERGIES
----------------

  NO   OCC          E(Eh)            E(eV)
   0   2.0000     -89.763958     -2442.6015
   1   2.0000     -19.639081      -534.4066
   2   2.0000     -19.633511      -534.2550
   3   2.0000     -14.832194      -403.6045
   4   2.0000     -10.702767      -291.2371
   5   2.0000     -10.653084      -289.8852
   6   2.0000     -10.624226      -289.0999
   7   2.0000     -10.621223      -289.0182
   8   2.0000     -10.620951      -289.0108
   9   2.0000     -10.618305      -288.9388
  10   2.0000     -10.612120      -288.7705
  11   2.0000     -10.611190      -288.7452
  12   2.0000     -10.610646      -288.7304
  13   2.0000     -10.607784      -288.6525
  14   2.0000     -10.591161      -288.2001
  15   2.0000     -10.589921      -288.1664
  16   2.0000     -10.552249      -287.1413
  17   2.0000     -10.550159      -287.0844
  18   2.0000     -10.548145      -287.0296
  19   2.0000      -8.403299      -228.6654
  20   2.0000      -6.293172      -171.2459
  21   2.0000      -6.289656      -171.1502
  22   2.0000      -6.288260      -171.1123
  23   2.0000      -4.017237      -109.3146
  24   2.0000      -2.333768       -63.5050
  25   2.0000      -2.304402       -62.7060
  26   2.0000      -2.300382       -62.5966
  27   2.0000      -1.331362       -36.2282
  28   2.0000      -1.233093       -33.5542
  29   2.0000      -1.205843       -32.8127
  30   2.0000      -1.156043       -31.4575
  31   2.0000      -1.127824       -30.6896
  32   2.0000      -1.024031       -27.8653
  33   2.0000      -0.970285       -26.4028
  34   2.0000      -0.968999       -26.3678
  35   2.0000      -0.962437       -26.1892
  36   2.0000      -0.957739       -26.0614
  37   2.0000      -0.943611       -25.6769
  38   2.0000      -0.899437       -24.4749
  39   2.0000      -0.871452       -23.7134
  40   2.0000      -0.797697       -21.7064
  41   2.0000      -0.782052       -21.2807
  42   2.0000      -0.773480       -21.0474
  43   2.0000      -0.772441       -21.0192
  44   2.0000      -0.764058       -20.7911
  45   2.0000      -0.757426       -20.6106
  46   2.0000      -0.741969       -20.1900
  47   2.0000      -0.720918       -19.6172
  48   2.0000      -0.699482       -19.0339
  49   2.0000      -0.684493       -18.6260
  50   2.0000      -0.665213       -18.1014
  51   2.0000      -0.663123       -18.0445
  52   2.0000      -0.650484       -17.7006
  53   2.0000      -0.638164       -17.3653
  54   2.0000      -0.628849       -17.1119
  55   2.0000      -0.623677       -16.9711
  56   2.0000      -0.620307       -16.8794
  57   2.0000      -0.610714       -16.6184
  58   2.0000      -0.600335       -16.3360
  59   2.0000      -0.594408       -16.1747
  60   2.0000      -0.592654       -16.1269
  61   2.0000      -0.590354       -16.0644
  62   2.0000      -0.578585       -15.7441
  63   2.0000      -0.571844       -15.5607
  64   2.0000      -0.564551       -15.3622
  65   2.0000      -0.561684       -15.2842
  66   2.0000      -0.557290       -15.1646
  67   2.0000      -0.545301       -14.8384
  68   2.0000      -0.542295       -14.7566
  69   2.0000      -0.535248       -14.5648
  70   2.0000      -0.530794       -14.4436
  71   2.0000      -0.518064       -14.0972
  72   2.0000      -0.512393       -13.9429
  73   2.0000      -0.503521       -13.7015
  74   2.0000      -0.498713       -13.5707
  75   2.0000      -0.490293       -13.3415
  76   2.0000      -0.475086       -12.9278
  77   2.0000      -0.453140       -12.3306
  78   2.0000      -0.442581       -12.0432
  79   2.0000      -0.417752       -11.3676
  80   2.0000      -0.413186       -11.2434
  81   2.0000      -0.391706       -10.6589
  82   0.0000      -0.202697        -5.5157
  83   0.0000      -0.143282        -3.8989
  84   0.0000      -0.122016        -3.3202
  85   0.0000      -0.086219        -2.3461
  86   0.0000      -0.075807        -2.0628

MULLIKEN ATOMIC CHARGES
-----------------------
   0 Ir:    0.613505
   1 C :   -0.261358
   2 C :   -0.248305
   3 C :   -0.282299
   4 C :   -0.215427
   5 C :   -0.150290
   6 N :   -0.434668
   7 C :   -0.126819
   8 C :   -0.678679
   9 H :    0.268509
  10 H :    0.224275
  11 H :    0.252284
  12 C :   -0.632507
  13 H :    0.276535
  14 H :    0.257453
  15 H :    0.232906
  16 H :    0.234592
  17 C :    0.069987
  18 C :   -0.119188
  19 H :    0.284262
  20 C :   -0.580919
  21 C :   -0.095959
  22 S :    0.344976
  23 C :   -0.423966
  24 H :    0.474530
  25 H :    0.267714
  26 H :    0.298122
  27 H :    0.283163
  28 H :    0.278972
  29 H :    0.294031
  30 O :   -0.482442
  31 O :   -0.498765
  32 C :    0.634363
  33 C :   -0.743660
  34 H :    0.274095
  35 H :    0.277182
  36 H :    0.263801
  37 H :    0.278749
  38 H :    0.291246
Sum of atomic charges:    1.0000000

LOEWDIN ATOMIC CHARGES
----------------------
   0 Ir:   -0.263700
   1 C :   -0.066035
   2 C :   -0.099104
   3 C :   -0.104276
   4 C :   -0.038669
   5 C :   -0.021709
   6 N :   -0.003498
   7 C :   -0.069384
   8 C :   -0.361657
   9 H :    0.155849
  10 H :    0.132707
  11 H :    0.142679
  12 C :   -0.343936
  13 H :    0.153266
  14 H :    0.150155
  15 H :    0.138148
  16 H :    0.133665
  17 C :    0.027972
  18 C :   -0.194739
  19 H :    0.159951
  20 C :   -0.216058
  21 C :   -0.130203
  22 S :    0.498728
  23 C :   -0.255942
  24 H :    0.372892
  25 H :    0.162470
  26 H :    0.169609
  27 H :    0.181061
  28 H :    0.177501
  29 H :    0.185650
  30 O :   -0.256390
  31 O :   -0.172839
  32 C :    0.167668
  33 C :   -0.371027
  34 H :    0.165118
  35 H :    0.173245
  36 H :    0.157308
  37 H :    0.180117
  38 H :    0.183407

  Mayer bond orders larger than 0.100000
B(  0-Ir,  1-C ) :   0.4647 B(  0-Ir,  2-C ) :   0.3648 B(  0-Ir,  3-C ) :   0.4750
B(  0-Ir,  4-C ) :   0.4163 B(  0-Ir,  5-C ) :   0.3448 B(  0-Ir,  6-N ) :   0.4649
B(  0-Ir, 20-C ) :   0.5616 B(  0-Ir, 31-O ) :   0.5036 B(  1-C ,  2-C ) :   1.1235
B(  1-C ,  4-C ) :   1.2133 B(  1-C , 27-H ) :   0.9101 B(  2-C ,  5-C ) :   1.2560
B(  2-C , 28-H ) :   0.9102 B(  3-C ,  4-C ) :   1.1532 B(  3-C ,  5-C ) :   1.1528
B(  3-C , 37-H ) :   0.9152 B(  4-C , 38-H ) :   0.8996 B(  5-C , 29-H ) :   0.9028
B(  6-N ,  7-C ) :   0.8967 B(  6-N , 17-C ) :   1.6418 B(  7-C ,  8-C ) :   0.9900
B(  7-C , 12-C ) :   0.9671 B(  7-C , 13-H ) :   0.8786 B(  8-C ,  9-H ) :   0.9050
B(  8-C , 10-H ) :   0.9132 B(  8-C , 11-H ) :   0.9129 B( 12-C , 14-H ) :   0.9080
B( 12-C , 15-H ) :   0.9152 B( 12-C , 16-H ) :   0.9118 B( 17-C , 18-C ) :   1.1212
B( 17-C , 19-H ) :   0.8768 B( 18-C , 20-C ) :   1.2152 B( 18-C , 22-S ) :   1.2359
B( 20-C , 21-C ) :   1.2571 B( 20-C , 24-H ) :   0.3016 B( 21-C , 23-C ) :   1.5366
B( 21-C , 25-H ) :   0.9018 B( 22-S , 23-C ) :   1.2220 B( 23-C , 26-H ) :   0.8916
B( 24-H , 30-O ) :   0.3794 B( 30-O , 32-C ) :   1.5298 B( 31-O , 32-C ) :   1.4086
B( 32-C , 33-C ) :   0.9446 B( 33-C , 34-H ) :   0.8993 B( 33-C , 35-H ) :   0.8920
B( 33-C , 36-H ) :   0.9073

Dispersion correction           -0.030727891
FINAL SINGLE POINT ENERGY     -1288.402046746852

DIPOLE MOMENT
-------------
                                X             Y             Z
Electronic contribution:     37.70767     -75.25957      68.93817
Nuclear contribution   :    -38.27540      74.98566     -69.16368
                        -----------------------------------------
Total Dipole Moment    :     -0.56773      -0.27391      -0.22551
                        -----------------------------------------
Magnitude (a.u.)       :      0.66948
Magnitude (Debye)      :      1.70168

Rotational constants in cm-1:     0.010571     0.008881     0.008242
Rotational constants in MHz :   316.921473   266.239025   247.094478

                             ****ORCA TERMINATED NORMALLY****
TOTAL RUN TIME: 0 days 2 hours 1 minutes 59 seconds 726 msec
