                         Program Version 5.0.3 -  RELEASE  -
|  1> ! Opt PBEh-3c
|  2> %geom Constraints
|  3> { B 0 20 2.428571428571429 C }
|  4> { B 24 30 1.4428571428571428 C }
|  5>     end
|  6> end
|  7> %output
|  8> xyzfile=True
|  9> end
| 10> %scf
| 11> maxiter 250
| 12> end
| 13> %output
| 14> Print[P_Hirshfeld] = 1
| 15> end
| 16> % maxcore
| 17> 4000
| 18> *xyz 1 1
| 19> Ir   0.59331383  -0.71865293   0.45267210
| 20> C    0.04225484  -2.80289560   0.34357342
| 21> C    0.11695566  -2.35105624   1.71147688
| 22> C    2.20582136  -2.12827202   0.76779160
| 23> C    1.30924633  -2.64046213  -0.24420901
| 24> C    1.48186394  -1.98865240   1.96508602
| 25> N   -1.04533755   0.16903569  -0.52030338
| 26> C   -2.31519360   0.49468278   0.14745405
| 27> C   -3.12312332   1.56290549  -0.57156602
| 28> H   -3.95124400   1.86702405   0.06715261
| 29> H   -3.56514030   1.20765225  -1.50386995
| 30> H   -2.53014610   2.45416008  -0.77916024
| 31> C   -3.12394275  -0.78015852   0.35430906
| 32> H   -2.02178793   0.88289401   1.12414830
| 33> H   -4.03636003  -0.54866402   0.90174508
| 34> H   -3.41148051  -1.22639536  -0.59859602
| 35> H   -2.57804817  -1.52203724   0.93549460
| 36> C   -0.84695570   0.37636719  -1.76416489
| 37> C    0.50337469   0.15255030  -2.23313156
| 38> H   -1.62832886   0.73628701  -2.42734797
| 39> C    1.60510814   0.48676424  -1.45289891
| 40> C    2.80975925   0.07183124  -2.09129979
| 41> S    0.93096684  -0.60902102  -3.69839624
| 42> C    2.59821248  -0.52495179  -3.29408191
| 43> H    1.53500827   1.37016126  -0.67698606
| 44> H    3.79575032   0.26060904  -1.69220516
| 45> H    3.33494227  -0.90241933  -3.98701272
| 46> H   -0.84448864  -3.16717830  -0.15499401
| 47> H   -0.67547809  -2.38409512   2.44467840
| 48> H    1.86420185  -1.59343282   2.89525855
| 49> O    1.31001859   2.46402279   0.25902243
| 50> O    0.53504631   0.91312772   1.66272581
| 51> C    0.90706021   2.11461642   1.36504786
| 52> C    0.84454292   3.08633484   2.51036600
| 53> H    0.79980212   4.10847727   2.14444174
| 54> H    1.74992024   2.98636203   3.11224721
| 55> H   -0.00125155   2.88673193   3.16502382
| 56> H    3.25183286  -1.89907338   0.62855193
| 57> H    1.57267378  -2.86598944  -1.26730360
| 58> *
| 59>
| 60>                          ****END OF INPUT****
 Total Charge           Charge          ....    1
 Multiplicity           Mult            ....    1
 Number of Electrons    NEL             ....  164
Dispersion correction           -0.031025377
FINAL SINGLE POINT ENERGY     -1288.398689655079
Dispersion correction            ... done
Dispersion correction           -0.031049236
FINAL SINGLE POINT ENERGY     -1288.397367142983
Dispersion correction            ... done
Dispersion correction           -0.030989141
FINAL SINGLE POINT ENERGY     -1288.398776824312
Dispersion correction            ... done
FINAL SINGLE POINT ENERGY     -1288.397246762292
FINAL SINGLE POINT ENERGY     -1288.398855096922
FINAL SINGLE POINT ENERGY     -1288.398865261317
FINAL SINGLE POINT ENERGY     -1288.398890885499
FINAL SINGLE POINT ENERGY     -1288.398899721214
Dispersion correction            ... done
Dispersion correction           -0.030912908
FINAL SINGLE POINT ENERGY     -1288.398906226018
Dispersion correction            ... done
Dispersion correction           -0.030908562
FINAL SINGLE POINT ENERGY     -1288.398916187894
Dispersion correction            ... done
                    ***********************HURRAY********************

CARTESIAN COORDINATES (ANGSTROEM)
---------------------------------
  Ir     0.596744   -0.717548    0.450728
  C      0.046251   -2.803168    0.348977
  C      0.108759   -2.350110    1.715951
  C      2.206048   -2.125754    0.788014
  C      1.318529   -2.642223   -0.229485
  C      1.469626   -1.982181    1.978160
  N     -1.046171    0.163478   -0.521996
  C     -2.316294    0.480867    0.149319
  C     -3.121633    1.562135   -0.553297
  H     -3.949659    1.857796    0.089539
  H     -3.563803    1.222730   -1.491366
  H     -2.526618    2.455248   -0.746413
  C     -3.128212   -0.795352    0.334693
  H     -2.023621    0.853089    1.132403
  H     -4.040593   -0.570800    0.885096
  H     -3.415742   -1.225215   -0.625698
  H     -2.584216   -1.547937    0.903646
  C     -0.854072    0.376254   -1.766584
  C      0.493728    0.160373   -2.241466
  H     -1.639904    0.735893   -2.424482
  C      1.589411    0.448749   -1.434033
  C      2.797336    0.050281   -2.076966
  S      0.929529   -0.542505   -3.731096
  C      2.593147   -0.492243   -3.306706
  H      1.528021    1.348461   -0.659026
  H      3.780745    0.212114   -1.660058
  H      3.333482   -0.846157   -4.008176
  H     -0.835581   -3.169743   -0.156623
  H     -0.689762   -2.382093    2.442388
  H      1.843236   -1.582507    2.910006
  O      1.331927    2.455160    0.245740
  O      0.533849    0.922595    1.655426
  C      0.918304    2.116432    1.353314
  C      0.862948    3.099150    2.489100
  H      0.825492    4.118436    2.114596
  H      1.767863    2.997641    3.091462
  H      0.015867    2.910736    3.145329
  H      3.254010   -1.899666    0.659386
  H      1.590396   -2.873226   -1.249061

 Multiplicity           Mult            ....    1
 Number of Electrons    NEL             ....  164
 Basis Dimension        Dim             ....  358

ORBITAL ENERGIES
----------------

  NO   OCC          E(Eh)            E(eV)
   0   2.0000     -89.763940     -2442.6010
   1   2.0000     -19.622308      -533.9501
   2   2.0000     -19.587083      -532.9916
   3   2.0000     -14.841219      -403.8501
   4   2.0000     -10.679313      -290.5989
   5   2.0000     -10.662261      -290.1349
   6   2.0000     -10.636783      -289.4416
   7   2.0000     -10.633750      -289.3591
   8   2.0000     -10.633459      -289.3511
   9   2.0000     -10.632027      -289.3122
  10   2.0000     -10.630533      -289.2715
  11   2.0000     -10.630060      -289.2586
  12   2.0000     -10.616015      -288.8765
  13   2.0000     -10.610882      -288.7368
  14   2.0000     -10.585827      -288.0550
  15   2.0000     -10.583625      -287.9951
  16   2.0000     -10.557096      -287.2732
  17   2.0000     -10.552067      -287.1363
  18   2.0000     -10.532075      -286.5923
  19   2.0000      -8.403283      -228.6650
  20   2.0000      -6.293315      -171.2498
  21   2.0000      -6.289669      -171.1506
  22   2.0000      -6.288077      -171.1073
  23   2.0000      -4.029297      -109.6428
  24   2.0000      -2.348258       -63.8994
  25   2.0000      -2.314242       -62.9737
  26   2.0000      -2.312825       -62.9352
  27   2.0000      -1.303884       -35.4805
  28   2.0000      -1.213887       -33.0316
  29   2.0000      -1.207002       -32.8442
  30   2.0000      -1.172759       -31.9124
  31   2.0000      -1.128022       -30.6950
  32   2.0000      -1.027484       -27.9593
  33   2.0000      -0.987336       -26.8668
  34   2.0000      -0.977874       -26.6093
  35   2.0000      -0.967075       -26.3155
  36   2.0000      -0.960808       -26.1449
  37   2.0000      -0.925804       -25.1924
  38   2.0000      -0.903422       -24.5834
  39   2.0000      -0.874579       -23.7985
  40   2.0000      -0.798710       -21.7340
  41   2.0000      -0.788708       -21.4618
  42   2.0000      -0.787322       -21.4241
  43   2.0000      -0.782026       -21.2800
  44   2.0000      -0.772478       -21.0202
  45   2.0000      -0.755305       -20.5529
  46   2.0000      -0.744094       -20.2478
  47   2.0000      -0.723258       -19.6809
  48   2.0000      -0.693833       -18.8802
  49   2.0000      -0.673358       -18.3230
  50   2.0000      -0.665514       -18.1095
  51   2.0000      -0.651126       -17.7180
  52   2.0000      -0.647493       -17.6192
  53   2.0000      -0.640033       -17.4162
  54   2.0000      -0.636163       -17.3109
  55   2.0000      -0.628664       -17.1068
  56   2.0000      -0.623528       -16.9671
  57   2.0000      -0.612414       -16.6646
  58   2.0000      -0.608369       -16.5546
  59   2.0000      -0.607558       -16.5325
  60   2.0000      -0.598410       -16.2836
  61   2.0000      -0.589588       -16.0435
  62   2.0000      -0.579051       -15.7568
  63   2.0000      -0.572053       -15.5663
  64   2.0000      -0.564129       -15.3507
  65   2.0000      -0.554654       -15.0929
  66   2.0000      -0.552501       -15.0343
  67   2.0000      -0.548502       -14.9255
  68   2.0000      -0.539247       -14.6736
  69   2.0000      -0.535936       -14.5836
  70   2.0000      -0.528130       -14.3711
  71   2.0000      -0.520731       -14.1698
  72   2.0000      -0.516009       -14.0413
  73   2.0000      -0.505076       -13.7438
  74   2.0000      -0.488230       -13.2854
  75   2.0000      -0.481392       -13.0993
  76   2.0000      -0.467735       -12.7277
  77   2.0000      -0.448335       -12.1998
  78   2.0000      -0.441404       -12.0112
  79   2.0000      -0.424077       -11.5397
  80   2.0000      -0.417115       -11.3503
  81   2.0000      -0.403380       -10.9765
  82   0.0000      -0.202056        -5.4982
  83   0.0000      -0.161873        -4.4048
  84   0.0000      -0.141799        -3.8585
  85   0.0000      -0.099699        -2.7129
  86   0.0000      -0.076843        -2.0910

MULLIKEN ATOMIC CHARGES
-----------------------
   0 Ir:    0.613941
   1 C :   -0.209762
   2 C :   -0.289494
   3 C :   -0.235585
   4 C :   -0.246474
   5 C :   -0.164992
   6 N :   -0.425139
   7 C :   -0.120174
   8 C :   -0.692838
   9 H :    0.272530
  10 H :    0.225357
  11 H :    0.260992
  12 C :   -0.638297
  13 H :    0.282305
  14 H :    0.264544
  15 H :    0.230791
  16 H :    0.232715
  17 C :    0.070143
  18 C :   -0.190905
  19 H :    0.292140
  20 C :   -0.452113
  21 C :   -0.128340
  22 S :    0.304765
  23 C :   -0.431817
  24 H :    0.499171
  25 H :    0.267513
  26 H :    0.297922
  27 H :    0.291452
  28 H :    0.292421
  29 H :    0.306385
  30 O :   -0.479293
  31 O :   -0.541217
  32 C :    0.613573
  33 C :   -0.745247
  34 H :    0.268773
  35 H :    0.265263
  36 H :    0.251891
  37 H :    0.292993
  38 H :    0.294104
Sum of atomic charges:    1.0000000

LOEWDIN ATOMIC CHARGES
----------------------
   0 Ir:   -0.224151
   1 C :   -0.039542
   2 C :   -0.063914
   3 C :   -0.053230
   4 C :   -0.056897
   5 C :   -0.023635
   6 N :   -0.003642
   7 C :   -0.068982
   8 C :   -0.364475
   9 H :    0.157523
  10 H :    0.133567
  11 H :    0.147037
  12 C :   -0.343428
  13 H :    0.156965
  14 H :    0.153130
  15 H :    0.137202
  16 H :    0.134106
  17 C :    0.035025
  18 C :   -0.180950
  19 H :    0.163159
  20 C :   -0.191798
  21 C :   -0.135616
  22 S :    0.470786
  23 C :   -0.263350
  24 H :    0.288947
  25 H :    0.162894
  26 H :    0.168230
  27 H :    0.185190
  28 H :    0.185769
  29 H :    0.193516
  30 O :   -0.276488
  31 O :   -0.208921
  32 C :    0.152021
  33 C :   -0.376554
  34 H :    0.159200
  35 H :    0.166422
  36 H :    0.152598
  37 H :    0.186744
  38 H :    0.185543

  Mayer bond orders larger than 0.100000
B(  0-Ir,  1-C ) :   0.4188 B(  0-Ir,  2-C ) :   0.5277 B(  0-Ir,  3-C ) :   0.4622
B(  0-Ir,  4-C ) :   0.4497 B(  0-Ir,  5-C ) :   0.4015 B(  0-Ir,  6-N ) :   0.4621
B(  0-Ir, 20-C ) :   0.2595 B(  0-Ir, 31-O ) :   0.5841 B(  1-C ,  2-C ) :   1.1188
B(  1-C ,  4-C ) :   1.2455 B(  1-C , 27-H ) :   0.9033 B(  2-C ,  5-C ) :   1.1369
B(  2-C , 28-H ) :   0.9075 B(  3-C ,  4-C ) :   1.1059 B(  3-C ,  5-C ) :   1.2316
B(  3-C , 37-H ) :   0.9046 B(  4-C , 38-H ) :   0.8993 B(  5-C , 29-H ) :   0.8979
B(  6-N ,  7-C ) :   0.8915 B(  6-N , 17-C ) :   1.6926 B(  7-C ,  8-C ) :   0.9920
B(  7-C , 12-C ) :   0.9689 B(  7-C , 13-H ) :   0.8715 B(  8-C ,  9-H ) :   0.9035
B(  8-C , 10-H ) :   0.9126 B(  8-C , 11-H ) :   0.9081 B( 12-C , 14-H ) :   0.9064
B( 12-C , 15-H ) :   0.9154 B( 12-C , 16-H ) :   0.9113 B( 17-C , 18-C ) :   1.0541
B( 17-C , 19-H ) :   0.8741 B( 18-C , 20-C ) :   1.2893 B( 18-C , 22-S ) :   1.2321
B( 20-C , 21-C ) :   1.2595 B( 20-C , 24-H ) :   0.4805 B( 21-C , 23-C ) :   1.5504
B( 21-C , 25-H ) :   0.9039 B( 22-S , 23-C ) :   1.2011 B( 23-C , 26-H ) :   0.8920
B( 24-H , 30-O ) :   0.2371 B( 30-O , 32-C ) :   1.7009 B( 31-O , 32-C ) :   1.2713
B( 32-C , 33-C ) :   0.9459 B( 33-C , 34-H ) :   0.9055 B( 33-C , 35-H ) :   0.8994
B( 33-C , 36-H ) :   0.9099

Dispersion correction           -0.030906403
FINAL SINGLE POINT ENERGY     -1288.398918912581

DIPOLE MOMENT
-------------
                                X             Y             Z
Electronic contribution:     35.95090     -67.45857      72.54972
Nuclear contribution   :    -36.58025      66.22055     -72.87010
                        -----------------------------------------
Total Dipole Moment    :     -0.62935      -1.23803      -0.32038
                        -----------------------------------------
Magnitude (a.u.)       :      1.42528
Magnitude (Debye)      :      3.62278

Rotational constants in cm-1:     0.010720     0.009109     0.008259
Rotational constants in MHz :   321.372905   273.092340   247.598228

                             ****ORCA TERMINATED NORMALLY****
TOTAL RUN TIME: 0 days 1 hours 33 minutes 41 seconds 456 msec
