                         Program Version 5.0.3 -  RELEASE  -
|  1> ! Opt PBEh-3c
|  2> %geom Constraints
|  3> { B 0 20 2.0428571428571427 C }
|  4> { B 24 30 1.3857142857142857 C }
|  5>     end
|  6> end
|  7> %output
|  8> xyzfile=True
|  9> end
| 10> %scf
| 11> maxiter 250
| 12> end
| 13> %output
| 14> Print[P_Hirshfeld] = 1
| 15> end
| 16> % maxcore
| 17> 4000
| 18> *xyz 1 1
| 19> Ir   0.61799780  -0.73050540   0.40882760
| 20> C    0.15402030  -2.84892137   0.33020108
| 21> C   -0.07734596  -2.40197482   1.67981654
| 22> C    2.15479289  -2.06136598   1.17595602
| 23> C    1.52225956  -2.65828544   0.03316605
| 24> C    1.15786756  -1.93761501   2.18477884
| 25> N   -1.07176591   0.11843020  -0.51135980
| 26> C   -2.34068110   0.31474513   0.20487318
| 27> C   -3.13607252   1.52066672  -0.27429198
| 28> H   -3.96503069   1.69001730   0.41103983
| 29> H   -3.57411720   1.37473354  -1.26261899
| 30> H   -2.53196995   2.42813896  -0.28801395
| 31> C   -3.16604994  -0.96501818   0.12574363
| 32> H   -2.05571195   0.48671640   1.24393784
| 33> H   -4.06860033  -0.86262550   0.72689574
| 34> H   -3.47049089  -1.17294416  -0.90080814
| 35> H   -2.61886710  -1.82898791   0.49923437
| 36> C   -0.92356740   0.47816766  -1.73347106
| 37> C    0.39337044   0.30001702  -2.26486196
| 38> H   -1.73164368   0.91573943  -2.31047998
| 39> C    1.42174515   0.04626685  -1.35208670
| 40> C    2.63969694  -0.19597320  -2.06506553
| 41> S    0.89243364   0.26845341  -3.88371883
| 42> C    2.49857913  -0.10305310  -3.41546168
| 43> H    1.62098751   1.13661723  -0.66227727
| 44> H    3.59325175  -0.37024231  -1.58768214
| 45> H    3.26371363  -0.21214148  -4.16901838
| 46> H   -0.57778996  -3.28979770  -0.33079482
| 47> H   -1.00574572  -2.45577965   2.22741577
| 48> H    1.30746201  -1.49135981   3.15781835
| 49> O    1.72925213   2.31372571   0.08785232
| 50> O    0.58087881   1.02956434   1.49708440
| 51> C    1.13898428   2.12332212   1.16873101
| 52> C    1.09559005   3.23672111   2.17406996
| 53> H    0.98172961   4.19727953   1.67693421
| 54> H    2.04433801   3.26273047   2.71280249
| 55> H    0.29811506   3.09250737   2.89751489
| 56> H    3.20372815  -1.83445141   1.28729779
| 57> H    2.00402594  -2.91432805  -0.89924050
| 58> *
| 59>
| 60>                          ****END OF INPUT****
 Total Charge           Charge          ....    1
 Multiplicity           Mult            ....    1
 Number of Electrons    NEL             ....  164
Dispersion correction           -0.030859149
FINAL SINGLE POINT ENERGY     -1288.399590603736
Dispersion correction            ... done
Dispersion correction           -0.030815847
FINAL SINGLE POINT ENERGY     -1288.399603165600
Dispersion correction            ... done
Dispersion correction           -0.030836533
FINAL SINGLE POINT ENERGY     -1288.398520815494
Dispersion correction            ... done
FINAL SINGLE POINT ENERGY     -1288.399917723710
FINAL SINGLE POINT ENERGY     -1288.399957113920
FINAL SINGLE POINT ENERGY     -1288.399997011648
FINAL SINGLE POINT ENERGY     -1288.400060613353
FINAL SINGLE POINT ENERGY     -1288.400069346703
FINAL SINGLE POINT ENERGY     -1288.400073610077
FINAL SINGLE POINT ENERGY     -1288.400077090459
FINAL SINGLE POINT ENERGY     -1288.400079101540
FINAL SINGLE POINT ENERGY     -1288.400081504735
FINAL SINGLE POINT ENERGY     -1288.400084238280
FINAL SINGLE POINT ENERGY     -1288.400087032019
Dispersion correction            ... done
Dispersion correction           -0.030765855
FINAL SINGLE POINT ENERGY     -1288.400090011296
Dispersion correction            ... done
Dispersion correction           -0.030767262
FINAL SINGLE POINT ENERGY     -1288.400091398655
Dispersion correction            ... done
                    ***********************HURRAY********************

CARTESIAN COORDINATES (ANGSTROEM)
---------------------------------
  Ir     0.619074   -0.737188    0.397132
  C      0.171607   -2.857070    0.321347
  C     -0.095411   -2.424136    1.670023
  C      2.142407   -2.052532    1.218648
  C      1.548173   -2.657913    0.062931
  C      1.116098   -1.946442    2.205467
  N     -1.078191    0.110218   -0.508750
  C     -2.344825    0.295526    0.213794
  C     -3.134625    1.516623   -0.235095
  H     -3.963208    1.672418    0.453886
  H     -3.572447    1.398584   -1.227230
  H     -2.525944    2.421094   -0.225329
  C     -3.175590   -0.978588    0.105868
  H     -2.057774    0.442045    1.256213
  H     -4.074222   -0.889502    0.714993
  H     -3.486681   -1.158088   -0.924042
  H     -2.628595   -1.854107    0.451924
  C     -0.934098    0.485119   -1.727333
  C      0.381306    0.307208   -2.259962
  H     -1.742343    0.932434   -2.296294
  C      1.393735    0.002423   -1.342449
  C      2.620047   -0.217668   -2.051687
  S      0.903409    0.349844   -3.871122
  C      2.498595   -0.058053   -3.397947
  H      1.618222    1.152506   -0.703065
  H      3.565381   -0.425731   -1.571347
  H      3.273882   -0.138675   -4.144712
  H     -0.536784   -3.309579   -0.356989
  H     -1.038350   -2.485121    2.191274
  H      1.235767   -1.501495    3.183147
  O      1.728118    2.320986    0.033672
  O      0.605406    1.039833    1.467300
  C      1.154261    2.130682    1.127340
  C      1.129654    3.250273    2.125772
  H      1.018284    4.209507    1.625694
  H      2.083450    3.270662    2.655903
  H      0.338043    3.114609    2.857208
  H      3.186602   -1.820909    1.360584
  H      2.056937   -2.910609   -0.856026

 Multiplicity           Mult            ....    1
 Number of Electrons    NEL             ....  164
 Basis Dimension        Dim             ....  358

ORBITAL ENERGIES
----------------

  NO   OCC          E(Eh)            E(eV)
   0   2.0000     -89.765743     -2442.6500
   1   2.0000     -19.636345      -534.3321
   2   2.0000     -19.627105      -534.0807
   3   2.0000     -14.833785      -403.6478
   4   2.0000     -10.699006      -291.1348
   5   2.0000     -10.654152      -289.9142
   6   2.0000     -10.626607      -289.1647
   7   2.0000     -10.622113      -289.0424
   8   2.0000     -10.621459      -289.0246
   9   2.0000     -10.619324      -288.9665
  10   2.0000     -10.612616      -288.7840
  11   2.0000     -10.611933      -288.7654
  12   2.0000     -10.611435      -288.7518
  13   2.0000     -10.608733      -288.6783
  14   2.0000     -10.591347      -288.2052
  15   2.0000     -10.590855      -288.1918
  16   2.0000     -10.552812      -287.1566
  17   2.0000     -10.550498      -287.0937
  18   2.0000     -10.545921      -286.9691
  19   2.0000      -8.405080      -228.7138
  20   2.0000      -6.294944      -171.2941
  21   2.0000      -6.291409      -171.1979
  22   2.0000      -6.290069      -171.1615
  23   2.0000      -4.018101      -109.3381
  24   2.0000      -2.334762       -63.5321
  25   2.0000      -2.305179       -62.7271
  26   2.0000      -2.301309       -62.6218
  27   2.0000      -1.327052       -36.1109
  28   2.0000      -1.228726       -33.4353
  29   2.0000      -1.207168       -32.8487
  30   2.0000      -1.156937       -31.4818
  31   2.0000      -1.129111       -30.7247
  32   2.0000      -1.024911       -27.8892
  33   2.0000      -0.971613       -26.4389
  34   2.0000      -0.969877       -26.3917
  35   2.0000      -0.963498       -26.2181
  36   2.0000      -0.958704       -26.0877
  37   2.0000      -0.940904       -25.6033
  38   2.0000      -0.899954       -24.4890
  39   2.0000      -0.872584       -23.7442
  40   2.0000      -0.798782       -21.7360
  41   2.0000      -0.782999       -21.3065
  42   2.0000      -0.774043       -21.0628
  43   2.0000      -0.773135       -21.0381
  44   2.0000      -0.761451       -20.7201
  45   2.0000      -0.758064       -20.6280
  46   2.0000      -0.742852       -20.2140
  47   2.0000      -0.721207       -19.6251
  48   2.0000      -0.697063       -18.9680
  49   2.0000      -0.685025       -18.6405
  50   2.0000      -0.664172       -18.0730
  51   2.0000      -0.661319       -17.9954
  52   2.0000      -0.648964       -17.6592
  53   2.0000      -0.638087       -17.3632
  54   2.0000      -0.629388       -17.1265
  55   2.0000      -0.624383       -16.9903
  56   2.0000      -0.621017       -16.8987
  57   2.0000      -0.611651       -16.6439
  58   2.0000      -0.601214       -16.3599
  59   2.0000      -0.595074       -16.1928
  60   2.0000      -0.593394       -16.1471
  61   2.0000      -0.590991       -16.0817
  62   2.0000      -0.579447       -15.7676
  63   2.0000      -0.569538       -15.4979
  64   2.0000      -0.566339       -15.4109
  65   2.0000      -0.562316       -15.3014
  66   2.0000      -0.555651       -15.1200
  67   2.0000      -0.545962       -14.8564
  68   2.0000      -0.542263       -14.7557
  69   2.0000      -0.535212       -14.5639
  70   2.0000      -0.531127       -14.4527
  71   2.0000      -0.518219       -14.1015
  72   2.0000      -0.512656       -13.9501
  73   2.0000      -0.501562       -13.6482
  74   2.0000      -0.496396       -13.5076
  75   2.0000      -0.490480       -13.3466
  76   2.0000      -0.475585       -12.9413
  77   2.0000      -0.452403       -12.3105
  78   2.0000      -0.442646       -12.0450
  79   2.0000      -0.418974       -11.4009
  80   2.0000      -0.413380       -11.2486
  81   2.0000      -0.392120       -10.6701
  82   0.0000      -0.205336        -5.5875
  83   0.0000      -0.143443        -3.9033
  84   0.0000      -0.123763        -3.3678
  85   0.0000      -0.087171        -2.3720
  86   0.0000      -0.075558        -2.0560

MULLIKEN ATOMIC CHARGES
-----------------------
   0 Ir:    0.614225
   1 C :   -0.256797
   2 C :   -0.250044
   3 C :   -0.280511
   4 C :   -0.217724
   5 C :   -0.150055
   6 N :   -0.432507
   7 C :   -0.127168
   8 C :   -0.679717
   9 H :    0.268970
  10 H :    0.224202
  11 H :    0.253099
  12 C :   -0.632854
  13 H :    0.278183
  14 H :    0.258079
  15 H :    0.232793
  16 H :    0.234639
  17 C :    0.069718
  18 C :   -0.116716
  19 H :    0.285094
  20 C :   -0.589532
  21 C :   -0.091161
  22 S :    0.346723
  23 C :   -0.425603
  24 H :    0.472049
  25 H :    0.268632
  26 H :    0.298561
  27 H :    0.283367
  28 H :    0.279487
  29 H :    0.295136
  30 O :   -0.478179
  31 O :   -0.504271
  32 C :    0.631787
  33 C :   -0.743594
  34 H :    0.273047
  35 H :    0.275960
  36 H :    0.262070
  37 H :    0.279292
  38 H :    0.291317
Sum of atomic charges:    1.0000000

LOEWDIN ATOMIC CHARGES
----------------------
   0 Ir:   -0.262127
   1 C :   -0.064489
   2 C :   -0.099102
   3 C :   -0.102805
   4 C :   -0.039999
   5 C :   -0.020227
   6 N :   -0.001173
   7 C :   -0.069536
   8 C :   -0.361829
   9 H :    0.156082
  10 H :    0.132724
  11 H :    0.143069
  12 C :   -0.343768
  13 H :    0.154129
  14 H :    0.150450
  15 H :    0.138082
  16 H :    0.133726
  17 C :    0.027446
  18 C :   -0.189133
  19 H :    0.160418
  20 C :   -0.218779
  21 C :   -0.126112
  22 S :    0.501708
  23 C :   -0.256763
  24 H :    0.366610
  25 H :    0.163004
  26 H :    0.169822
  27 H :    0.181135
  28 H :    0.177839
  29 H :    0.186313
  30 O :   -0.258654
  31 O :   -0.178033
  32 C :    0.164518
  33 C :   -0.371535
  34 H :    0.164342
  35 H :    0.172498
  36 H :    0.156397
  37 H :    0.180398
  38 H :    0.183353

  Mayer bond orders larger than 0.100000
B(  0-Ir,  1-C ) :   0.4583 B(  0-Ir,  2-C ) :   0.3716 B(  0-Ir,  3-C ) :   0.4734
B(  0-Ir,  4-C ) :   0.4168 B(  0-Ir,  5-C ) :   0.3488 B(  0-Ir,  6-N ) :   0.4641
B(  0-Ir, 20-C ) :   0.5489 B(  0-Ir, 31-O ) :   0.5128 B(  1-C ,  2-C ) :   1.1242
B(  1-C ,  4-C ) :   1.2175 B(  1-C , 27-H ) :   0.9098 B(  2-C ,  5-C ) :   1.2473
B(  2-C , 28-H ) :   0.9102 B(  3-C ,  4-C ) :   1.1491 B(  3-C ,  5-C ) :   1.1577
B(  3-C , 37-H ) :   0.9149 B(  4-C , 38-H ) :   0.8994 B(  5-C , 29-H ) :   0.9024
B(  6-N ,  7-C ) :   0.8964 B(  6-N , 17-C ) :   1.6441 B(  7-C ,  8-C ) :   0.9901
B(  7-C , 12-C ) :   0.9667 B(  7-C , 13-H ) :   0.8775 B(  8-C ,  9-H ) :   0.9049
B(  8-C , 10-H ) :   0.9132 B(  8-C , 11-H ) :   0.9125 B( 12-C , 14-H ) :   0.9079
B( 12-C , 15-H ) :   0.9152 B( 12-C , 16-H ) :   0.9117 B( 17-C , 18-C ) :   1.1180
B( 17-C , 19-H ) :   0.8767 B( 18-C , 20-C ) :   1.2097 B( 18-C , 22-S ) :   1.2445
B( 20-C , 21-C ) :   1.2517 B( 20-C , 24-H ) :   0.3280 B( 21-C , 23-C ) :   1.5431
B( 21-C , 25-H ) :   0.9014 B( 22-S , 23-C ) :   1.2168 B( 23-C , 26-H ) :   0.8915
B( 24-H , 30-O ) :   0.3583 B( 30-O , 32-C ) :   1.5555 B( 31-O , 32-C ) :   1.3897
B( 32-C , 33-C ) :   0.9439 B( 33-C , 34-H ) :   0.9002 B( 33-C , 35-H ) :   0.8929
B( 33-C , 36-H ) :   0.9077

Dispersion correction           -0.030768860
FINAL SINGLE POINT ENERGY     -1288.400091422771

DIPOLE MOMENT
-------------
                                X             Y             Z
Electronic contribution:     38.00155     -74.52388      68.70780
Nuclear contribution   :    -38.59542      74.15722     -68.99759
                        -----------------------------------------
Total Dipole Moment    :     -0.59387      -0.36666      -0.28979
                        -----------------------------------------
Magnitude (a.u.)       :      0.75571
Magnitude (Debye)      :      1.92087

Rotational constants in cm-1:     0.010554     0.008934     0.008251
Rotational constants in MHz :   316.402750   267.835252   247.356536

                             ****ORCA TERMINATED NORMALLY****
TOTAL RUN TIME: 0 days 2 hours 14 minutes 57 seconds 524 msec
