                         Program Version 5.0.3 -  RELEASE  -
|  1> ! Opt PBEh-3c
|  2> %geom Constraints
|  3> { B 0 20 2.3857142857142857 C }
|  4> { B 24 30 1.4285714285714286 C }
|  5>     end
|  6> end
|  7> %output
|  8> xyzfile=True
|  9> end
| 10> %scf
| 11> maxiter 250
| 12> end
| 13> %output
| 14> Print[P_Hirshfeld] = 1
| 15> end
| 16> % maxcore
| 17> 4000
| 18> *xyz 1 1
| 19> Ir   0.59674386  -0.71754812   0.45072763
| 20> C    0.04625105  -2.80316761   0.34897666
| 21> C    0.10875945  -2.35010960   1.71595138
| 22> C    2.20604803  -2.12575361   0.78801363
| 23> C    1.31852867  -2.64222271  -0.22948462
| 24> C    1.46962630  -1.98218110   1.97815976
| 25> N   -1.04617143   0.16347769  -0.52199616
| 26> C   -2.31629390   0.48086724   0.14931852
| 27> C   -3.12163254   1.56213498  -0.55329714
| 28> H   -3.94965865   1.85779634   0.08953884
| 29> H   -3.56380255   1.22272993  -1.49136606
| 30> H   -2.52661821   2.45524765  -0.74641279
| 31> C   -3.12821157  -0.79535212   0.33469342
| 32> H   -2.02362052   0.85308884   1.13240271
| 33> H   -4.04059286  -0.57079977   0.88509592
| 34> H   -3.41574229  -1.22521532  -0.62569822
| 35> H   -2.58421556  -1.54793706   0.90364645
| 36> C   -0.85407248   0.37625421  -1.76658401
| 37> C    0.49372785   0.16037263  -2.24146590
| 38> H   -1.63990362   0.73589296  -2.42448188
| 39> C    1.58941119   0.44874868  -1.43403299
| 40> C    2.79733609   0.05028067  -2.07696619
| 41> S    0.92952940  -0.54250468  -3.73109571
| 42> C    2.59314678  -0.49224334  -3.30670591
| 43> H    1.52802133   1.34846062  -0.65902589
| 44> H    3.78074499   0.21211402  -1.66005787
| 45> H    3.33348207  -0.84615720  -4.00817571
| 46> H   -0.83558136  -3.16974260  -0.15662324
| 47> H   -0.68976216  -2.38209250   2.44238774
| 48> H    1.84323619  -1.58250720   2.91000622
| 49> O    1.33192684   2.45515980   0.24573961
| 50> O    0.53384907   0.92259535   1.65542622
| 51> C    0.91830399   2.11643210   1.35331376
| 52> C    0.86294825   3.09914957   2.48909988
| 53> H    0.82549246   4.11843603   2.11459617
| 54> H    1.76786288   2.99764092   3.09146213
| 55> H    0.01586685   2.91073640   3.14532905
| 56> H    3.25401025  -1.89966648   0.65938553
| 57> H    1.59039590  -2.87322561  -1.24906091
| 58> *
| 59>
| 60>                          ****END OF INPUT****
 Total Charge           Charge          ....    1
 Multiplicity           Mult            ....    1
 Number of Electrons    NEL             ....  164
Dispersion correction           -0.031012659
FINAL SINGLE POINT ENERGY     -1288.399025790118
Dispersion correction            ... done
Dispersion correction           -0.031051864
FINAL SINGLE POINT ENERGY     -1288.397208818970
Dispersion correction            ... done
Dispersion correction           -0.030977862
FINAL SINGLE POINT ENERGY     -1288.399143149134
Dispersion correction            ... done
FINAL SINGLE POINT ENERGY     -1288.397551794372
FINAL SINGLE POINT ENERGY     -1288.399212054970
FINAL SINGLE POINT ENERGY     -1288.399232154498
FINAL SINGLE POINT ENERGY     -1288.399259731336
FINAL SINGLE POINT ENERGY     -1288.399274870348
FINAL SINGLE POINT ENERGY     -1288.399285801362
Dispersion correction            ... done
Dispersion correction           -0.030867111
FINAL SINGLE POINT ENERGY     -1288.399297461084
Dispersion correction            ... done
Dispersion correction           -0.030864969
FINAL SINGLE POINT ENERGY     -1288.399298101325
Dispersion correction            ... done
                    ***********************HURRAY********************

CARTESIAN COORDINATES (ANGSTROEM)
---------------------------------
  Ir     0.600423   -0.717338    0.453142
  C      0.050385   -2.805485    0.360039
  C      0.092824   -2.348122    1.725282
  C      2.203817   -2.124375    0.825214
  C      1.331130   -2.647117   -0.201464
  C      1.447990   -1.974625    2.003422
  N     -1.045430    0.155414   -0.521820
  C     -2.317076    0.458860    0.153636
  C     -3.116936    1.561251   -0.522426
  H     -3.944610    1.844411    0.126461
  H     -3.559230    1.247188   -1.469128
  H     -2.517262    2.455826   -0.692662
  C     -3.133855   -0.819351    0.301827
  H     -2.027362    0.803648    1.147470
  H     -4.047440   -0.607354    0.855287
  H     -3.419318   -1.222183   -0.670811
  H     -2.593382   -1.588781    0.851120
  C     -0.860914    0.379232   -1.766663
  C      0.482748    0.175120   -2.251496
  H     -1.653345    0.740078   -2.415776
  C      1.573816    0.399122   -1.417061
  C      2.782526    0.022732   -2.071472
  S      0.923191   -0.444467   -3.774449
  C      2.582564   -0.442267   -3.333804
  H      1.529669    1.316160   -0.639687
  H      3.764396    0.146068   -1.638103
  H      3.324803   -0.763513   -4.048851
  H     -0.823182   -3.176114   -0.156812
  H     -0.716016   -2.377520    2.440161
  H      1.807534   -1.569315    2.938398
  O      1.372526    2.438942    0.229499
  O      0.533685    0.936186    1.646159
  C      0.938952    2.118586    1.337298
  C      0.884661    3.118836    2.457068
  H      0.857744    4.132857    2.067671
  H      1.785458    3.018789    3.065798
  H      0.032154    2.946058    3.110402
  H      3.254506   -1.902573    0.713190
  H      1.617225   -2.885676   -1.215318

 Multiplicity           Mult            ....    1
 Number of Electrons    NEL             ....  164
 Basis Dimension        Dim             ....  358

ORBITAL ENERGIES
----------------

  NO   OCC          E(Eh)            E(eV)
   0   2.0000     -89.764107     -2442.6055
   1   2.0000     -19.623589      -533.9850
   2   2.0000     -19.591125      -533.1016
   3   2.0000     -14.840214      -403.8228
   4   2.0000     -10.681375      -290.6550
   5   2.0000     -10.661227      -290.1067
   6   2.0000     -10.635410      -289.4042
   7   2.0000     -10.632544      -289.3262
   8   2.0000     -10.632517      -289.3255
   9   2.0000     -10.629751      -289.2502
  10   2.0000     -10.629081      -289.2320
  11   2.0000     -10.628403      -289.2136
  12   2.0000     -10.615475      -288.8618
  13   2.0000     -10.610700      -288.7318
  14   2.0000     -10.586215      -288.0655
  15   2.0000     -10.583896      -288.0024
  16   2.0000     -10.556635      -287.2606
  17   2.0000     -10.551765      -287.1281
  18   2.0000     -10.533498      -286.6311
  19   2.0000      -8.403483      -228.6704
  20   2.0000      -6.293477      -171.2542
  21   2.0000      -6.289845      -171.1554
  22   2.0000      -6.288329      -171.1141
  23   2.0000      -4.028013      -109.6078
  24   2.0000      -2.346807       -63.8599
  25   2.0000      -2.312960       -62.9388
  26   2.0000      -2.311489       -62.8988
  27   2.0000      -1.306523       -35.5523
  28   2.0000      -1.212965       -33.0065
  29   2.0000      -1.209028       -32.8993
  30   2.0000      -1.171282       -31.8722
  31   2.0000      -1.127936       -30.6927
  32   2.0000      -1.026895       -27.9432
  33   2.0000      -0.985657       -26.8211
  34   2.0000      -0.976438       -26.5702
  35   2.0000      -0.967206       -26.3190
  36   2.0000      -0.960525       -26.1372
  37   2.0000      -0.927478       -25.2380
  38   2.0000      -0.902914       -24.5695
  39   2.0000      -0.874204       -23.7883
  40   2.0000      -0.798713       -21.7341
  41   2.0000      -0.787224       -21.4215
  42   2.0000      -0.786078       -21.3903
  43   2.0000      -0.781823       -21.2745
  44   2.0000      -0.771166       -20.9845
  45   2.0000      -0.755664       -20.5627
  46   2.0000      -0.743754       -20.2386
  47   2.0000      -0.723184       -19.6788
  48   2.0000      -0.693066       -18.8593
  49   2.0000      -0.674850       -18.3636
  50   2.0000      -0.665164       -18.1000
  51   2.0000      -0.650499       -17.7010
  52   2.0000      -0.647627       -17.6228
  53   2.0000      -0.639074       -17.3901
  54   2.0000      -0.636294       -17.3144
  55   2.0000      -0.629777       -17.1371
  56   2.0000      -0.623174       -16.9574
  57   2.0000      -0.612105       -16.6562
  58   2.0000      -0.606979       -16.5167
  59   2.0000      -0.606243       -16.4967
  60   2.0000      -0.598545       -16.2872
  61   2.0000      -0.589845       -16.0505
  62   2.0000      -0.579109       -15.7584
  63   2.0000      -0.571432       -15.5494
  64   2.0000      -0.563844       -15.3430
  65   2.0000      -0.556007       -15.1297
  66   2.0000      -0.552174       -15.0254
  67   2.0000      -0.548456       -14.9243
  68   2.0000      -0.539507       -14.6807
  69   2.0000      -0.536068       -14.5872
  70   2.0000      -0.528029       -14.3684
  71   2.0000      -0.520070       -14.1518
  72   2.0000      -0.515610       -14.0304
  73   2.0000      -0.504149       -13.7186
  74   2.0000      -0.488812       -13.3012
  75   2.0000      -0.481180       -13.0936
  76   2.0000      -0.469096       -12.7648
  77   2.0000      -0.447657       -12.1814
  78   2.0000      -0.442261       -12.0345
  79   2.0000      -0.423365       -11.5203
  80   2.0000      -0.417189       -11.3523
  81   2.0000      -0.402326       -10.9478
  82   0.0000      -0.202754        -5.5172
  83   0.0000      -0.158922        -4.3245
  84   0.0000      -0.141498        -3.8504
  85   0.0000      -0.097086        -2.6418
  86   0.0000      -0.076203        -2.0736

MULLIKEN ATOMIC CHARGES
-----------------------
   0 Ir:    0.611577
   1 C :   -0.211112
   2 C :   -0.286367
   3 C :   -0.238186
   4 C :   -0.245910
   5 C :   -0.165028
   6 N :   -0.427182
   7 C :   -0.121784
   8 C :   -0.691219
   9 H :    0.271940
  10 H :    0.225143
  11 H :    0.260391
  12 C :   -0.637402
  13 H :    0.282362
  14 H :    0.263893
  15 H :    0.230852
  16 H :    0.232352
  17 C :    0.070849
  18 C :   -0.177358
  19 H :    0.290997
  20 C :   -0.470982
  21 C :   -0.125193
  22 S :    0.311380
  23 C :   -0.431793
  24 H :    0.498107
  25 H :    0.266727
  26 H :    0.297922
  27 H :    0.290677
  28 H :    0.291250
  29 H :    0.305400
  30 O :   -0.479964
  31 O :   -0.537759
  32 C :    0.616527
  33 C :   -0.744962
  34 H :    0.269360
  35 H :    0.266185
  36 H :    0.253060
  37 H :    0.291510
  38 H :    0.293741
Sum of atomic charges:    1.0000000

LOEWDIN ATOMIC CHARGES
----------------------
   0 Ir:   -0.229755
   1 C :   -0.040213
   2 C :   -0.068778
   3 C :   -0.056905
   4 C :   -0.056732
   5 C :   -0.022699
   6 N :   -0.003974
   7 C :   -0.069232
   8 C :   -0.364179
   9 H :    0.157270
  10 H :    0.133396
  11 H :    0.146709
  12 C :   -0.343498
  13 H :    0.156805
  14 H :    0.152864
  15 H :    0.137198
  16 H :    0.133795
  17 C :    0.034064
  18 C :   -0.180754
  19 H :    0.162670
  20 C :   -0.198360
  21 C :   -0.133215
  22 S :    0.476173
  23 C :   -0.263009
  24 H :    0.298254
  25 H :    0.162614
  26 H :    0.168346
  27 H :    0.184698
  28 H :    0.185135
  29 H :    0.192954
  30 O :   -0.275242
  31 O :   -0.205985
  32 C :    0.153825
  33 C :   -0.375787
  34 H :    0.159649
  35 H :    0.167037
  36 H :    0.153241
  37 H :    0.186058
  38 H :    0.185561

  Mayer bond orders larger than 0.100000
B(  0-Ir,  1-C ) :   0.4186 B(  0-Ir,  2-C ) :   0.5158 B(  0-Ir,  3-C ) :   0.4608
B(  0-Ir,  4-C ) :   0.4495 B(  0-Ir,  5-C ) :   0.4012 B(  0-Ir,  6-N ) :   0.4631
B(  0-Ir, 20-C ) :   0.2844 B(  0-Ir, 31-O ) :   0.5757 B(  1-C ,  2-C ) :   1.1216
B(  1-C ,  4-C ) :   1.2437 B(  1-C , 27-H ) :   0.9036 B(  2-C ,  5-C ) :   1.1404
B(  2-C , 28-H ) :   0.9081 B(  3-C ,  4-C ) :   1.1077 B(  3-C ,  5-C ) :   1.2293
B(  3-C , 37-H ) :   0.9057 B(  4-C , 38-H ) :   0.9002 B(  5-C , 29-H ) :   0.8982
B(  6-N ,  7-C ) :   0.8920 B(  6-N , 17-C ) :   1.6848 B(  7-C ,  8-C ) :   0.9917
B(  7-C , 12-C ) :   0.9685 B(  7-C , 13-H ) :   0.8721 B(  8-C ,  9-H ) :   0.9037
B(  8-C , 10-H ) :   0.9127 B(  8-C , 11-H ) :   0.9085 B( 12-C , 14-H ) :   0.9065
B( 12-C , 15-H ) :   0.9155 B( 12-C , 16-H ) :   0.9117 B( 17-C , 18-C ) :   1.0634
B( 17-C , 19-H ) :   0.8744 B( 18-C , 20-C ) :   1.2809 B( 18-C , 22-S ) :   1.2365
B( 20-C , 21-C ) :   1.2628 B( 20-C , 24-H ) :   0.4596 B( 21-C , 23-C ) :   1.5497
B( 21-C , 25-H ) :   0.9041 B( 22-S , 23-C ) :   1.2033 B( 23-C , 26-H ) :   0.8918
B( 24-H , 30-O ) :   0.2515 B( 30-O , 32-C ) :   1.6833 B( 31-O , 32-C ) :   1.2840
B( 32-C , 33-C ) :   0.9461 B( 33-C , 34-H ) :   0.9050 B( 33-C , 35-H ) :   0.8987
B( 33-C , 36-H ) :   0.9095

Dispersion correction           -0.030863193
FINAL SINGLE POINT ENERGY     -1288.399298712478

DIPOLE MOMENT
-------------
                                X             Y             Z
Electronic contribution:     36.31339     -68.02376      73.08935
Nuclear contribution   :    -36.93908      66.86136     -73.41365
                        -----------------------------------------
Total Dipole Moment    :     -0.62569      -1.16241      -0.32430
                        -----------------------------------------
Magnitude (a.u.)       :      1.35936
Magnitude (Debye)      :      3.45521

Rotational constants in cm-1:     0.010662     0.009087     0.008237
Rotational constants in MHz :   319.631085   272.415721   246.932067

                             ****ORCA TERMINATED NORMALLY****
TOTAL RUN TIME: 0 days 1 hours 31 minutes 30 seconds 450 msec
