                         Program Version 5.0.3 -  RELEASE  -
|  1> ! Opt PBEh-3c
|  2> %geom Constraints
|  3> { B 0 20 2.428571428571429 C }
|  4> { B 24 30 1.342857142857143 C }
|  5>     end
|  6> end
|  7> %output
|  8> xyzfile=True
|  9> end
| 10> %scf
| 11> maxiter 250
| 12> end
| 13> %output
| 14> Print[P_Hirshfeld] = 1
| 15> end
| 16> % maxcore
| 17> 4000
| 18> *xyz 1 1
| 19> Ir   0.58619716  -0.73351410   0.49683809
| 20> C    0.04114210  -2.81782909   0.37913922
| 21> C    0.04629186  -2.36069287   1.74602979
| 22> C    2.18243988  -2.13911592   0.90722979
| 23> C    1.33697010  -2.65669538  -0.14474933
| 24> C    1.39494962  -1.99284824   2.06428935
| 25> N   -1.03898702   0.13829862  -0.50645015
| 26> C   -2.32007147   0.43018694   0.15906333
| 27> C   -3.10461581   1.55513786  -0.49844736
| 28> H   -3.93692215   1.82967678   0.14822524
| 29> H   -3.53918177   1.26685247  -1.45668662
| 30> H   -2.49564512   2.44797476  -0.64209932
| 31> C   -3.14646756  -0.84642109   0.26109335
| 32> H   -2.04515966   0.74770083   1.16613814
| 33> H   -4.06627069  -0.64570527   0.80855138
| 34> H   -3.42130438  -1.21996121  -0.72622864
| 35> H   -2.61716748  -1.63487307   0.79407708
| 36> C   -0.85333562   0.36405467  -1.75203697
| 37> C    0.48575428   0.18522262  -2.25484729
| 38> H   -1.65557235   0.71267513  -2.39632829
| 39> C    1.59150740   0.41575185  -1.44648339
| 40> C    2.78823130   0.06754331  -2.13280909
| 41> S    0.90074504  -0.38712505  -3.80839215
| 42> C    2.56664732  -0.37028522  -3.40298985
| 43> H    1.54938237   1.32972684  -0.61095528
| 44> H    3.77856648   0.19179820  -1.71937857
| 45> H    3.29884929  -0.66465492  -4.13969509
| 46> H   -0.81729270  -3.18847142  -0.16237023
| 47> H   -0.78189574  -2.39256841   2.43848432
| 48> H    1.72841808  -1.59133399   3.01056274
| 49> O    1.42903528   2.39511792   0.22108747
| 50> O    0.53954027   0.94248788   1.65969107
| 51> C    0.97191123   2.10634005   1.33251440
| 52> C    0.92642247   3.13733966   2.42265796
| 53> H    0.88219191   4.13964837   2.00520297
| 54> H    1.84072774   3.06515428   3.01505557
| 55> H    0.08810143   2.97372786   3.09588748
| 56> H    3.23534241  -1.91553897   0.82289372
| 57> H    1.64989455  -2.88559265  -1.15302479
| 58> *
| 59>
| 60>                          ****END OF INPUT****
 Total Charge           Charge          ....    1
 Multiplicity           Mult            ....    1
 Number of Electrons    NEL             ....  164
Dispersion correction           -0.030753259
FINAL SINGLE POINT ENERGY     -1288.396701985206
Dispersion correction            ... done
Dispersion correction           -0.030709656
FINAL SINGLE POINT ENERGY     -1288.396845455030
Dispersion correction            ... done
Dispersion correction           -0.030674552
FINAL SINGLE POINT ENERGY     -1288.396918329651
Dispersion correction            ... done
FINAL SINGLE POINT ENERGY     -1288.396946012545
FINAL SINGLE POINT ENERGY     -1288.396951366440
FINAL SINGLE POINT ENERGY     -1288.396965958473
FINAL SINGLE POINT ENERGY     -1288.396970686056
FINAL SINGLE POINT ENERGY     -1288.396976147910
FINAL SINGLE POINT ENERGY     -1288.396979150415
FINAL SINGLE POINT ENERGY     -1288.396982006129
FINAL SINGLE POINT ENERGY     -1288.396983646284
FINAL SINGLE POINT ENERGY     -1288.396984376074
FINAL SINGLE POINT ENERGY     -1288.396984597411
Dispersion correction            ... done
Dispersion correction           -0.030567988
FINAL SINGLE POINT ENERGY     -1288.396984645979
Dispersion correction            ... done
Dispersion correction           -0.030566019
FINAL SINGLE POINT ENERGY     -1288.396985062991
Dispersion correction            ... done
                    ***********************HURRAY********************

CARTESIAN COORDINATES (ANGSTROEM)
---------------------------------
  Ir     0.595764   -0.737613    0.498371
  C      0.075209   -2.828993    0.366434
  C     -0.002726   -2.369532    1.730138
  C      2.178070   -2.126074    1.014288
  C      1.399528   -2.659212   -0.079403
  C      1.318160   -1.981878    2.121238
  N     -1.036947    0.126349   -0.499917
  C     -2.317322    0.394949    0.177303
  C     -3.089818    1.561218   -0.421260
  H     -3.921923    1.808191    0.236675
  H     -3.523074    1.328582   -1.394906
  H     -2.471916    2.454388   -0.515666
  C     -3.155612   -0.877769    0.205580
  H     -2.044628    0.656723    1.200658
  H     -4.070037   -0.705266    0.771500
  H     -3.440141   -1.185168   -0.801600
  H     -2.629055   -1.704168    0.680652
  C     -0.866190    0.372931   -1.744632
  C      0.463622    0.204391   -2.268323
  H     -1.678046    0.729966   -2.372004
  C      1.572304    0.344850   -1.443948
  C      2.762107    0.024171   -2.154559
  S      0.867545   -0.255216   -3.860447
  C      2.531790   -0.306829   -3.456005
  H      1.570483    1.284968   -0.602581
  H      3.754629    0.092812   -1.733564
  H      3.258170   -0.558490   -4.213943
  H     -0.744979   -3.213977   -0.222162
  H     -0.868335   -2.407712    2.374716
  H      1.590666   -1.569544    3.082453
  O      1.497705    2.365259    0.191736
  O      0.548374    0.960781    1.638208
  C      1.007447    2.107200    1.300070
  C      0.958119    3.167246    2.361084
  H      0.897252    4.156928    1.916123
  H      1.879980    3.124465    2.944451
  H      0.128212    3.011378    3.046011
  H      3.233819   -1.902137    0.995352
  H      1.771165   -2.888980   -1.067382

 Multiplicity           Mult            ....    1
 Number of Electrons    NEL             ....  164
 Basis Dimension        Dim             ....  358

ORBITAL ENERGIES
----------------

  NO   OCC          E(Eh)            E(eV)
   0   2.0000     -89.757866     -2442.4357
   1   2.0000     -19.630629      -534.1766
   2   2.0000     -19.604464      -533.4646
   3   2.0000     -14.835891      -403.7051
   4   2.0000     -10.690671      -290.9079
   5   2.0000     -10.657583      -290.0076
   6   2.0000     -10.633121      -289.3419
   7   2.0000     -10.632770      -289.3324
   8   2.0000     -10.629998      -289.2569
   9   2.0000     -10.629067      -289.2316
  10   2.0000     -10.625354      -289.1306
  11   2.0000     -10.623654      -289.0843
  12   2.0000     -10.614262      -288.8288
  13   2.0000     -10.606470      -288.6167
  14   2.0000     -10.581217      -287.9296
  15   2.0000     -10.580253      -287.9033
  16   2.0000     -10.555593      -287.2323
  17   2.0000     -10.550786      -287.1015
  18   2.0000     -10.539063      -286.7825
  19   2.0000      -8.397315      -228.5026
  20   2.0000      -6.287290      -171.0859
  21   2.0000      -6.283709      -170.9884
  22   2.0000      -6.282154      -170.9461
  23   2.0000      -4.027375      -109.5905
  24   2.0000      -2.346199       -63.8433
  25   2.0000      -2.312394       -62.9234
  26   2.0000      -2.310298       -62.8664
  27   2.0000      -1.317307       -35.8457
  28   2.0000      -1.220085       -33.2002
  29   2.0000      -1.207526       -32.8585
  30   2.0000      -1.170485       -31.8505
  31   2.0000      -1.122121       -30.5345
  32   2.0000      -1.023497       -27.8508
  33   2.0000      -0.984608       -26.7925
  34   2.0000      -0.975603       -26.5475
  35   2.0000      -0.962162       -26.1818
  36   2.0000      -0.955605       -26.0033
  37   2.0000      -0.934304       -25.4237
  38   2.0000      -0.901283       -24.5252
  39   2.0000      -0.870697       -23.6929
  40   2.0000      -0.796006       -21.6604
  41   2.0000      -0.786135       -21.3918
  42   2.0000      -0.785016       -21.3614
  43   2.0000      -0.778253       -21.1773
  44   2.0000      -0.770020       -20.9533
  45   2.0000      -0.761031       -20.7087
  46   2.0000      -0.741689       -20.1824
  47   2.0000      -0.722367       -19.6566
  48   2.0000      -0.691398       -18.8139
  49   2.0000      -0.677954       -18.4481
  50   2.0000      -0.662801       -18.0357
  51   2.0000      -0.654087       -17.7986
  52   2.0000      -0.648138       -17.6367
  53   2.0000      -0.639049       -17.3894
  54   2.0000      -0.638090       -17.3633
  55   2.0000      -0.633408       -17.2359
  56   2.0000      -0.622539       -16.9401
  57   2.0000      -0.608973       -16.5710
  58   2.0000      -0.606014       -16.4905
  59   2.0000      -0.605140       -16.4667
  60   2.0000      -0.595711       -16.2101
  61   2.0000      -0.588055       -16.0018
  62   2.0000      -0.575475       -15.6595
  63   2.0000      -0.566972       -15.4281
  64   2.0000      -0.561993       -15.2926
  65   2.0000      -0.559660       -15.2291
  66   2.0000      -0.552691       -15.0395
  67   2.0000      -0.547985       -14.9114
  68   2.0000      -0.540155       -14.6984
  69   2.0000      -0.534205       -14.5365
  70   2.0000      -0.527875       -14.3642
  71   2.0000      -0.519142       -14.1266
  72   2.0000      -0.514703       -14.0058
  73   2.0000      -0.504966       -13.7408
  74   2.0000      -0.493382       -13.4256
  75   2.0000      -0.480178       -13.0663
  76   2.0000      -0.466763       -12.7013
  77   2.0000      -0.448232       -12.1970
  78   2.0000      -0.444947       -12.1076
  79   2.0000      -0.419486       -11.4148
  80   2.0000      -0.417453       -11.3595
  81   2.0000      -0.400594       -10.9007
  82   0.0000      -0.200069        -5.4441
  83   0.0000      -0.158079        -4.3015
  84   0.0000      -0.141141        -3.8406
  85   0.0000      -0.090039        -2.4501
  86   0.0000      -0.073433        -1.9982

MULLIKEN ATOMIC CHARGES
-----------------------
   0 Ir:    0.613269
   1 C :   -0.219067
   2 C :   -0.287403
   3 C :   -0.244503
   4 C :   -0.236220
   5 C :   -0.164193
   6 N :   -0.435882
   7 C :   -0.126750
   8 C :   -0.684174
   9 H :    0.269569
  10 H :    0.224885
  11 H :    0.258301
  12 C :   -0.634831
  13 H :    0.279842
  14 H :    0.261958
  15 H :    0.231569
  16 H :    0.230400
  17 C :    0.070320
  18 C :   -0.175654
  19 H :    0.286507
  20 C :   -0.452522
  21 C :   -0.139784
  22 S :    0.313955
  23 C :   -0.426855
  24 H :    0.494367
  25 H :    0.262975
  26 H :    0.295924
  27 H :    0.290120
  28 H :    0.289927
  29 H :    0.304761
  30 O :   -0.490312
  31 O :   -0.528875
  32 C :    0.626794
  33 C :   -0.745296
  34 H :    0.271571
  35 H :    0.270583
  36 H :    0.256926
  37 H :    0.291540
  38 H :    0.296259
Sum of atomic charges:    1.0000000

LOEWDIN ATOMIC CHARGES
----------------------
   0 Ir:   -0.226919
   1 C :   -0.047314
   2 C :   -0.071262
   3 C :   -0.066704
   4 C :   -0.045553
   5 C :   -0.018609
   6 N :   -0.011943
   7 C :   -0.069370
   8 C :   -0.362808
   9 H :    0.156270
  10 H :    0.133053
  11 H :    0.145666
  12 C :   -0.343820
  13 H :    0.155003
  14 H :    0.152020
  15 H :    0.137446
  16 H :    0.132354
  17 C :    0.034782
  18 C :   -0.194353
  19 H :    0.160400
  20 C :   -0.207952
  21 C :   -0.140023
  22 S :    0.472038
  23 C :   -0.260739
  24 H :    0.317989
  25 H :    0.160394
  26 H :    0.167471
  27 H :    0.184581
  28 H :    0.184242
  29 H :    0.192451
  30 O :   -0.272408
  31 O :   -0.195873
  32 C :    0.163434
  33 C :   -0.373700
  34 H :    0.161892
  35 H :    0.169823
  36 H :    0.154664
  37 H :    0.186207
  38 H :    0.187171

  Mayer bond orders larger than 0.100000
B(  0-Ir,  1-C ) :   0.4241 B(  0-Ir,  2-C ) :   0.5190 B(  0-Ir,  3-C ) :   0.4611
B(  0-Ir,  4-C ) :   0.4504 B(  0-Ir,  5-C ) :   0.4023 B(  0-Ir,  6-N ) :   0.4682
B(  0-Ir, 20-C ) :   0.2976 B(  0-Ir, 31-O ) :   0.5558 B(  1-C ,  2-C ) :   1.1184
B(  1-C ,  4-C ) :   1.2407 B(  1-C , 27-H ) :   0.9045 B(  2-C ,  5-C ) :   1.1439
B(  2-C , 28-H ) :   0.9082 B(  3-C ,  4-C ) :   1.1112 B(  3-C ,  5-C ) :   1.2236
B(  3-C , 37-H ) :   0.9069 B(  4-C , 38-H ) :   0.8999 B(  5-C , 29-H ) :   0.8981
B(  6-N ,  7-C ) :   0.8920 B(  6-N , 17-C ) :   1.6691 B(  7-C ,  8-C ) :   0.9912
B(  7-C , 12-C ) :   0.9682 B(  7-C , 13-H ) :   0.8761 B(  8-C ,  9-H ) :   0.9044
B(  8-C , 10-H ) :   0.9131 B(  8-C , 11-H ) :   0.9100 B( 12-C , 14-H ) :   0.9071
B( 12-C , 15-H ) :   0.9156 B( 12-C , 16-H ) :   0.9128 B( 17-C , 18-C ) :   1.0846
B( 17-C , 19-H ) :   0.8756 B( 18-C , 20-C ) :   1.2872 B( 18-C , 22-S ) :   1.2200
B( 20-C , 21-C ) :   1.2852 B( 20-C , 24-H ) :   0.4135 B( 21-C , 23-C ) :   1.5400
B( 21-C , 25-H ) :   0.9054 B( 22-S , 23-C ) :   1.2137 B( 23-C , 26-H ) :   0.8921
B( 24-H , 30-O ) :   0.2799 B( 30-O , 32-C ) :   1.6269 B( 31-O , 32-C ) :   1.3218
B( 32-C , 33-C ) :   0.9482 B( 33-C , 34-H ) :   0.9029 B( 33-C , 35-H ) :   0.8959
B( 33-C , 36-H ) :   0.9086

Dispersion correction           -0.030564597
FINAL SINGLE POINT ENERGY     -1288.396985454442

DIPOLE MOMENT
-------------
                                X             Y             Z
Electronic contribution:     36.04744     -70.90836      78.17776
Nuclear contribution   :    -36.66882      69.94762     -78.31068
                        -----------------------------------------
Total Dipole Moment    :     -0.62138      -0.96074      -0.13292
                        -----------------------------------------
Magnitude (a.u.)       :      1.15187
Magnitude (Debye)      :      2.92781

Rotational constants in cm-1:     0.010550     0.008861     0.008114
Rotational constants in MHz :   316.284467   265.657558   243.247434

                             ****ORCA TERMINATED NORMALLY****
TOTAL RUN TIME: 0 days 1 hours 54 minutes 18 seconds 988 msec
