                         Program Version 5.0.3 -  RELEASE  -
|  1> ! Opt PBEh-3c
|  2> %geom Constraints
|  3> { B 0 20 2.085714285714286 C }
|  4> { B 24 30 1.3714285714285714 C }
|  5>     end
|  6> end
|  7> %output
|  8> xyzfile=True
|  9> end
| 10> %scf
| 11> maxiter 250
| 12> end
| 13> %output
| 14> Print[P_Hirshfeld] = 1
| 15> end
| 16> % maxcore
| 17> 4000
| 18> *xyz 1 1
| 19> Ir   0.61195518  -0.73057103   0.42330154
| 20> C    0.11693174  -2.84234142   0.36016637
| 21> C   -0.06306455  -2.38007956   1.71111303
| 22> C    2.15752512  -2.08327786   1.13192391
| 23> C    1.47432258  -2.66992971   0.01050303
| 24> C    1.20141527  -1.93473424   2.17116458
| 25> N   -1.06664673   0.12025558  -0.51503589
| 26> C   -2.34033007   0.32266704   0.19197104
| 27> C   -3.14252945   1.51239985  -0.31564598
| 28> H   -3.97362258   1.69184852   0.36454478
| 29> H   -3.57840159   1.34058907  -1.30077515
| 30> H   -2.54486340   2.42361814  -0.34928220
| 31> C   -3.15829831  -0.96300530   0.13791492
| 32> H   -2.06060128   0.51843290   1.22828914
| 33> H   -4.06770127  -0.84890766   0.72650151
| 34> H   -3.45096276  -1.19950768  -0.88586246
| 35> H   -2.61185629  -1.81379576   0.54128509
| 36> C   -0.91035867   0.47346596  -1.73782031
| 37> C    0.40926251   0.30166345  -2.26578050
| 38> H   -1.71755524   0.90359167  -2.32185971
| 39> C    1.44707753   0.07789351  -1.35989002
| 40> C    2.66145962  -0.16766518  -2.07261619
| 41> S    0.89799045   0.24060232  -3.88880787
| 42> C    2.51025648  -0.10472767  -3.42442172
| 43> H    1.63004768   1.14153123  -0.62467234
| 44> H    3.61944980  -0.32376083  -1.59804537
| 45> H    3.27121011  -0.22256130  -4.18089281
| 46> H   -0.64626938  -3.26795296  -0.27497371
| 47> H   -0.97146964  -2.41990468   2.29248198
| 48> H    1.39348239  -1.48726668   3.13621800
| 49> O    1.73466376   2.30154511   0.12607886
| 50> O    0.56137763   1.02304242   1.51899325
| 51> C    1.12896161   2.11475963   1.19899888
| 52> C    1.07834022   3.22766076   2.20405369
| 53> H    0.96860738   4.18811739   1.70570622
| 54> H    2.02314897   3.25375108   2.74964704
| 55> H    0.27540031   3.08409609   2.92156058
| 56> H    3.21221033  -1.86664911   1.20215319
| 57> H    1.91880451  -2.93570318  -0.93744834
| 58> *
| 59>
| 60>                          ****END OF INPUT****
 Total Charge           Charge          ....    1
 Multiplicity           Mult            ....    1
 Number of Electrons    NEL             ....  164
Dispersion correction           -0.030815345
FINAL SINGLE POINT ENERGY     -1288.401604693174
Dispersion correction            ... done
Dispersion correction           -0.030770830
FINAL SINGLE POINT ENERGY     -1288.401604476883
Dispersion correction            ... done
Dispersion correction           -0.030786769
FINAL SINGLE POINT ENERGY     -1288.400461511014
Dispersion correction            ... done
FINAL SINGLE POINT ENERGY     -1288.401921108722
FINAL SINGLE POINT ENERGY     -1288.401959948256
FINAL SINGLE POINT ENERGY     -1288.402000718386
FINAL SINGLE POINT ENERGY     -1288.402060508983
FINAL SINGLE POINT ENERGY     -1288.402071522995
FINAL SINGLE POINT ENERGY     -1288.402074911462
FINAL SINGLE POINT ENERGY     -1288.402078800803
FINAL SINGLE POINT ENERGY     -1288.402083847502
FINAL SINGLE POINT ENERGY     -1288.402091714207
FINAL SINGLE POINT ENERGY     -1288.402100691897
FINAL SINGLE POINT ENERGY     -1288.402106518593
Dispersion correction            ... done
Dispersion correction           -0.030708934
FINAL SINGLE POINT ENERGY     -1288.402109731914
Dispersion correction            ... done
Dispersion correction           -0.030709684
FINAL SINGLE POINT ENERGY     -1288.402111082361
Dispersion correction            ... done
                    ***********************HURRAY********************

CARTESIAN COORDINATES (ANGSTROEM)
---------------------------------
  Ir     0.615542   -0.736286    0.411573
  C      0.156452   -2.852759    0.333883
  C     -0.094141   -2.408751    1.681450
  C      2.143393   -2.060521    1.207416
  C      1.529733   -2.660719    0.057452
  C      1.130674   -1.940220    2.202968
  N     -1.074324    0.111026   -0.508911
  C     -2.344979    0.299028    0.206735
  C     -3.137085    1.513168   -0.257043
  H     -3.967659    1.674037    0.428372
  H     -3.572421    1.383044   -1.248750
  H     -2.531095    2.419490   -0.255740
  C     -3.172083   -0.978108    0.107893
  H     -2.063006    0.456625    1.248917
  H     -4.075265   -0.883886    0.709475
  H     -3.475445   -1.170469   -0.922009
  H     -2.626129   -1.848337    0.468570
  C     -0.926657    0.479038   -1.728941
  C      0.389233    0.306942   -2.263572
  H     -1.736319    0.918784   -2.302097
  C      1.414643    0.029386   -1.356304
  C      2.633634   -0.196749   -2.070678
  S      0.893257    0.319125   -3.882626
  C      2.496232   -0.066648   -3.419234
  H      1.628865    1.152279   -0.665457
  H      3.585346   -0.388436   -1.596289
  H      3.263744   -0.157903   -4.172776
  H     -0.563950   -3.297805   -0.336747
  H     -1.030528   -2.463703    2.215112
  H      1.265000   -1.493456    3.177978
  O      1.742549    2.305782    0.067566
  O      0.590112    1.036492    1.486895
  C      1.152678    2.122715    1.153986
  C      1.123930    3.244319    2.149496
  H      1.004414    4.201066    1.646267
  H      2.079761    3.273881    2.675418
  H      0.335531    3.106186    2.883831
  H      3.190293   -1.832554    1.334532
  H      2.025438   -2.915913   -0.867869

 Multiplicity           Mult            ....    1
 Number of Electrons    NEL             ....  164
 Basis Dimension        Dim             ....  358

ORBITAL ENERGIES
----------------

  NO   OCC          E(Eh)            E(eV)
   0   2.0000     -89.764231     -2442.6089
   1   2.0000     -19.636693      -534.3416
   2   2.0000     -19.626744      -534.0709
   3   2.0000     -14.833304      -403.6347
   4   2.0000     -10.699246      -291.1413
   5   2.0000     -10.653956      -289.9089
   6   2.0000     -10.625087      -289.1233
   7   2.0000     -10.623708      -289.0858
   8   2.0000     -10.622393      -289.0500
   9   2.0000     -10.620731      -289.0048
  10   2.0000     -10.613382      -288.8048
  11   2.0000     -10.612456      -288.7796
  12   2.0000     -10.610369      -288.7228
  13   2.0000     -10.610199      -288.7182
  14   2.0000     -10.590112      -288.1716
  15   2.0000     -10.589427      -288.1530
  16   2.0000     -10.552817      -287.1568
  17   2.0000     -10.550355      -287.0898
  18   2.0000     -10.546034      -286.9722
  19   2.0000      -8.403585      -228.6732
  20   2.0000      -6.293457      -171.2537
  21   2.0000      -6.289919      -171.1574
  22   2.0000      -6.288567      -171.1206
  23   2.0000      -4.019043      -109.3637
  24   2.0000      -2.335873       -63.5623
  25   2.0000      -2.305624       -62.7392
  26   2.0000      -2.302099       -62.6433
  27   2.0000      -1.327634       -36.1268
  28   2.0000      -1.229119       -33.4460
  29   2.0000      -1.206442       -32.8290
  30   2.0000      -1.158426       -31.5224
  31   2.0000      -1.127752       -30.6877
  32   2.0000      -1.024191       -27.8697
  33   2.0000      -0.971372       -26.4324
  34   2.0000      -0.969611       -26.3844
  35   2.0000      -0.964570       -26.2473
  36   2.0000      -0.958475       -26.0814
  37   2.0000      -0.941211       -25.6117
  38   2.0000      -0.899842       -24.4859
  39   2.0000      -0.871796       -23.7228
  40   2.0000      -0.797921       -21.7125
  41   2.0000      -0.782046       -21.2806
  42   2.0000      -0.775167       -21.0934
  43   2.0000      -0.774417       -21.0730
  44   2.0000      -0.762272       -20.7425
  45   2.0000      -0.759332       -20.6625
  46   2.0000      -0.742229       -20.1971
  47   2.0000      -0.721329       -19.6283
  48   2.0000      -0.695854       -18.9351
  49   2.0000      -0.684659       -18.6305
  50   2.0000      -0.663653       -18.0589
  51   2.0000      -0.661560       -18.0020
  52   2.0000      -0.648996       -17.6601
  53   2.0000      -0.638082       -17.3631
  54   2.0000      -0.629916       -17.1409
  55   2.0000      -0.625801       -17.0289
  56   2.0000      -0.621151       -16.9024
  57   2.0000      -0.610654       -16.6167
  58   2.0000      -0.600123       -16.3302
  59   2.0000      -0.595720       -16.2104
  60   2.0000      -0.594570       -16.1791
  61   2.0000      -0.590941       -16.0803
  62   2.0000      -0.578833       -15.7509
  63   2.0000      -0.569610       -15.4999
  64   2.0000      -0.565329       -15.3834
  65   2.0000      -0.561871       -15.2893
  66   2.0000      -0.555811       -15.1244
  67   2.0000      -0.545915       -14.8551
  68   2.0000      -0.542243       -14.7552
  69   2.0000      -0.535202       -14.5636
  70   2.0000      -0.530051       -14.4234
  71   2.0000      -0.518012       -14.0958
  72   2.0000      -0.512607       -13.9488
  73   2.0000      -0.501659       -13.6508
  74   2.0000      -0.496116       -13.5000
  75   2.0000      -0.488680       -13.2977
  76   2.0000      -0.476551       -12.9676
  77   2.0000      -0.451734       -12.2923
  78   2.0000      -0.443407       -12.0657
  79   2.0000      -0.418081       -11.3766
  80   2.0000      -0.414419       -11.2769
  81   2.0000      -0.393162       -10.6985
  82   0.0000      -0.203933        -5.5493
  83   0.0000      -0.143155        -3.8954
  84   0.0000      -0.127313        -3.4644
  85   0.0000      -0.086406        -2.3512
  86   0.0000      -0.074724        -2.0334

MULLIKEN ATOMIC CHARGES
-----------------------
   0 Ir:    0.610062
   1 C :   -0.251127
   2 C :   -0.254771
   3 C :   -0.276120
   4 C :   -0.220238
   5 C :   -0.151642
   6 N :   -0.433720
   7 C :   -0.126523
   8 C :   -0.680480
   9 H :    0.269001
  10 H :    0.224318
  11 H :    0.253182
  12 C :   -0.633148
  13 H :    0.278272
  14 H :    0.258236
  15 H :    0.232716
  16 H :    0.234019
  17 C :    0.069145
  18 C :   -0.119518
  19 H :    0.284797
  20 C :   -0.573682
  21 C :   -0.097272
  22 S :    0.343924
  23 C :   -0.426129
  24 H :    0.473077
  25 H :    0.267484
  26 H :    0.298060
  27 H :    0.284204
  28 H :    0.280483
  29 H :    0.296213
  30 O :   -0.480440
  31 O :   -0.505080
  32 C :    0.632490
  33 C :   -0.743813
  34 H :    0.273287
  35 H :    0.276078
  36 H :    0.262195
  37 H :    0.280464
  38 H :    0.291992
Sum of atomic charges:    1.0000000

LOEWDIN ATOMIC CHARGES
----------------------
   0 Ir:   -0.261298
   1 C :   -0.061823
   2 C :   -0.098085
   3 C :   -0.100004
   4 C :   -0.039947
   5 C :   -0.018439
   6 N :   -0.003105
   7 C :   -0.069413
   8 C :   -0.361986
   9 H :    0.156051
  10 H :    0.132741
  11 H :    0.143095
  12 C :   -0.343828
  13 H :    0.154154
  14 H :    0.150480
  15 H :    0.138033
  16 H :    0.133412
  17 C :    0.028199
  18 C :   -0.190393
  19 H :    0.160146
  20 C :   -0.219549
  21 C :   -0.127464
  22 S :    0.498630
  23 C :   -0.257256
  24 H :    0.363857
  25 H :    0.162393
  26 H :    0.169452
  27 H :    0.181564
  28 H :    0.178567
  29 H :    0.187073
  30 O :   -0.259206
  31 O :   -0.178409
  32 C :    0.165392
  33 C :   -0.371475
  34 H :    0.164762
  35 H :    0.172530
  36 H :    0.156282
  37 H :    0.180974
  38 H :    0.183892

  Mayer bond orders larger than 0.100000
B(  0-Ir,  1-C ) :   0.4522 B(  0-Ir,  2-C ) :   0.3895 B(  0-Ir,  3-C ) :   0.4711
B(  0-Ir,  4-C ) :   0.4218 B(  0-Ir,  5-C ) :   0.3608 B(  0-Ir,  6-N ) :   0.4644
B(  0-Ir, 20-C ) :   0.5171 B(  0-Ir, 31-O ) :   0.5144 B(  1-C ,  2-C ) :   1.1257
B(  1-C ,  4-C ) :   1.2202 B(  1-C , 27-H ) :   0.9091 B(  2-C ,  5-C ) :   1.2305
B(  2-C , 28-H ) :   0.9102 B(  3-C ,  4-C ) :   1.1444 B(  3-C ,  5-C ) :   1.1656
B(  3-C , 37-H ) :   0.9141 B(  4-C , 38-H ) :   0.8996 B(  5-C , 29-H ) :   0.9019
B(  6-N ,  7-C ) :   0.8963 B(  6-N , 17-C ) :   1.6455 B(  7-C ,  8-C ) :   0.9902
B(  7-C , 12-C ) :   0.9667 B(  7-C , 13-H ) :   0.8774 B(  8-C ,  9-H ) :   0.9049
B(  8-C , 10-H ) :   0.9131 B(  8-C , 11-H ) :   0.9124 B( 12-C , 14-H ) :   0.9079
B( 12-C , 15-H ) :   0.9152 B( 12-C , 16-H ) :   0.9118 B( 17-C , 18-C ) :   1.1162
B( 17-C , 19-H ) :   0.8766 B( 18-C , 20-C ) :   1.2198 B( 18-C , 22-S ) :   1.2412
B( 20-C , 21-C ) :   1.2618 B( 20-C , 24-H ) :   0.3300 B( 21-C , 23-C ) :   1.5419
B( 21-C , 25-H ) :   0.9019 B( 22-S , 23-C ) :   1.2182 B( 23-C , 26-H ) :   0.8915
B( 24-H , 30-O ) :   0.3558 B( 30-O , 32-C ) :   1.5538 B( 31-O , 32-C ) :   1.3893
B( 32-C , 33-C ) :   0.9445 B( 33-C , 34-H ) :   0.8999 B( 33-C , 35-H ) :   0.8929
B( 33-C , 36-H ) :   0.9078

Dispersion correction           -0.030711250
FINAL SINGLE POINT ENERGY     -1288.402111049664

DIPOLE MOMENT
-------------
                                X             Y             Z
Electronic contribution:     37.67891     -74.24747      70.11851
Nuclear contribution   :    -38.27250      73.84832     -70.37546
                        -----------------------------------------
Total Dipole Moment    :     -0.59359      -0.39914      -0.25695
                        -----------------------------------------
Magnitude (a.u.)       :      0.76006
Magnitude (Debye)      :      1.93191

Rotational constants in cm-1:     0.010549     0.008884     0.008230
Rotational constants in MHz :   316.256166   266.323222   246.722542

                             ****ORCA TERMINATED NORMALLY****
TOTAL RUN TIME: 0 days 2 hours 15 minutes 23 seconds 806 msec
