                         Program Version 5.0.3 -  RELEASE  -
|  1> ! Opt PBEh-3c
|  2> %geom Constraints
|  3> { B 0 20 2.3 C }
|  4> { B 24 30 1.342857142857143 C }
|  5>     end
|  6> end
|  7> %output
|  8> xyzfile=True
|  9> end
| 10> %scf
| 11> maxiter 250
| 12> end
| 13> %output
| 14> Print[P_Hirshfeld] = 1
| 15> end
| 16> % maxcore
| 17> 4000
| 18> *xyz 1 1
| 19> Ir   0.60610132  -0.73285709   0.47858078
| 20> C    0.10139445  -2.83207489   0.35312672
| 21> C   -0.02286579  -2.37099714   1.71228378
| 22> C    2.17821328  -2.10739897   1.06141675
| 23> C    1.43971421  -2.65714978  -0.04973165
| 24> C    1.27733635  -1.96352480   2.13888040
| 25> N   -1.04324360   0.12325779  -0.50220536
| 26> C   -2.32044327   0.37471853   0.18640595
| 27> C   -3.09473758   1.55772587  -0.37676951
| 28> H   -3.92533353   1.78510282   0.28999024
| 29> H   -3.52988886   1.35319864  -1.35584604
| 30> H   -2.47727965   2.45344369  -0.44684004
| 31> C   -3.15968209  -0.89784797   0.18037404
| 32> H   -2.04462491   0.60811017   1.21568554
| 33> H   -4.06989356  -0.74374872   0.75834824
| 34> H   -3.45163609  -1.17233906  -0.83414939
| 35> H   -2.62974497  -1.73974641   0.62332401
| 36> C   -0.88202215   0.39148308  -1.74417865
| 37> C    0.44353864   0.22220470  -2.27359081
| 38> H   -1.69585975   0.76367798  -2.35966763
| 39> C    1.54082202   0.26835524  -1.42216924
| 40> C    2.73418192  -0.03310651  -2.13735297
| 41> S    0.85961760  -0.14115692  -3.88410964
| 42> C    2.51543519  -0.26597300  -3.46181028
| 43> H    1.58167715   1.23372620  -0.60037362
| 44> H    3.72149764  -0.02031431  -1.69913196
| 45> H    3.24658253  -0.48390774  -4.22550689
| 46> H   -0.69513261  -3.22998236  -0.25880909
| 47> H   -0.90756451  -2.41286779   2.32986030
| 48> H    1.51454139  -1.54058786   3.10491131
| 49> O    1.56058268   2.34776932   0.17441646
| 50> O    0.55041438   0.97768253   1.61034542
| 51> C    1.03765782   2.11067441   1.27418012
| 52> C    0.98365466   3.18649499   2.31888988
| 53> H    0.92292036   4.16921879   1.85844238
| 54> H    1.90452957   3.15475200   2.90434329
| 55> H    0.15161955   3.03992031   3.00299122
| 56> H    3.23375587  -1.88334596   1.07959904
| 57> H    1.84353431  -2.89339972  -1.02341295
| 58> *
| 59>
| 60>                          ****END OF INPUT****
 Total Charge           Charge          ....    1
 Multiplicity           Mult            ....    1
 Number of Electrons    NEL             ....  164
Dispersion correction           -0.030703634
FINAL SINGLE POINT ENERGY     -1288.400629590715
Dispersion correction            ... done
Dispersion correction           -0.030660765
FINAL SINGLE POINT ENERGY     -1288.400796732337
Dispersion correction            ... done
Dispersion correction           -0.030624159
FINAL SINGLE POINT ENERGY     -1288.400913272664
Dispersion correction            ... done
FINAL SINGLE POINT ENERGY     -1288.400962277625
FINAL SINGLE POINT ENERGY     -1288.400987220885
FINAL SINGLE POINT ENERGY     -1288.400997326285
FINAL SINGLE POINT ENERGY     -1288.401000726248
FINAL SINGLE POINT ENERGY     -1288.401005042902
FINAL SINGLE POINT ENERGY     -1288.401006366705
FINAL SINGLE POINT ENERGY     -1288.401002087132
Dispersion correction            ... done
Dispersion correction           -0.030532131
FINAL SINGLE POINT ENERGY     -1288.400999445938
Dispersion correction            ... done
Dispersion correction           -0.030525791
FINAL SINGLE POINT ENERGY     -1288.401000320778
Dispersion correction            ... done
                    ***********************HURRAY********************

CARTESIAN COORDINATES (ANGSTROEM)
---------------------------------
  Ir     0.602581   -0.733880    0.474798
  C      0.096766   -2.835034    0.372835
  C     -0.053022   -2.364187    1.725478
  C      2.160485   -2.102962    1.111084
  C      1.444071   -2.666241   -0.005822
  C      1.235693   -1.947471    2.169206
  N     -1.050385    0.119169   -0.503221
  C     -2.332664    0.343614    0.184917
  C     -3.120995    1.526975   -0.358437
  H     -3.955187    1.731439    0.311039
  H     -3.552235    1.334105   -1.341658
  H     -2.515237    2.431840   -0.411558
  C     -3.158589   -0.937366    0.151052
  H     -2.064028    0.561516    1.219612
  H     -4.074773   -0.803229    0.724673
  H     -3.440113   -1.196549   -0.870429
  H     -2.623711   -1.781935    0.582419
  C     -0.887326    0.426168   -1.736584
  C      0.433975    0.267556   -2.272809
  H     -1.701333    0.818001   -2.339264
  C      1.522766    0.204474   -1.412728
  C      2.713340   -0.069347   -2.143430
  S      0.854305    0.036329   -3.906053
  C      2.500233   -0.174737   -3.485719
  H      1.635648    1.187401   -0.571581
  H      3.696868   -0.126719   -1.700288
  H      3.232608   -0.346550   -4.259903
  H     -0.686406   -3.241813   -0.250300
  H     -0.948348   -2.401578    2.327569
  H      1.453944   -1.512771    3.134524
  O      1.694172    2.294563    0.186069
  O      0.542653    1.000320    1.583413
  C      1.096707    2.101247    1.260234
  C      1.035471    3.206476    2.272312
  H      0.985220    4.175272    1.781402
  H      1.950462    3.190267    2.867271
  H      0.193952    3.083974    2.948929
  H      3.216151   -1.882609    1.150024
  H      1.865652   -2.916539   -0.968334

 Multiplicity           Mult            ....    1
 Number of Electrons    NEL             ....  164
 Basis Dimension        Dim             ....  358

ORBITAL ENERGIES
----------------

  NO   OCC          E(Eh)            E(eV)
   0   2.0000     -89.759291     -2442.4745
   1   2.0000     -19.633870      -534.2648
   2   2.0000     -19.615104      -533.7541
   3   2.0000     -14.833859      -403.6498
   4   2.0000     -10.695097      -291.0284
   5   2.0000     -10.655340      -289.9465
   6   2.0000     -10.630281      -289.2647
   7   2.0000     -10.628422      -289.2141
   8   2.0000     -10.626979      -289.1748
   9   2.0000     -10.622477      -289.0523
  10   2.0000     -10.622421      -289.0508
  11   2.0000     -10.619245      -288.9643
  12   2.0000     -10.613128      -288.7979
  13   2.0000     -10.607261      -288.6382
  14   2.0000     -10.584994      -288.0323
  15   2.0000     -10.583797      -287.9998
  16   2.0000     -10.554196      -287.1943
  17   2.0000     -10.550489      -287.0934
  18   2.0000     -10.542678      -286.8809
  19   2.0000      -8.398761      -228.5419
  20   2.0000      -6.288675      -171.1235
  21   2.0000      -6.285117      -171.0267
  22   2.0000      -6.283681      -170.9876
  23   2.0000      -4.024217      -109.5045
  24   2.0000      -2.342273       -63.7365
  25   2.0000      -2.309453       -62.8434
  26   2.0000      -2.307037       -62.7777
  27   2.0000      -1.323214       -36.0065
  28   2.0000      -1.224923       -33.3318
  29   2.0000      -1.205922       -32.8148
  30   2.0000      -1.166048       -31.7298
  31   2.0000      -1.123628       -30.5755
  32   2.0000      -1.022895       -27.8344
  33   2.0000      -0.979379       -26.6503
  34   2.0000      -0.971608       -26.4388
  35   2.0000      -0.963919       -26.2296
  36   2.0000      -0.956681       -26.0326
  37   2.0000      -0.938072       -25.5262
  38   2.0000      -0.900376       -24.5005
  39   2.0000      -0.870372       -23.6840
  40   2.0000      -0.796178       -21.6651
  41   2.0000      -0.781855       -21.2753
  42   2.0000      -0.781194       -21.2574
  43   2.0000      -0.778788       -21.1919
  44   2.0000      -0.766243       -20.8505
  45   2.0000      -0.762358       -20.7448
  46   2.0000      -0.741172       -20.1683
  47   2.0000      -0.722185       -19.6517
  48   2.0000      -0.691229       -18.8093
  49   2.0000      -0.681426       -18.5425
  50   2.0000      -0.662534       -18.0285
  51   2.0000      -0.657827       -17.9004
  52   2.0000      -0.647779       -17.6270
  53   2.0000      -0.638792       -17.3824
  54   2.0000      -0.634645       -17.2696
  55   2.0000      -0.632206       -17.2032
  56   2.0000      -0.621629       -16.9154
  57   2.0000      -0.608471       -16.5573
  58   2.0000      -0.601847       -16.3771
  59   2.0000      -0.601159       -16.3584
  60   2.0000      -0.596479       -16.2310
  61   2.0000      -0.589360       -16.0373
  62   2.0000      -0.576928       -15.6990
  63   2.0000      -0.567283       -15.4365
  64   2.0000      -0.563184       -15.3250
  65   2.0000      -0.561365       -15.2755
  66   2.0000      -0.554172       -15.0798
  67   2.0000      -0.547173       -14.8893
  68   2.0000      -0.541224       -14.7275
  69   2.0000      -0.534354       -14.5405
  70   2.0000      -0.528166       -14.3721
  71   2.0000      -0.518218       -14.1014
  72   2.0000      -0.513510       -13.9733
  73   2.0000      -0.502140       -13.6639
  74   2.0000      -0.495676       -13.4880
  75   2.0000      -0.479738       -13.0543
  76   2.0000      -0.474280       -12.9058
  77   2.0000      -0.447452       -12.1758
  78   2.0000      -0.446052       -12.1377
  79   2.0000      -0.418343       -11.3837
  80   2.0000      -0.417088       -11.3495
  81   2.0000      -0.398402       -10.8411
  82   0.0000      -0.200175        -5.4470
  83   0.0000      -0.147242        -4.0067
  84   0.0000      -0.141747        -3.8571
  85   0.0000      -0.086417        -2.3515
  86   0.0000      -0.071850        -1.9551

MULLIKEN ATOMIC CHARGES
-----------------------
   0 Ir:    0.604982
   1 C :   -0.227478
   2 C :   -0.277511
   3 C :   -0.254682
   4 C :   -0.231676
   5 C :   -0.160523
   6 N :   -0.437448
   7 C :   -0.125711
   8 C :   -0.683441
   9 H :    0.269413
  10 H :    0.224818
  11 H :    0.255366
  12 C :   -0.634463
  13 H :    0.279573
  14 H :    0.260216
  15 H :    0.232063
  16 H :    0.231358
  17 C :    0.070149
  18 C :   -0.150875
  19 H :    0.285127
  20 C :   -0.491614
  21 C :   -0.126464
  22 S :    0.328197
  23 C :   -0.426430
  24 H :    0.481858
  25 H :    0.263955
  26 H :    0.296599
  27 H :    0.288066
  28 H :    0.286062
  29 H :    0.301610
  30 O :   -0.487674
  31 O :   -0.518158
  32 C :    0.631085
  33 C :   -0.744602
  34 H :    0.272853
  35 H :    0.273503
  36 H :    0.259517
  37 H :    0.287414
  38 H :    0.294967
Sum of atomic charges:    1.0000000

LOEWDIN ATOMIC CHARGES
----------------------
   0 Ir:   -0.244049
   1 C :   -0.051106
   2 C :   -0.084946
   3 C :   -0.080523
   4 C :   -0.042981
   5 C :   -0.015913
   6 N :   -0.010041
   7 C :   -0.069122
   8 C :   -0.362602
   9 H :    0.156163
  10 H :    0.132929
  11 H :    0.144150
  12 C :   -0.343932
  13 H :    0.154812
  14 H :    0.151247
  15 H :    0.137684
  16 H :    0.132353
  17 C :    0.031718
  18 C :   -0.193928
  19 H :    0.159826
  20 C :   -0.214825
  21 C :   -0.134383
  22 S :    0.483522
  23 C :   -0.259341
  24 H :    0.338676
  25 H :    0.160746
  26 H :    0.168204
  27 H :    0.183483
  28 H :    0.182136
  29 H :    0.190596
  30 O :   -0.266473
  31 O :   -0.188031
  32 C :    0.165444
  33 C :   -0.372328
  34 H :    0.163672
  35 H :    0.171358
  36 H :    0.155387
  37 H :    0.184225
  38 H :    0.186193

  Mayer bond orders larger than 0.100000
B(  0-Ir,  1-C ) :   0.4284 B(  0-Ir,  2-C ) :   0.4754 B(  0-Ir,  3-C ) :   0.4625
B(  0-Ir,  4-C ) :   0.4420 B(  0-Ir,  5-C ) :   0.3968 B(  0-Ir,  6-N ) :   0.4667
B(  0-Ir, 20-C ) :   0.3739 B(  0-Ir, 31-O ) :   0.5364 B(  1-C ,  2-C ) :   1.1244
B(  1-C ,  4-C ) :   1.2349 B(  1-C , 27-H ) :   0.9059 B(  2-C ,  5-C ) :   1.1663
B(  2-C , 28-H ) :   0.9097 B(  3-C ,  4-C ) :   1.1214 B(  3-C ,  5-C ) :   1.2053
B(  3-C , 37-H ) :   0.9096 B(  4-C , 38-H ) :   0.9002 B(  5-C , 29-H ) :   0.8995
B(  6-N ,  7-C ) :   0.8942 B(  6-N , 17-C ) :   1.6565 B(  7-C ,  8-C ) :   0.9908
B(  7-C , 12-C ) :   0.9672 B(  7-C , 13-H ) :   0.8767 B(  8-C ,  9-H ) :   0.9046
B(  8-C , 10-H ) :   0.9130 B(  8-C , 11-H ) :   0.9114 B( 12-C , 14-H ) :   0.9075
B( 12-C , 15-H ) :   0.9155 B( 12-C , 16-H ) :   0.9126 B( 17-C , 18-C ) :   1.1001
B( 17-C , 19-H ) :   0.8760 B( 18-C , 20-C ) :   1.2664 B( 18-C , 22-S ) :   1.2274
B( 20-C , 21-C ) :   1.2863 B( 20-C , 24-H ) :   0.3742 B( 21-C , 23-C ) :   1.5393
B( 21-C , 25-H ) :   0.9044 B( 22-S , 23-C ) :   1.2189 B( 23-C , 26-H ) :   0.8916
B( 24-H , 30-O ) :   0.3150 B( 30-O , 32-C ) :   1.5891 B( 31-O , 32-C ) :   1.3541
B( 32-C , 33-C ) :   0.9471 B( 33-C , 34-H ) :   0.9012 B( 33-C , 35-H ) :   0.8943
B( 33-C , 36-H ) :   0.9082

Dispersion correction           -0.030524041
FINAL SINGLE POINT ENERGY     -1288.401001429744

DIPOLE MOMENT
-------------
                                X             Y             Z
Electronic contribution:     36.53439     -72.32840      76.15432
Nuclear contribution   :    -37.15901      71.61635     -76.32512
                        -----------------------------------------
Total Dipole Moment    :     -0.62463      -0.71205      -0.17080
                        -----------------------------------------
Magnitude (a.u.)       :      0.96247
Magnitude (Debye)      :      2.44640

Rotational constants in cm-1:     0.010534     0.008775     0.008136
Rotational constants in MHz :   315.812800   263.053435   243.898661

                             ****ORCA TERMINATED NORMALLY****
TOTAL RUN TIME: 0 days 1 hours 38 minutes 41 seconds 94 msec
