                         Program Version 5.0.3 -  RELEASE  -
|  1> ! Opt PBEh-3c
|  2> %geom Constraints
|  3> { B 0 20 2.428571428571429 C }
|  4> { B 24 30 1.3571428571428572 C }
|  5>     end
|  6> end
|  7> %output
|  8> xyzfile=True
|  9> end
| 10> %scf
| 11> maxiter 250
| 12> end
| 13> %output
| 14> Print[P_Hirshfeld] = 1
| 15> end
| 16> % maxcore
| 17> 4000
| 18> *xyz 1 1
| 19> Ir   0.58300723  -0.73084605   0.48878845
| 20> C    0.02619070  -2.81176395   0.38094452
| 21> C    0.07125325  -2.35763536   1.74810479
| 22> C    2.18317715  -2.14443634   0.85039016
| 23> C    1.30714057  -2.65537940  -0.17976286
| 24> C    1.43076052  -1.99688097   2.02970781
| 25> N   -1.04099813   0.14709134  -0.51353490
| 26> C   -2.32070033   0.45098547   0.14841023
| 27> C   -3.12002540   1.54419026  -0.54336781
| 28> H   -3.95228082   1.83095204   0.09805280
| 29> H   -3.55608268   1.21992254  -1.48951609
| 30> H   -2.52260890   2.43920723  -0.71919410
| 31> C   -3.13572826  -0.82752235   0.30245035
| 32> H   -2.04176857   0.80721285   1.14148502
| 33> H   -4.05740211  -0.61108323   0.84063410
| 34> H   -3.40713958  -1.24376990  -0.66859113
| 35> H   -2.60171708  -1.58847540   0.86954015
| 36> C   -0.84736739   0.36953069  -1.75803465
| 37> C    0.49588863   0.18275075  -2.24898434
| 38> H   -1.64262782   0.72066354  -2.40941161
| 39> C    1.59692202   0.43538391  -1.43990118
| 40> C    2.79862721   0.07424738  -2.11129933
| 41> S    0.92140210  -0.42666444  -3.78516401
| 42> C    2.58549164  -0.39585211  -3.37092848
| 43> H    1.54187311   1.34254367  -0.61500130
| 44> H    3.78603613   0.21201666  -1.69512234
| 45> H    3.32207276  -0.70644335  -4.09653905
| 46> H   -0.84960587  -3.17501234  -0.13734294
| 47> H   -0.73762289  -2.38680331   2.46313871
| 48> H    1.79338812  -1.60015065   2.96714002
| 49> O    1.39967838   2.40861357   0.23593464
| 50> O    0.53425593   0.93330327   1.66646719
| 51> C    0.95552905   2.10513954   1.34708039
| 52> C    0.91117088   3.12175679   2.45112056
| 53> H    0.88103705   4.12988196   2.04683715
| 54> H    1.81815951   3.03108692   3.05216309
| 55> H    0.06484019   2.95830620   3.11455858
| 56> H    3.23352090  -1.92183125   0.73569255
| 57> H    1.59162283  -2.88504618  -1.19620497
| 58> *
| 59>
| 60>                          ****END OF INPUT****
 Total Charge           Charge          ....    1
 Multiplicity           Mult            ....    1
 Number of Electrons    NEL             ....  164
Dispersion correction           -0.030821152
FINAL SINGLE POINT ENERGY     -1288.396878022668
Dispersion correction            ... done
Dispersion correction           -0.030771796
FINAL SINGLE POINT ENERGY     -1288.397033553581
Dispersion correction            ... done
Dispersion correction           -0.030737679
FINAL SINGLE POINT ENERGY     -1288.397097710346
Dispersion correction            ... done
FINAL SINGLE POINT ENERGY     -1288.397123783185
FINAL SINGLE POINT ENERGY     -1288.397135976819
FINAL SINGLE POINT ENERGY     -1288.397146246042
FINAL SINGLE POINT ENERGY     -1288.397152574336
FINAL SINGLE POINT ENERGY     -1288.397160117329
FINAL SINGLE POINT ENERGY     -1288.397166882156
FINAL SINGLE POINT ENERGY     -1288.397172485168
Dispersion correction            ... done
Dispersion correction           -0.030629350
FINAL SINGLE POINT ENERGY     -1288.397174519751
Dispersion correction            ... done
Dispersion correction           -0.030623054
FINAL SINGLE POINT ENERGY     -1288.397174574253
Dispersion correction            ... done
                    ***********************HURRAY********************

CARTESIAN COORDINATES (ANGSTROEM)
---------------------------------
  Ir     0.594263   -0.733294    0.491988
  C      0.059312   -2.822322    0.374984
  C      0.023046   -2.360574    1.739360
  C      2.182668   -2.130870    0.960503
  C      1.370091   -2.659330   -0.111059
  C      1.358085   -1.981587    2.092534
  N     -1.038300    0.132297   -0.505462
  C     -2.318188    0.409887    0.168585
  C     -3.097360    1.558641   -0.453985
  H     -3.928603    1.817175    0.200573
  H     -3.532650    1.301618   -1.420647
  H     -2.483726    2.452182   -0.570469
  C     -3.150547   -0.865625    0.229101
  H     -2.043098    0.694799    1.185181
  H     -4.067161   -0.681196    0.787602
  H     -3.431179   -1.202161   -0.769827
  H     -2.621841   -1.675489    0.729514
  C     -0.862448    0.371648   -1.750510
  C      0.471378    0.198066   -2.264634
  H     -1.670232    0.726694   -2.384144
  C      1.575844    0.364989   -1.438875
  C      2.770799    0.033424   -2.136406
  S      0.884943   -0.300219   -3.842202
  C      2.548254   -0.332739   -3.429238
  H      1.558247    1.293765   -0.604887
  H      3.760936    0.119075   -1.712917
  H      3.279470   -0.600040   -4.177107
  H     -0.780400   -3.201676   -0.189310
  H     -0.824169   -2.393437    2.408229
  H      1.661228   -1.571489    3.045414
  O      1.470915    2.379878    0.204167
  O      0.543166    0.954307    1.644310
  C      0.992109    2.108489    1.312574
  C      0.941541    3.154806    2.387513
  H      0.902817    4.151466    1.956149
  H      1.851760    3.088656    2.986792
  H      0.097979    3.002035    3.056592
  H      3.237890   -1.909006    0.909165
  H      1.712530   -2.893654   -1.108410

 Multiplicity           Mult            ....    1
 Number of Electrons    NEL             ....  164
 Basis Dimension        Dim             ....  358

ORBITAL ENERGIES
----------------

  NO   OCC          E(Eh)            E(eV)
   0   2.0000     -89.758769     -2442.4603
   1   2.0000     -19.629206      -534.1379
   2   2.0000     -19.601472      -533.3832
   3   2.0000     -14.836783      -403.7294
   4   2.0000     -10.688762      -290.8560
   5   2.0000     -10.658320      -290.0276
   6   2.0000     -10.633846      -289.3617
   7   2.0000     -10.633072      -289.3406
   8   2.0000     -10.629787      -289.2512
   9   2.0000     -10.629508      -289.2436
  10   2.0000     -10.626664      -289.1662
  11   2.0000     -10.625092      -289.1235
  12   2.0000     -10.614570      -288.8371
  13   2.0000     -10.607104      -288.6340
  14   2.0000     -10.581829      -287.9462
  15   2.0000     -10.580615      -287.9132
  16   2.0000     -10.555891      -287.2404
  17   2.0000     -10.551021      -287.1079
  18   2.0000     -10.537875      -286.7502
  19   2.0000      -8.398202      -228.5267
  20   2.0000      -6.288185      -171.1102
  21   2.0000      -6.284595      -171.0125
  22   2.0000      -6.283035      -170.9701
  23   2.0000      -4.027739      -109.6004
  24   2.0000      -2.346607       -63.8544
  25   2.0000      -2.312740       -62.9328
  26   2.0000      -2.310768       -62.8792
  27   2.0000      -1.315077       -35.7851
  28   2.0000      -1.217957       -33.1423
  29   2.0000      -1.208403       -32.8823
  30   2.0000      -1.170951       -31.8632
  31   2.0000      -1.122984       -30.5580
  32   2.0000      -1.024123       -27.8678
  33   2.0000      -0.985186       -26.8083
  34   2.0000      -0.976015       -26.5587
  35   2.0000      -0.962892       -26.2016
  36   2.0000      -0.956365       -26.0240
  37   2.0000      -0.932922       -25.3861
  38   2.0000      -0.901702       -24.5365
  39   2.0000      -0.871295       -23.7091
  40   2.0000      -0.796444       -21.6724
  41   2.0000      -0.786642       -21.4056
  42   2.0000      -0.785476       -21.3739
  43   2.0000      -0.778825       -21.1929
  44   2.0000      -0.770481       -20.9659
  45   2.0000      -0.759729       -20.6733
  46   2.0000      -0.742116       -20.1940
  47   2.0000      -0.722423       -19.6581
  48   2.0000      -0.691733       -18.8230
  49   2.0000      -0.677361       -18.4319
  50   2.0000      -0.663269       -18.0485
  51   2.0000      -0.652942       -17.7675
  52   2.0000      -0.648294       -17.6410
  53   2.0000      -0.638774       -17.3819
  54   2.0000      -0.638274       -17.3683
  55   2.0000      -0.633110       -17.2278
  56   2.0000      -0.622727       -16.9453
  57   2.0000      -0.609506       -16.5855
  58   2.0000      -0.606512       -16.5040
  59   2.0000      -0.605625       -16.4799
  60   2.0000      -0.596152       -16.2221
  61   2.0000      -0.588283       -16.0080
  62   2.0000      -0.575950       -15.6724
  63   2.0000      -0.567543       -15.4436
  64   2.0000      -0.562292       -15.3008
  65   2.0000      -0.559087       -15.2135
  66   2.0000      -0.552353       -15.0303
  67   2.0000      -0.548243       -14.9185
  68   2.0000      -0.540045       -14.6954
  69   2.0000      -0.534501       -14.5445
  70   2.0000      -0.527939       -14.3659
  71   2.0000      -0.519420       -14.1341
  72   2.0000      -0.514927       -14.0119
  73   2.0000      -0.505011       -13.7420
  74   2.0000      -0.492539       -13.4027
  75   2.0000      -0.480366       -13.0714
  76   2.0000      -0.466737       -12.7006
  77   2.0000      -0.448460       -12.2032
  78   2.0000      -0.444318       -12.0905
  79   2.0000      -0.420048       -11.4301
  80   2.0000      -0.417634       -11.3644
  81   2.0000      -0.401083       -10.9140
  82   0.0000      -0.200476        -5.4552
  83   0.0000      -0.158827        -4.3219
  84   0.0000      -0.141240        -3.8433
  85   0.0000      -0.091422        -2.4877
  86   0.0000      -0.073847        -2.0095

MULLIKEN ATOMIC CHARGES
-----------------------
   0 Ir:    0.613499
   1 C :   -0.215864
   2 C :   -0.288272
   3 C :   -0.241715
   4 C :   -0.239601
   5 C :   -0.164685
   6 N :   -0.434631
   7 C :   -0.125268
   8 C :   -0.686296
   9 H :    0.270204
  10 H :    0.225061
  11 H :    0.258845
  12 C :   -0.635483
  13 H :    0.280347
  14 H :    0.262536
  15 H :    0.231404
  16 H :    0.230608
  17 C :    0.070072
  18 C :   -0.177961
  19 H :    0.287463
  20 C :   -0.452852
  21 C :   -0.138219
  22 S :    0.312633
  23 C :   -0.427708
  24 H :    0.495905
  25 H :    0.263365
  26 H :    0.296184
  27 H :    0.290477
  28 H :    0.290536
  29 H :    0.304961
  30 O :   -0.488343
  31 O :   -0.531191
  32 C :    0.624784
  33 C :   -0.745301
  34 H :    0.271214
  35 H :    0.269467
  36 H :    0.256138
  37 H :    0.291928
  38 H :    0.295761
Sum of atomic charges:    1.0000000

LOEWDIN ATOMIC CHARGES
----------------------
   0 Ir:   -0.226252
   1 C :   -0.044580
   2 C :   -0.070260
   3 C :   -0.062677
   4 C :   -0.049134
   5 C :   -0.020240
   6 N :   -0.010867
   7 C :   -0.069278
   8 C :   -0.363209
   9 H :    0.156507
  10 H :    0.133185
  11 H :    0.145942
  12 C :   -0.343765
  13 H :    0.155368
  14 H :    0.152253
  15 H :    0.137386
  16 H :    0.132613
  17 C :    0.034790
  18 C :   -0.192529
  19 H :    0.160863
  20 C :   -0.205273
  21 C :   -0.139308
  22 S :    0.471871
  23 C :   -0.261075
  24 H :    0.313317
  25 H :    0.160718
  26 H :    0.167575
  27 H :    0.184680
  28 H :    0.184620
  29 H :    0.192600
  30 O :   -0.273301
  31 O :   -0.198330
  32 C :    0.161623
  33 C :   -0.374120
  34 H :    0.161315
  35 H :    0.169158
  36 H :    0.154539
  37 H :    0.186353
  38 H :    0.186922

  Mayer bond orders larger than 0.100000
B(  0-Ir,  1-C ) :   0.4221 B(  0-Ir,  2-C ) :   0.5216 B(  0-Ir,  3-C ) :   0.4602
B(  0-Ir,  4-C ) :   0.4514 B(  0-Ir,  5-C ) :   0.4022 B(  0-Ir,  6-N ) :   0.4679
B(  0-Ir, 20-C ) :   0.2899 B(  0-Ir, 31-O ) :   0.5607 B(  1-C ,  2-C ) :   1.1189
B(  1-C ,  4-C ) :   1.2416 B(  1-C , 27-H ) :   0.9041 B(  2-C ,  5-C ) :   1.1410
B(  2-C , 28-H ) :   0.9081 B(  3-C ,  4-C ) :   1.1097 B(  3-C ,  5-C ) :   1.2270
B(  3-C , 37-H ) :   0.9064 B(  4-C , 38-H ) :   0.9002 B(  5-C , 29-H ) :   0.8982
B(  6-N ,  7-C ) :   0.8919 B(  6-N , 17-C ) :   1.6722 B(  7-C ,  8-C ) :   0.9914
B(  7-C , 12-C ) :   0.9683 B(  7-C , 13-H ) :   0.8752 B(  8-C ,  9-H ) :   0.9042
B(  8-C , 10-H ) :   0.9130 B(  8-C , 11-H ) :   0.9096 B( 12-C , 14-H ) :   0.9069
B( 12-C , 15-H ) :   0.9156 B( 12-C , 16-H ) :   0.9126 B( 17-C , 18-C ) :   1.0803
B( 17-C , 19-H ) :   0.8753 B( 18-C , 20-C ) :   1.2878 B( 18-C , 22-S ) :   1.2219
B( 20-C , 21-C ) :   1.2819 B( 20-C , 24-H ) :   0.4226 B( 21-C , 23-C ) :   1.5415
B( 21-C , 25-H ) :   0.9054 B( 22-S , 23-C ) :   1.2118 B( 23-C , 26-H ) :   0.8921
B( 24-H , 30-O ) :   0.2732 B( 30-O , 32-C ) :   1.6397 B( 31-O , 32-C ) :   1.3125
B( 32-C , 33-C ) :   0.9479 B( 33-C , 34-H ) :   0.9034 B( 33-C , 35-H ) :   0.8966
B( 33-C , 36-H ) :   0.9087

Dispersion correction           -0.030620142
FINAL SINGLE POINT ENERGY     -1288.397174370385

DIPOLE MOMENT
-------------
                                X             Y             Z
Electronic contribution:     35.80970     -70.28131      77.40231
Nuclear contribution   :    -36.43353      69.26821     -77.56568
                        -----------------------------------------
Total Dipole Moment    :     -0.62383      -1.01310      -0.16337
                        -----------------------------------------
Magnitude (a.u.)       :      1.20093
Magnitude (Debye)      :      3.05252

Rotational constants in cm-1:     0.010564     0.008904     0.008138
Rotational constants in MHz :   316.705341   266.946171   243.983029

                             ****ORCA TERMINATED NORMALLY****
TOTAL RUN TIME: 0 days 1 hours 35 minutes 36 seconds 853 msec
