                         Program Version 5.0.3 -  RELEASE  -
|  1> ! Opt PBEh-3c
|  2> %geom Constraints
|  3> { B 0 20 2.4714285714285715 C }
|  4> { B 24 30 1.4857142857142858 C }
|  5>     end
|  6> end
|  7> %output
|  8> xyzfile=True
|  9> end
| 10> %scf
| 11> maxiter 250
| 12> end
| 13> %output
| 14> Print[P_Hirshfeld] = 1
| 15> end
| 16> % maxcore
| 17> 4000
| 18> *xyz 1 1
| 19> Ir   0.59241033  -0.72022230   0.44229484
| 20> C    0.03671389  -2.80223360   0.32843433
| 21> C    0.13060355  -2.35241952   1.69690505
| 22> C    2.20661593  -2.13372482   0.72772501
| 23> C    1.29626971  -2.64111527  -0.27438551
| 24> C    1.50056629  -1.99675247   1.93519944
| 25> N   -1.04282940   0.18418567  -0.52280442
| 26> C   -2.30876643   0.52682550   0.14277778
| 27> C   -3.13321335   1.55649756  -0.61198057
| 28> H   -3.96342114   1.87213612   0.01827768
| 29> H   -3.57263336   1.15977975  -1.52875690
| 30> H   -2.55477753   2.44863653  -0.85429082
| 31> C   -3.10491164  -0.74450081   0.41015659
| 32> H   -2.00867373   0.95714689   1.09971354
| 33> H   -4.01400052  -0.49667369   0.95589588
| 34> H   -3.39829616  -1.23203461  -0.52052441
| 35> H   -2.54897709  -1.45733208   1.01753241
| 36> C   -0.83319911   0.39008987  -1.76373946
| 37> C    0.52045518   0.14513721  -2.22136839
| 38> H   -1.60267790   0.76120825  -2.43457600
| 39> C    1.62918421   0.53077723  -1.47648934
| 40> C    2.82999730   0.08850603  -2.10454978
| 41> S    0.93766614  -0.69353438  -3.64900845
| 42> C    2.60947934  -0.57597260  -3.26883751
| 43> H    1.55107412   1.39608159  -0.71155046
| 44> H    3.81836894   0.30554145  -1.72639952
| 45> H    3.34147466  -0.98802359  -3.94688378
| 46> H   -0.85782385  -3.16297125  -0.15862593
| 47> H   -0.65198705  -2.38546721   2.44075384
| 48> H    1.89588017  -1.60508875   2.86143949
| 49> O    1.26009285   2.48319319   0.28017443
| 50> O    0.53930038   0.89272041   1.66978741
| 51> C    0.87994706   2.10976113   1.38309905
| 52> C    0.80455679   3.05896477   2.54748769
| 53> H    0.74267922   4.08656159   2.19969621
| 54> H    1.71219067   2.96288585   3.14649700
| 55> H   -0.03673757   2.83527345   3.20033774
| 56> H    3.25007564  -1.90239008   0.57308255
| 57> H    1.54669344  -2.86226304  -1.30175666
| 58> *
| 59>
| 60>                          ****END OF INPUT****
 Total Charge           Charge          ....    1
 Multiplicity           Mult            ....    1
 Number of Electrons    NEL             ....  164
Dispersion correction           -0.031082778
FINAL SINGLE POINT ENERGY     -1288.399166073993
Dispersion correction            ... done
Dispersion correction           -0.031056325
FINAL SINGLE POINT ENERGY     -1288.398370584784
Dispersion correction            ... done
Dispersion correction           -0.031003668
FINAL SINGLE POINT ENERGY     -1288.399266894138
Dispersion correction            ... done
FINAL SINGLE POINT ENERGY     -1288.398686836193
FINAL SINGLE POINT ENERGY     -1288.399312518309
FINAL SINGLE POINT ENERGY     -1288.399318426581
Dispersion correction            ... done
Dispersion correction           -0.030972752
FINAL SINGLE POINT ENERGY     -1288.399332087815
Dispersion correction            ... done
Dispersion correction           -0.030981044
FINAL SINGLE POINT ENERGY     -1288.399335965045
Dispersion correction            ... done
                    ***********************HURRAY********************

CARTESIAN COORDINATES (ANGSTROEM)
---------------------------------
  Ir     0.595700   -0.717355    0.437428
  C      0.039723   -2.800518    0.334431
  C      0.128604   -2.347711    1.701302
  C      2.208221   -2.130115    0.737072
  C      1.301521   -2.642059   -0.265807
  C      1.496520   -1.987850    1.941260
  N     -1.045210    0.179457   -0.525967
  C     -2.311313    0.515046    0.142907
  C     -3.133472    1.556261   -0.598709
  H     -3.962614    1.866271    0.035783
  H     -3.574569    1.172703   -1.520258
  H     -2.552607    2.449715   -0.830092
  C     -3.110057   -0.758309    0.392613
  H     -2.011567    0.932410    1.105621
  H     -4.019318   -0.516118    0.940607
  H     -3.403091   -1.232995   -0.544778
  H     -2.555799   -1.480085    0.990831
  C     -0.841395    0.388157   -1.767917
  C      0.511006    0.150626   -2.229015
  H     -1.615010    0.757073   -2.435101
  C      1.613541    0.500888   -1.456733
  C      2.818299    0.070561   -2.086184
  S      0.937507   -0.644969   -3.676084
  C      2.606016   -0.553413   -3.274211
  H      1.541660    1.378238   -0.692527
  H      3.804015    0.267706   -1.690532
  H      3.342071   -0.947890   -3.958287
  H     -0.852923   -3.163102   -0.154782
  H     -0.656414   -2.378455    2.442544
  H      1.888436   -1.591623    2.867010
  O      1.286547    2.478829    0.272338
  O      0.535059    0.902364    1.660852
  C      0.892476    2.112725    1.374403
  C      0.820693    3.068509    2.533318
  H      0.772963    4.095252    2.180917
  H      1.723236    2.964247    3.138655
  H     -0.027398    2.857040    3.181423
  H      3.252999   -1.902001    0.587113
  H      1.555317   -2.870321   -1.290702

 Multiplicity           Mult            ....    1
 Number of Electrons    NEL             ....  164
 Basis Dimension        Dim             ....  358

ORBITAL ENERGIES
----------------

  NO   OCC          E(Eh)            E(eV)
   0   2.0000     -89.764510     -2442.6165
   1   2.0000     -19.619939      -533.8857
   2   2.0000     -19.581302      -532.8343
   3   2.0000     -14.842873      -403.8951
   4   2.0000     -10.675696      -290.5005
   5   2.0000     -10.663817      -290.1772
   6   2.0000     -10.638271      -289.4821
   7   2.0000     -10.636258      -289.4273
   8   2.0000     -10.634566      -289.3813
   9   2.0000     -10.634082      -289.3681
  10   2.0000     -10.632316      -289.3200
  11   2.0000     -10.631307      -289.2926
  12   2.0000     -10.616811      -288.8981
  13   2.0000     -10.611763      -288.7607
  14   2.0000     -10.586329      -288.0687
  15   2.0000     -10.584954      -288.0312
  16   2.0000     -10.557654      -287.2884
  17   2.0000     -10.552640      -287.1519
  18   2.0000     -10.529902      -286.5332
  19   2.0000      -8.403803      -228.6791
  20   2.0000      -6.293888      -171.2654
  21   2.0000      -6.290225      -171.1657
  22   2.0000      -6.288524      -171.1194
  23   2.0000      -4.030685      -109.6805
  24   2.0000      -2.349764       -63.9403
  25   2.0000      -2.315640       -63.0118
  26   2.0000      -2.314325       -62.9760
  27   2.0000      -1.299409       -35.3587
  28   2.0000      -1.215582       -33.0777
  29   2.0000      -1.203170       -32.7399
  30   2.0000      -1.174215       -31.9520
  31   2.0000      -1.129050       -30.7230
  32   2.0000      -1.028611       -27.9899
  33   2.0000      -0.988987       -26.9117
  34   2.0000      -0.979341       -26.6492
  35   2.0000      -0.967787       -26.3348
  36   2.0000      -0.962055       -26.1789
  37   2.0000      -0.923022       -25.1167
  38   2.0000      -0.904267       -24.6064
  39   2.0000      -0.875459       -23.8224
  40   2.0000      -0.799066       -21.7437
  41   2.0000      -0.790234       -21.5033
  42   2.0000      -0.788600       -21.4589
  43   2.0000      -0.782748       -21.2997
  44   2.0000      -0.773821       -21.0567
  45   2.0000      -0.754999       -20.5446
  46   2.0000      -0.744011       -20.2456
  47   2.0000      -0.723517       -19.6879
  48   2.0000      -0.695194       -18.9172
  49   2.0000      -0.671432       -18.2706
  50   2.0000      -0.665566       -18.1110
  51   2.0000      -0.652132       -17.7454
  52   2.0000      -0.647427       -17.6174
  53   2.0000      -0.640939       -17.4408
  54   2.0000      -0.634943       -17.2777
  55   2.0000      -0.626542       -17.0491
  56   2.0000      -0.623835       -16.9754
  57   2.0000      -0.613032       -16.6814
  58   2.0000      -0.609718       -16.5913
  59   2.0000      -0.608862       -16.5680
  60   2.0000      -0.598626       -16.2894
  61   2.0000      -0.589665       -16.0456
  62   2.0000      -0.579664       -15.7735
  63   2.0000      -0.573749       -15.6125
  64   2.0000      -0.564713       -15.3666
  65   2.0000      -0.553770       -15.0688
  66   2.0000      -0.552301       -15.0289
  67   2.0000      -0.548668       -14.9300
  68   2.0000      -0.539186       -14.6720
  69   2.0000      -0.535740       -14.5782
  70   2.0000      -0.528243       -14.3742
  71   2.0000      -0.521764       -14.1979
  72   2.0000      -0.516360       -14.0509
  73   2.0000      -0.505763       -13.7625
  74   2.0000      -0.487358       -13.2617
  75   2.0000      -0.481649       -13.1063
  76   2.0000      -0.467098       -12.7104
  77   2.0000      -0.448602       -12.2071
  78   2.0000      -0.440204       -11.9786
  79   2.0000      -0.425228       -11.5711
  80   2.0000      -0.416885       -11.3440
  81   2.0000      -0.404680       -11.0119
  82   0.0000      -0.201466        -5.4822
  83   0.0000      -0.164501        -4.4763
  84   0.0000      -0.142456        -3.8764
  85   0.0000      -0.103593        -2.8189
  86   0.0000      -0.077820        -2.1176

MULLIKEN ATOMIC CHARGES
-----------------------
   0 Ir:    0.616402
   1 C :   -0.208343
   2 C :   -0.293013
   3 C :   -0.233222
   4 C :   -0.247181
   5 C :   -0.163768
   6 N :   -0.421552
   7 C :   -0.116741
   8 C :   -0.695983
   9 H :    0.273713
  10 H :    0.225808
  11 H :    0.261312
  12 C :   -0.640243
  13 H :    0.282603
  14 H :    0.265418
  15 H :    0.230788
  16 H :    0.233746
  17 C :    0.069235
  18 C :   -0.208320
  19 H :    0.294067
  20 C :   -0.427927
  21 C :   -0.130242
  22 S :    0.298107
  23 C :   -0.431783
  24 H :    0.494879
  25 H :    0.269336
  26 H :    0.298291
  27 H :    0.292194
  28 H :    0.293568
  29 H :    0.307574
  30 O :   -0.475329
  31 O :   -0.546157
  32 C :    0.608174
  33 C :   -0.745476
  34 H :    0.267803
  35 H :    0.263891
  36 H :    0.249930
  37 H :    0.294415
  38 H :    0.294023
Sum of atomic charges:    1.0000000

LOEWDIN ATOMIC CHARGES
----------------------
   0 Ir:   -0.218786
   1 C :   -0.038574
   2 C :   -0.059099
   3 C :   -0.049668
   4 C :   -0.057924
   5 C :   -0.024279
   6 N :   -0.002041
   7 C :   -0.068428
   8 C :   -0.364994
   9 H :    0.158009
  10 H :    0.133935
  11 H :    0.147226
  12 C :   -0.343295
  13 H :    0.157468
  14 H :    0.153458
  15 H :    0.137260
  16 H :    0.134755
  17 C :    0.035776
  18 C :   -0.179793
  19 H :    0.163993
  20 C :   -0.181089
  21 C :   -0.137538
  22 S :    0.465656
  23 C :   -0.263403
  24 H :    0.274954
  25 H :    0.163636
  26 H :    0.168323
  27 H :    0.185713
  28 H :    0.186376
  29 H :    0.194184
  30 O :   -0.276430
  31 O :   -0.213540
  32 C :    0.148032
  33 C :   -0.377785
  34 H :    0.158466
  35 H :    0.165421
  36 H :    0.151554
  37 H :    0.187355
  38 H :    0.185116

  Mayer bond orders larger than 0.100000
B(  0-Ir,  1-C ) :   0.4183 B(  0-Ir,  2-C ) :   0.5388 B(  0-Ir,  3-C ) :   0.4640
B(  0-Ir,  4-C ) :   0.4478 B(  0-Ir,  5-C ) :   0.4013 B(  0-Ir,  6-N ) :   0.4597
B(  0-Ir, 20-C ) :   0.2333 B(  0-Ir, 31-O ) :   0.5963 B(  1-C ,  2-C ) :   1.1159
B(  1-C ,  4-C ) :   1.2486 B(  1-C , 27-H ) :   0.9031 B(  2-C ,  5-C ) :   1.1339
B(  2-C , 28-H ) :   0.9069 B(  3-C ,  4-C ) :   1.1040 B(  3-C ,  5-C ) :   1.2334
B(  3-C , 37-H ) :   0.9035 B(  4-C , 38-H ) :   0.8982 B(  5-C , 29-H ) :   0.8974
B(  6-N ,  7-C ) :   0.8910 B(  6-N , 17-C ) :   1.7035 B(  7-C ,  8-C ) :   0.9925
B(  7-C , 12-C ) :   0.9694 B(  7-C , 13-H ) :   0.8700 B(  8-C ,  9-H ) :   0.9031
B(  8-C , 10-H ) :   0.9123 B(  8-C , 11-H ) :   0.9076 B( 12-C , 14-H ) :   0.9061
B( 12-C , 15-H ) :   0.9152 B( 12-C , 16-H ) :   0.9105 B( 17-C , 18-C ) :   1.0409
B( 17-C , 19-H ) :   0.8735 B( 18-C , 20-C ) :   1.2987 B( 18-C , 22-S ) :   1.2283
B( 20-C , 21-C ) :   1.2533 B( 20-C , 24-H ) :   0.5174 B( 21-C , 23-C ) :   1.5525
B( 21-C , 25-H ) :   0.9032 B( 22-S , 23-C ) :   1.1980 B( 23-C , 26-H ) :   0.8921
B( 24-H , 30-O ) :   0.2159 B( 30-O , 32-C ) :   1.7313 B( 31-O , 32-C ) :   1.2513
B( 32-C , 33-C ) :   0.9450 B( 33-C , 34-H ) :   0.9062 B( 33-C , 35-H ) :   0.9003
B( 33-C , 36-H ) :   0.9105

Dispersion correction           -0.030973307
FINAL SINGLE POINT ENERGY     -1288.399342452357

DIPOLE MOMENT
-------------
                                X             Y             Z
Electronic contribution:     35.80101     -66.88177      70.86903
Nuclear contribution   :    -36.43859      65.54932     -71.21497
                        -----------------------------------------
Total Dipole Moment    :     -0.63759      -1.33245      -0.34594
                        -----------------------------------------
Magnitude (a.u.)       :      1.51711
Magnitude (Debye)      :      3.85618

Rotational constants in cm-1:     0.010825     0.009140     0.008282
Rotational constants in MHz :   324.516888   274.012230   248.295863

                             ****ORCA TERMINATED NORMALLY****
TOTAL RUN TIME: 0 days 1 hours 11 minutes 36 seconds 97 msec
