                         Program Version 5.0.3 -  RELEASE  -
|  1> ! Opt PBEh-3c
|  2> %geom Constraints
|  3> { B 0 20 2.342857142857143 C }
|  4> { B 24 30 1.3571428571428572 C }
|  5>     end
|  6> end
|  7> %output
|  8> xyzfile=True
|  9> end
| 10> %scf
| 11> maxiter 250
| 12> end
| 13> %output
| 14> Print[P_Hirshfeld] = 1
| 15> end
| 16> % maxcore
| 17> 4000
| 18> *xyz 1 1
| 19> Ir   0.60171915  -0.72977096   0.48009841
| 20> C    0.07768081  -2.82359225   0.36193351
| 21> C    0.01622505  -2.36203537   1.72521016
| 22> C    2.18776629  -2.11896733   0.98127512
| 23> C    1.39637618  -2.65566832  -0.10135006
| 24> C    1.34101641  -1.97204848   2.09852236
| 25> N   -1.04046761   0.13158623  -0.50673121
| 26> C   -2.31711603   0.40334120   0.17517901
| 27> C   -3.09413722   1.56419987  -0.42767366
| 28> H   -3.92351959   1.81453721   0.23239567
| 29> H   -3.53157208   1.32382134  -1.39760264
| 30> H   -2.47801487   2.45762891  -0.53099315
| 31> C   -3.15297153  -0.87068072   0.21714179
| 32> H   -2.03846824   0.67175279   1.19518104
| 33> H   -4.06511659  -0.69478764   0.78564157
| 34> H   -3.44143289  -1.18690477  -0.78616816
| 35> H   -2.62271409  -1.69182118   0.69716892
| 36> C   -0.87146285   0.37698639  -1.75158284
| 37> C    0.46041742   0.20020033  -2.26842708
| 38> H   -1.68058518   0.73787266  -2.38000408
| 39> C    1.56024561   0.33247599  -1.42895661
| 40> C    2.75723920   0.00452973  -2.12609654
| 41> S    0.87937811  -0.26943581  -3.85126010
| 42> C    2.53969719  -0.32993933  -3.42811881
| 43> H    1.55488977   1.27223031  -0.61215325
| 44> H    3.74515636   0.07021337  -1.69399389
| 45> H    3.27288894  -0.58831005  -4.17714808
| 46> H   -0.74980439  -3.20969180  -0.21566401
| 47> H   -0.84167777  -2.39844964   2.38001966
| 48> H    1.62513799  -1.55695414   3.05515153
| 49> O    1.47865529   2.38124613   0.19102079
| 50> O    0.54550535   0.96055742   1.63145544
| 51> C    0.99701093   2.11328685   1.29898462
| 52> C    0.94595377   3.16228031   2.37149377
| 53> H    0.90416698   4.15773068   1.93757649
| 54> H    1.85754269   3.09979729   2.96902956
| 55> H    0.10389819   3.00940099   3.04238464
| 56> H    3.24346044  -1.89612514   0.94998146
| 57> H    1.75640280  -2.89130305  -1.09218121
| 58> *
| 59>
| 60>                          ****END OF INPUT****
 Total Charge           Charge          ....    1
 Multiplicity           Mult            ....    1
 Number of Electrons    NEL             ....  164
Dispersion correction           -0.030767574
FINAL SINGLE POINT ENERGY     -1288.399309744602
Dispersion correction            ... done
Dispersion correction           -0.030722550
FINAL SINGLE POINT ENERGY     -1288.399457669773
Dispersion correction            ... done
Dispersion correction           -0.030684710
FINAL SINGLE POINT ENERGY     -1288.399547633938
Dispersion correction            ... done
FINAL SINGLE POINT ENERGY     -1288.399580564278
FINAL SINGLE POINT ENERGY     -1288.399595153644
FINAL SINGLE POINT ENERGY     -1288.399606060553
FINAL SINGLE POINT ENERGY     -1288.399607927701
FINAL SINGLE POINT ENERGY     -1288.399611268467
FINAL SINGLE POINT ENERGY     -1288.399614629088
FINAL SINGLE POINT ENERGY     -1288.399618280937
FINAL SINGLE POINT ENERGY     -1288.399621142354
FINAL SINGLE POINT ENERGY     -1288.399622883635
FINAL SINGLE POINT ENERGY     -1288.399624017845
Dispersion correction            ... done
Dispersion correction           -0.030597863
FINAL SINGLE POINT ENERGY     -1288.399625051652
Dispersion correction            ... done
Dispersion correction           -0.030596382
FINAL SINGLE POINT ENERGY     -1288.399626009855
Dispersion correction            ... done
                    ***********************HURRAY********************

CARTESIAN COORDINATES (ANGSTROEM)
---------------------------------
  Ir     0.606101   -0.732857    0.478581
  C      0.101394   -2.832075    0.353127
  C     -0.022866   -2.370997    1.712284
  C      2.178213   -2.107399    1.061417
  C      1.439714   -2.657150   -0.049732
  C      1.277336   -1.963525    2.138880
  N     -1.043244    0.123258   -0.502205
  C     -2.320443    0.374719    0.186406
  C     -3.094738    1.557726   -0.376770
  H     -3.925334    1.785103    0.289990
  H     -3.529889    1.353199   -1.355846
  H     -2.477280    2.453444   -0.446840
  C     -3.159682   -0.897848    0.180374
  H     -2.044625    0.608110    1.215686
  H     -4.069894   -0.743749    0.758348
  H     -3.451636   -1.172339   -0.834149
  H     -2.629745   -1.739746    0.623324
  C     -0.882022    0.391483   -1.744179
  C      0.443539    0.222205   -2.273591
  H     -1.695860    0.763678   -2.359668
  C      1.540822    0.268355   -1.422169
  C      2.734182   -0.033107   -2.137353
  S      0.859618   -0.141157   -3.884110
  C      2.515435   -0.265973   -3.461810
  H      1.581677    1.233726   -0.600374
  H      3.721498   -0.020314   -1.699132
  H      3.246583   -0.483908   -4.225507
  H     -0.695133   -3.229982   -0.258809
  H     -0.907565   -2.412868    2.329860
  H      1.514541   -1.540588    3.104911
  O      1.560583    2.347769    0.174416
  O      0.550414    0.977683    1.610345
  C      1.037658    2.110674    1.274180
  C      0.983655    3.186495    2.318890
  H      0.922920    4.169219    1.858442
  H      1.904530    3.154752    2.904343
  H      0.151620    3.039920    3.002991
  H      3.233756   -1.883346    1.079599
  H      1.843534   -2.893400   -1.023413

 Multiplicity           Mult            ....    1
 Number of Electrons    NEL             ....  164
 Basis Dimension        Dim             ....  358

ORBITAL ENERGIES
----------------

  NO   OCC          E(Eh)            E(eV)
   0   2.0000     -89.760065     -2442.4955
   1   2.0000     -19.631003      -534.1867
   2   2.0000     -19.607879      -533.5575
   3   2.0000     -14.835545      -403.6957
   4   2.0000     -10.691397      -290.9277
   5   2.0000     -10.657100      -289.9944
   6   2.0000     -10.631555      -289.2993
   7   2.0000     -10.630199      -289.2624
   8   2.0000     -10.628377      -289.2128
   9   2.0000     -10.625441      -289.1329
  10   2.0000     -10.624757      -289.1143
  11   2.0000     -10.621708      -289.0314
  12   2.0000     -10.613800      -288.8162
  13   2.0000     -10.607766      -288.6520
  14   2.0000     -10.583853      -288.0013
  15   2.0000     -10.583277      -287.9856
  16   2.0000     -10.555025      -287.2168
  17   2.0000     -10.550684      -287.0987
  18   2.0000     -10.540057      -286.8095
  19   2.0000      -8.399520      -228.5625
  20   2.0000      -6.289456      -171.1448
  21   2.0000      -6.285880      -171.0475
  22   2.0000      -6.284415      -171.0076
  23   2.0000      -4.025554      -109.5409
  24   2.0000      -2.343957       -63.7823
  25   2.0000      -2.310637       -62.8756
  26   2.0000      -2.308518       -62.8180
  27   2.0000      -1.318535       -35.8792
  28   2.0000      -1.220736       -33.2179
  29   2.0000      -1.207448       -32.8563
  30   2.0000      -1.167955       -31.7817
  31   2.0000      -1.124122       -30.5889
  32   2.0000      -1.023733       -27.8572
  33   2.0000      -0.981632       -26.7116
  34   2.0000      -0.973333       -26.4857
  35   2.0000      -0.964103       -26.2346
  36   2.0000      -0.957163       -26.0457
  37   2.0000      -0.935172       -25.4473
  38   2.0000      -0.900881       -24.5142
  39   2.0000      -0.871305       -23.7094
  40   2.0000      -0.796745       -21.6805
  41   2.0000      -0.783696       -21.3254
  42   2.0000      -0.782846       -21.3023
  43   2.0000      -0.779337       -21.2068
  44   2.0000      -0.767989       -20.8980
  45   2.0000      -0.760446       -20.6928
  46   2.0000      -0.741801       -20.1854
  47   2.0000      -0.722405       -19.6576
  48   2.0000      -0.691108       -18.8060
  49   2.0000      -0.679674       -18.4949
  50   2.0000      -0.662827       -18.0364
  51   2.0000      -0.654775       -17.8173
  52   2.0000      -0.647656       -17.6236
  53   2.0000      -0.638318       -17.3695
  54   2.0000      -0.636122       -17.3098
  55   2.0000      -0.632610       -17.2142
  56   2.0000      -0.622227       -16.9317
  57   2.0000      -0.609355       -16.5814
  58   2.0000      -0.603652       -16.4262
  59   2.0000      -0.602939       -16.4068
  60   2.0000      -0.596700       -16.2370
  61   2.0000      -0.589426       -16.0391
  62   2.0000      -0.576885       -15.6978
  63   2.0000      -0.567397       -15.4397
  64   2.0000      -0.562505       -15.3065
  65   2.0000      -0.561248       -15.2723
  66   2.0000      -0.552853       -15.0439
  67   2.0000      -0.547670       -14.9029
  68   2.0000      -0.540624       -14.7111
  69   2.0000      -0.534771       -14.5519
  70   2.0000      -0.528131       -14.3712
  71   2.0000      -0.518617       -14.1123
  72   2.0000      -0.514212       -13.9924
  73   2.0000      -0.502978       -13.6867
  74   2.0000      -0.493412       -13.4264
  75   2.0000      -0.480057       -13.0630
  76   2.0000      -0.471192       -12.8218
  77   2.0000      -0.446712       -12.1556
  78   2.0000      -0.445971       -12.1355
  79   2.0000      -0.419395       -11.4123
  80   2.0000      -0.417630       -11.3643
  81   2.0000      -0.399653       -10.8751
  82   0.0000      -0.201074        -5.4715
  83   0.0000      -0.152171        -4.1408
  84   0.0000      -0.141330        -3.8458
  85   0.0000      -0.088913        -2.4195
  86   0.0000      -0.073041        -1.9876

MULLIKEN ATOMIC CHARGES
-----------------------
   0 Ir:    0.609213
   1 C :   -0.224151
   2 C :   -0.280746
   3 C :   -0.251480
   4 C :   -0.233001
   5 C :   -0.161798
   6 N :   -0.434775
   7 C :   -0.127633
   8 C :   -0.682525
   9 H :    0.269266
  10 H :    0.224510
  11 H :    0.257224
  12 C :   -0.634350
  13 H :    0.280220
  14 H :    0.261128
  15 H :    0.231638
  16 H :    0.231093
  17 C :    0.070581
  18 C :   -0.159159
  19 H :    0.286057
  20 C :   -0.482201
  21 C :   -0.129608
  22 S :    0.322931
  23 C :   -0.427897
  24 H :    0.488398
  25 H :    0.264185
  26 H :    0.296736
  27 H :    0.288650
  28 H :    0.287706
  29 H :    0.303387
  30 O :   -0.486786
  31 O :   -0.524858
  32 C :    0.627785
  33 C :   -0.744833
  34 H :    0.271749
  35 H :    0.271520
  36 H :    0.257648
  37 H :    0.288924
  38 H :    0.295253
Sum of atomic charges:    1.0000000

LOEWDIN ATOMIC CHARGES
----------------------
   0 Ir:   -0.237355
   1 C :   -0.050099
   2 C :   -0.078527
   3 C :   -0.075322
   4 C :   -0.043895
   5 C :   -0.016340
   6 N :   -0.009263
   7 C :   -0.069555
   8 C :   -0.362468
   9 H :    0.156200
  10 H :    0.132854
  11 H :    0.145101
  12 C :   -0.343843
  13 H :    0.155115
  14 H :    0.151702
  15 H :    0.137458
  16 H :    0.132465
  17 C :    0.033237
  18 C :   -0.190646
  19 H :    0.160326
  20 C :   -0.211748
  21 C :   -0.134720
  22 S :    0.480459
  23 C :   -0.260427
  24 H :    0.326468
  25 H :    0.161095
  26 H :    0.168053
  27 H :    0.183850
  28 H :    0.183030
  29 H :    0.191626
  30 O :   -0.269858
  31 O :   -0.193528
  32 C :    0.162915
  33 C :   -0.373241
  34 H :    0.162326
  35 H :    0.170301
  36 H :    0.154837
  37 H :    0.185001
  38 H :    0.186416

  Mayer bond orders larger than 0.100000
B(  0-Ir,  1-C ) :   0.4256 B(  0-Ir,  2-C ) :   0.4941 B(  0-Ir,  3-C ) :   0.4627
B(  0-Ir,  4-C ) :   0.4443 B(  0-Ir,  5-C ) :   0.3993 B(  0-Ir,  6-N ) :   0.4660
B(  0-Ir, 20-C ) :   0.3387 B(  0-Ir, 31-O ) :   0.5484 B(  1-C ,  2-C ) :   1.1217
B(  1-C ,  4-C ) :   1.2389 B(  1-C , 27-H ) :   0.9055 B(  2-C ,  5-C ) :   1.1564
B(  2-C , 28-H ) :   0.9090 B(  3-C ,  4-C ) :   1.1165 B(  3-C ,  5-C ) :   1.2130
B(  3-C , 37-H ) :   0.9087 B(  4-C , 38-H ) :   0.8998 B(  5-C , 29-H ) :   0.8987
B(  6-N ,  7-C ) :   0.8928 B(  6-N , 17-C ) :   1.6644 B(  7-C ,  8-C ) :   0.9908
B(  7-C , 12-C ) :   0.9676 B(  7-C , 13-H ) :   0.8763 B(  8-C ,  9-H ) :   0.9046
B(  8-C , 10-H ) :   0.9132 B(  8-C , 11-H ) :   0.9106 B( 12-C , 14-H ) :   0.9073
B( 12-C , 15-H ) :   0.9156 B( 12-C , 16-H ) :   0.9128 B( 17-C , 18-C ) :   1.0913
B( 17-C , 19-H ) :   0.8760 B( 18-C , 20-C ) :   1.2721 B( 18-C , 22-S ) :   1.2289
B( 20-C , 21-C ) :   1.2828 B( 20-C , 24-H ) :   0.3990 B( 21-C , 23-C ) :   1.5420
B( 21-C , 25-H ) :   0.9047 B( 22-S , 23-C ) :   1.2143 B( 23-C , 26-H ) :   0.8917
B( 24-H , 30-O ) :   0.2943 B( 30-O , 32-C ) :   1.6159 B( 31-O , 32-C ) :   1.3324
B( 32-C , 33-C ) :   0.9473 B( 33-C , 34-H ) :   0.9025 B( 33-C , 35-H ) :   0.8954
B( 33-C , 36-H ) :   0.9085

Dispersion correction           -0.030596054
FINAL SINGLE POINT ENERGY     -1288.399626874082

DIPOLE MOMENT
-------------
                                X             Y             Z
Electronic contribution:     37.04430     -71.12824      76.42944
Nuclear contribution   :    -37.66836      70.26646     -76.62219
                        -----------------------------------------
Total Dipole Moment    :     -0.62406      -0.86178      -0.19275
                        -----------------------------------------
Magnitude (a.u.)       :      1.08133
Magnitude (Debye)      :      2.74852

Rotational constants in cm-1:     0.010540     0.008873     0.008136
Rotational constants in MHz :   315.989309   266.020464   243.919226

                             ****ORCA TERMINATED NORMALLY****
TOTAL RUN TIME: 0 days 1 hours 53 minutes 13 seconds 899 msec
