                         Program Version 5.0.3 -  RELEASE  -
|  1> ! Opt PBEh-3c
|  2> %geom Constraints
|  3> { B 0 20 2.0 C }
|  4> { B 24 30 1.3 C }
|  5>     end
|  6> end
|  7> %output
|  8> xyzfile=True
|  9> end
| 10> %scf
| 11> maxiter 250
| 12> end
| 13> %output
| 14> Print[P_Hirshfeld] = 1
| 15> end
| 16> % maxcore
| 17> 4000
| 18> %pal nprocs 8
| 19> end
| 20> *xyz 1 1
| 21> Ir   0.61076186  -0.75100617   0.39903011
| 22> C    0.18656291  -2.86633549   0.33146652
| 23> C   -0.14417821  -2.43996808   1.66968199
| 24> C    2.10459141  -2.03744364   1.31551097
| 25> C    1.57598842  -2.65848272   0.14106333
| 26> C    1.02926282  -1.94388178   2.25732580
| 27> N   -1.08900542   0.09202334  -0.50291533
| 28> C   -2.36177645   0.24659304   0.21675201
| 29> C   -3.14479168   1.48944260  -0.18142104
| 30> H   -3.97874063   1.61597573   0.50712132
| 31> H   -3.57453083   1.41994500  -1.18164104
| 32> H   -2.53295452   2.38999423  -0.12484872
| 33> C   -3.19463067  -1.01884095   0.04516589
| 34> H   -2.08439978   0.34611482   1.26737766
| 35> H   -4.09381241  -0.96013479   0.65727425
| 36> H   -3.50502563  -1.14567725  -0.99275886
| 37> H   -2.64842512  -1.91195969   0.34493536
| 38> C   -0.94506408   0.49664698  -1.71256575
| 39> C    0.36724329   0.33459928  -2.25422127
| 40> H   -1.75671089   0.95354849  -2.26919113
| 41> C    1.37058048  -0.04582538  -1.36127126
| 42> C    2.59675334  -0.22930378  -2.07424240
| 43> S    0.89964313   0.48852774  -3.86033811
| 44> C    2.48345019   0.03047145  -3.40870681
| 45> H    1.66747253   1.20942858  -0.72297797
| 46> H    3.53612790  -0.49203229  -1.60924840
| 47> H    3.26272444  -0.00931656  -4.15467176
| 48> H   -0.48156216  -3.33796106  -0.37404217
| 49> H   -1.11153704  -2.50549794   2.14351394
| 50> H    1.09782393  -1.49575570   3.23831794
| 51> O    1.79624823   2.30812910  -0.01331545
| 52> O    0.63392164   1.06554463   1.42497707
| 53> C    1.20766485   2.13325690   1.08687239
| 54> C    1.21849701   3.26909393   2.06381900
| 55> H    1.09600405   4.22072416   1.55153042
| 56> H    2.18802137   3.29496390   2.56443880
| 57> H    0.44747177   3.14800019   2.81901406
| 58> H    3.13867165  -1.79477039   1.50510696
| 59> H    2.13102844  -2.90964042  -0.75117826
| 60> *
| 61>
| 62>                          ****END OF INPUT****
 Total Charge           Charge          ....    1
 Multiplicity           Mult            ....    1
 Number of Electrons    NEL             ....  164
Dispersion correction           -0.030749884
FINAL SINGLE POINT ENERGY     -1288.405413571685
Dispersion correction            ... done
Dispersion correction           -0.030812253
FINAL SINGLE POINT ENERGY     -1288.405390540696
Dispersion correction            ... done
Dispersion correction           -0.030780844
FINAL SINGLE POINT ENERGY     -1288.405217774301
Dispersion correction            ... done
FINAL SINGLE POINT ENERGY     -1288.404750743325
FINAL SINGLE POINT ENERGY     -1288.405652706101
FINAL SINGLE POINT ENERGY     -1288.405783729212
FINAL SINGLE POINT ENERGY     -1288.405802335699
FINAL SINGLE POINT ENERGY     -1288.405793114813
FINAL SINGLE POINT ENERGY     -1288.405806443645
FINAL SINGLE POINT ENERGY     -1288.405808347921
FINAL SINGLE POINT ENERGY     -1288.405805027025
FINAL SINGLE POINT ENERGY     -1288.405799794808
FINAL SINGLE POINT ENERGY     -1288.405794563884
FINAL SINGLE POINT ENERGY     -1288.405792173025
FINAL SINGLE POINT ENERGY     -1288.405792094673
FINAL SINGLE POINT ENERGY     -1288.405794065421
FINAL SINGLE POINT ENERGY     -1288.405797506659
Dispersion correction            ... done
Dispersion correction           -0.030722515
FINAL SINGLE POINT ENERGY     -1288.405802312333
Dispersion correction            ... done
Dispersion correction           -0.030721240
FINAL SINGLE POINT ENERGY     -1288.405806692940
Dispersion correction            ... done
                    ***********************HURRAY********************

CARTESIAN COORDINATES (ANGSTROEM)
---------------------------------
  Ir     0.602022   -0.751733    0.379880
  C      0.211539   -2.870550    0.330720
  C     -0.170995   -2.453426    1.659711
  C      2.077084   -2.004675    1.378692
  C      1.607283   -2.645913    0.194598
  C      0.964602   -1.931450    2.285358
  N     -1.108502    0.082612   -0.503153
  C     -2.382447    0.209780    0.219119
  C     -3.166818    1.463718   -0.139101
  H     -4.003170    1.566128    0.550619
  H     -3.593555    1.426869   -1.142354
  H     -2.556090    2.362382   -0.050909
  C     -3.212604   -1.050944    0.005151
  H     -2.107128    0.275294    1.273040
  H     -4.107874   -1.018569    0.624950
  H     -3.529890   -1.138522   -1.034737
  H     -2.661460   -1.953592    0.265156
  C     -0.965685    0.515787   -1.703586
  C      0.345993    0.360357   -2.245136
  H     -1.777573    0.984087   -2.250120
  C      1.330214   -0.087948   -1.360558
  C      2.562825   -0.250680   -2.069745
  S      0.901331    0.591534   -3.836136
  C      2.469566    0.084077   -3.390551
  H      1.712796    1.241023   -0.777558
  H      3.492336   -0.556864   -1.611439
  H      3.258293    0.069752   -4.127433
  H     -0.420180   -3.365817   -0.391796
  H     -1.155654   -2.529812    2.094859
  H      0.990329   -1.481379    3.267287
  O      1.868113    2.311353   -0.056260
  O      0.655632    1.093123    1.365588
  C      1.262188    2.142025    1.040799
  C      1.302311    3.274838    2.019607
  H      1.200258    4.230664    1.510536
  H      2.273533    3.277054    2.517683
  H      0.530331    3.168934    2.775978
  H      3.099373   -1.743533    1.604485
  H      2.201044   -2.896792   -0.672503

 Multiplicity           Mult            ....    1
 Number of Electrons    NEL             ....  164
 Basis Dimension        Dim             ....  358

ORBITAL ENERGIES
----------------

  NO   OCC          E(Eh)            E(eV)
   0   2.0000     -89.760033     -2442.4947
   1   2.0000     -19.652177      -534.7629
   2   2.0000     -19.646434      -534.6066
   3   2.0000     -14.827135      -403.4669
   4   2.0000     -10.713143      -291.5194
   5   2.0000     -10.649784      -289.7954
   6   2.0000     -10.619022      -288.9583
   7   2.0000     -10.617711      -288.9226
   8   2.0000     -10.616490      -288.8894
   9   2.0000     -10.613678      -288.8129
  10   2.0000     -10.610561      -288.7280
  11   2.0000     -10.609912      -288.7104
  12   2.0000     -10.609179      -288.6904
  13   2.0000     -10.604891      -288.5738
  14   2.0000     -10.593423      -288.2617
  15   2.0000     -10.588488      -288.1274
  16   2.0000     -10.554037      -287.1899
  17   2.0000     -10.550363      -287.0900
  18   2.0000     -10.548963      -287.0519
  19   2.0000      -8.399366      -228.5584
  20   2.0000      -6.289257      -171.1394
  21   2.0000      -6.285815      -171.0457
  22   2.0000      -6.284241      -171.0029
  23   2.0000      -4.014025      -109.2272
  24   2.0000      -2.330036       -63.4035
  25   2.0000      -2.301987       -62.6402
  26   2.0000      -2.297368       -62.5146
  27   2.0000      -1.342377       -36.5279
  28   2.0000      -1.245135       -33.8818
  29   2.0000      -1.202105       -32.7109
  30   2.0000      -1.152337       -31.3567
  31   2.0000      -1.125279       -30.6204
  32   2.0000      -1.021894       -27.8071
  33   2.0000      -0.968056       -26.3421
  34   2.0000      -0.966413       -26.2974
  35   2.0000      -0.958629       -26.0856
  36   2.0000      -0.954760       -25.9804
  37   2.0000      -0.950117       -25.8540
  38   2.0000      -0.897677       -24.4270
  39   2.0000      -0.868611       -23.6361
  40   2.0000      -0.795037       -21.6340
  41   2.0000      -0.780319       -21.2336
  42   2.0000      -0.775161       -21.0932
  43   2.0000      -0.769885       -20.9496
  44   2.0000      -0.767882       -20.8951
  45   2.0000      -0.754327       -20.5263
  46   2.0000      -0.740478       -20.1494
  47   2.0000      -0.721933       -19.6448
  48   2.0000      -0.705237       -19.1905
  49   2.0000      -0.682434       -18.5700
  50   2.0000      -0.672662       -18.3041
  51   2.0000      -0.665120       -18.0988
  52   2.0000      -0.654383       -17.8067
  53   2.0000      -0.636682       -17.3250
  54   2.0000      -0.627514       -17.0755
  55   2.0000      -0.620663       -16.8891
  56   2.0000      -0.617235       -16.7958
  57   2.0000      -0.608889       -16.5687
  58   2.0000      -0.598699       -16.2914
  59   2.0000      -0.592826       -16.1316
  60   2.0000      -0.589863       -16.0510
  61   2.0000      -0.587916       -15.9980
  62   2.0000      -0.578652       -15.7459
  63   2.0000      -0.576771       -15.6947
  64   2.0000      -0.562280       -15.3004
  65   2.0000      -0.561414       -15.2769
  66   2.0000      -0.559619       -15.2280
  67   2.0000      -0.544516       -14.8170
  68   2.0000      -0.542175       -14.7533
  69   2.0000      -0.536884       -14.6094
  70   2.0000      -0.529723       -14.4145
  71   2.0000      -0.519170       -14.1273
  72   2.0000      -0.513426       -13.9710
  73   2.0000      -0.507496       -13.8097
  74   2.0000      -0.505225       -13.7479
  75   2.0000      -0.490230       -13.3398
  76   2.0000      -0.472359       -12.8535
  77   2.0000      -0.454590       -12.3700
  78   2.0000      -0.441218       -12.0061
  79   2.0000      -0.415690       -11.3115
  80   2.0000      -0.411882       -11.2079
  81   2.0000      -0.389225       -10.5913
  82   0.0000      -0.195131        -5.3098
  83   0.0000      -0.143424        -3.9028
  84   0.0000      -0.113648        -3.0925
  85   0.0000      -0.085425        -2.3245
  86   0.0000      -0.080613        -2.1936

MULLIKEN ATOMIC CHARGES
-----------------------
   0 Ir:    0.606913
   1 C :   -0.284899
   2 C :   -0.234978
   3 C :   -0.286310
   4 C :   -0.205940
   5 C :   -0.153866
   6 N :   -0.442122
   7 C :   -0.125456
   8 C :   -0.674696
   9 H :    0.266988
  10 H :    0.224103
  11 H :    0.250325
  12 C :   -0.631092
  13 H :    0.270488
  14 H :    0.255111
  15 H :    0.233500
  16 H :    0.234842
  17 C :    0.074755
  18 C :   -0.141883
  19 H :    0.281995
  20 C :   -0.532707
  21 C :   -0.114661
  22 S :    0.341232
  23 C :   -0.416390
  24 H :    0.479839
  25 H :    0.265760
  26 H :    0.297805
  27 H :    0.281944
  28 H :    0.277019
  29 H :    0.289257
  30 O :   -0.492426
  31 O :   -0.482019
  32 C :    0.639020
  33 C :   -0.743540
  34 H :    0.277191
  35 H :    0.280041
  36 H :    0.268255
  37 H :    0.277098
  38 H :    0.289502
Sum of atomic charges:    1.0000000

LOEWDIN ATOMIC CHARGES
----------------------
   0 Ir:   -0.268097
   1 C :   -0.075845
   2 C :   -0.093654
   3 C :   -0.107702
   4 C :   -0.035120
   5 C :   -0.032855
   6 N :   -0.009830
   7 C :   -0.068808
   8 C :   -0.360870
   9 H :    0.155108
  10 H :    0.132559
  11 H :    0.141755
  12 C :   -0.344669
  13 H :    0.150314
  14 H :    0.149140
  15 H :    0.138463
  16 H :    0.133732
  17 C :    0.029825
  18 C :   -0.214418
  19 H :    0.158817
  20 C :   -0.194415
  21 C :   -0.145558
  22 S :    0.491809
  23 C :   -0.253132
  24 H :    0.389944
  25 H :    0.161478
  26 H :    0.169534
  27 H :    0.180569
  28 H :    0.175936
  29 H :    0.182685
  30 O :   -0.248150
  31 O :   -0.157623
  32 C :    0.175659
  33 C :   -0.370134
  34 H :    0.167266
  35 H :    0.174958
  36 H :    0.159610
  37 H :    0.178997
  38 H :    0.182719

  Mayer bond orders larger than 0.100000
B(  0-Ir,  1-C ) :   0.4920 B(  0-Ir,  2-C ) :   0.3267 B(  0-Ir,  3-C ) :   0.4821
B(  0-Ir,  4-C ) :   0.4072 B(  0-Ir,  5-C ) :   0.3162 B(  0-Ir,  6-N ) :   0.4686
B(  0-Ir, 20-C ) :   0.6346 B(  0-Ir, 31-O ) :   0.4764 B(  1-C ,  2-C ) :   1.1182
B(  1-C ,  4-C ) :   1.1964 B(  1-C , 27-H ) :   0.9121 B(  2-C ,  5-C ) :   1.3045
B(  2-C , 28-H ) :   0.9097 B(  3-C ,  4-C ) :   1.1741 B(  3-C ,  5-C ) :   1.1291
B(  3-C , 37-H ) :   0.9157 B(  4-C , 38-H ) :   0.9007 B(  5-C , 29-H ) :   0.9049
B(  6-N ,  7-C ) :   0.8978 B(  6-N , 17-C ) :   1.6312 B(  7-C ,  8-C ) :   0.9896
B(  7-C , 12-C ) :   0.9685 B(  7-C , 13-H ) :   0.8821 B(  8-C ,  9-H ) :   0.9057
B(  8-C , 10-H ) :   0.9134 B(  8-C , 11-H ) :   0.9141 B( 12-C , 14-H ) :   0.9084
B( 12-C , 15-H ) :   0.9150 B( 12-C , 16-H ) :   0.9125 B( 17-C , 18-C ) :   1.1339
B( 17-C , 19-H ) :   0.8772 B( 18-C , 20-C ) :   1.2352 B( 18-C , 22-S ) :   1.2086
B( 20-C , 21-C ) :   1.2612 B( 20-C , 24-H ) :   0.2196 B( 21-C , 23-C ) :   1.5112
B( 21-C , 25-H ) :   0.9030 B( 22-S , 23-C ) :   1.2409 B( 23-C , 26-H ) :   0.8920
B( 24-H , 30-O ) :   0.4508 B( 30-O , 32-C ) :   1.4613 B( 31-O , 32-C ) :   1.4638
B( 32-C , 33-C ) :   0.9456 B( 33-C , 34-H ) :   0.8969 B( 33-C , 35-H ) :   0.8897
B( 33-C , 36-H ) :   0.9063

Dispersion correction           -0.030721477
FINAL SINGLE POINT ENERGY     -1288.405810138369

DIPOLE MOMENT
-------------
                                X             Y             Z
Electronic contribution:     36.44889     -77.41073      67.21829
Nuclear contribution   :    -36.92762      77.41343     -67.26726
                        -----------------------------------------
Total Dipole Moment    :     -0.47873       0.00271      -0.04896
                        -----------------------------------------
Magnitude (a.u.)       :      0.48124
Magnitude (Debye)      :      1.22321

Rotational constants in cm-1:     0.010638     0.008737     0.008240
Rotational constants in MHz :   318.918222   261.923158   247.019154

                             ****ORCA TERMINATED NORMALLY****
TOTAL RUN TIME: 0 days 0 hours 22 minutes 44 seconds 707 msec
