                         Program Version 5.0.3 -  RELEASE  -
|  1> ! Opt PBEh-3c
|  2> %geom Constraints
|  3> { B 0 20 2.085714285714286 C }
|  4> { B 24 30 1.4 C }
|  5>     end
|  6> end
|  7> %output
|  8> xyzfile=True
|  9> end
| 10> %scf
| 11> maxiter 250
| 12> end
| 13> %output
| 14> Print[P_Hirshfeld] = 1
| 15> end
| 16> % maxcore
| 17> 4000
| 18> *xyz 1 1
| 19> Ir   0.61697802  -0.72423682   0.41980730
| 20> C    0.14071450  -2.84087982   0.33583754
| 21> C   -0.05791238  -2.38423249   1.68681285
| 22> C    2.16634059  -2.06780464   1.13506894
| 23> C    1.50019630  -2.65600596   0.00413984
| 24> C    1.19763278  -1.93239458   2.16464480
| 25> N   -1.06623072   0.12475872  -0.51255335
| 26> C   -2.33680414   0.33300190   0.19816840
| 27> C   -3.13360331   1.52748983  -0.30667332
| 28> H   -3.96238377   1.71086018   0.37533273
| 29> H   -3.57241680   1.35913879  -1.29109720
| 30> H   -2.53082050   2.43527378  -0.34065442
| 31> C   -3.16033043  -0.94923292   0.14371365
| 32> H   -2.05324827   0.52595351   1.23383293
| 33> H   -4.06514281  -0.83438245   0.73915657
| 34> H   -3.46108871  -1.17987568  -0.87907477
| 35> H   -2.61410731  -1.80412887   0.53885669
| 36> C   -0.91489909   0.46564678  -1.73916308
| 37> C    0.40401593   0.28657714  -2.26842680
| 38> H   -1.72332790   0.89045308  -2.32546732
| 39> C    1.44844951   0.09049880  -1.36223572
| 40> C    2.65964160  -0.17134677  -2.07637530
| 41> S    0.88202001   0.17594495  -3.89084449
| 42> C    2.49954327  -0.15057767  -3.42776930
| 43> H    1.62041410   1.12810027  -0.63326060
| 44> H    3.62129347  -0.30721018  -1.60298104
| 45> H    3.25547018  -0.28811433  -4.18591962
| 46> H   -0.61163028  -3.27104226  -0.30906110
| 47> H   -0.97269709  -2.43303314   2.25750254
| 48> H    1.37437225  -1.48764620   3.13385213
| 49> O    1.72093645   2.31237392   0.13328702
| 50> O    0.56007334   1.01962748   1.52387586
| 51> C    1.12128712   2.11859354   1.20452825
| 52> C    1.06129380   3.22385039   2.21852472
| 53> H    0.95869772   4.18824824   1.72646186
| 54> H    2.00001181   3.24344787   2.77479316
| 55> H    0.25078701   3.07673468   2.92692198
| 56> H    3.21844160  -1.84311187   1.21765134
| 57> H    1.95740218  -2.91212719  -0.94047351
| 58> *
| 59>
| 60>                          ****END OF INPUT****
 Total Charge           Charge          ....    1
 Multiplicity           Mult            ....    1
 Number of Electrons    NEL             ....  164
Dispersion correction           -0.030852434
FINAL SINGLE POINT ENERGY     -1288.400106204824
Dispersion correction            ... done
Dispersion correction           -0.030806306
FINAL SINGLE POINT ENERGY     -1288.400106057324
Dispersion correction            ... done
Dispersion correction           -0.030814642
FINAL SINGLE POINT ENERGY     -1288.399145696355
Dispersion correction            ... done
FINAL SINGLE POINT ENERGY     -1288.400428196462
FINAL SINGLE POINT ENERGY     -1288.400462023217
FINAL SINGLE POINT ENERGY     -1288.400495180280
FINAL SINGLE POINT ENERGY     -1288.400540933800
FINAL SINGLE POINT ENERGY     -1288.400544361127
FINAL SINGLE POINT ENERGY     -1288.400546009877
FINAL SINGLE POINT ENERGY     -1288.400546837072
FINAL SINGLE POINT ENERGY     -1288.400547838509
FINAL SINGLE POINT ENERGY     -1288.400549274630
FINAL SINGLE POINT ENERGY     -1288.400551220941
Dispersion correction            ... done
Dispersion correction           -0.030749838
FINAL SINGLE POINT ENERGY     -1288.400553379093
Dispersion correction            ... done
Dispersion correction           -0.030749690
FINAL SINGLE POINT ENERGY     -1288.400556289251
Dispersion correction            ... done
                    ***********************HURRAY********************

CARTESIAN COORDINATES (ANGSTROEM)
---------------------------------
  Ir     0.617998   -0.730505    0.408828
  C      0.154020   -2.848921    0.330201
  C     -0.077346   -2.401975    1.679817
  C      2.154793   -2.061366    1.175956
  C      1.522260   -2.658285    0.033166
  C      1.157868   -1.937615    2.184779
  N     -1.071766    0.118430   -0.511360
  C     -2.340681    0.314745    0.204873
  C     -3.136073    1.520667   -0.274292
  H     -3.965031    1.690017    0.411040
  H     -3.574117    1.374734   -1.262619
  H     -2.531970    2.428139   -0.288014
  C     -3.166050   -0.965018    0.125744
  H     -2.055712    0.486716    1.243938
  H     -4.068600   -0.862626    0.726896
  H     -3.470491   -1.172944   -0.900808
  H     -2.618867   -1.828988    0.499234
  C     -0.923567    0.478168   -1.733471
  C      0.393370    0.300017   -2.264862
  H     -1.731644    0.915739   -2.310480
  C      1.421745    0.046267   -1.352087
  C      2.639697   -0.195973   -2.065066
  S      0.892434    0.268453   -3.883719
  C      2.498579   -0.103053   -3.415462
  H      1.620988    1.136617   -0.662277
  H      3.593252   -0.370242   -1.587682
  H      3.263714   -0.212141   -4.169018
  H     -0.577790   -3.289798   -0.330795
  H     -1.005746   -2.455780    2.227416
  H      1.307462   -1.491360    3.157818
  O      1.729252    2.313726    0.087852
  O      0.580879    1.029564    1.497084
  C      1.138984    2.123322    1.168731
  C      1.095590    3.236721    2.174070
  H      0.981730    4.197280    1.676934
  H      2.044338    3.262730    2.712802
  H      0.298115    3.092507    2.897515
  H      3.203728   -1.834451    1.287298
  H      2.004026   -2.914328   -0.899241

 Multiplicity           Mult            ....    1
 Number of Electrons    NEL             ....  164
 Basis Dimension        Dim             ....  358

ORBITAL ENERGIES
----------------

  NO   OCC          E(Eh)            E(eV)
   0   2.0000     -89.765885     -2442.6539
   1   2.0000     -19.634032      -534.2692
   2   2.0000     -19.620588      -533.9033
   3   2.0000     -14.834768      -403.6746
   4   2.0000     -10.695592      -291.0419
   5   2.0000     -10.654997      -289.9372
   6   2.0000     -10.627346      -289.1848
   7   2.0000     -10.624531      -289.1082
   8   2.0000     -10.622898      -289.0637
   9   2.0000     -10.621773      -289.0331
  10   2.0000     -10.614211      -288.8274
  11   2.0000     -10.612918      -288.7922
  12   2.0000     -10.611288      -288.7478
  13   2.0000     -10.611218      -288.7459
  14   2.0000     -10.590735      -288.1886
  15   2.0000     -10.590076      -288.1706
  16   2.0000     -10.553353      -287.1713
  17   2.0000     -10.550672      -287.0984
  18   2.0000     -10.543827      -286.9121
  19   2.0000      -8.405241      -228.7182
  20   2.0000      -6.295106      -171.2985
  21   2.0000      -6.291551      -171.2018
  22   2.0000      -6.290245      -171.1663
  23   2.0000      -4.019869      -109.3862
  24   2.0000      -2.336827       -63.5883
  25   2.0000      -2.306363       -62.7593
  26   2.0000      -2.303024       -62.6685
  27   2.0000      -1.323415       -36.0120
  28   2.0000      -1.224942       -33.3324
  29   2.0000      -1.207714       -32.8636
  30   2.0000      -1.159321       -31.5467
  31   2.0000      -1.129032       -30.7225
  32   2.0000      -1.025046       -27.8929
  33   2.0000      -0.972181       -26.4544
  34   2.0000      -0.971036       -26.4232
  35   2.0000      -0.965565       -26.2744
  36   2.0000      -0.959473       -26.1086
  37   2.0000      -0.938520       -25.5384
  38   2.0000      -0.900330       -24.4992
  39   2.0000      -0.872870       -23.7520
  40   2.0000      -0.798951       -21.7406
  41   2.0000      -0.782975       -21.3058
  42   2.0000      -0.775868       -21.1124
  43   2.0000      -0.775179       -21.0937
  44   2.0000      -0.760897       -20.7051
  45   2.0000      -0.758988       -20.6531
  46   2.0000      -0.743053       -20.2195
  47   2.0000      -0.721782       -19.6407
  48   2.0000      -0.693722       -18.8771
  49   2.0000      -0.684786       -18.6340
  50   2.0000      -0.663790       -18.0626
  51   2.0000      -0.658809       -17.9271
  52   2.0000      -0.647805       -17.6277
  53   2.0000      -0.637647       -17.3512
  54   2.0000      -0.630562       -17.1585
  55   2.0000      -0.626485       -17.0475
  56   2.0000      -0.621671       -16.9165
  57   2.0000      -0.611564       -16.6415
  58   2.0000      -0.600967       -16.3531
  59   2.0000      -0.596459       -16.2305
  60   2.0000      -0.595351       -16.2003
  61   2.0000      -0.591505       -16.0957
  62   2.0000      -0.579726       -15.7752
  63   2.0000      -0.568101       -15.4588
  64   2.0000      -0.566454       -15.4140
  65   2.0000      -0.562437       -15.3047
  66   2.0000      -0.554369       -15.0851
  67   2.0000      -0.546560       -14.8727
  68   2.0000      -0.542241       -14.7551
  69   2.0000      -0.535453       -14.5704
  70   2.0000      -0.530080       -14.4242
  71   2.0000      -0.518258       -14.1025
  72   2.0000      -0.512945       -13.9579
  73   2.0000      -0.499980       -13.6051
  74   2.0000      -0.494264       -13.4496
  75   2.0000      -0.488612       -13.2958
  76   2.0000      -0.476973       -12.9791
  77   2.0000      -0.450738       -12.2652
  78   2.0000      -0.443377       -12.0649
  79   2.0000      -0.419317       -11.4102
  80   2.0000      -0.414592       -11.2816
  81   2.0000      -0.393628       -10.7112
  82   0.0000      -0.206174        -5.6103
  83   0.0000      -0.143337        -3.9004
  84   0.0000      -0.128959        -3.5091
  85   0.0000      -0.087484        -2.3806
  86   0.0000      -0.075165        -2.0454

MULLIKEN ATOMIC CHARGES
-----------------------
   0 Ir:    0.609685
   1 C :   -0.246855
   2 C :   -0.256386
   3 C :   -0.273945
   4 C :   -0.222657
   5 C :   -0.151725
   6 N :   -0.431779
   7 C :   -0.126654
   8 C :   -0.681626
   9 H :    0.269489
  10 H :    0.224251
  11 H :    0.253980
  12 C :   -0.633539
  13 H :    0.279800
  14 H :    0.258853
  15 H :    0.232596
  16 H :    0.234049
  17 C :    0.069325
  18 C :   -0.119075
  19 H :    0.285691
  20 C :   -0.578338
  21 C :   -0.093578
  22 S :    0.345050
  23 C :   -0.427524
  24 H :    0.471466
  25 H :    0.268296
  26 H :    0.298536
  27 H :    0.284451
  28 H :    0.281068
  29 H :    0.297259
  30 O :   -0.476517
  31 O :   -0.510336
  32 C :    0.629745
  33 C :   -0.743771
  34 H :    0.272304
  35 H :    0.274829
  36 H :    0.260495
  37 H :    0.281082
  38 H :    0.292003
Sum of atomic charges:    1.0000000

LOEWDIN ATOMIC CHARGES
----------------------
   0 Ir:   -0.259709
   1 C :   -0.060232
   2 C :   -0.097610
   3 C :   -0.098072
   4 C :   -0.041531
   5 C :   -0.017411
   6 N :   -0.001052
   7 C :   -0.069531
   8 C :   -0.362181
   9 H :    0.156292
  10 H :    0.132767
  11 H :    0.143476
  12 C :   -0.343686
  13 H :    0.154971
  14 H :    0.150765
  15 H :    0.137968
  16 H :    0.133469
  17 C :    0.027743
  18 C :   -0.185602
  19 H :    0.160628
  20 C :   -0.220400
  21 C :   -0.124097
  22 S :    0.501058
  23 C :   -0.257996
  24 H :    0.357170
  25 H :    0.162919
  26 H :    0.169668
  27 H :    0.181646
  28 H :    0.178932
  29 H :    0.187701
  30 O :   -0.261189
  31 O :   -0.183371
  32 C :    0.162299
  33 C :   -0.372052
  34 H :    0.164040
  35 H :    0.171765
  36 H :    0.155360
  37 H :    0.181259
  38 H :    0.183825

  Mayer bond orders larger than 0.100000
B(  0-Ir,  1-C ) :   0.4462 B(  0-Ir,  2-C ) :   0.3961 B(  0-Ir,  3-C ) :   0.4696
B(  0-Ir,  4-C ) :   0.4224 B(  0-Ir,  5-C ) :   0.3643 B(  0-Ir,  6-N ) :   0.4638
B(  0-Ir, 20-C ) :   0.5050 B(  0-Ir, 31-O ) :   0.5233 B(  1-C ,  2-C ) :   1.1263
B(  1-C ,  4-C ) :   1.2243 B(  1-C , 27-H ) :   0.9088 B(  2-C ,  5-C ) :   1.2226
B(  2-C , 28-H ) :   0.9102 B(  3-C ,  4-C ) :   1.1404 B(  3-C ,  5-C ) :   1.1706
B(  3-C , 37-H ) :   0.9138 B(  4-C , 38-H ) :   0.8995 B(  5-C , 29-H ) :   0.9015
B(  6-N ,  7-C ) :   0.8960 B(  6-N , 17-C ) :   1.6478 B(  7-C ,  8-C ) :   0.9903
B(  7-C , 12-C ) :   0.9664 B(  7-C , 13-H ) :   0.8763 B(  8-C ,  9-H ) :   0.9047
B(  8-C , 10-H ) :   0.9131 B(  8-C , 11-H ) :   0.9120 B( 12-C , 14-H ) :   0.9077
B( 12-C , 15-H ) :   0.9152 B( 12-C , 16-H ) :   0.9117 B( 17-C , 18-C ) :   1.1125
B( 17-C , 19-H ) :   0.8764 B( 18-C , 20-C ) :   1.2165 B( 18-C , 22-S ) :   1.2485
B( 20-C , 21-C ) :   1.2563 B( 20-C , 24-H ) :   0.3541 B( 21-C , 23-C ) :   1.5472
B( 21-C , 25-H ) :   0.9016 B( 22-S , 23-C ) :   1.2139 B( 23-C , 26-H ) :   0.8913
B( 24-H , 30-O ) :   0.3370 B( 30-O , 32-C ) :   1.5787 B( 31-O , 32-C ) :   1.3713
B( 32-C , 33-C ) :   0.9438 B( 33-C , 34-H ) :   0.9006 B( 33-C , 35-H ) :   0.8938
B( 33-C , 36-H ) :   0.9082

Dispersion correction           -0.030751066
FINAL SINGLE POINT ENERGY     -1288.400557948855

DIPOLE MOMENT
-------------
                                X             Y             Z
Electronic contribution:     37.88500     -73.45070      69.77893
Nuclear contribution   :    -38.50278      72.95865     -70.09681
                        -----------------------------------------
Total Dipole Moment    :     -0.61778      -0.49205      -0.31788
                        -----------------------------------------
Magnitude (a.u.)       :      0.85135
Magnitude (Debye)      :      2.16397

Rotational constants in cm-1:     0.010534     0.008932     0.008241
Rotational constants in MHz :   315.813787   267.763126   247.068255

                             ****ORCA TERMINATED NORMALLY****
TOTAL RUN TIME: 0 days 2 hours 0 minutes 36 seconds 57 msec
