                         Program Version 5.0.3 -  RELEASE  -
|  1> ! Opt PBEh-3c
|  2> %geom Constraints
|  3> { B 0 20 2.5142857142857142 C }
|  4> { B 24 30 1.4142857142857144 C }
|  5>     end
|  6> end
|  7> %output
|  8> xyzfile=True
|  9> end
| 10> %scf
| 11> maxiter 250
| 12> end
| 13> %output
| 14> Print[P_Hirshfeld] = 1
| 15> end
| 16> % maxcore
| 17> 4000
| 18> *xyz 1 1
| 19> Ir   0.57688575  -0.73057912   0.47264966
| 20> C    0.02050083  -2.80921611   0.34598992
| 21> C    0.10991737  -2.36596546   1.71684624
| 22> C    2.18984083  -2.14538366   0.75699034
| 23> C    1.28215664  -2.64487713  -0.25167781
| 24> C    1.48013299  -2.01402687   1.96260499
| 25> N   -1.04339377   0.17279733  -0.51537721
| 26> C   -2.31649066   0.51022738   0.14064790
| 27> C   -3.13660014   1.54211019  -0.61625616
| 28> H   -3.97094675   1.85533383   0.00973949
| 29> H   -3.57001529   1.14848449  -1.53714154
| 30> H   -2.55711234   2.43520912  -0.85239265
| 31> C   -3.11421801  -0.76251368   0.39621675
| 32> H   -2.02612997   0.93783706   1.10189520
| 33> H   -4.02988608  -0.51723277   0.93204573
| 34> H   -3.39627533  -1.24825169  -0.53890772
| 35> H   -2.56479219  -1.47630551   1.00839321
| 36> C   -0.82957923   0.37859272  -1.75675283
| 37> C    0.52412569   0.15393429  -2.22026534
| 38> H   -1.60414363   0.73983594  -2.42738078
| 39> C    1.63202491   0.54303071  -1.47762697
| 40> C    2.83223020   0.12452787  -2.12108450
| 41> S    0.94075100  -0.64954119  -3.67076252
| 42> C    2.61215866  -0.51953034  -3.29797139
| 43> H    1.54564523   1.40755180  -0.67593581
| 44> H    3.82129887   0.34356019  -1.74571225
| 45> H    3.34514244  -0.90947751  -3.98800280
| 46> H   -0.87276332  -3.16581638  -0.14644416
| 47> H   -0.67566308  -2.40242998   2.45742058
| 48> H    1.87305896  -1.62936665   2.89276723
| 49> O    1.30478499   2.44866866   0.27215615
| 50> O    0.53628938   0.89885935   1.68148549
| 51> C    0.90611573   2.10059239   1.38023416
| 52> C    0.84708054   3.07370813   2.52418184
| 53> H    0.80444943   4.09540778   2.15679409
| 54> H    1.75254079   2.97234423   3.12571252
| 55> H    0.00131373   2.87714848   3.17983912
| 56> H    3.23350512  -1.91224811   0.60600648
| 57> H    1.53542969  -2.85780974  -1.28018454
| 58> *
| 59>
| 60>                          ****END OF INPUT****
 Total Charge           Charge          ....    1
 Multiplicity           Mult            ....    1
 Number of Electrons    NEL             ....  164
Dispersion correction           -0.030978026
FINAL SINGLE POINT ENERGY     -1288.396297445174
Dispersion correction            ... done
Dispersion correction           -0.031006548
FINAL SINGLE POINT ENERGY     -1288.394866870579
Dispersion correction            ... done
Dispersion correction           -0.030951769
FINAL SINGLE POINT ENERGY     -1288.396355400960
Dispersion correction            ... done
FINAL SINGLE POINT ENERGY     -1288.394600942103
FINAL SINGLE POINT ENERGY     -1288.396450715556
FINAL SINGLE POINT ENERGY     -1288.396472710875
FINAL SINGLE POINT ENERGY     -1288.396487744371
FINAL SINGLE POINT ENERGY     -1288.396497433639
FINAL SINGLE POINT ENERGY     -1288.396506576287
Dispersion correction            ... done
Dispersion correction           -0.030861338
FINAL SINGLE POINT ENERGY     -1288.396517896972
Dispersion correction            ... done
Dispersion correction           -0.030859162
FINAL SINGLE POINT ENERGY     -1288.396520177052
Dispersion correction            ... done
                    ***********************HURRAY********************

CARTESIAN COORDINATES (ANGSTROEM)
---------------------------------
  Ir     0.581781   -0.727727    0.474669
  C      0.026227   -2.807460    0.354321
  C      0.103600   -2.362036    1.724338
  C      2.192111   -2.141567    0.780315
  C      1.292958   -2.644683   -0.234077
  C      1.470632   -2.006106    1.979106
  N     -1.043156    0.164012   -0.515407
  C     -2.317476    0.490990    0.144172
  C     -3.127456    1.549185   -0.587478
  H     -3.958933    1.855372    0.045867
  H     -3.564931    1.183646   -1.517935
  H     -2.538209    2.441411   -0.801517
  C     -3.123902   -0.783550    0.361021
  H     -2.029697    0.890615    1.118071
  H     -4.040818   -0.547989    0.899148
  H     -3.403769   -1.242003   -0.588394
  H     -2.580887   -1.517010    0.955396
  C     -0.838972    0.370954   -1.759046
  C      0.511388    0.158480   -2.231054
  H     -1.621859    0.725307   -2.423616
  C      1.614797    0.502855   -1.459285
  C      2.817867    0.101430   -2.107303
  S      0.935897   -0.586618   -3.708003
  C      2.603949   -0.489180   -3.313530
  H      1.535818    1.383094   -0.656392
  H      3.805178    0.294932   -1.713692
  H      3.340053   -0.855193   -4.013301
  H     -0.862315   -3.165931   -0.145284
  H     -0.688261   -2.396895    2.458132
  H      1.855498   -1.617889    2.911168
  O      1.326398    2.441124    0.258441
  O      0.535729    0.911117    1.676235
  C      0.917982    2.104952    1.368731
  C      0.864376    3.090878    2.501352
  H      0.821303    4.108633    2.123243
  H      1.772754    2.995180    3.099454
  H      0.021363    2.901639    3.162527
  H      3.237879   -1.911795    0.639651
  H      1.554473   -2.862983   -1.259300

 Multiplicity           Mult            ....    1
 Number of Electrons    NEL             ....  164
 Basis Dimension        Dim             ....  358

ORBITAL ENERGIES
----------------

  NO   OCC          E(Eh)            E(eV)
   0   2.0000     -89.760464     -2442.5064
   1   2.0000     -19.623780      -533.9902
   2   2.0000     -19.587454      -533.0017
   3   2.0000     -14.840777      -403.8381
   4   2.0000     -10.680849      -290.6407
   5   2.0000     -10.661867      -290.1242
   6   2.0000     -10.638285      -289.4824
   7   2.0000     -10.635144      -289.3970
   8   2.0000     -10.634468      -289.3786
   9   2.0000     -10.632856      -289.3347
  10   2.0000     -10.631844      -289.3072
  11   2.0000     -10.630579      -289.2728
  12   2.0000     -10.616342      -288.8854
  13   2.0000     -10.608894      -288.6827
  14   2.0000     -10.582495      -287.9643
  15   2.0000     -10.580503      -287.9101
  16   2.0000     -10.557320      -287.2793
  17   2.0000     -10.552192      -287.1397
  18   2.0000     -10.532654      -286.6081
  19   2.0000      -8.399796      -228.5701
  20   2.0000      -6.289868      -171.1560
  21   2.0000      -6.286231      -171.0571
  22   2.0000      -6.284524      -171.0106
  23   2.0000      -4.030913      -109.6867
  24   2.0000      -2.350206       -63.9524
  25   2.0000      -2.315874       -63.0181
  26   2.0000      -2.314279       -62.9747
  27   2.0000      -1.305281       -35.5185
  28   2.0000      -1.213207       -33.0130
  29   2.0000      -1.208595       -32.8875
  30   2.0000      -1.174681       -31.9647
  31   2.0000      -1.124943       -30.6113
  32   2.0000      -1.026734       -27.9389
  33   2.0000      -0.989492       -26.9255
  34   2.0000      -0.979655       -26.6578
  35   2.0000      -0.964369       -26.2418
  36   2.0000      -0.958420       -26.0799
  37   2.0000      -0.926765       -25.2186
  38   2.0000      -0.903630       -24.5890
  39   2.0000      -0.873267       -23.7628
  40   2.0000      -0.797441       -21.6995
  41   2.0000      -0.790516       -21.5110
  42   2.0000      -0.788827       -21.4651
  43   2.0000      -0.780466       -21.2376
  44   2.0000      -0.773648       -21.0520
  45   2.0000      -0.756169       -20.5764
  46   2.0000      -0.744164       -20.2497
  47   2.0000      -0.722585       -19.6625
  48   2.0000      -0.694366       -18.8947
  49   2.0000      -0.673403       -18.3242
  50   2.0000      -0.665235       -18.1020
  51   2.0000      -0.651711       -17.7340
  52   2.0000      -0.648801       -17.6548
  53   2.0000      -0.640920       -17.4403
  54   2.0000      -0.637374       -17.3438
  55   2.0000      -0.629792       -17.1375
  56   2.0000      -0.623920       -16.9777
  57   2.0000      -0.611713       -16.6456
  58   2.0000      -0.610064       -16.6007
  59   2.0000      -0.608655       -16.5623
  60   2.0000      -0.596873       -16.2417
  61   2.0000      -0.587998       -16.0002
  62   2.0000      -0.576767       -15.6946
  63   2.0000      -0.570181       -15.5154
  64   2.0000      -0.563411       -15.3312
  65   2.0000      -0.554744       -15.0954
  66   2.0000      -0.552701       -15.0398
  67   2.0000      -0.548528       -14.9262
  68   2.0000      -0.539263       -14.6741
  69   2.0000      -0.534939       -14.5564
  70   2.0000      -0.528138       -14.3714
  71   2.0000      -0.521353       -14.1867
  72   2.0000      -0.516208       -14.0467
  73   2.0000      -0.507103       -13.7990
  74   2.0000      -0.489436       -13.3182
  75   2.0000      -0.481121       -13.0920
  76   2.0000      -0.464679       -12.6446
  77   2.0000      -0.450446       -12.2573
  78   2.0000      -0.441201       -12.0057
  79   2.0000      -0.422990       -11.5101
  80   2.0000      -0.417279       -11.3547
  81   2.0000      -0.403811       -10.9883
  82   0.0000      -0.200885        -5.4664
  83   0.0000      -0.165147        -4.4939
  84   0.0000      -0.141786        -3.8582
  85   0.0000      -0.099699        -2.7129
  86   0.0000      -0.076545        -2.0829

MULLIKEN ATOMIC CHARGES
-----------------------
   0 Ir:    0.619400
   1 C :   -0.208256
   2 C :   -0.294428
   3 C :   -0.231909
   4 C :   -0.245565
   5 C :   -0.166051
   6 N :   -0.427606
   7 C :   -0.117669
   8 C :   -0.694618
   9 H :    0.272861
  10 H :    0.226067
  11 H :    0.260760
  12 C :   -0.639338
  13 H :    0.281190
  14 H :    0.264981
  15 H :    0.230877
  16 H :    0.232665
  17 C :    0.068069
  18 C :   -0.210104
  19 H :    0.292012
  20 C :   -0.417112
  21 C :   -0.140823
  22 S :    0.296203
  23 C :   -0.429119
  24 H :    0.499562
  25 H :    0.266226
  26 H :    0.296738
  27 H :    0.292669
  28 H :    0.293895
  29 H :    0.307042
  30 O :   -0.483395
  31 O :   -0.542512
  32 C :    0.614799
  33 C :   -0.745891
  34 H :    0.269125
  35 H :    0.265706
  36 H :    0.252302
  37 H :    0.295571
  38 H :    0.295676
Sum of atomic charges:    1.0000000

LOEWDIN ATOMIC CHARGES
----------------------
   0 Ir:   -0.213406
   1 C :   -0.039012
   2 C :   -0.057970
   3 C :   -0.047902
   4 C :   -0.055272
   5 C :   -0.025930
   6 N :   -0.007580
   7 C :   -0.068447
   8 C :   -0.364800
   9 H :    0.157572
  10 H :    0.133903
  11 H :    0.146942
  12 C :   -0.343532
  13 H :    0.156501
  14 H :    0.153226
  15 H :    0.137277
  16 H :    0.134197
  17 C :    0.036337
  18 C :   -0.188933
  19 H :    0.162926
  20 C :   -0.187630
  21 C :   -0.142826
  22 S :    0.460699
  23 C :   -0.262630
  24 H :    0.285775
  25 H :    0.161956
  26 H :    0.167557
  27 H :    0.185938
  28 H :    0.186486
  29 H :    0.193928
  30 O :   -0.277485
  31 O :   -0.208840
  32 C :    0.154333
  33 C :   -0.376542
  34 H :    0.159449
  35 H :    0.166719
  36 H :    0.152782
  37 H :    0.187934
  38 H :    0.186301

  Mayer bond orders larger than 0.100000
B(  0-Ir,  1-C ) :   0.4209 B(  0-Ir,  2-C ) :   0.5473 B(  0-Ir,  3-C ) :   0.4627
B(  0-Ir,  4-C ) :   0.4524 B(  0-Ir,  5-C ) :   0.4029 B(  0-Ir,  6-N ) :   0.4648
B(  0-Ir, 20-C ) :   0.2279 B(  0-Ir, 31-O ) :   0.5874 B(  1-C ,  2-C ) :   1.1142
B(  1-C ,  4-C ) :   1.2458 B(  1-C , 27-H ) :   0.9028 B(  2-C ,  5-C ) :   1.1309
B(  2-C , 28-H ) :   0.9066 B(  3-C ,  4-C ) :   1.1044 B(  3-C ,  5-C ) :   1.2349
B(  3-C , 37-H ) :   0.9030 B(  4-C , 38-H ) :   0.8982 B(  5-C , 29-H ) :   0.8977
B(  6-N ,  7-C ) :   0.8911 B(  6-N , 17-C ) :   1.6949 B(  7-C ,  8-C ) :   0.9925
B(  7-C , 12-C ) :   0.9693 B(  7-C , 13-H ) :   0.8718 B(  8-C ,  9-H ) :   0.9033
B(  8-C , 10-H ) :   0.9124 B(  8-C , 11-H ) :   0.9080 B( 12-C , 14-H ) :   0.9062
B( 12-C , 15-H ) :   0.9153 B( 12-C , 16-H ) :   0.9110 B( 17-C , 18-C ) :   1.0519
B( 17-C , 19-H ) :   0.8738 B( 18-C , 20-C ) :   1.3033 B( 18-C , 22-S ) :   1.2177
B( 20-C , 21-C ) :   1.2659 B( 20-C , 24-H ) :   0.4878 B( 21-C , 23-C ) :   1.5468
B( 21-C , 25-H ) :   0.9043 B( 22-S , 23-C ) :   1.2027 B( 23-C , 26-H ) :   0.8925
B( 24-H , 30-O ) :   0.2285 B( 30-O , 32-C ) :   1.6994 B( 31-O , 32-C ) :   1.2696
B( 32-C , 33-C ) :   0.9467 B( 33-C , 34-H ) :   0.9053 B( 33-C , 35-H ) :   0.8990
B( 33-C , 36-H ) :   0.9097

Dispersion correction           -0.030856632
FINAL SINGLE POINT ENERGY     -1288.396521727224

DIPOLE MOMENT
-------------
                                X             Y             Z
Electronic contribution:     34.40281     -68.10472      74.71083
Nuclear contribution   :    -35.03570      66.85048     -74.93853
                        -----------------------------------------
Total Dipole Moment    :     -0.63289      -1.25424      -0.22770
                        -----------------------------------------
Magnitude (a.u.)       :      1.42320
Magnitude (Debye)      :      3.61749

Rotational constants in cm-1:     0.010707     0.009058     0.008238
Rotational constants in MHz :   320.977854   271.551322   246.957701

                             ****ORCA TERMINATED NORMALLY****
TOTAL RUN TIME: 0 days 1 hours 39 minutes 46 seconds 690 msec
