                         Program Version 5.0.3 -  RELEASE  -
|  1> ! Opt PBEh-3c
|  2> %geom Constraints
|  3> { B 0 20 2.1285714285714286 C }
|  4> { B 24 30 1.3714285714285714 C }
|  5>     end
|  6> end
|  7> %output
|  8> xyzfile=True
|  9> end
| 10> %scf
| 11> maxiter 250
| 12> end
| 13> %output
| 14> Print[P_Hirshfeld] = 1
| 15> end
| 16> % maxcore
| 17> 4000
| 18> *xyz 1 1
| 19> Ir   0.61185742  -0.72764916   0.43569496
| 20> C    0.12940580  -2.83985240   0.34751790
| 21> C   -0.06593726  -2.37798363   1.69727389
| 22> C    2.15985457  -2.07561241   1.14367699
| 23> C    1.48849697  -2.65944542   0.01285564
| 24> C    1.19467849  -1.93339610   2.17386365
| 25> N   -1.06376216   0.12074432  -0.50979605
| 26> C   -2.33877821   0.32786445   0.19440381
| 27> C   -3.13286179   1.52296809  -0.31353870
| 28> H   -3.96428858   1.70684891   0.36512897
| 29> H   -3.56780234   1.35537036  -1.29978860
| 30> H   -2.52928492   2.43030684  -0.34495672
| 31> C   -3.16239663  -0.95391952   0.13491207
| 32> H   -2.06140555   0.52063874   1.23176565
| 33> H   -4.07114025  -0.83886702   0.72433130
| 34> H   -3.45650712  -1.18477002  -0.88977478
| 35> H   -2.61926118  -1.80905199   0.53386276
| 36> C   -0.90952671   0.45771670  -1.73707841
| 37> C    0.40962689   0.28743518  -2.26946072
| 38> H   -1.72020885   0.87508475  -2.32594362
| 39> C    1.46498388   0.11135057  -1.37630854
| 40> C    2.67058077  -0.14731678  -2.09595686
| 41> S    0.87380622   0.16691497  -3.89762996
| 42> C    2.49742850  -0.14016307  -3.44689262
| 43> H    1.63032395   1.13946008  -0.60945093
| 44> H    3.63745616  -0.27245929  -1.63043511
| 45> H    3.24761190  -0.27863433  -4.21057788
| 46> H   -0.62625693  -3.26548532  -0.29652797
| 47> H   -0.97956141  -2.42355402   2.27019388
| 48> H    1.37526779  -1.48933997   3.14269781
| 49> O    1.73252304   2.29634239   0.14644771
| 50> O    0.55453592   1.01887824   1.53610659
| 51> C    1.12517673   2.11148659   1.21679185
| 52> C    1.07001210   3.22289861   2.22330310
| 53> H    0.95760401   4.18326722   1.72531010
| 54> H    2.01451585   3.25188686   2.76924451
| 55> H    0.26718437   3.07678824   2.94045279
| 56> H    3.21258908  -1.85241806   1.22225374
| 57> H    1.94282950  -2.91514361  -0.93323224
| 58> *
| 59>
| 60>                          ****END OF INPUT****
 Total Charge           Charge          ....    1
 Multiplicity           Mult            ....    1
 Number of Electrons    NEL             ....  164
Dispersion correction           -0.030779297
FINAL SINGLE POINT ENERGY     -1288.402103572703
Dispersion correction            ... done
Dispersion correction           -0.030732890
FINAL SINGLE POINT ENERGY     -1288.402057465423
Dispersion correction            ... done
Dispersion correction           -0.030742421
FINAL SINGLE POINT ENERGY     -1288.401024970121
Dispersion correction            ... done
FINAL SINGLE POINT ENERGY     -1288.402408522460
FINAL SINGLE POINT ENERGY     -1288.402453234705
FINAL SINGLE POINT ENERGY     -1288.402493432928
FINAL SINGLE POINT ENERGY     -1288.402538132267
Dispersion correction            ... done
Dispersion correction           -0.030683922
FINAL SINGLE POINT ENERGY     -1288.402546473444
Dispersion correction            ... done
Dispersion correction           -0.030682000
FINAL SINGLE POINT ENERGY     -1288.402546570482
Dispersion correction            ... done
                    ***********************HURRAY********************

CARTESIAN COORDINATES (ANGSTROEM)
---------------------------------
  Ir     0.610698   -0.733554    0.424592
  C      0.118774   -2.844562    0.361450
  C     -0.073813   -2.382787    1.711092
  C      2.151430   -2.082364    1.151365
  C      1.479816   -2.671374    0.024923
  C      1.184812   -1.934921    2.182040
  N     -1.067962    0.116528   -0.513901
  C     -2.342485    0.314172    0.193070
  C     -3.143356    1.508418   -0.306162
  H     -3.975306    1.682839    0.374279
  H     -3.577754    1.345113   -1.293371
  H     -2.545015    2.419470   -0.331488
  C     -3.161115   -0.970494    0.127910
  H     -2.064358    0.502243    1.231248
  H     -4.071125   -0.860956    0.716452
  H     -3.452719   -1.198537   -0.898088
  H     -2.615441   -1.824967    0.524531
  C     -0.912146    0.474872   -1.735438
  C      0.406654    0.306004   -2.265623
  H     -1.720142    0.906960   -2.316920
  C      1.443200    0.068423   -1.362750
  C      2.657719   -0.168545   -2.077149
  S      0.897295    0.269761   -3.889547
  C      2.507841   -0.084874   -3.428386
  H      1.635117    1.147175   -0.625079
  H      3.614928   -0.334713   -1.604408
  H      3.269673   -0.193134   -4.185419
  H     -0.637413   -3.272972   -0.280137
  H     -0.987478   -2.423373    2.284078
  H      1.367118   -1.486461    3.148519
  O      1.745299    2.295350    0.116791
  O      0.565358    1.026948    1.513248
  C      1.137777    2.113777    1.191569
  C      1.094376    3.231352    2.191132
  H      0.980380    4.189430    1.689065
  H      2.043377    3.260731    2.729236
  H      0.296726    3.090586    2.914947
  H      3.205253   -1.865170    1.231789
  H      1.933380   -2.937204   -0.918720

 Multiplicity           Mult            ....    1
 Number of Electrons    NEL             ....  164
 Basis Dimension        Dim             ....  358

ORBITAL ENERGIES
----------------

  NO   OCC          E(Eh)            E(eV)
   0   2.0000     -89.763485     -2442.5886
   1   2.0000     -19.635663      -534.3135
   2   2.0000     -19.623127      -533.9724
   3   2.0000     -14.833691      -403.6452
   4   2.0000     -10.697640      -291.0976
   5   2.0000     -10.654330      -289.9191
   6   2.0000     -10.625623      -289.1379
   7   2.0000     -10.624704      -289.1129
   8   2.0000     -10.623501      -289.0802
   9   2.0000     -10.622823      -289.0617
  10   2.0000     -10.614812      -288.8437
  11   2.0000     -10.612720      -288.7868
  12   2.0000     -10.612585      -288.7831
  13   2.0000     -10.609777      -288.7067
  14   2.0000     -10.589182      -288.1463
  15   2.0000     -10.588438      -288.1260
  16   2.0000     -10.553106      -287.1646
  17   2.0000     -10.550463      -287.0927
  18   2.0000     -10.544990      -286.9438
  19   2.0000      -8.402862      -228.6535
  20   2.0000      -6.292739      -171.2341
  21   2.0000      -6.289191      -171.1376
  22   2.0000      -6.287842      -171.1009
  23   2.0000      -4.020443      -109.4018
  24   2.0000      -2.337537       -63.6076
  25   2.0000      -2.306578       -62.7652
  26   2.0000      -2.303424       -62.6794
  27   2.0000      -1.325994       -36.0821
  28   2.0000      -1.227353       -33.3980
  29   2.0000      -1.206452       -32.8292
  30   2.0000      -1.160332       -31.5742
  31   2.0000      -1.127089       -30.6697
  32   2.0000      -1.024014       -27.8648
  33   2.0000      -0.973006       -26.4768
  34   2.0000      -0.968858       -26.3640
  35   2.0000      -0.966236       -26.2926
  36   2.0000      -0.958502       -26.0822
  37   2.0000      -0.940129       -25.5822
  38   2.0000      -0.900090       -24.4927
  39   2.0000      -0.871568       -23.7166
  40   2.0000      -0.797644       -21.7050
  41   2.0000      -0.781537       -21.2667
  42   2.0000      -0.776692       -21.1349
  43   2.0000      -0.776098       -21.1187
  44   2.0000      -0.762114       -20.7382
  45   2.0000      -0.760664       -20.6987
  46   2.0000      -0.742060       -20.1925
  47   2.0000      -0.721573       -19.6350
  48   2.0000      -0.693912       -18.8823
  49   2.0000      -0.684472       -18.6254
  50   2.0000      -0.663390       -18.0518
  51   2.0000      -0.660379       -17.9698
  52   2.0000      -0.648340       -17.6422
  53   2.0000      -0.638178       -17.3657
  54   2.0000      -0.630823       -17.1656
  55   2.0000      -0.627733       -17.0815
  56   2.0000      -0.621289       -16.9061
  57   2.0000      -0.610234       -16.6053
  58   2.0000      -0.599410       -16.3108
  59   2.0000      -0.596974       -16.2445
  60   2.0000      -0.596157       -16.2223
  61   2.0000      -0.590818       -16.0770
  62   2.0000      -0.578756       -15.7488
  63   2.0000      -0.568618       -15.4729
  64   2.0000      -0.565246       -15.3811
  65   2.0000      -0.561714       -15.2850
  66   2.0000      -0.555214       -15.1081
  67   2.0000      -0.546478       -14.8704
  68   2.0000      -0.542143       -14.7525
  69   2.0000      -0.535144       -14.5620
  70   2.0000      -0.529286       -14.4026
  71   2.0000      -0.518022       -14.0961
  72   2.0000      -0.512698       -13.9512
  73   2.0000      -0.501068       -13.6348
  74   2.0000      -0.495487       -13.4829
  75   2.0000      -0.486200       -13.2302
  76   2.0000      -0.477794       -13.0014
  77   2.0000      -0.450578       -12.2608
  78   2.0000      -0.444226       -12.0880
  79   2.0000      -0.417880       -11.3711
  80   2.0000      -0.415373       -11.3029
  81   2.0000      -0.394412       -10.7325
  82   0.0000      -0.203458        -5.5364
  83   0.0000      -0.143059        -3.8928
  84   0.0000      -0.131614        -3.5814
  85   0.0000      -0.086246        -2.3469
  86   0.0000      -0.073638        -2.0038

MULLIKEN ATOMIC CHARGES
-----------------------
   0 Ir:    0.606826
   1 C :   -0.240313
   2 C :   -0.261727
   3 C :   -0.268337
   4 C :   -0.227326
   5 C :   -0.154188
   6 N :   -0.434416
   7 C :   -0.125019
   8 C :   -0.683204
   9 H :    0.269590
  10 H :    0.224675
  11 H :    0.253587
  12 C :   -0.634021
  13 H :    0.279446
  14 H :    0.258891
  15 H :    0.232579
  16 H :    0.233430
  17 C :    0.068766
  18 C :   -0.123765
  19 H :    0.285354
  20 C :   -0.558940
  21 C :   -0.101542
  22 S :    0.341563
  23 C :   -0.427002
  24 H :    0.473457
  25 H :    0.266336
  26 H :    0.297828
  27 H :    0.285394
  28 H :    0.281872
  29 H :    0.297646
  30 O :   -0.480884
  31 O :   -0.508816
  32 C :    0.631799
  33 C :   -0.743988
  34 H :    0.273022
  35 H :    0.275456
  36 H :    0.261415
  37 H :    0.281983
  38 H :    0.292573
Sum of atomic charges:    1.0000000

LOEWDIN ATOMIC CHARGES
----------------------
   0 Ir:   -0.258831
   1 C :   -0.055981
   2 C :   -0.098249
   3 C :   -0.094145
   4 C :   -0.043526
   5 C :   -0.016613
   6 N :   -0.004116
   7 C :   -0.069245
   8 C :   -0.362524
   9 H :    0.156236
  10 H :    0.132912
  11 H :    0.143258
  12 C :   -0.343781
  13 H :    0.154811
  14 H :    0.150711
  15 H :    0.137983
  16 H :    0.133182
  17 C :    0.028548
  18 C :   -0.189915
  19 H :    0.160281
  20 C :   -0.219707
  21 C :   -0.127401
  22 S :    0.496478
  23 C :   -0.258025
  24 H :    0.357584
  25 H :    0.162015
  26 H :    0.169214
  27 H :    0.181999
  28 H :    0.179601
  29 H :    0.188079
  30 O :   -0.261069
  31 O :   -0.181455
  32 C :    0.164727
  33 C :   -0.371721
  34 H :    0.164682
  35 H :    0.172162
  36 H :    0.155774
  37 H :    0.181651
  38 H :    0.184417

  Mayer bond orders larger than 0.100000
B(  0-Ir,  1-C ) :   0.4406 B(  0-Ir,  2-C ) :   0.4109 B(  0-Ir,  3-C ) :   0.4653
B(  0-Ir,  4-C ) :   0.4293 B(  0-Ir,  5-C ) :   0.3748 B(  0-Ir,  6-N ) :   0.4654
B(  0-Ir, 20-C ) :   0.4806 B(  0-Ir, 31-O ) :   0.5206 B(  1-C ,  2-C ) :   1.1292
B(  1-C ,  4-C ) :   1.2253 B(  1-C , 27-H ) :   0.9077 B(  2-C ,  5-C ) :   1.2068
B(  2-C , 28-H ) :   0.9105 B(  3-C ,  4-C ) :   1.1357 B(  3-C ,  5-C ) :   1.1805
B(  3-C , 37-H ) :   0.9130 B(  4-C , 38-H ) :   0.9001 B(  5-C , 29-H ) :   0.9013
B(  6-N ,  7-C ) :   0.8961 B(  6-N , 17-C ) :   1.6474 B(  7-C ,  8-C ) :   0.9905
B(  7-C , 12-C ) :   0.9667 B(  7-C , 13-H ) :   0.8763 B(  8-C ,  9-H ) :   0.9047
B(  8-C , 10-H ) :   0.9129 B(  8-C , 11-H ) :   0.9121 B( 12-C , 14-H ) :   0.9078
B( 12-C , 15-H ) :   0.9153 B( 12-C , 16-H ) :   0.9118 B( 17-C , 18-C ) :   1.1124
B( 17-C , 19-H ) :   0.8763 B( 18-C , 20-C ) :   1.2288 B( 18-C , 22-S ) :   1.2404
B( 20-C , 21-C ) :   1.2684 B( 20-C , 24-H ) :   0.3444 B( 21-C , 23-C ) :   1.5425
B( 21-C , 25-H ) :   0.9026 B( 22-S , 23-C ) :   1.2179 B( 23-C , 26-H ) :   0.8914
B( 24-H , 30-O ) :   0.3433 B( 30-O , 32-C ) :   1.5654 B( 31-O , 32-C ) :   1.3788
B( 32-C , 33-C ) :   0.9449 B( 33-C , 34-H ) :   0.9001 B( 33-C , 35-H ) :   0.8934
B( 33-C , 36-H ) :   0.9080

Dispersion correction           -0.030682903
FINAL SINGLE POINT ENERGY     -1288.402546824796

DIPOLE MOMENT
-------------
                                X             Y             Z
Electronic contribution:     37.10997     -73.73010      71.29610
Nuclear contribution   :    -37.71221      73.25269     -71.55379
                        -----------------------------------------
Total Dipole Moment    :     -0.60225      -0.47740      -0.25768
                        -----------------------------------------
Magnitude (a.u.)       :      0.81056
Magnitude (Debye)      :      2.06029

Rotational constants in cm-1:     0.010546     0.008863     0.008212
Rotational constants in MHz :   316.146577   265.704667   246.187523

                             ****ORCA TERMINATED NORMALLY****
TOTAL RUN TIME: 0 days 1 hours 19 minutes 21 seconds 353 msec
