                         Program Version 5.0.3 -  RELEASE  -
|  1> ! Opt PBEh-3c
|  2> %geom Constraints
|  3> { B 0 20 2.1714285714285713 C }
|  4> { B 24 30 1.4285714285714286 C }
|  5>     end
|  6> end
|  7> %output
|  8> xyzfile=True
|  9> end
| 10> %scf
| 11> maxiter 250
| 12> end
| 13> %output
| 14> Print[P_Hirshfeld] = 1
| 15> end
| 16> % maxcore
| 17> 4000
| 18> *xyz 1 1
| 19> Ir   0.62481587  -0.71640613   0.43111599
| 20> C    0.10869141  -2.82396023   0.34206072
| 21> C    0.02839324  -2.36342227   1.70257613
| 22> C    2.20611562  -2.09686134   0.97700380
| 23> C    1.43341710  -2.65355105  -0.10693531
| 24> C    1.33848737  -1.94874055   2.08268573
| 25> N   -1.04700524   0.13581461  -0.51801872
| 26> C   -2.31201265   0.39900247   0.18565254
| 27> C   -3.09462036   1.57290308  -0.38422074
| 28> H   -3.91665445   1.80897978   0.29004782
| 29> H   -3.54228844   1.35301902  -1.35434481
| 30> H   -2.47920882   2.46822451  -0.47486238
| 31> C   -3.15013517  -0.87426569   0.21340304
| 32> H   -2.01789832   0.64629059   1.20652568
| 33> H   -4.05182721  -0.70919233   0.80149352
| 34> H   -3.45652648  -1.16702096  -0.79168155
| 35> H   -2.61302622  -1.70696154   0.66496078
| 36> C   -0.89190521   0.40163164  -1.76115284
| 37> C    0.43682698   0.20763424  -2.27362970
| 38> H   -1.69832699   0.78738831  -2.37717633
| 39> C    1.50471813   0.21356964  -1.37553239
| 40> C    2.71885650  -0.09530030  -2.06104683
| 41> S    0.89738807  -0.15438256  -3.86533819
| 42> C    2.53932237  -0.31338901  -3.39157597
| 43> H    1.53961862   1.19806231  -0.64014354
| 44> H    3.69171950  -0.09887461  -1.59141252
| 45> H    3.28994683  -0.53632484  -4.13456024
| 46> H   -0.70756599  -3.22324554  -0.24252179
| 47> H   -0.83706857  -2.40095894   2.34678870
| 48> H    1.60689509  -1.52106370   3.03834037
| 49> O    1.48069526   2.39990864   0.15605378
| 50> O    0.55202142   0.97392994   1.59181519
| 51> C    0.99733573   2.12970362   1.26136660
| 52> C    0.93367836   3.17828603   2.33502914
| 53> H    0.90571698   4.17473293   1.90244445
| 54> H    1.83303682   3.10810235   2.94978113
| 55> H    0.07820438   3.02947280   2.98982064
| 56> H    3.26293202  -1.87850583   0.96476995
| 57> H    1.80660650  -2.90503909  -1.08884170
| 58> *
| 59>
| 60>                          ****END OF INPUT****
 Total Charge           Charge          ....    1
 Multiplicity           Mult            ....    1
 Number of Electrons    NEL             ....  164
Dispersion correction           -0.030973285
FINAL SINGLE POINT ENERGY     -1288.400242347415
Dispersion correction            ... done
Dispersion correction           -0.030900205
FINAL SINGLE POINT ENERGY     -1288.400120984179
Dispersion correction            ... done
Dispersion correction           -0.030907864
FINAL SINGLE POINT ENERGY     -1288.399833077516
Dispersion correction            ... done
FINAL SINGLE POINT ENERGY     -1288.400534638419
FINAL SINGLE POINT ENERGY     -1288.400592484822
FINAL SINGLE POINT ENERGY     -1288.400628692809
FINAL SINGLE POINT ENERGY     -1288.400678688790
FINAL SINGLE POINT ENERGY     -1288.400688338553
FINAL SINGLE POINT ENERGY     -1288.400695273090
FINAL SINGLE POINT ENERGY     -1288.400702720344
FINAL SINGLE POINT ENERGY     -1288.400708253137
FINAL SINGLE POINT ENERGY     -1288.400706459492
FINAL SINGLE POINT ENERGY     -1288.400704947774
FINAL SINGLE POINT ENERGY     -1288.400709408217
FINAL SINGLE POINT ENERGY     -1288.400713178459
Dispersion correction            ... done
Dispersion correction           -0.030749291
FINAL SINGLE POINT ENERGY     -1288.400713872265
Dispersion correction            ... done
Dispersion correction           -0.030749801
FINAL SINGLE POINT ENERGY     -1288.400713655473
Dispersion correction            ... done
                    ***********************HURRAY********************

CARTESIAN COORDINATES (ANGSTROEM)
---------------------------------
  Ir     0.615286   -0.716457    0.426528
  C      0.122710   -2.829853    0.345602
  C     -0.024563   -2.364308    1.699527
  C      2.181824   -2.073414    1.070323
  C      1.467711   -2.652022   -0.039211
  C      1.257000   -1.926829    2.133200
  N     -1.062626    0.131483   -0.517315
  C     -2.333662    0.357181    0.187924
  C     -3.134538    1.532806   -0.353143
  H     -3.962450    1.735839    0.324476
  H     -3.575470    1.331294   -1.330384
  H     -2.534862    2.440974   -0.417571
  C     -3.153665   -0.928336    0.174556
  H     -2.048775    0.582070    1.216694
  H     -4.059997   -0.794844    0.763712
  H     -3.451982   -1.194263   -0.840348
  H     -2.606901   -1.767661    0.601016
  C     -0.907284    0.446604   -1.749521
  C      0.416037    0.264627   -2.272121
  H     -1.714645    0.855501   -2.348776
  C      1.474840    0.147381   -1.370707
  C      2.683049   -0.136960   -2.078893
  S      0.878219    0.050322   -3.889370
  C      2.508007   -0.211886   -3.426266
  H      1.605595    1.144429   -0.620951
  H      3.651761   -0.220823   -1.608060
  H      3.257398   -0.385128   -4.183567
  H     -0.658687   -3.248016   -0.272222
  H     -0.918040   -2.406042    2.303760
  H      1.474570   -1.484966    3.095383
  O      1.682780    2.331630    0.169879
  O      0.541566    1.008445    1.548551
  C      1.092405    2.119964    1.238810
  C      1.024021    3.202831    2.276649
  H      1.011317    4.183827    1.808455
  H      1.917732    3.148724    2.900857
  H      0.158914    3.084781    2.924070
  H      3.236917   -1.850611    1.109753
  H      1.887855   -2.909105   -1.000558

 Multiplicity           Mult            ....    1
 Number of Electrons    NEL             ....  164
 Basis Dimension        Dim             ....  358

ORBITAL ENERGIES
----------------

  NO   OCC          E(Eh)            E(eV)
   0   2.0000     -89.766153     -2442.6612
   1   2.0000     -19.628856      -534.1283
   2   2.0000     -19.607912      -533.5584
   3   2.0000     -14.836846      -403.7311
   4   2.0000     -10.688818      -290.8575
   5   2.0000     -10.657219      -289.9977
   6   2.0000     -10.629550      -289.2448
   7   2.0000     -10.628409      -289.2137
   8   2.0000     -10.626900      -289.1727
   9   2.0000     -10.625155      -289.1252
  10   2.0000     -10.619196      -288.9630
  11   2.0000     -10.616978      -288.9027
  12   2.0000     -10.613658      -288.8123
  13   2.0000     -10.611354      -288.7496
  14   2.0000     -10.589960      -288.1675
  15   2.0000     -10.588930      -288.1394
  16   2.0000     -10.554561      -287.2042
  17   2.0000     -10.551062      -287.1090
  18   2.0000     -10.539420      -286.7922
  19   2.0000      -8.405569      -228.7272
  20   2.0000      -6.295442      -171.3077
  21   2.0000      -6.291859      -171.2102
  22   2.0000      -6.290574      -171.1752
  23   2.0000      -4.023018      -109.4719
  24   2.0000      -2.340658       -63.6925
  25   2.0000      -2.308617       -62.8207
  26   2.0000      -2.306318       -62.7581
  27   2.0000      -1.315742       -35.8032
  28   2.0000      -1.217514       -33.1302
  29   2.0000      -1.209135       -32.9022
  30   2.0000      -1.163767       -31.6677
  31   2.0000      -1.129386       -30.7322
  32   2.0000      -1.025673       -27.9100
  33   2.0000      -0.976760       -26.5790
  34   2.0000      -0.971106       -26.4251
  35   2.0000      -0.969161       -26.3722
  36   2.0000      -0.960656       -26.1408
  37   2.0000      -0.933617       -25.4050
  38   2.0000      -0.901125       -24.5209
  39   2.0000      -0.873734       -23.7755
  40   2.0000      -0.799469       -21.7547
  41   2.0000      -0.783249       -21.3133
  42   2.0000      -0.779748       -21.2180
  43   2.0000      -0.779101       -21.2004
  44   2.0000      -0.764438       -20.8014
  45   2.0000      -0.756835       -20.5945
  46   2.0000      -0.743314       -20.2266
  47   2.0000      -0.723000       -19.6738
  48   2.0000      -0.691013       -18.8034
  49   2.0000      -0.681396       -18.5417
  50   2.0000      -0.663952       -18.0671
  51   2.0000      -0.653388       -17.7796
  52   2.0000      -0.646997       -17.6057
  53   2.0000      -0.636048       -17.3077
  54   2.0000      -0.633360       -17.2346
  55   2.0000      -0.629943       -17.1416
  56   2.0000      -0.622223       -16.9315
  57   2.0000      -0.611914       -16.6510
  58   2.0000      -0.600696       -16.3458
  59   2.0000      -0.599956       -16.3256
  60   2.0000      -0.599234       -16.3060
  61   2.0000      -0.591775       -16.1030
  62   2.0000      -0.580563       -15.7979
  63   2.0000      -0.570185       -15.5155
  64   2.0000      -0.563146       -15.3240
  65   2.0000      -0.562153       -15.2970
  66   2.0000      -0.552323       -15.0295
  67   2.0000      -0.547725       -14.9044
  68   2.0000      -0.541822       -14.7437
  69   2.0000      -0.535941       -14.5837
  70   2.0000      -0.528688       -14.3863
  71   2.0000      -0.518640       -14.1129
  72   2.0000      -0.513836       -13.9822
  73   2.0000      -0.499022       -13.5791
  74   2.0000      -0.492190       -13.3932
  75   2.0000      -0.482899       -13.1403
  76   2.0000      -0.478417       -13.0184
  77   2.0000      -0.446802       -12.1581
  78   2.0000      -0.444220       -12.0878
  79   2.0000      -0.420721       -11.4484
  80   2.0000      -0.416470       -11.3327
  81   2.0000      -0.396915       -10.8006
  82   0.0000      -0.206657        -5.6234
  83   0.0000      -0.143051        -3.8926
  84   0.0000      -0.139142        -3.7862
  85   0.0000      -0.089433        -2.4336
  86   0.0000      -0.075077        -2.0429

MULLIKEN ATOMIC CHARGES
-----------------------
   0 Ir:    0.604174
   1 C :   -0.229978
   2 C :   -0.267806
   3 C :   -0.261005
   4 C :   -0.231798
   5 C :   -0.156311
   6 N :   -0.430469
   7 C :   -0.125941
   8 C :   -0.684721
   9 H :    0.270309
  10 H :    0.224328
  11 H :    0.256082
  12 C :   -0.634759
  13 H :    0.282429
  14 H :    0.260563
  15 H :    0.231987
  16 H :    0.232901
  17 C :    0.070353
  18 C :   -0.133034
  19 H :    0.287341
  20 C :   -0.547365
  21 C :   -0.101236
  22 S :    0.338787
  23 C :   -0.430180
  24 H :    0.475752
  25 H :    0.267756
  26 H :    0.298761
  27 H :    0.286579
  28 H :    0.284492
  29 H :    0.300832
  30 O :   -0.474036
  31 O :   -0.522840
  32 C :    0.624602
  33 C :   -0.743785
  34 H :    0.271250
  35 H :    0.271111
  36 H :    0.257167
  37 H :    0.284706
  38 H :    0.293000
Sum of atomic charges:    1.0000000

LOEWDIN ATOMIC CHARGES
----------------------
   0 Ir:   -0.252707
   1 C :   -0.052118
   2 C :   -0.091086
   3 C :   -0.085812
   4 C :   -0.046366
   5 C :   -0.015419
   6 N :   -0.001369
   7 C :   -0.069592
   8 C :   -0.362802
   9 H :    0.156662
  10 H :    0.132863
  11 H :    0.144483
  12 C :   -0.343599
  13 H :    0.156402
  14 H :    0.151494
  15 H :    0.137648
  16 H :    0.133140
  17 C :    0.029021
  18 C :   -0.180752
  19 H :    0.161291
  20 C :   -0.216258
  21 C :   -0.122932
  22 S :    0.497453
  23 C :   -0.260147
  24 H :    0.335745
  25 H :    0.163047
  26 H :    0.169466
  27 H :    0.182617
  28 H :    0.181126
  29 H :    0.190048
  30 O :   -0.265520
  31 O :   -0.194811
  32 C :    0.157996
  33 C :   -0.373215
  34 H :    0.162166
  35 H :    0.169889
  36 H :    0.154414
  37 H :    0.182904
  38 H :    0.184631

  Mayer bond orders larger than 0.100000
B(  0-Ir,  1-C ) :   0.4272 B(  0-Ir,  2-C ) :   0.4419 B(  0-Ir,  3-C ) :   0.4644
B(  0-Ir,  4-C ) :   0.4333 B(  0-Ir,  5-C ) :   0.3865 B(  0-Ir,  6-N ) :   0.4631
B(  0-Ir, 20-C ) :   0.4236 B(  0-Ir, 31-O ) :   0.5447 B(  1-C ,  2-C ) :   1.1279
B(  1-C ,  4-C ) :   1.2358 B(  1-C , 27-H ) :   0.9068 B(  2-C ,  5-C ) :   1.1825
B(  2-C , 28-H ) :   0.9100 B(  3-C ,  4-C ) :   1.1245 B(  3-C ,  5-C ) :   1.1958
B(  3-C , 37-H ) :   0.9112 B(  4-C , 38-H ) :   0.8998 B(  5-C , 29-H ) :   0.9000
B(  6-N ,  7-C ) :   0.8947 B(  6-N , 17-C ) :   1.6576 B(  7-C ,  8-C ) :   0.9906
B(  7-C , 12-C ) :   0.9663 B(  7-C , 13-H ) :   0.8743 B(  8-C ,  9-H ) :   0.9044
B(  8-C , 10-H ) :   0.9130 B(  8-C , 11-H ) :   0.9110 B( 12-C , 14-H ) :   0.9074
B( 12-C , 15-H ) :   0.9154 B( 12-C , 16-H ) :   0.9119 B( 17-C , 18-C ) :   1.0988
B( 17-C , 19-H ) :   0.8758 B( 18-C , 20-C ) :   1.2364 B( 18-C , 22-S ) :   1.2514
B( 20-C , 21-C ) :   1.2609 B( 20-C , 24-H ) :   0.4003 B( 21-C , 23-C ) :   1.5509
B( 21-C , 25-H ) :   0.9025 B( 22-S , 23-C ) :   1.2099 B( 23-C , 26-H ) :   0.8911
B( 24-H , 30-O ) :   0.3002 B( 30-O , 32-C ) :   1.6278 B( 31-O , 32-C ) :   1.3314
B( 32-C , 33-C ) :   0.9443 B( 33-C , 34-H ) :   0.9026 B( 33-C , 35-H ) :   0.8959
B( 33-C , 36-H ) :   0.9087

Dispersion correction           -0.030750883
FINAL SINGLE POINT ENERGY     -1288.400713042446

DIPOLE MOMENT
-------------
                                X             Y             Z
Electronic contribution:     37.65412     -70.91449      71.35722
Nuclear contribution   :    -38.30499      70.15336     -71.72165
                        -----------------------------------------
Total Dipole Moment    :     -0.65087      -0.76114      -0.36443
                        -----------------------------------------
Magnitude (a.u.)       :      1.06573
Magnitude (Debye)      :      2.70886

Rotational constants in cm-1:     0.010523     0.008958     0.008234
Rotational constants in MHz :   315.468967   268.541757   246.847850

                             ****ORCA TERMINATED NORMALLY****
TOTAL RUN TIME: 0 days 2 hours 13 minutes 42 seconds 468 msec
