                         Program Version 5.0.3 -  RELEASE  -
|  1> ! Opt PBEh-3c
|  2> %geom Constraints
|  3> { B 0 20 2.0 C }
|  4> { B 24 30 1.457142857142857 C }
|  5>     end
|  6> end
|  7> %output
|  8> xyzfile=True
|  9> end
| 10> %scf
| 11> maxiter 250
| 12> end
| 13> %output
| 14> Print[P_Hirshfeld] = 1
| 15> end
| 16> % maxcore
| 17> 4000
| 18> *xyz 1 1
| 19> Ir   0.62762667  -0.72159996   0.38870299
| 20> C    0.16557218  -2.84674939   0.31330882
| 21> C   -0.04627401  -2.40430472   1.66727194
| 22> C    2.17617689  -2.05474163   1.13007652
| 23> C    1.52788595  -2.65218270  -0.00433245
| 24> C    1.19474640  -1.93704618   2.15447404
| 25> N   -1.06994746   0.12919070  -0.51680309
| 26> C   -2.33061231   0.34068036   0.20828102
| 27> C   -3.12904554   1.53864214  -0.28509379
| 28> H   -3.95168328   1.72088604   0.40457255
| 29> H   -3.57635608   1.37466776  -1.26644757
| 30> H   -2.52477587   2.44541112  -0.32050479
| 31> C   -3.15778127  -0.93976448   0.15950247
| 32> H   -2.03366611   0.52920111   1.24103068
| 33> H   -4.05326776  -0.82532612   0.76889928
| 34> H   -3.47412948  -1.16457566  -0.85984357
| 35> H   -2.60726924  -1.79754067   0.54212552
| 36> C   -0.92600581   0.47734536  -1.74255648
| 37> C    0.39148975   0.28120113  -2.26724958
| 38> H   -1.73054078   0.91695718  -2.32256770
| 39> C    1.41338464   0.04348998  -1.33480711
| 40> C    2.63714461  -0.21709687  -2.04064402
| 41> S    0.89908208   0.20532897  -3.87768336
| 42> C    2.50434523  -0.15916623  -3.39169666
| 43> H    1.59737467   1.11434469  -0.69889748
| 44> H    3.58815168  -0.37589761  -1.55280577
| 45> H    3.27272362  -0.28675107  -4.13897318
| 46> H   -0.57566731  -3.28769991  -0.33705977
| 47> H   -0.96658517  -2.46058798   2.22810403
| 48> H    1.35811201  -1.49219189   3.12591171
| 49> O    1.68028692   2.35453951   0.08859500
| 50> O    0.58153266   1.02120763   1.49385185
| 51> C    1.11083206   2.13655629   1.16850108
| 52> C    1.04580843   3.22721507   2.19989812
| 53> H    0.97636407   4.20209036   1.72364461
| 54> H    1.96762828   3.21458883   2.78405818
| 55> H    0.21380650   3.08418645   2.88426801
| 56> H    3.22636885  -1.82691978   1.22701260
| 57> H    1.99653338  -2.90839786  -0.94338453
| 58> *
| 59>
| 60>                          ****END OF INPUT****
 Total Charge           Charge          ....    1
 Multiplicity           Mult            ....    1
 Number of Electrons    NEL             ....  164
Dispersion correction           -0.030971196
FINAL SINGLE POINT ENERGY     -1288.393284561610
Dispersion correction            ... done
Dispersion correction           -0.030923884
FINAL SINGLE POINT ENERGY     -1288.393356613106
Dispersion correction            ... done
Dispersion correction           -0.030932797
FINAL SINGLE POINT ENERGY     -1288.392581418694
Dispersion correction            ... done
FINAL SINGLE POINT ENERGY     -1288.393613148696
FINAL SINGLE POINT ENERGY     -1288.393644465965
FINAL SINGLE POINT ENERGY     -1288.393683225390
FINAL SINGLE POINT ENERGY     -1288.393716106972
FINAL SINGLE POINT ENERGY     -1288.393726888608
FINAL SINGLE POINT ENERGY     -1288.393731689574
FINAL SINGLE POINT ENERGY     -1288.393734049669
FINAL SINGLE POINT ENERGY     -1288.393734546316
FINAL SINGLE POINT ENERGY     -1288.393735300977
FINAL SINGLE POINT ENERGY     -1288.393736613373
FINAL SINGLE POINT ENERGY     -1288.393738932186
Dispersion correction            ... done
Dispersion correction           -0.030876869
FINAL SINGLE POINT ENERGY     -1288.393742256519
Dispersion correction            ... done
Dispersion correction           -0.030878266
FINAL SINGLE POINT ENERGY     -1288.393743896287
Dispersion correction            ... done
                    ***********************HURRAY********************

CARTESIAN COORDINATES (ANGSTROEM)
---------------------------------
  Ir     0.629035   -0.729483    0.378308
  C      0.183559   -2.856418    0.303421
  C     -0.067004   -2.429528    1.657023
  C      2.162833   -2.048437    1.177735
  C      1.555415   -2.653340    0.027975
  C      1.149340   -1.950062    2.178480
  N     -1.075182    0.120070   -0.512935
  C     -2.333273    0.320497    0.219150
  C     -3.123336    1.537316   -0.240264
  H     -3.945553    1.705149    0.453518
  H     -3.570142    1.405869   -1.226713
  H     -2.512356    2.440253   -0.248537
  C     -3.168215   -0.953172    0.137113
  H     -2.034232    0.479755    1.256249
  H     -4.059751   -0.852583    0.754726
  H     -3.491178   -1.145778   -0.886742
  H     -2.619657   -1.824996    0.489814
  C     -0.936130    0.483202   -1.735501
  C      0.379554    0.288062   -2.262255
  H     -1.741266    0.932463   -2.306914
  C      1.385620    0.000258   -1.323179
  C      2.618223   -0.236726   -2.026858
  S      0.910664    0.290731   -3.866429
  C      2.505283   -0.109963   -3.374917
  H      1.589488    1.125079   -0.742468
  H      3.561267   -0.428366   -1.535195
  H      3.284212   -0.206521   -4.115936
  H     -0.532721   -3.308846   -0.366633
  H     -1.003350   -2.493932    2.189627
  H      1.280451   -1.507654    3.155821
  O      1.671601    2.359265    0.027797
  O      0.609252    1.029895    1.465334
  C      1.124562    2.142941    1.123080
  C      1.078926    3.242867    2.145188
  H      0.994480    4.213605    1.663013
  H      2.013816    3.238649    2.708406
  H      0.263094    3.101287    2.848903
  H      3.208457   -1.816581    1.308457
  H      2.053583   -2.905639   -0.896922

 Multiplicity           Mult            ....    1
 Number of Electrons    NEL             ....  164
 Basis Dimension        Dim             ....  358

ORBITAL ENERGIES
----------------

  NO   OCC          E(Eh)            E(eV)
   0   2.0000     -89.770552     -2442.7809
   1   2.0000     -19.631040      -534.1878
   2   2.0000     -19.616363      -533.7884
   3   2.0000     -14.837081      -403.7375
   4   2.0000     -10.692081      -290.9463
   5   2.0000     -10.656284      -289.9722
   6   2.0000     -10.632584      -289.3273
   7   2.0000     -10.621849      -289.0352
   8   2.0000     -10.621312      -289.0206
   9   2.0000     -10.619609      -288.9743
  10   2.0000     -10.614140      -288.8254
  11   2.0000     -10.613667      -288.8126
  12   2.0000     -10.611735      -288.7600
  13   2.0000     -10.608901      -288.6829
  14   2.0000     -10.594854      -288.3006
  15   2.0000     -10.592594      -288.2391
  16   2.0000     -10.553821      -287.1841
  17   2.0000     -10.551214      -287.1131
  18   2.0000     -10.541762      -286.8559
  19   2.0000      -8.409865      -228.8441
  20   2.0000      -6.299704      -171.4237
  21   2.0000      -6.296144      -171.3268
  22   2.0000      -6.294909      -171.2932
  23   2.0000      -4.018478      -109.3483
  24   2.0000      -2.335209       -63.5443
  25   2.0000      -2.306095       -62.7520
  26   2.0000      -2.301915       -62.6383
  27   2.0000      -1.318728       -35.8844
  28   2.0000      -1.220828       -33.2204
  29   2.0000      -1.210221       -32.9318
  30   2.0000      -1.156853       -31.4796
  31   2.0000      -1.132883       -30.8273
  32   2.0000      -1.027260       -27.9532
  33   2.0000      -0.976134       -26.5620
  34   2.0000      -0.970003       -26.3951
  35   2.0000      -0.964859       -26.2552
  36   2.0000      -0.959933       -26.1211
  37   2.0000      -0.935548       -25.4576
  38   2.0000      -0.900960       -24.5164
  39   2.0000      -0.875447       -23.8221
  40   2.0000      -0.801690       -21.8151
  41   2.0000      -0.785675       -21.3793
  42   2.0000      -0.774056       -21.0631
  43   2.0000      -0.772987       -21.0340
  44   2.0000      -0.758846       -20.6493
  45   2.0000      -0.755815       -20.5668
  46   2.0000      -0.744901       -20.2698
  47   2.0000      -0.722425       -19.6582
  48   2.0000      -0.693541       -18.8722
  49   2.0000      -0.685578       -18.6555
  50   2.0000      -0.665086       -18.0979
  51   2.0000      -0.656179       -17.8555
  52   2.0000      -0.647090       -17.6082
  53   2.0000      -0.636490       -17.3198
  54   2.0000      -0.629990       -17.1429
  55   2.0000      -0.624084       -16.9822
  56   2.0000      -0.621878       -16.9222
  57   2.0000      -0.614377       -16.7180
  58   2.0000      -0.603927       -16.4337
  59   2.0000      -0.595927       -16.2160
  60   2.0000      -0.593456       -16.1488
  61   2.0000      -0.591830       -16.1045
  62   2.0000      -0.581661       -15.8278
  63   2.0000      -0.570969       -15.5368
  64   2.0000      -0.565136       -15.3781
  65   2.0000      -0.563793       -15.3416
  66   2.0000      -0.553134       -15.0515
  67   2.0000      -0.547163       -14.8891
  68   2.0000      -0.542133       -14.7522
  69   2.0000      -0.536329       -14.5943
  70   2.0000      -0.532045       -14.4777
  71   2.0000      -0.518942       -14.1211
  72   2.0000      -0.513454       -13.9718
  73   2.0000      -0.499007       -13.5787
  74   2.0000      -0.493824       -13.4376
  75   2.0000      -0.490148       -13.3376
  76   2.0000      -0.475184       -12.9304
  77   2.0000      -0.450940       -12.2707
  78   2.0000      -0.441476       -12.0132
  79   2.0000      -0.422252       -11.4901
  80   2.0000      -0.412439       -11.2230
  81   2.0000      -0.391588       -10.6556
  82   0.0000      -0.211260        -5.7487
  83   0.0000      -0.144043        -3.9196
  84   0.0000      -0.123406        -3.3581
  85   0.0000      -0.089808        -2.4438
  86   0.0000      -0.077771        -2.1163

MULLIKEN ATOMIC CHARGES
-----------------------
   0 Ir:    0.619243
   1 C :   -0.255292
   2 C :   -0.248052
   3 C :   -0.281898
   4 C :   -0.219266
   5 C :   -0.148424
   6 N :   -0.427755
   7 C :   -0.128596
   8 C :   -0.680585
   9 H :    0.269681
  10 H :    0.223932
  11 H :    0.254620
  12 C :   -0.633120
  13 H :    0.280831
  14 H :    0.259036
  15 H :    0.232651
  16 H :    0.235358
  17 C :    0.070731
  18 C :   -0.112560
  19 H :    0.286936
  20 C :   -0.614539
  21 C :   -0.078833
  22 S :    0.352630
  23 C :   -0.427515
  24 H :    0.468236
  25 H :    0.271579
  26 H :    0.299976
  27 H :    0.282807
  28 H :    0.279358
  29 H :    0.295822
  30 O :   -0.469052
  31 O :   -0.512929
  32 C :    0.625278
  33 C :   -0.743124
  34 H :    0.271053
  35 H :    0.273382
  36 H :    0.258728
  37 H :    0.279007
  38 H :    0.290665
Sum of atomic charges:    1.0000000

LOEWDIN ATOMIC CHARGES
----------------------
   0 Ir:   -0.260017
   1 C :   -0.064681
   2 C :   -0.099718
   3 C :   -0.102886
   4 C :   -0.042701
   5 C :   -0.020013
   6 N :    0.004850
   7 C :   -0.069933
   8 C :   -0.361950
   9 H :    0.156505
  10 H :    0.132728
  11 H :    0.143813
  12 C :   -0.343437
  13 H :    0.155556
  14 H :    0.150956
  15 H :    0.138012
  16 H :    0.134170
  17 C :    0.025775
  18 C :   -0.178573
  19 H :    0.161553
  20 C :   -0.220495
  21 C :   -0.118387
  22 S :    0.509850
  23 C :   -0.257524
  24 H :    0.357243
  25 H :    0.164680
  26 H :    0.170629
  27 H :    0.180761
  28 H :    0.177662
  29 H :    0.186609
  30 O :   -0.260980
  31 O :   -0.186586
  32 C :    0.157893
  33 C :   -0.372666
  34 H :    0.162407
  35 H :    0.170977
  36 H :    0.154978
  37 H :    0.180252
  38 H :    0.182687

  Mayer bond orders larger than 0.100000
B(  0-Ir,  1-C ) :   0.4541 B(  0-Ir,  2-C ) :   0.3635 B(  0-Ir,  3-C ) :   0.4731
B(  0-Ir,  4-C ) :   0.4125 B(  0-Ir,  5-C ) :   0.3421 B(  0-Ir,  6-N ) :   0.4625
B(  0-Ir, 20-C ) :   0.5648 B(  0-Ir, 31-O ) :   0.5267 B(  1-C ,  2-C ) :   1.1239
B(  1-C ,  4-C ) :   1.2216 B(  1-C , 27-H ) :   0.9100 B(  2-C ,  5-C ) :   1.2509
B(  2-C , 28-H ) :   0.9101 B(  3-C ,  4-C ) :   1.1470 B(  3-C ,  5-C ) :   1.1582
B(  3-C , 37-H ) :   0.9152 B(  4-C , 38-H ) :   0.8991 B(  5-C , 29-H ) :   0.9021
B(  6-N ,  7-C ) :   0.8959 B(  6-N , 17-C ) :   1.6461 B(  7-C ,  8-C ) :   0.9900
B(  7-C , 12-C ) :   0.9659 B(  7-C , 13-H ) :   0.8756 B(  8-C ,  9-H ) :   0.9046
B(  8-C , 10-H ) :   0.9132 B(  8-C , 11-H ) :   0.9118 B( 12-C , 14-H ) :   0.9076
B( 12-C , 15-H ) :   0.9151 B( 12-C , 16-H ) :   0.9112 B( 17-C , 18-C ) :   1.1141
B( 17-C , 19-H ) :   0.8765 B( 18-C , 20-C ) :   1.1902 B( 18-C , 22-S ) :   1.2624
B( 20-C , 21-C ) :   1.2311 B( 20-C , 24-H ) :   0.3711 B( 21-C , 23-C ) :   1.5550
B( 21-C , 25-H ) :   0.9000 B( 22-S , 23-C ) :   1.2064 B( 23-C , 26-H ) :   0.8911
B( 24-H , 30-O ) :   0.3253 B( 30-O , 32-C ) :   1.6037 B( 31-O , 32-C ) :   1.3574
B( 32-C , 33-C ) :   0.9421 B( 33-C , 34-H ) :   0.9020 B( 33-C , 35-H ) :   0.8947
B( 33-C , 36-H ) :   0.9084

Dispersion correction           -0.030879864
FINAL SINGLE POINT ENERGY     -1288.393743986177

DIPOLE MOMENT
-------------
                                X             Y             Z
Electronic contribution:     38.93751     -73.53754      66.80534
Nuclear contribution   :    -39.57280      73.03609     -67.24297
                        -----------------------------------------
Total Dipole Moment    :     -0.63530      -0.50145      -0.43763
                        -----------------------------------------
Magnitude (a.u.)       :      0.92009
Magnitude (Debye)      :      2.33870

Rotational constants in cm-1:     0.010530     0.009071     0.008278
Rotational constants in MHz :   315.685468   271.949339   248.170605

                             ****ORCA TERMINATED NORMALLY****
TOTAL RUN TIME: 0 days 2 hours 7 minutes 39 seconds 738 msec
