                         Program Version 5.0.3 -  RELEASE  -
|  1> ! Opt PBEh-3c
|  2> %geom Constraints
|  3> { B 0 20 2.6 C }
|  4> { B 24 30 1.4285714285714286 C }
|  5>     end
|  6> end
|  7> %output
|  8> xyzfile=True
|  9> end
| 10> %scf
| 11> maxiter 250
| 12> end
| 13> %output
| 14> Print[P_Hirshfeld] = 1
| 15> end
| 16> % maxcore
| 17> 4000
| 18> *xyz 1 1
| 19> Ir   0.57330541  -0.73319431   0.48215342
| 20> C    0.02019983  -2.81149498   0.34213434
| 21> C    0.11027351  -2.37257144   1.71507702
| 22> C    2.18891275  -2.14661624   0.75598521
| 23> C    1.28098582  -2.64219796  -0.25470561
| 24> C    1.48111221  -2.02249883   1.96298719
| 25> N   -1.04028663   0.17537122  -0.51053575
| 26> C   -2.31403846   0.51750549   0.14204588
| 27> C   -3.13210978   1.54605477  -0.62141046
| 28> H   -3.96700673   1.86324768   0.00181640
| 29> H   -3.56455921   1.14782573  -1.54076303
| 30> H   -2.55137306   2.43728826  -0.86144195
| 31> C   -3.11250827  -0.75367677   0.40285708
| 32> H   -2.02474027   0.94969964   1.10157810
| 33> H   -4.02881599  -0.50556260   0.93626404
| 34> H   -3.39347970  -1.24397663  -0.53021926
| 35> H   -2.56420121  -1.46469161   1.01936895
| 36> C   -0.82298587   0.37709535  -1.75161026
| 37> C    0.53085650   0.14766883  -2.21476075
| 38> H   -1.59582529   0.73784257  -2.42461316
| 39> C    1.64389988   0.56789630  -1.49799575
| 40> C    2.84026706   0.14168304  -2.14257775
| 41> S    0.93891170  -0.69058763  -3.64960287
| 42> C    2.61277552  -0.53706707  -3.29847832
| 43> H    1.55173367   1.41944105  -0.69631383
| 44> H    3.83140524   0.37853083  -1.78395626
| 45> H    3.34172725  -0.94109279  -3.98466965
| 46> H   -0.87299050  -3.16713199  -0.15108384
| 47> H   -0.67521935  -2.41213128   2.45572276
| 48> H    1.87433147  -1.64226512   2.89484132
| 49> O    1.28080100   2.44947194   0.27706614
| 50> O    0.54090960   0.89108729   1.69301504
| 51> C    0.89580702   2.09815787   1.38738121
| 52> C    0.83495382   3.06866269   2.53374451
| 53> H    0.78212721   4.09045078   2.16790543
| 54> H    1.74431576   2.97389408   3.13041743
| 55> H   -0.00565837   2.86469822   3.19379815
| 56> H    3.23169665  -1.90975298   0.60418688
| 57> H    1.53385980  -2.84787337  -1.28486789
| 58> *
| 59>
| 60>                          ****END OF INPUT****
 Total Charge           Charge          ....    1
 Multiplicity           Mult            ....    1
 Number of Electrons    NEL             ....  164
Dispersion correction           -0.030917833
FINAL SINGLE POINT ENERGY     -1288.395221205199
Dispersion correction            ... done
Dispersion correction           -0.030890210
FINAL SINGLE POINT ENERGY     -1288.395218246029
Dispersion correction            ... done
Dispersion correction           -0.030848395
FINAL SINGLE POINT ENERGY     -1288.395091522479
Dispersion correction            ... done
FINAL SINGLE POINT ENERGY     -1288.395173126662
FINAL SINGLE POINT ENERGY     -1288.395154136601
FINAL SINGLE POINT ENERGY     -1288.395235834118
Dispersion correction            ... done
Dispersion correction           -0.030896235
FINAL SINGLE POINT ENERGY     -1288.395234961863
Dispersion correction            ... done
Dispersion correction           -0.030895559
FINAL SINGLE POINT ENERGY     -1288.395238502216
Dispersion correction            ... done
                    ***********************HURRAY********************

CARTESIAN COORDINATES (ANGSTROEM)
---------------------------------
  Ir     0.571458   -0.734534    0.485769
  C      0.017671   -2.812292    0.345744
  C      0.106648   -2.373806    1.718758
  C      2.186341   -2.148433    0.761512
  C      1.279071   -2.643277   -0.250117
  C      1.477367   -2.024079    1.967832
  N     -1.040622    0.172875   -0.509833
  C     -2.315473    0.513238    0.141756
  C     -3.132595    1.543722   -0.620230
  H     -3.967909    1.859885    0.002971
  H     -3.564451    1.147728   -1.540814
  H     -2.551336    2.435235   -0.857937
  C     -3.114524   -0.758426    0.398422
  H     -2.027722    0.943276    1.102737
  H     -4.031878   -0.511424    0.930556
  H     -3.393661   -1.246791   -0.536216
  H     -2.567456   -1.470751    1.014513
  C     -0.823415    0.374937   -1.751121
  C      0.530310    0.149823   -2.215442
  H     -1.597575    0.733740   -2.423674
  C      1.642412    0.565713   -1.494739
  C      2.839170    0.144838   -2.141984
  S      0.939443   -0.676828   -3.656860
  C      2.612829   -0.524923   -3.303505
  H      1.549684    1.419773   -0.686964
  H      3.830136    0.379212   -1.781203
  H      3.342501   -0.922942   -3.992453
  H     -0.875212   -3.167391   -0.148424
  H     -0.679532   -2.413341    2.458660
  H      1.869957   -1.644317    2.900139
  O      1.290980    2.444350    0.274354
  O      0.540267    0.893506    1.692804
  C      0.901554    2.097324    1.385336
  C      0.843651    3.072120    2.527906
  H      0.793811    4.092799    2.158580
  H      1.752902    2.976735    3.124673
  H      0.002542    2.872687    3.188668
  H      3.229362   -1.911988    0.610711
  H      1.532664   -2.848782   -1.280141

 Multiplicity           Mult            ....    1
 Number of Electrons    NEL             ....  164
 Basis Dimension        Dim             ....  358

ORBITAL ENERGIES
----------------

  NO   OCC          E(Eh)            E(eV)
   0   2.0000     -89.758752     -2442.4598
   1   2.0000     -19.623115      -533.9721
   2   2.0000     -19.583908      -532.9052
   3   2.0000     -14.841614      -403.8608
   4   2.0000     -10.679310      -290.5988
   5   2.0000     -10.662582      -290.1436
   6   2.0000     -10.639811      -289.5240
   7   2.0000     -10.638365      -289.4846
   8   2.0000     -10.635960      -289.4192
   9   2.0000     -10.635148      -289.3971
  10   2.0000     -10.633723      -289.3583
  11   2.0000     -10.629942      -289.2554
  12   2.0000     -10.617060      -288.9049
  13   2.0000     -10.608209      -288.6640
  14   2.0000     -10.580760      -287.9171
  15   2.0000     -10.579316      -287.8778
  16   2.0000     -10.557882      -287.2946
  17   2.0000     -10.552582      -287.1503
  18   2.0000     -10.531570      -286.5786
  19   2.0000      -8.398033      -228.5221
  20   2.0000      -6.288163      -171.1096
  21   2.0000      -6.284524      -171.0106
  22   2.0000      -6.282680      -170.9604
  23   2.0000      -4.032732      -109.7362
  24   2.0000      -2.352330       -64.0101
  25   2.0000      -2.317680       -63.0673
  26   2.0000      -2.316105       -63.0244
  27   2.0000      -1.303063       -35.4581
  28   2.0000      -1.213784       -33.0287
  29   2.0000      -1.207029       -32.8449
  30   2.0000      -1.176703       -32.0197
  31   2.0000      -1.123660       -30.5763
  32   2.0000      -1.026998       -27.9460
  33   2.0000      -0.991718       -26.9860
  34   2.0000      -0.981642       -26.7118
  35   2.0000      -0.963347       -26.2140
  36   2.0000      -0.957557       -26.0565
  37   2.0000      -0.925467       -25.1832
  38   2.0000      -0.904260       -24.6062
  39   2.0000      -0.873093       -23.7581
  40   2.0000      -0.797000       -21.6875
  41   2.0000      -0.792457       -21.5639
  42   2.0000      -0.790552       -21.5120
  43   2.0000      -0.780395       -21.2356
  44   2.0000      -0.774649       -21.0793
  45   2.0000      -0.755834       -20.5673
  46   2.0000      -0.744571       -20.2608
  47   2.0000      -0.722115       -19.6497
  48   2.0000      -0.695391       -18.9225
  49   2.0000      -0.672156       -18.2903
  50   2.0000      -0.665268       -18.1029
  51   2.0000      -0.652604       -17.7583
  52   2.0000      -0.649602       -17.6766
  53   2.0000      -0.641674       -17.4608
  54   2.0000      -0.637264       -17.3408
  55   2.0000      -0.629042       -17.1171
  56   2.0000      -0.624472       -16.9927
  57   2.0000      -0.612909       -16.6781
  58   2.0000      -0.611783       -16.6474
  59   2.0000      -0.609062       -16.5734
  60   2.0000      -0.596206       -16.2236
  61   2.0000      -0.587274       -15.9805
  62   2.0000      -0.575718       -15.6661
  63   2.0000      -0.570060       -15.5121
  64   2.0000      -0.563425       -15.3316
  65   2.0000      -0.554218       -15.0810
  66   2.0000      -0.552459       -15.0332
  67   2.0000      -0.548502       -14.9255
  68   2.0000      -0.539318       -14.6756
  69   2.0000      -0.534224       -14.5370
  70   2.0000      -0.528018       -14.3681
  71   2.0000      -0.522511       -14.2182
  72   2.0000      -0.516501       -14.0547
  73   2.0000      -0.508701       -13.8425
  74   2.0000      -0.489295       -13.3144
  75   2.0000      -0.480996       -13.0886
  76   2.0000      -0.463021       -12.5995
  77   2.0000      -0.451974       -12.2988
  78   2.0000      -0.440193       -11.9783
  79   2.0000      -0.423066       -11.5122
  80   2.0000      -0.417323       -11.3559
  81   2.0000      -0.404578       -11.0091
  82   0.0000      -0.201221        -5.4755
  83   0.0000      -0.167463        -4.5569
  84   0.0000      -0.142145        -3.8680
  85   0.0000      -0.102291        -2.7835
  86   0.0000      -0.077208        -2.1009

MULLIKEN ATOMIC CHARGES
-----------------------
   0 Ir:    0.625537
   1 C :   -0.207411
   2 C :   -0.298228
   3 C :   -0.229428
   4 C :   -0.244380
   5 C :   -0.165516
   6 N :   -0.426155
   7 C :   -0.115418
   8 C :   -0.696495
   9 H :    0.273546
  10 H :    0.226527
  11 H :    0.261113
  12 C :   -0.640577
  13 H :    0.280834
  14 H :    0.265748
  15 H :    0.230999
  16 H :    0.233060
  17 C :    0.066156
  18 C :   -0.234874
  19 H :    0.292873
  20 C :   -0.377870
  21 C :   -0.149209
  22 S :    0.287193
  23 C :   -0.427198
  24 H :    0.492390
  25 H :    0.266723
  26 H :    0.296199
  27 H :    0.293639
  28 H :    0.295503
  29 H :    0.308334
  30 O :   -0.482392
  31 O :   -0.546562
  32 C :    0.611905
  33 C :   -0.746452
  34 H :    0.268623
  35 H :    0.265072
  36 H :    0.251293
  37 H :    0.297987
  38 H :    0.296913
Sum of atomic charges:    1.0000000

LOEWDIN ATOMIC CHARGES
----------------------
   0 Ir:   -0.202632
   1 C :   -0.039348
   2 C :   -0.051006
   3 C :   -0.043697
   4 C :   -0.053769
   5 C :   -0.027191
   6 N :   -0.008723
   7 C :   -0.067947
   8 C :   -0.365063
   9 H :    0.157845
  10 H :    0.134244
  11 H :    0.147160
  12 C :   -0.343437
  13 H :    0.156487
  14 H :    0.153469
  15 H :    0.137376
  16 H :    0.134565
  17 C :    0.037798
  18 C :   -0.193749
  19 H :    0.163260
  20 C :   -0.177666
  21 C :   -0.148198
  22 S :    0.451559
  23 C :   -0.262196
  24 H :    0.274228
  25 H :    0.161914
  26 H :    0.167217
  27 H :    0.186612
  28 H :    0.187252
  29 H :    0.194644
  30 O :   -0.277651
  31 O :   -0.211952
  32 C :    0.152863
  33 C :   -0.377352
  34 H :    0.159031
  35 H :    0.166245
  36 H :    0.152276
  37 H :    0.189031
  38 H :    0.186502

  Mayer bond orders larger than 0.100000
B(  0-Ir,  1-C ) :   0.4213 B(  0-Ir,  2-C ) :   0.5655 B(  0-Ir,  3-C ) :   0.4655
B(  0-Ir,  4-C ) :   0.4527 B(  0-Ir,  5-C ) :   0.4036 B(  0-Ir,  6-N ) :   0.4649
B(  0-Ir, 20-C ) :   0.1923 B(  0-Ir, 31-O ) :   0.5984 B(  1-C ,  2-C ) :   1.1095
B(  1-C ,  4-C ) :   1.2485 B(  1-C , 27-H ) :   0.9026 B(  2-C ,  5-C ) :   1.1264
B(  2-C , 28-H ) :   0.9056 B(  3-C ,  4-C ) :   1.1022 B(  3-C ,  5-C ) :   1.2368
B(  3-C , 37-H ) :   0.9016 B(  4-C , 38-H ) :   0.8963 B(  5-C , 29-H ) :   0.8971
B(  6-N ,  7-C ) :   0.8902 B(  6-N , 17-C ) :   1.7032 B(  7-C ,  8-C ) :   0.9930
B(  7-C , 12-C ) :   0.9698 B(  7-C , 13-H ) :   0.8713 B(  8-C ,  9-H ) :   0.9030
B(  8-C , 10-H ) :   0.9121 B(  8-C , 11-H ) :   0.9076 B( 12-C , 14-H ) :   0.9060
B( 12-C , 15-H ) :   0.9151 B( 12-C , 16-H ) :   0.9104 B( 17-C , 18-C ) :   1.0434
B( 17-C , 19-H ) :   0.8735 B( 18-C , 20-C ) :   1.3177 B( 18-C , 22-S ) :   1.2066
B( 20-C , 21-C ) :   1.2655 B( 20-C , 24-H ) :   0.5230 B( 21-C , 23-C ) :   1.5459
B( 21-C , 25-H ) :   0.9040 B( 22-S , 23-C ) :   1.2016 B( 23-C , 26-H ) :   0.8930
B( 24-H , 30-O ) :   0.2070 B( 30-O , 32-C ) :   1.7201 B( 31-O , 32-C ) :   1.2545
B( 32-C , 33-C ) :   0.9465 B( 33-C , 34-H ) :   0.9058 B( 33-C , 35-H ) :   0.8995
B( 33-C , 36-H ) :   0.9099

Dispersion correction           -0.030893823
FINAL SINGLE POINT ENERGY     -1288.395239120973

DIPOLE MOMENT
-------------
                                X             Y             Z
Electronic contribution:     33.37129     -68.19869      75.41888
Nuclear contribution   :    -34.01200      66.87725     -75.60580
                        -----------------------------------------
Total Dipole Moment    :     -0.64071      -1.32145      -0.18691
                        -----------------------------------------
Magnitude (a.u.)       :      1.48043
Magnitude (Debye)      :      3.76296

Rotational constants in cm-1:     0.010745     0.009050     0.008235
Rotational constants in MHz :   322.138621   271.319520   246.874821

                             ****ORCA TERMINATED NORMALLY****
TOTAL RUN TIME: 0 days 1 hours 9 minutes 36 seconds 605 msec
