                         Program Version 5.0.3 -  RELEASE  -
|  1> ! Opt PBEh-3c
|  2> %geom Constraints
|  3> { B 0 20 2.5571428571428574 C }
|  4> { B 24 30 1.5 C }
|  5>     end
|  6> end
|  7> %output
|  8> xyzfile=True
|  9> end
| 10> %scf
| 11> maxiter 250
| 12> end
| 13> %output
| 14> Print[P_Hirshfeld] = 1
| 15> end
| 16> % maxcore
| 17> 4000
| 18> %pal nprocs 4
| 19> end
| 20> *xyz 1 1
| 21> Ir   0.58127022  -0.72844282   0.47086482
| 22> C    0.03328717  -2.80987120   0.32994191
| 23> C    0.12225722  -2.36865279   1.70260242
| 24> C    2.20015296  -2.13837558   0.74355575
| 25> C    1.29358007  -2.63848607  -0.26611939
| 26> C    1.49212580  -2.01538874   1.95052150
| 27> N   -1.03750421   0.18293623  -0.51225760
| 28> C   -2.30714981   0.53113388   0.14443891
| 29> C   -3.12421679   1.56049530  -0.61862125
| 30> H   -3.95587925   1.88199254   0.00675108
| 31> H   -3.56149961   1.16197250  -1.53561408
| 32> H   -2.54112751   2.44921255  -0.86226438
| 33> C   -3.10732788  -0.73767610   0.41084104
| 34> H   -2.01256348   0.96462984   1.10169806
| 35> H   -4.01976961  -0.48662739   0.94947070
| 36> H   -3.39506562  -1.22756418  -0.52039568
| 37> H   -2.55751361  -1.45018685   1.02433374
| 38> C   -0.82197069   0.38217829  -1.75318122
| 39> C    0.53119254   0.13744493  -2.21459207
| 40> H   -1.59156608   0.74914022  -2.42646712
| 41> C    1.64852013   0.57070281  -1.51236442
| 42> C    2.84276305   0.12703087  -2.14917174
| 43> S    0.93374971  -0.73853610  -3.62757506
| 44> C    2.60967727  -0.58056549  -3.28603374
| 45> H    1.55972520   1.41598901  -0.73319531
| 46> H    3.83499086   0.37153039  -1.79907502
| 47> H    3.33513993  -1.00433067  -3.96390215
| 48> H   -0.85884917  -3.16923644  -0.16242641
| 49> H   -0.66338006  -2.40813802   2.44314221
| 50> H    1.88383953  -1.63255189   2.88197198
| 51> O    1.22897682   2.46781482   0.28379435
| 52> O    0.54583460   0.88099415   1.69653385
| 53> C    0.86940280   2.10064290   1.39453708
| 54> C    0.80175325   3.05683398   2.55359597
| 55> H    0.72262559   4.08097735   2.19914457
| 56> H    1.72019555   2.97570190   3.13819176
| 57> H   -0.02599310   2.82881450   3.22203568
| 58> H    3.24242750  -1.89924635   0.59189796
| 59> H    1.54725870  -2.84510226  -1.29586867
| 60> *
| 61>
| 62>                          ****END OF INPUT****
 Total Charge           Charge          ....    1
 Multiplicity           Mult            ....    1
 Number of Electrons    NEL             ....  164
Dispersion correction           -0.031042005
FINAL SINGLE POINT ENERGY     -1288.398468318055
Dispersion correction            ... done
Dispersion correction           -0.031034033
FINAL SINGLE POINT ENERGY     -1288.397843507455
Dispersion correction            ... done
Dispersion correction           -0.030997731
FINAL SINGLE POINT ENERGY     -1288.398524856131
Dispersion correction            ... done
FINAL SINGLE POINT ENERGY     -1288.398126440000
FINAL SINGLE POINT ENERGY     -1288.398556702624
Dispersion correction            ... done
Dispersion correction           -0.030968128
FINAL SINGLE POINT ENERGY     -1288.398557168954
Dispersion correction            ... done
Dispersion correction           -0.030973138
FINAL SINGLE POINT ENERGY     -1288.398562991463
Dispersion correction            ... done
                    ***********************HURRAY********************

CARTESIAN COORDINATES (ANGSTROEM)
---------------------------------
  Ir     0.587034   -0.724388    0.455408
  C      0.034035   -2.805589    0.328004
  C      0.126821   -2.360167    1.698624
  C      2.203100   -2.136857    0.732952
  C      1.293617   -2.639844   -0.272435
  C      1.497246   -2.006687    1.940810
  N     -1.040197    0.184222   -0.517613
  C     -2.307787    0.530128    0.143623
  C     -3.129751    1.557549   -0.616826
  H     -3.961012    1.876191    0.010508
  H     -3.567512    1.157637   -1.532992
  H     -2.550012    2.448230   -0.861339
  C     -3.105100   -0.739892    0.413557
  H     -2.010062    0.963801    1.099813
  H     -4.015595   -0.489884    0.955939
  H     -3.396135   -1.230742   -0.516125
  H     -2.551182   -1.450802    1.025105
  C     -0.826932    0.387180   -1.758316
  C      0.526758    0.141569   -2.216911
  H     -1.595796    0.756772   -2.430835
  C      1.640159    0.552260   -1.493971
  C      2.837564    0.107746   -2.125640
  S      0.936328   -0.718461   -3.636020
  C      2.610415   -0.580232   -3.275247
  H      1.556235    1.407568   -0.722117
  H      3.828057    0.338933   -1.761767
  H      3.339090   -0.999495   -3.952460
  H     -0.859903   -3.165028   -0.161075
  H     -0.656618   -2.396419    2.441549
  H      1.891753   -1.619737    2.869370
  O      1.244618    2.477092    0.282380
  O      0.542660    0.886734    1.681944
  C      0.874306    2.105585    1.388681
  C      0.801398    3.057195    2.551207
  H      0.730900    4.083394    2.200909
  H      1.713940    2.968423    3.143854
  H     -0.033761    2.830427    3.210821
  H      3.245866   -1.901847    0.578676
  H      1.544826   -2.853376   -1.301305

 Multiplicity           Mult            ....    1
 Number of Electrons    NEL             ....  164
 Basis Dimension        Dim             ....  358

ORBITAL ENERGIES
----------------

  NO   OCC          E(Eh)            E(eV)
   0   2.0000     -89.762539     -2442.5629
   1   2.0000     -19.619758      -533.8808
   2   2.0000     -19.578859      -532.7678
   3   2.0000     -14.843222      -403.9046
   4   2.0000     -10.674719      -290.4739
   5   2.0000     -10.664139      -290.1860
   6   2.0000     -10.639566      -289.5173
   7   2.0000     -10.637466      -289.4602
   8   2.0000     -10.635580      -289.4088
   9   2.0000     -10.634863      -289.3893
  10   2.0000     -10.634408      -289.3769
  11   2.0000     -10.633097      -289.3413
  12   2.0000     -10.617307      -288.9116
  13   2.0000     -10.611008      -288.7402
  14   2.0000     -10.584615      -288.0220
  15   2.0000     -10.584093      -288.0078
  16   2.0000     -10.558078      -287.2999
  17   2.0000     -10.552784      -287.1559
  18   2.0000     -10.529207      -286.5143
  19   2.0000      -8.401788      -228.6243
  20   2.0000      -6.291924      -171.2119
  21   2.0000      -6.288264      -171.1124
  22   2.0000      -6.286434      -171.0626
  23   2.0000      -4.032311      -109.7248
  24   2.0000      -2.351689       -63.9927
  25   2.0000      -2.317270       -63.0561
  26   2.0000      -2.315897       -63.0188
  27   2.0000      -1.297979       -35.3198
  28   2.0000      -1.215711       -33.0812
  29   2.0000      -1.202177       -32.7129
  30   2.0000      -1.176050       -32.0019
  31   2.0000      -1.127613       -30.6839
  32   2.0000      -1.028495       -27.9868
  33   2.0000      -0.991093       -26.9690
  34   2.0000      -0.981096       -26.6970
  35   2.0000      -0.966388       -26.2967
  36   2.0000      -0.961198       -26.1555
  37   2.0000      -0.922228       -25.0951
  38   2.0000      -0.904622       -24.6160
  39   2.0000      -0.875059       -23.8116
  40   2.0000      -0.798368       -21.7247
  41   2.0000      -0.792018       -21.5519
  42   2.0000      -0.790124       -21.5004
  43   2.0000      -0.782142       -21.2832
  44   2.0000      -0.775168       -21.0934
  45   2.0000      -0.754831       -20.5400
  46   2.0000      -0.744051       -20.2467
  47   2.0000      -0.722917       -19.6716
  48   2.0000      -0.695828       -18.9344
  49   2.0000      -0.670869       -18.2553
  50   2.0000      -0.664864       -18.0919
  51   2.0000      -0.652853       -17.7650
  52   2.0000      -0.648582       -17.6488
  53   2.0000      -0.641600       -17.4588
  54   2.0000      -0.634880       -17.2760
  55   2.0000      -0.626177       -17.0391
  56   2.0000      -0.624157       -16.9842
  57   2.0000      -0.613143       -16.6845
  58   2.0000      -0.611330       -16.6351
  59   2.0000      -0.609943       -16.5974
  60   2.0000      -0.597727       -16.2650
  61   2.0000      -0.589104       -16.0303
  62   2.0000      -0.578400       -15.7391
  63   2.0000      -0.573391       -15.6028
  64   2.0000      -0.564711       -15.3666
  65   2.0000      -0.554105       -15.0780
  66   2.0000      -0.551542       -15.0082
  67   2.0000      -0.548671       -14.9301
  68   2.0000      -0.538956       -14.6657
  69   2.0000      -0.535155       -14.5623
  70   2.0000      -0.528338       -14.3768
  71   2.0000      -0.522686       -14.2230
  72   2.0000      -0.516525       -14.0554
  73   2.0000      -0.507497       -13.8097
  74   2.0000      -0.487136       -13.2556
  75   2.0000      -0.481453       -13.1010
  76   2.0000      -0.465267       -12.6606
  77   2.0000      -0.450096       -12.2477
  78   2.0000      -0.439513       -11.9598
  79   2.0000      -0.425087       -11.5672
  80   2.0000      -0.417183       -11.3521
  81   2.0000      -0.405436       -11.0325
  82   0.0000      -0.201008        -5.4697
  83   0.0000      -0.167445        -4.5564
  84   0.0000      -0.142514        -3.8780
  85   0.0000      -0.105541        -2.8719
  86   0.0000      -0.078016        -2.1229

MULLIKEN ATOMIC CHARGES
-----------------------
   0 Ir:    0.622965
   1 C :   -0.207802
   2 C :   -0.297372
   3 C :   -0.231079
   4 C :   -0.245611
   5 C :   -0.163376
   6 N :   -0.421061
   7 C :   -0.115680
   8 C :   -0.696906
   9 H :    0.274003
  10 H :    0.226109
  11 H :    0.261837
  12 C :   -0.640824
  13 H :    0.282037
  14 H :    0.265988
  15 H :    0.230907
  16 H :    0.233722
  17 C :    0.067523
  18 C :   -0.232235
  19 H :    0.294387
  20 C :   -0.387297
  21 C :   -0.140402
  22 S :    0.290339
  23 C :   -0.429539
  24 H :    0.486388
  25 H :    0.269521
  26 H :    0.297801
  27 H :    0.293066
  28 H :    0.295043
  29 H :    0.308820
  30 O :   -0.474625
  31 O :   -0.549284
  32 C :    0.606269
  33 C :   -0.746150
  34 H :    0.267368
  35 H :    0.263725
  36 H :    0.249310
  37 H :    0.296749
  38 H :    0.295368
Sum of atomic charges:    1.0000000

LOEWDIN ATOMIC CHARGES
----------------------
   0 Ir:   -0.208270
   1 C :   -0.039199
   2 C :   -0.052543
   3 C :   -0.045953
   4 C :   -0.055916
   5 C :   -0.025374
   6 N :   -0.003794
   7 C :   -0.068013
   8 C :   -0.365104
   9 H :    0.158124
  10 H :    0.134142
  11 H :    0.147532
  12 C :   -0.343237
  13 H :    0.157259
  14 H :    0.153636
  15 H :    0.137332
  16 H :    0.134884
  17 C :    0.037297
  18 C :   -0.185898
  19 H :    0.164096
  20 C :   -0.171282
  21 C :   -0.143566
  22 S :    0.457194
  23 C :   -0.262781
  24 H :    0.264653
  25 H :    0.163435
  26 H :    0.167992
  27 H :    0.186328
  28 H :    0.187081
  29 H :    0.194870
  30 O :   -0.276248
  31 O :   -0.215662
  32 C :    0.146962
  33 C :   -0.378444
  34 H :    0.158235
  35 H :    0.165271
  36 H :    0.151141
  37 H :    0.188433
  38 H :    0.185390

  Mayer bond orders larger than 0.100000
B(  0-Ir,  1-C ) :   0.4185 B(  0-Ir,  2-C ) :   0.5584 B(  0-Ir,  3-C ) :   0.4662
B(  0-Ir,  4-C ) :   0.4483 B(  0-Ir,  5-C ) :   0.4021 B(  0-Ir,  6-N ) :   0.4607
B(  0-Ir, 20-C ) :   0.1988 B(  0-Ir, 31-O ) :   0.6063 B(  1-C ,  2-C ) :   1.1110
B(  1-C ,  4-C ) :   1.2513 B(  1-C , 27-H ) :   0.9029 B(  2-C ,  5-C ) :   1.1289
B(  2-C , 28-H ) :   0.9059 B(  3-C ,  4-C ) :   1.1020 B(  3-C ,  5-C ) :   1.2357
B(  3-C , 37-H ) :   0.9021 B(  4-C , 38-H ) :   0.8963 B(  5-C , 29-H ) :   0.8968
B(  6-N ,  7-C ) :   0.8901 B(  6-N , 17-C ) :   1.7095 B(  7-C ,  8-C ) :   0.9929
B(  7-C , 12-C ) :   0.9698 B(  7-C , 13-H ) :   0.8701 B(  8-C ,  9-H ) :   0.9029
B(  8-C , 10-H ) :   0.9121 B(  8-C , 11-H ) :   0.9072 B( 12-C , 14-H ) :   0.9060
B( 12-C , 15-H ) :   0.9151 B( 12-C , 16-H ) :   0.9101 B( 17-C , 18-C ) :   1.0355
B( 17-C , 19-H ) :   0.8734 B( 18-C , 20-C ) :   1.3156 B( 18-C , 22-S ) :   1.2159
B( 20-C , 21-C ) :   1.2564 B( 20-C , 24-H ) :   0.5485 B( 21-C , 23-C ) :   1.5497
B( 21-C , 25-H ) :   0.9031 B( 22-S , 23-C ) :   1.1990 B( 23-C , 26-H ) :   0.8924
B( 24-H , 30-O ) :   0.1980 B( 30-O , 32-C ) :   1.7474 B( 31-O , 32-C ) :   1.2391
B( 32-C , 33-C ) :   0.9450 B( 33-C , 34-H ) :   0.9065 B( 33-C , 35-H ) :   0.9005
B( 33-C , 36-H ) :   0.9106

Dispersion correction           -0.030979174
FINAL SINGLE POINT ENERGY     -1288.398563288004

DIPOLE MOMENT
-------------
                                X             Y             Z
Electronic contribution:     34.99944     -67.05948      72.30633
Nuclear contribution   :    -35.63235      65.67587     -72.60694
                        -----------------------------------------
Total Dipole Moment    :     -0.63291      -1.38361      -0.30061
                        -----------------------------------------
Magnitude (a.u.)       :      1.55091
Magnitude (Debye)      :      3.94210

Rotational constants in cm-1:     0.010857     0.009118     0.008260
Rotational constants in MHz :   325.490864   273.360232   247.638408

                             ****ORCA TERMINATED NORMALLY****
TOTAL RUN TIME: 0 days 0 hours 17 minutes 44 seconds 272 msec
