                         Program Version 5.0.3 -  RELEASE  -
|  1> ! Opt PBEh-3c
|  2> %geom Constraints
|  3> { B 0 20 2.5571428571428574 C }
|  4> { B 24 30 1.457142857142857 C }
|  5>     end
|  6> end
|  7> %output
|  8> xyzfile=True
|  9> end
| 10> %scf
| 11> maxiter 250
| 12> end
| 13> %output
| 14> Print[P_Hirshfeld] = 1
| 15> end
| 16> % maxcore
| 17> 4000
| 18> *xyz 1 1
| 19> Ir   0.57736794  -0.73073427   0.47584652
| 20> C    0.02600208  -2.81018095   0.33540620
| 21> C    0.11682231  -2.37037306   1.70826853
| 22> C    2.19434695  -2.14296818   0.74758461
| 23> C    1.28615542  -2.64014651  -0.26211488
| 24> C    1.48759221  -2.01939762   1.95520902
| 25> N   -1.03907794   0.17976100  -0.51146388
| 26> C   -2.31070952   0.52514483   0.14314724
| 27> C   -3.12938279   1.55214173  -0.62154677
| 28> H   -3.96318408   1.87125269   0.00215506
| 29> H   -3.56337774   1.15170758  -1.53923512
| 30> H   -2.54853160   2.44251080  -0.86449827
| 31> C   -3.10916705  -0.74495122   0.40923254
| 32> H   -2.01856641   0.95949203   1.10080645
| 33> H   -4.02340372  -0.49501558   0.94531741
| 34> H   -3.39375645  -1.23693660  -0.52185624
| 35> H   -2.55916030  -1.45508885   1.02526242
| 36> C   -0.82208480   0.38071508  -1.75225610
| 37> C    0.53163793   0.14313846  -2.21389503
| 38> H   -1.59275632   0.74506361  -2.42576117
| 39> C    1.64690942   0.57048179  -1.50478918
| 40> C    2.84212164   0.13443429  -2.14505309
| 41> S    0.93679848  -0.71576822  -3.63698681
| 42> C    2.61172152  -0.56010342  -3.29067525
| 43> H    1.55639990   1.41828023  -0.71477730
| 44> H    3.83382411   0.37529096  -1.79082025
| 45> H    3.33888862  -0.97505912  -3.97218767
| 46> H   -0.86721317  -3.16709340  -0.15682763
| 47> H   -0.66806528  -2.41001328   2.44957804
| 48> H    1.88102953  -1.63806415   2.88653112
| 49> O    1.25735995   2.45923289   0.28126222
| 50> O    0.54267999   0.88619118   1.69399080
| 51> C    0.88314114   2.09966396   1.39104609
| 52> C    0.81733490   3.06240560   2.54421775
| 53> H    0.75456265   4.08585175   2.18459177
| 54> H    1.72918523   2.97206755   3.13773308
| 55> H   -0.01949594   2.84764316   3.20570357
| 56> H    3.23680772  -1.90525320   0.59489721
| 57> H    1.53861343  -2.84613351  -1.29230295
| 58> *
| 59>
| 60>                          ****END OF INPUT****
 Total Charge           Charge          ....    1
 Multiplicity           Mult            ....    1
 Number of Electrons    NEL             ....  164
Dispersion correction           -0.031024362
FINAL SINGLE POINT ENERGY     -1288.397009969677
Dispersion correction            ... done
Dispersion correction           -0.031004723
FINAL SINGLE POINT ENERGY     -1288.396132517477
Dispersion correction            ... done
Dispersion correction           -0.030963345
FINAL SINGLE POINT ENERGY     -1288.397088447111
Dispersion correction            ... done
FINAL SINGLE POINT ENERGY     -1288.396435679968
FINAL SINGLE POINT ENERGY     -1288.397126987885
Dispersion correction            ... done
Dispersion correction           -0.030927024
FINAL SINGLE POINT ENERGY     -1288.397132497953
Dispersion correction            ... done
Dispersion correction           -0.030930350
FINAL SINGLE POINT ENERGY     -1288.397138089703
Dispersion correction            ... done
                    ***********************HURRAY********************

CARTESIAN COORDINATES (ANGSTROEM)
---------------------------------
  Ir     0.580700   -0.727772    0.464033
  C      0.025514   -2.807414    0.337413
  C      0.117586   -2.363264    1.708111
  C      2.195082   -2.141645    0.743958
  C      1.285767   -2.642536   -0.262550
  C      1.488127   -2.010805    1.951174
  N     -1.042456    0.178382   -0.516641
  C     -2.313054    0.519772    0.141660
  C     -3.135523    1.547175   -0.618507
  H     -3.968852    1.862747    0.007643
  H     -3.570383    1.148358   -1.536495
  H     -2.557322    2.439653   -0.860097
  C     -3.109315   -0.751927    0.406800
  H     -2.019186    0.952330    1.099610
  H     -4.022606   -0.504187    0.945527
  H     -3.395487   -1.242194   -0.524703
  H     -2.556944   -1.462596    1.019970
  C     -0.828150    0.383407   -1.757444
  C      0.525957    0.149204   -2.217868
  H     -1.599543    0.749056   -2.429275
  C      1.635950    0.549186   -1.483993
  C      2.835142    0.118163   -2.121441
  S      0.939942   -0.680908   -3.653807
  C      2.612443   -0.546963   -3.285659
  H      1.550063    1.408928   -0.695064
  H      3.824698    0.342981   -1.750902
  H      3.343809   -0.950929   -3.969284
  H     -0.868517   -3.165119   -0.152793
  H     -0.666393   -2.399697    2.450414
  H      1.882568   -1.625195    2.880307
  O      1.281817    2.460755    0.277032
  O      0.538250    0.893257    1.680604
  C      0.893384    2.102324    1.383676
  C      0.827318    3.065642    2.536120
  H      0.776646    4.089795    2.176627
  H      1.733556    2.966632    3.136818
  H     -0.016728    2.857912    3.190632
  H      3.238207   -1.907645    0.590572
  H      1.537300   -2.855673   -1.291438

 Multiplicity           Mult            ....    1
 Number of Electrons    NEL             ....  164
 Basis Dimension        Dim             ....  358

ORBITAL ENERGIES
----------------

  NO   OCC          E(Eh)            E(eV)
   0   2.0000     -89.761053     -2442.5224
   1   2.0000     -19.621549      -533.9295
   2   2.0000     -19.582073      -532.8553
   3   2.0000     -14.842391      -403.8820
   4   2.0000     -10.677374      -290.5461
   5   2.0000     -10.663327      -290.1639
   6   2.0000     -10.639397      -289.5127
   7   2.0000     -10.637129      -289.4510
   8   2.0000     -10.635414      -289.4043
   9   2.0000     -10.634273      -289.3733
  10   2.0000     -10.632922      -289.3365
  11   2.0000     -10.632793      -289.3330
  12   2.0000     -10.617106      -288.9061
  13   2.0000     -10.609763      -288.7063
  14   2.0000     -10.583031      -287.9789
  15   2.0000     -10.581879      -287.9476
  16   2.0000     -10.557876      -287.2944
  17   2.0000     -10.552715      -287.1540
  18   2.0000     -10.530630      -286.5530
  19   2.0000      -8.400326      -228.5845
  20   2.0000      -6.290449      -171.1718
  21   2.0000      -6.286798      -171.0725
  22   2.0000      -6.284987      -171.0232
  23   2.0000      -4.032135      -109.7200
  24   2.0000      -2.351550       -63.9889
  25   2.0000      -2.317092       -63.0513
  26   2.0000      -2.315623       -63.0113
  27   2.0000      -1.301011       -35.4023
  28   2.0000      -1.214769       -33.0555
  29   2.0000      -1.204991       -32.7895
  30   2.0000      -1.175927       -31.9986
  31   2.0000      -1.125937       -30.6383
  32   2.0000      -1.027820       -27.9684
  33   2.0000      -0.990889       -26.9635
  34   2.0000      -0.980925       -26.6923
  35   2.0000      -0.965096       -26.2616
  36   2.0000      -0.959618       -26.1125
  37   2.0000      -0.924144       -25.1472
  38   2.0000      -0.904416       -24.6104
  39   2.0000      -0.874164       -23.7872
  40   2.0000      -0.797815       -21.7097
  41   2.0000      -0.791800       -21.5460
  42   2.0000      -0.789940       -21.4954
  43   2.0000      -0.781240       -21.2586
  44   2.0000      -0.774720       -21.0812
  45   2.0000      -0.755186       -20.5496
  46   2.0000      -0.744614       -20.2620
  47   2.0000      -0.722602       -19.6630
  48   2.0000      -0.695560       -18.9271
  49   2.0000      -0.671746       -18.2791
  50   2.0000      -0.665468       -18.1083
  51   2.0000      -0.652523       -17.7561
  52   2.0000      -0.648844       -17.6559
  53   2.0000      -0.641492       -17.4559
  54   2.0000      -0.636150       -17.3105
  55   2.0000      -0.627770       -17.0825
  56   2.0000      -0.624301       -16.9881
  57   2.0000      -0.612707       -16.6726
  58   2.0000      -0.611143       -16.6301
  59   2.0000      -0.609483       -16.5849
  60   2.0000      -0.597115       -16.2483
  61   2.0000      -0.588264       -16.0075
  62   2.0000      -0.577288       -15.7088
  63   2.0000      -0.571710       -15.5570
  64   2.0000      -0.564111       -15.3503
  65   2.0000      -0.554102       -15.0779
  66   2.0000      -0.552340       -15.0299
  67   2.0000      -0.548622       -14.9288
  68   2.0000      -0.539109       -14.6699
  69   2.0000      -0.534874       -14.5547
  70   2.0000      -0.528315       -14.3762
  71   2.0000      -0.522396       -14.2151
  72   2.0000      -0.516435       -14.0529
  73   2.0000      -0.507710       -13.8155
  74   2.0000      -0.488361       -13.2890
  75   2.0000      -0.481340       -13.0979
  76   2.0000      -0.464475       -12.6390
  77   2.0000      -0.450683       -12.2637
  78   2.0000      -0.440016       -11.9735
  79   2.0000      -0.424135       -11.5413
  80   2.0000      -0.417242       -11.3537
  81   2.0000      -0.404979       -11.0200
  82   0.0000      -0.200839        -5.4651
  83   0.0000      -0.166875        -4.5409
  84   0.0000      -0.142320        -3.8727
  85   0.0000      -0.103563        -2.8181
  86   0.0000      -0.077435        -2.1071

MULLIKEN ATOMIC CHARGES
-----------------------
   0 Ir:    0.622688
   1 C :   -0.207559
   2 C :   -0.297201
   3 C :   -0.230628
   4 C :   -0.245450
   5 C :   -0.164467
   6 N :   -0.423577
   7 C :   -0.115323
   8 C :   -0.696781
   9 H :    0.273822
  10 H :    0.226340
  11 H :    0.261168
  12 C :   -0.640818
  13 H :    0.281564
  14 H :    0.265755
  15 H :    0.230934
  16 H :    0.233555
  17 C :    0.067084
  18 C :   -0.228289
  19 H :    0.293669
  20 C :   -0.392217
  21 C :   -0.142576
  22 S :    0.290233
  23 C :   -0.428902
  24 H :    0.492362
  25 H :    0.268043
  26 H :    0.297085
  27 H :    0.293159
  28 H :    0.294867
  29 H :    0.308216
  30 O :   -0.478881
  31 O :   -0.547142
  32 C :    0.609711
  33 C :   -0.746132
  34 H :    0.268155
  35 H :    0.264445
  36 H :    0.250473
  37 H :    0.296835
  38 H :    0.295781
Sum of atomic charges:    1.0000000

LOEWDIN ATOMIC CHARGES
----------------------
   0 Ir:   -0.208116
   1 C :   -0.038915
   2 C :   -0.053536
   3 C :   -0.045632
   4 C :   -0.055496
   5 C :   -0.026036
   6 N :   -0.005738
   7 C :   -0.068022
   8 C :   -0.365108
   9 H :    0.157999
  10 H :    0.134206
  11 H :    0.147183
  12 C :   -0.343350
  13 H :    0.156952
  14 H :    0.153511
  15 H :    0.137349
  16 H :    0.134773
  17 C :    0.037168
  18 C :   -0.188287
  19 H :    0.163685
  20 C :   -0.176796
  21 C :   -0.144586
  22 S :    0.456047
  23 C :   -0.262632
  24 H :    0.272125
  25 H :    0.162705
  26 H :    0.167671
  27 H :    0.186342
  28 H :    0.186970
  29 H :    0.194569
  30 O :   -0.277131
  31 O :   -0.213195
  32 C :    0.150347
  33 C :   -0.377703
  34 H :    0.158703
  35 H :    0.165796
  36 H :    0.151843
  37 H :    0.188480
  38 H :    0.185856

  Mayer bond orders larger than 0.100000
B(  0-Ir,  1-C ) :   0.4199 B(  0-Ir,  2-C ) :   0.5573 B(  0-Ir,  3-C ) :   0.4652
B(  0-Ir,  4-C ) :   0.4503 B(  0-Ir,  5-C ) :   0.4027 B(  0-Ir,  6-N ) :   0.4624
B(  0-Ir, 20-C ) :   0.2036 B(  0-Ir, 31-O ) :   0.5997 B(  1-C ,  2-C ) :   1.1114
B(  1-C ,  4-C ) :   1.2492 B(  1-C , 27-H ) :   0.9028 B(  2-C ,  5-C ) :   1.1288
B(  2-C , 28-H ) :   0.9060 B(  3-C ,  4-C ) :   1.1026 B(  3-C ,  5-C ) :   1.2357
B(  3-C , 37-H ) :   0.9021 B(  4-C , 38-H ) :   0.8967 B(  5-C , 29-H ) :   0.8972
B(  6-N ,  7-C ) :   0.8904 B(  6-N , 17-C ) :   1.7055 B(  7-C ,  8-C ) :   0.9929
B(  7-C , 12-C ) :   0.9698 B(  7-C , 13-H ) :   0.8705 B(  8-C ,  9-H ) :   0.9030
B(  8-C , 10-H ) :   0.9121 B(  8-C , 11-H ) :   0.9075 B( 12-C , 14-H ) :   0.9060
B( 12-C , 15-H ) :   0.9151 B( 12-C , 16-H ) :   0.9102 B( 17-C , 18-C ) :   1.0399
B( 17-C , 19-H ) :   0.8734 B( 18-C , 20-C ) :   1.3127 B( 18-C , 22-S ) :   1.2139
B( 20-C , 21-C ) :   1.2601 B( 20-C , 24-H ) :   0.5264 B( 21-C , 23-C ) :   1.5487
B( 21-C , 25-H ) :   0.9036 B( 22-S , 23-C ) :   1.1999 B( 23-C , 26-H ) :   0.8926
B( 24-H , 30-O ) :   0.2077 B( 30-O , 32-C ) :   1.7290 B( 31-O , 32-C ) :   1.2500
B( 32-C , 33-C ) :   0.9458 B( 33-C , 34-H ) :   0.9060 B( 33-C , 35-H ) :   0.8999
B( 33-C , 36-H ) :   0.9102

Dispersion correction           -0.030935712
FINAL SINGLE POINT ENERGY     -1288.397139674734

DIPOLE MOMENT
-------------
                                X             Y             Z
Electronic contribution:     34.29189     -67.58289      73.29574
Nuclear contribution   :    -34.93249      66.24628     -73.54792
                        -----------------------------------------
Total Dipole Moment    :     -0.64060      -1.33661      -0.25218
                        -----------------------------------------
Magnitude (a.u.)       :      1.50349
Magnitude (Debye)      :      3.82158

Rotational constants in cm-1:     0.010796     0.009094     0.008261
Rotational constants in MHz :   323.645861   272.621825   247.648404

                             ****ORCA TERMINATED NORMALLY****
TOTAL RUN TIME: 0 days 1 hours 6 minutes 8 seconds 120 msec
