                         Program Version 5.0.3 -  RELEASE  -
|  1> ! Opt PBEh-3c
|  2> %geom Constraints
|  3> { B 0 20 2.5571428571428574 C }
|  4> { B 24 30 1.3714285714285714 C }
|  5>     end
|  6> end
|  7> %output
|  8> xyzfile=True
|  9> end
| 10> %scf
| 11> maxiter 250
| 12> end
| 13> %output
| 14> Print[P_Hirshfeld] = 1
| 15> end
| 16> % maxcore
| 17> 4000
| 18> *xyz 1 1
| 19> Ir   0.56655279  -0.73876613   0.49836926
| 20> C    0.01104614  -2.81489015   0.35786699
| 21> C    0.09433570  -2.37763294   1.73114631
| 22> C    2.17889067  -2.15394147   0.78299528
| 23> C    1.27531498  -2.64668112  -0.23291420
| 24> C    1.46420458  -2.02874576   1.98596897
| 25> N   -1.04067287   0.16433328  -0.50713097
| 26> C   -2.31902947   0.49878051   0.14147738
| 27> C   -3.13162975   1.53823558  -0.61356742
| 28> H   -3.96790011   1.85091450   0.01014963
| 29> H   -3.56210069   1.15214755  -1.53895374
| 30> H   -2.54734059   2.43023180  -0.84178550
| 31> C   -3.12131782  -0.77414736   0.38133091
| 32> H   -2.03643556   0.91924641   1.10825159
| 33> H   -4.04198583  -0.53110999   0.90959572
| 34> H   -3.39461427  -1.25367144  -0.55958497
| 35> H   -2.57913183  -1.49275727   0.99439806
| 36> C   -0.82467908   0.36737165  -1.74933712
| 37> C    0.52794048   0.15646897  -2.21890567
| 38> H   -1.60372894   0.71977690  -2.41971596
| 39> C    1.63798236   0.55543621  -1.48583813
| 40> C    2.83512122   0.15231254  -2.14298035
| 41> S    0.93878139  -0.62851791  -3.68349714
| 42> C    2.61091113  -0.48526103  -3.32348947
| 43> H    1.54501388   1.41965413  -0.65853949
| 44> H    3.82604587   0.37657751  -1.77552028
| 45> H    3.34203133  -0.86308992  -4.02225304
| 46> H   -0.87995986  -3.16859508  -0.14068593
| 47> H   -0.69519284  -2.41703443   2.46742680
| 48> H    1.85321643  -1.65014956   2.92024049
| 49> O    1.32075236   2.42756123   0.26560018
| 50> O    0.53892615   0.90097659   1.69314830
| 51> C    0.91838302   2.09441363   1.37915982
| 52> C    0.86950711   3.08365983   2.50867442
| 53> H    0.82486799   4.10017058   2.12738227
| 54> H    1.78034724   2.99000491   3.10336605
| 55> H    0.02923415   2.89652211   3.17390592
| 56> H    3.22291185  -1.91890754   0.63706024
| 57> H    1.53277069  -2.85170730  -1.26207511
| 58> *
| 59>
| 60>                          ****END OF INPUT****
 Total Charge           Charge          ....    1
 Multiplicity           Mult            ....    1
 Number of Electrons    NEL             ....  164
Dispersion correction           -0.030906710
FINAL SINGLE POINT ENERGY     -1288.393732377140
Dispersion correction            ... done
Dispersion correction           -0.030944212
FINAL SINGLE POINT ENERGY     -1288.391658617346
Dispersion correction            ... done
Dispersion correction           -0.030882292
FINAL SINGLE POINT ENERGY     -1288.393806160786
Dispersion correction            ... done
FINAL SINGLE POINT ENERGY     -1288.391725013026
FINAL SINGLE POINT ENERGY     -1288.393883137426
FINAL SINGLE POINT ENERGY     -1288.393910907114
FINAL SINGLE POINT ENERGY     -1288.393929251650
FINAL SINGLE POINT ENERGY     -1288.393939842892
FINAL SINGLE POINT ENERGY     -1288.393948924291
Dispersion correction            ... done
Dispersion correction           -0.030783408
FINAL SINGLE POINT ENERGY     -1288.393960780161
Dispersion correction            ... done
Dispersion correction           -0.030780784
FINAL SINGLE POINT ENERGY     -1288.393964397660
Dispersion correction            ... done
                    ***********************HURRAY********************

CARTESIAN COORDINATES (ANGSTROEM)
---------------------------------
  Ir     0.570988   -0.736740    0.498581
  C      0.012916   -2.812923    0.367605
  C      0.086846   -2.372154    1.739429
  C      2.178946   -2.153316    0.803754
  C      1.281743   -2.649250   -0.216025
  C      1.454475   -2.021297    2.000748
  N     -1.040434    0.156587   -0.508798
  C     -2.319896    0.481945    0.142831
  C     -3.126968    1.539510   -0.593281
  H     -3.961541    1.845551    0.036053
  H     -3.559943    1.173428   -1.525580
  H     -2.537294    2.431926   -0.805291
  C     -3.127486   -0.792593    0.355127
  H     -2.039336    0.882541    1.118542
  H     -4.049288   -0.556766    0.884754
  H     -3.398794   -1.252911   -0.595886
  H     -2.589666   -1.524818    0.955716
  C     -0.832151    0.362734   -1.752667
  C      0.517391    0.163147   -2.229864
  H     -1.618046    0.710304   -2.417478
  C      1.623824    0.514770   -1.467186
  C      2.823548    0.129842   -2.129615
  S      0.935126   -0.559948   -3.722207
  C      2.604539   -0.449747   -3.341125
  H      1.539477    1.395462   -0.635625
  H      3.813129    0.326986   -1.743459
  H      3.338463   -0.801294   -4.050602
  H     -0.874760   -3.167460   -0.136319
  H     -0.707643   -2.408449    2.470364
  H      1.837396   -1.638763    2.935943
  O      1.347632    2.419888    0.255758
  O      0.537448    0.912476    1.687044
  C      0.931485    2.097611    1.369794
  C      0.886627    3.098280    2.488780
  H      0.842535    4.111159    2.097879
  H      1.799392    3.009225    3.081272
  H      0.047975    2.918190    3.157820
  H      3.225043   -1.923001    0.666035
  H      1.545675   -2.860940   -1.242083

 Multiplicity           Mult            ....    1
 Number of Electrons    NEL             ....  164
 Basis Dimension        Dim             ....  358

ORBITAL ENERGIES
----------------

  NO   OCC          E(Eh)            E(eV)
   0   2.0000     -89.757299     -2442.4203
   1   2.0000     -19.626478      -534.0636
   2   2.0000     -19.591446      -533.1103
   3   2.0000     -14.839465      -403.8024
   4   2.0000     -10.684356      -290.7361
   5   2.0000     -10.660626      -290.0904
   6   2.0000     -10.638565      -289.4901
   7   2.0000     -10.636040      -289.4214
   8   2.0000     -10.634901      -289.3904
   9   2.0000     -10.633574      -289.3543
  10   2.0000     -10.632468      -289.3242
  11   2.0000     -10.626731      -289.1680
  12   2.0000     -10.616169      -288.8807
  13   2.0000     -10.606737      -288.6240
  14   2.0000     -10.579533      -287.8837
  15   2.0000     -10.577295      -287.8228
  16   2.0000     -10.557145      -287.2745
  17   2.0000     -10.552002      -287.1346
  18   2.0000     -10.534493      -286.6581
  19   2.0000      -8.396650      -228.4845
  20   2.0000      -6.286725      -171.0705
  21   2.0000      -6.283107      -170.9720
  22   2.0000      -6.281366      -170.9247
  23   2.0000      -4.031378      -109.6994
  24   2.0000      -2.350849       -63.9699
  25   2.0000      -2.316376       -63.0318
  26   2.0000      -2.314553       -62.9822
  27   2.0000      -1.309177       -35.6245
  28   2.0000      -1.213588       -33.0234
  29   2.0000      -1.210507       -32.9396
  30   2.0000      -1.175312       -31.9819
  31   2.0000      -1.121815       -30.5261
  32   2.0000      -1.025529       -27.9061
  33   2.0000      -0.990145       -26.9432
  34   2.0000      -0.980235       -26.6736
  35   2.0000      -0.961958       -26.1762
  36   2.0000      -0.955621       -26.0038
  37   2.0000      -0.929209       -25.2851
  38   2.0000      -0.903340       -24.5811
  39   2.0000      -0.871667       -23.7193
  40   2.0000      -0.796275       -21.6677
  41   2.0000      -0.791003       -21.5243
  42   2.0000      -0.789291       -21.4777
  43   2.0000      -0.779117       -21.2009
  44   2.0000      -0.773351       -21.0439
  45   2.0000      -0.758441       -20.6382
  46   2.0000      -0.743487       -20.2313
  47   2.0000      -0.722368       -19.6566
  48   2.0000      -0.694151       -18.8888
  49   2.0000      -0.674293       -18.3485
  50   2.0000      -0.664632       -18.0856
  51   2.0000      -0.652107       -17.7447
  52   2.0000      -0.649705       -17.6794
  53   2.0000      -0.641311       -17.4510
  54   2.0000      -0.638792       -17.3824
  55   2.0000      -0.631956       -17.1964
  56   2.0000      -0.623878       -16.9766
  57   2.0000      -0.611444       -16.6382
  58   2.0000      -0.610523       -16.6132
  59   2.0000      -0.608065       -16.5463
  60   2.0000      -0.595586       -16.2067
  61   2.0000      -0.586533       -15.9604
  62   2.0000      -0.574798       -15.6410
  63   2.0000      -0.568189       -15.4612
  64   2.0000      -0.562309       -15.3012
  65   2.0000      -0.555610       -15.1189
  66   2.0000      -0.552689       -15.0394
  67   2.0000      -0.548547       -14.9267
  68   2.0000      -0.539644       -14.6845
  69   2.0000      -0.534164       -14.5354
  70   2.0000      -0.527730       -14.3603
  71   2.0000      -0.521274       -14.1846
  72   2.0000      -0.516244       -14.0477
  73   2.0000      -0.508179       -13.8282
  74   2.0000      -0.491305       -13.3691
  75   2.0000      -0.480721       -13.0811
  76   2.0000      -0.462884       -12.5957
  77   2.0000      -0.451884       -12.2964
  78   2.0000      -0.441860       -12.0236
  79   2.0000      -0.421324       -11.4648
  80   2.0000      -0.417034       -11.3481
  81   2.0000      -0.403033       -10.9671
  82   0.0000      -0.200558        -5.4575
  83   0.0000      -0.165726        -4.5096
  84   0.0000      -0.141548        -3.8517
  85   0.0000      -0.097393        -2.6502
  86   0.0000      -0.075996        -2.0680

MULLIKEN ATOMIC CHARGES
-----------------------
   0 Ir:    0.621612
   1 C :   -0.208117
   2 C :   -0.295898
   3 C :   -0.230426
   4 C :   -0.244460
   5 C :   -0.167518
   6 N :   -0.431664
   7 C :   -0.117143
   8 C :   -0.694564
   9 H :    0.272542
  10 H :    0.226446
  11 H :    0.260285
  12 C :   -0.639292
  13 H :    0.280008
  14 H :    0.264818
  15 H :    0.230985
  16 H :    0.232164
  17 C :    0.067537
  18 C :   -0.215276
  19 H :    0.290871
  20 C :   -0.402799
  21 C :   -0.148842
  22 S :    0.293017
  23 C :   -0.426841
  24 H :    0.501460
  25 H :    0.264234
  26 H :    0.295531
  27 H :    0.293199
  28 H :    0.294338
  29 H :    0.306882
  30 O :   -0.489119
  31 O :   -0.540410
  32 C :    0.618272
  33 C :   -0.746149
  34 H :    0.270025
  35 H :    0.266938
  36 H :    0.253685
  37 H :    0.296719
  38 H :    0.296953
Sum of atomic charges:    1.0000000

LOEWDIN ATOMIC CHARGES
----------------------
   0 Ir:   -0.208690
   1 C :   -0.039198
   2 C :   -0.056290
   3 C :   -0.046032
   4 C :   -0.053470
   5 C :   -0.027206
   6 N :   -0.011590
   7 C :   -0.068251
   8 C :   -0.364810
   9 H :    0.157363
  10 H :    0.134016
  11 H :    0.146698
  12 C :   -0.343683
  13 H :    0.155820
  14 H :    0.153098
  15 H :    0.137332
  16 H :    0.133953
  17 C :    0.036862
  18 C :   -0.195574
  19 H :    0.162277
  20 C :   -0.190957
  21 C :   -0.147274
  22 S :    0.455455
  23 C :   -0.261915
  24 H :    0.291598
  25 H :    0.160765
  26 H :    0.166969
  27 H :    0.186229
  28 H :    0.186658
  29 H :    0.193850
  30 O :   -0.277668
  31 O :   -0.205717
  32 C :    0.158460
  33 C :   -0.375835
  34 H :    0.160105
  35 H :    0.167568
  36 H :    0.153473
  37 H :    0.188481
  38 H :    0.187134

  Mayer bond orders larger than 0.100000
B(  0-Ir,  1-C ) :   0.4232 B(  0-Ir,  2-C ) :   0.5547 B(  0-Ir,  3-C ) :   0.4622
B(  0-Ir,  4-C ) :   0.4557 B(  0-Ir,  5-C ) :   0.4040 B(  0-Ir,  6-N ) :   0.4680
B(  0-Ir, 20-C ) :   0.2206 B(  0-Ir, 31-O ) :   0.5820 B(  1-C ,  2-C ) :   1.1126
B(  1-C ,  4-C ) :   1.2439 B(  1-C , 27-H ) :   0.9025 B(  2-C ,  5-C ) :   1.1284
B(  2-C , 28-H ) :   0.9063 B(  3-C ,  4-C ) :   1.1044 B(  3-C ,  5-C ) :   1.2361
B(  3-C , 37-H ) :   0.9025 B(  4-C , 38-H ) :   0.8980 B(  5-C , 29-H ) :   0.8978
B(  6-N ,  7-C ) :   0.8912 B(  6-N , 17-C ) :   1.6902 B(  7-C ,  8-C ) :   0.9926
B(  7-C , 12-C ) :   0.9695 B(  7-C , 13-H ) :   0.8727 B(  8-C ,  9-H ) :   0.9034
B(  8-C , 10-H ) :   0.9123 B(  8-C , 11-H ) :   0.9082 B( 12-C , 14-H ) :   0.9063
B( 12-C , 15-H ) :   0.9153 B( 12-C , 16-H ) :   0.9111 B( 17-C , 18-C ) :   1.0573
B( 17-C , 19-H ) :   0.8739 B( 18-C , 20-C ) :   1.3081 B( 18-C , 22-S ) :   1.2087
B( 20-C , 21-C ) :   1.2732 B( 20-C , 24-H ) :   0.4749 B( 21-C , 23-C ) :   1.5435
B( 21-C , 25-H ) :   0.9050 B( 22-S , 23-C ) :   1.2052 B( 23-C , 26-H ) :   0.8929
B( 24-H , 30-O ) :   0.2325 B( 30-O , 32-C ) :   1.6808 B( 31-O , 32-C ) :   1.2809
B( 32-C , 33-C ) :   0.9478 B( 33-C , 34-H ) :   0.9047 B( 33-C , 35-H ) :   0.8982
B( 33-C , 36-H ) :   0.9092

Dispersion correction           -0.030778924
FINAL SINGLE POINT ENERGY     -1288.393965348577

DIPOLE MOMENT
-------------
                                X             Y             Z
Electronic contribution:     33.30929     -69.05529      77.14553
Nuclear contribution   :    -33.94136      67.84626     -77.28083
                        -----------------------------------------
Total Dipole Moment    :     -0.63208      -1.20903      -0.13530
                        -----------------------------------------
Magnitude (a.u.)       :      1.37098
Magnitude (Debye)      :      3.48475

Rotational constants in cm-1:     0.010651     0.008990     0.008201
Rotational constants in MHz :   319.315241   269.512455   245.845806

                             ****ORCA TERMINATED NORMALLY****
TOTAL RUN TIME: 0 days 1 hours 26 minutes 18 seconds 589 msec
