                         Program Version 5.0.3 -  RELEASE  -
|  1> ! Opt PBEh-3c
|  2> %geom Constraints
|  3> { B 0 20 2.0428571428571427 C }
|  4> { B 24 30 1.3285714285714287 C }
|  5>     end
|  6> end
|  7> %output
|  8> xyzfile=True
|  9> end
| 10> %scf
| 11> maxiter 250
| 12> end
| 13> %output
| 14> Print[P_Hirshfeld] = 1
| 15> end
| 16> % maxcore
| 17> 4000
| 18> %pal nprocs 2
| 19> end
| 20> *xyz 1 1
| 21> Ir   0.61267563  -0.74200331   0.41380955
| 22> C    0.15798705  -2.85614229   0.33898802
| 23> C   -0.11117597  -2.41452106   1.68421086
| 24> C    2.13110916  -2.05906185   1.23885150
| 25> C    1.53606944  -2.66316597   0.08264017
| 26> C    1.10317131  -1.94153971   2.22137067
| 27> N   -1.07729351   0.10369327  -0.50715965
| 28> C   -2.35001626   0.28282589   0.20738932
| 29> C   -3.13963729   1.50420622  -0.24152962
| 30> H   -3.97198641   1.65633141   0.44372801
| 31> H   -3.57215494   1.38907378  -1.23630782
| 32> H   -2.53248657   2.40961301  -0.22564514
| 33> C   -3.17805540  -0.99190741   0.08911024
| 34> H   -2.07139182   0.42659688   1.25249482
| 35> H   -4.08206968  -0.90617876   0.69075678
| 36> H   -3.48000284  -1.16905918  -0.94393334
| 37> H   -2.63297669  -1.86784314   0.43720761
| 38> C   -0.92969165   0.48056494  -1.72479048
| 39> C    0.38526560   0.31430103  -2.26223665
| 40> H   -1.74060209   0.92304191  -2.29411196
| 41> C    1.40729061   0.01110394  -1.36147089
| 42> C    2.62738394  -0.19877099  -2.07652684
| 43> S    0.89463140   0.37069555  -3.88039891
| 44> C    2.49394582  -0.03055551  -3.42226606
| 45> H    1.63869504   1.17286328  -0.67086704
| 46> H    3.57696505  -0.40919351  -1.60582599
| 47> H    3.26388096  -0.10415179  -4.17530405
| 48> H   -0.55111300  -3.30579454  -0.34053012
| 49> H   -1.05524818  -2.47003184   2.20405348
| 50> H    1.22264951  -1.49373249   3.19780216
| 51> O    1.75786669   2.30065751   0.04825992
| 52> O    0.59978523   1.04453957   1.47508729
| 53> C    1.16778050   2.12311958   1.13982712
| 54> C    1.15449719   3.25129486   2.12698050
| 55> H    1.03181471   4.20527485   1.61918537
| 56> H    2.11659148   3.28145495   2.64138825
| 57> H    0.37411928   3.11970275   2.87088033
| 58> H    3.17579401  -1.82982501   1.38096702
| 59> H    2.04530283  -2.91828692  -0.83534429
| 60> *
| 61>
| 62>                          ****END OF INPUT****
 Total Charge           Charge          ....    1
 Multiplicity           Mult            ....    1
 Number of Electrons    NEL             ....  164
Dispersion correction           -0.030765128
FINAL SINGLE POINT ENERGY     -1288.403770375306
Dispersion correction            ... done
Dispersion correction           -0.030731710
FINAL SINGLE POINT ENERGY     -1288.404011640455
Dispersion correction            ... done
Dispersion correction           -0.030718892
FINAL SINGLE POINT ENERGY     -1288.404109352253
Dispersion correction            ... done
FINAL SINGLE POINT ENERGY     -1288.404176906505
FINAL SINGLE POINT ENERGY     -1288.404235879513
FINAL SINGLE POINT ENERGY     -1288.404272702496
FINAL SINGLE POINT ENERGY     -1288.404294928207
FINAL SINGLE POINT ENERGY     -1288.404307539224
FINAL SINGLE POINT ENERGY     -1288.404315894896
FINAL SINGLE POINT ENERGY     -1288.404320081514
FINAL SINGLE POINT ENERGY     -1288.404322089760
FINAL SINGLE POINT ENERGY     -1288.404323103691
FINAL SINGLE POINT ENERGY     -1288.404324234711
Dispersion correction            ... done
Dispersion correction           -0.030682187
FINAL SINGLE POINT ENERGY     -1288.404326053882
Dispersion correction            ... done
Dispersion correction           -0.030682260
FINAL SINGLE POINT ENERGY     -1288.404328721886
Dispersion correction            ... done
                    ***********************HURRAY********************

CARTESIAN COORDINATES (ANGSTROEM)
---------------------------------
  Ir     0.612007   -0.747685    0.399537
  C      0.176936   -2.863323    0.332254
  C     -0.131412   -2.434429    1.674500
  C      2.114547   -2.044599    1.286162
  C      1.562819   -2.660525    0.118276
  C      1.055614   -1.945364    2.243798
  N     -1.086440    0.096419   -0.505043
  C     -2.358189    0.259257    0.214454
  C     -3.144658    1.494309   -0.200927
  H     -3.977740    1.629016    0.487085
  H     -3.575827    1.408685   -1.199278
  H     -2.535125    2.397240   -0.158681
  C     -3.188734   -1.010263    0.062695
  H     -2.078925    0.374627    1.262958
  H     -4.089093   -0.942310    0.672080
  H     -3.496961   -1.155322   -0.973488
  H     -2.642019   -1.897126    0.379381
  C     -0.941549    0.493261   -1.717037
  C      0.372169    0.328052   -2.255247
  H     -1.752003    0.947362   -2.277576
  C      1.377045   -0.033093   -1.354698
  C      2.604444   -0.223435   -2.065294
  S      0.904172    0.457543   -3.862441
  C      2.490644    0.013205   -3.403209
  H      1.648158    1.198616   -0.718117
  H      3.544960   -0.472382   -1.595078
  H      3.270101   -0.034734   -4.148502
  H     -0.505581   -3.328057   -0.364045
  H     -1.090684   -2.497338    2.164778
  H      1.142177   -1.497808    3.223678
  O      1.774267    2.311197   -0.003022
  O      0.626365    1.058802    1.437574
  C      1.193092    2.132111    1.097751
  C      1.199330    3.263765    2.080250
  H      1.077741    4.217447    1.571684
  H      2.167107    3.288005    2.584316
  H      0.426154    3.138930    2.832710
  H      3.152677   -1.807326    1.459751
  H      2.101783   -2.913538   -0.783244

 Multiplicity           Mult            ....    1
 Number of Electrons    NEL             ....  164
 Basis Dimension        Dim             ....  358

ORBITAL ENERGIES
----------------

  NO   OCC          E(Eh)            E(eV)
   0   2.0000     -89.762027     -2442.5489
   1   2.0000     -19.642044      -534.4872
   2   2.0000     -19.640545      -534.4464
   3   2.0000     -14.830357      -403.5545
   4   2.0000     -10.706833      -291.3477
   5   2.0000     -10.651878      -289.8523
   6   2.0000     -10.621562      -289.0274
   7   2.0000     -10.620452      -288.9972
   8   2.0000     -10.620189      -288.9900
   9   2.0000     -10.617127      -288.9067
  10   2.0000     -10.611539      -288.7547
  11   2.0000     -10.610549      -288.7277
  12   2.0000     -10.609858      -288.7089
  13   2.0000     -10.606824      -288.6264
  14   2.0000     -10.591311      -288.2042
  15   2.0000     -10.588763      -288.1349
  16   2.0000     -10.551597      -287.1236
  17   2.0000     -10.550520      -287.0942
  18   2.0000     -10.549761      -287.0736
  19   2.0000      -8.401373      -228.6130
  20   2.0000      -6.291254      -171.1937
  21   2.0000      -6.287761      -171.0987
  22   2.0000      -6.286304      -171.0590
  23   2.0000      -4.016264      -109.2881
  24   2.0000      -2.332648       -63.4746
  25   2.0000      -2.303528       -62.6822
  26   2.0000      -2.299350       -62.5685
  27   2.0000      -1.335945       -36.3529
  28   2.0000      -1.237872       -33.6842
  29   2.0000      -1.204323       -32.7713
  30   2.0000      -1.155093       -31.4317
  31   2.0000      -1.126421       -30.6515
  32   2.0000      -1.023041       -27.8384
  33   2.0000      -0.969143       -26.3717
  34   2.0000      -0.967851       -26.3366
  35   2.0000      -0.961287       -26.1579
  36   2.0000      -0.956708       -26.0333
  37   2.0000      -0.946398       -25.7528
  38   2.0000      -0.898843       -24.4588
  39   2.0000      -0.870175       -23.6787
  40   2.0000      -0.796477       -21.6732
  41   2.0000      -0.781031       -21.2529
  42   2.0000      -0.773273       -21.0418
  43   2.0000      -0.771740       -21.0001
  44   2.0000      -0.766879       -20.8679
  45   2.0000      -0.756639       -20.5892
  46   2.0000      -0.741127       -20.1671
  47   2.0000      -0.721039       -19.6205
  48   2.0000      -0.701513       -19.0891
  49   2.0000      -0.683757       -18.6060
  50   2.0000      -0.667970       -18.1764
  51   2.0000      -0.663714       -18.0606
  52   2.0000      -0.652165       -17.7463
  53   2.0000      -0.637778       -17.3548
  54   2.0000      -0.628347       -17.0982
  55   2.0000      -0.622873       -16.9492
  56   2.0000      -0.619455       -16.8562
  57   2.0000      -0.609686       -16.5904
  58   2.0000      -0.599372       -16.3098
  59   2.0000      -0.593732       -16.1563
  60   2.0000      -0.591891       -16.1062
  61   2.0000      -0.589616       -16.0443
  62   2.0000      -0.577723       -15.7206
  63   2.0000      -0.574384       -15.6298
  64   2.0000      -0.562779       -15.3140
  65   2.0000      -0.560795       -15.2600
  66   2.0000      -0.559188       -15.2163
  67   2.0000      -0.544580       -14.8188
  68   2.0000      -0.542429       -14.7603
  69   2.0000      -0.535702       -14.5772
  70   2.0000      -0.530089       -14.4245
  71   2.0000      -0.518073       -14.0975
  72   2.0000      -0.512317       -13.9409
  73   2.0000      -0.505547       -13.7566
  74   2.0000      -0.501206       -13.6385
  75   2.0000      -0.489886       -13.3305
  76   2.0000      -0.474457       -12.9106
  77   2.0000      -0.453640       -12.3442
  78   2.0000      -0.442405       -12.0384
  79   2.0000      -0.416481       -11.3330
  80   2.0000      -0.412958       -11.2372
  81   2.0000      -0.391213       -10.6454
  82   0.0000      -0.199698        -5.4341
  83   0.0000      -0.143140        -3.8950
  84   0.0000      -0.120133        -3.2690
  85   0.0000      -0.085285        -2.3207
  86   0.0000      -0.077473        -2.1082

MULLIKEN ATOMIC CHARGES
-----------------------
   0 Ir:    0.611336
   1 C :   -0.267091
   2 C :   -0.245903
   3 C :   -0.283909
   4 C :   -0.212699
   5 C :   -0.150884
   6 N :   -0.437232
   7 C :   -0.126291
   8 C :   -0.677612
   9 H :    0.268018
  10 H :    0.224346
  11 H :    0.251401
  12 C :   -0.632114
  13 H :    0.274615
  14 H :    0.256711
  15 H :    0.233071
  16 H :    0.234529
  17 C :    0.070668
  18 C :   -0.123895
  19 H :    0.283353
  20 C :   -0.566914
  21 C :   -0.102283
  22 S :    0.342932
  23 C :   -0.422024
  24 H :    0.477488
  25 H :    0.266728
  26 H :    0.297695
  27 H :    0.282953
  28 H :    0.278461
  29 H :    0.292794
  30 O :   -0.487144
  31 O :   -0.492666
  32 C :    0.636629
  33 C :   -0.743698
  34 H :    0.275254
  35 H :    0.278484
  36 H :    0.265585
  37 H :    0.278246
  38 H :    0.291065
Sum of atomic charges:    1.0000000

LOEWDIN ATOMIC CHARGES
----------------------
   0 Ir:   -0.265589
   1 C :   -0.068098
   2 C :   -0.098386
   3 C :   -0.105658
   4 C :   -0.037110
   5 C :   -0.023762
   6 N :   -0.006163
   7 C :   -0.069205
   8 C :   -0.361481
   9 H :    0.155597
  10 H :    0.132691
  11 H :    0.142257
  12 C :   -0.344132
  13 H :    0.152282
  14 H :    0.149809
  15 H :    0.138238
  16 H :    0.133594
  17 C :    0.028610
  18 C :   -0.201289
  19 H :    0.159436
  20 C :   -0.211542
  21 C :   -0.135190
  22 S :    0.495413
  23 C :   -0.255052
  24 H :    0.379109
  25 H :    0.161885
  26 H :    0.169398
  27 H :    0.180997
  28 H :    0.177137
  29 H :    0.184904
  30 O :   -0.253516
  31 O :   -0.167115
  32 C :    0.171009
  33 C :   -0.370568
  34 H :    0.165988
  35 H :    0.174017
  36 H :    0.158229
  37 H :    0.179828
  38 H :    0.183427

  Mayer bond orders larger than 0.100000
B(  0-Ir,  1-C ) :   0.4723 B(  0-Ir,  2-C ) :   0.3569 B(  0-Ir,  3-C ) :   0.4771
B(  0-Ir,  4-C ) :   0.4154 B(  0-Ir,  5-C ) :   0.3399 B(  0-Ir,  6-N ) :   0.4657
B(  0-Ir, 20-C ) :   0.5766 B(  0-Ir, 31-O ) :   0.4934 B(  1-C ,  2-C ) :   1.1226
B(  1-C ,  4-C ) :   1.2084 B(  1-C , 27-H ) :   0.9105 B(  2-C ,  5-C ) :   1.2665
B(  2-C , 28-H ) :   0.9101 B(  3-C ,  4-C ) :   1.1581 B(  3-C ,  5-C ) :   1.1469
B(  3-C , 37-H ) :   0.9154 B(  4-C , 38-H ) :   0.8998 B(  5-C , 29-H ) :   0.9033
B(  6-N ,  7-C ) :   0.8971 B(  6-N , 17-C ) :   1.6393 B(  7-C ,  8-C ) :   0.9899
B(  7-C , 12-C ) :   0.9676 B(  7-C , 13-H ) :   0.8798 B(  8-C ,  9-H ) :   0.9052
B(  8-C , 10-H ) :   0.9132 B(  8-C , 11-H ) :   0.9134 B( 12-C , 14-H ) :   0.9082
B( 12-C , 15-H ) :   0.9152 B( 12-C , 16-H ) :   0.9120 B( 17-C , 18-C ) :   1.1246
B( 17-C , 19-H ) :   0.8769 B( 18-C , 20-C ) :   1.2230 B( 18-C , 22-S ) :   1.2261
B( 20-C , 21-C ) :   1.2626 B( 20-C , 24-H ) :   0.2719 B( 21-C , 23-C ) :   1.5288
B( 21-C , 25-H ) :   0.9023 B( 22-S , 23-C ) :   1.2281 B( 23-C , 26-H ) :   0.8918
B( 24-H , 30-O ) :   0.4040 B( 30-O , 32-C ) :   1.5025 B( 31-O , 32-C ) :   1.4296
B( 32-C , 33-C ) :   0.9453 B( 33-C , 34-H ) :   0.8984 B( 33-C , 35-H ) :   0.8910
B( 33-C , 36-H ) :   0.9069

Dispersion correction           -0.030682174
FINAL SINGLE POINT ENERGY     -1288.404331114061

DIPOLE MOMENT
-------------
                                X             Y             Z
Electronic contribution:     37.36145     -76.11540      69.05183
Nuclear contribution   :    -37.89974      75.94068     -69.20554
                        -----------------------------------------
Total Dipole Moment    :     -0.53829      -0.17472      -0.15371
                        -----------------------------------------
Magnitude (a.u.)       :      0.58644
Magnitude (Debye)      :      1.49061

Rotational constants in cm-1:     0.010591     0.008818     0.008230
Rotational constants in MHz :   317.524035   264.362015   246.720863

                             ****ORCA TERMINATED NORMALLY****
TOTAL RUN TIME: 0 days 4 hours 25 minutes 16 seconds 420 msec
