                         Program Version 5.0.3 -  RELEASE  -
|  1> ! Opt PBEh-3c
|  2> %geom Constraints
|  3> { B 0 20 2.4714285714285715 C }
|  4> { B 24 30 1.3714285714285714 C }
|  5>     end
|  6> end
|  7> %output
|  8> xyzfile=True
|  9> end
| 10> %scf
| 11> maxiter 250
| 12> end
| 13> %output
| 14> Print[P_Hirshfeld] = 1
| 15> end
| 16> % maxcore
| 17> 4000
| 18> *xyz 1 1
| 19> Ir   0.57842626  -0.73098331   0.48703073
| 20> C    0.02176209  -2.80973714   0.36587044
| 21> C    0.09064004  -2.36453229   1.73602851
| 22> C    2.18575297  -2.14577115   0.80516435
| 23> C    1.29240921  -2.64781316  -0.21483551
| 24> C    1.45619014  -2.00903147   1.99906138
| 25> N   -1.04209405   0.15648916  -0.51253273
| 26> C   -2.31979478   0.47662705   0.14477894
| 27> C   -3.12505103   1.54522951  -0.57730780
| 28> H   -3.95746620   1.84666824   0.05710978
| 29> H   -3.56108205   1.19157859  -1.51297340
| 30> H   -2.53256640   2.43793372  -0.77996989
| 31> C   -3.12947052  -0.79913142   0.34182287
| 32> H   -2.03716089   0.86410449   1.12509185
| 33> H   -4.04964876  -0.56869644   0.87664625
| 34> H   -3.40358533  -1.24630701  -0.61462025
| 35> H   -2.59121625  -1.54016429   0.93105786
| 36> C   -0.83977482   0.36606910  -1.75684892
| 37> C    0.50852817   0.16574930  -2.23546408
| 38> H   -1.62752989   0.71576877  -2.41818055
| 39> C    1.61173121   0.48766212  -1.45431335
| 40> C    2.81392581   0.10284375  -2.11262519
| 41> S    0.93244146  -0.53544071  -3.73430518
| 42> C    2.59961427  -0.45134982  -3.33666203
| 43> H    1.53635824   1.37641483  -0.63581512
| 44> H    3.80179353   0.28271749  -1.71391684
| 45> H    3.33575448  -0.79713191  -4.04664838
| 46> H   -0.86364588  -3.16770203  -0.13962729
| 47> H   -0.70597092  -2.39899156   2.46463727
| 48> H    1.83548572  -1.62123489   2.93357986
| 49> O    1.35318600   2.42531262   0.25101375
| 50> O    0.53534966   0.91846475   1.67781341
| 51> C    0.93284797   2.10305974   1.36334147
| 52> C    0.88567253   3.10287695   2.48319062
| 53> H    0.84589224   4.11628633   2.09322114
| 54> H    1.79550235   3.01072058   3.07968738
| 55> H    0.04355552   2.92422898   3.14826958
| 56> H    3.23275744  -1.91753375   0.67149183
| 57> H    1.55985051  -2.86606372  -1.23852261
| 58> *
| 59>
| 60>                          ****END OF INPUT****
 Total Charge           Charge          ....    1
 Multiplicity           Mult            ....    1
 Number of Electrons    NEL             ....  164
Dispersion correction           -0.030882613
FINAL SINGLE POINT ENERGY     -1288.395993344762
Dispersion correction            ... done
Dispersion correction           -0.030960140
FINAL SINGLE POINT ENERGY     -1288.393316168545
Dispersion correction            ... done
Dispersion correction           -0.030871678
FINAL SINGLE POINT ENERGY     -1288.396074776712
Dispersion correction            ... done
FINAL SINGLE POINT ENERGY     -1288.393875002539
FINAL SINGLE POINT ENERGY     -1288.396167267724
FINAL SINGLE POINT ENERGY     -1288.396196431291
FINAL SINGLE POINT ENERGY     -1288.396226053944
FINAL SINGLE POINT ENERGY     -1288.396241045933
FINAL SINGLE POINT ENERGY     -1288.396255057813
Dispersion correction            ... done
Dispersion correction           -0.030726416
FINAL SINGLE POINT ENERGY     -1288.396267171818
Dispersion correction            ... done
Dispersion correction           -0.030719945
FINAL SINGLE POINT ENERGY     -1288.396267245674
Dispersion correction            ... done
                    ***********************HURRAY********************

CARTESIAN COORDINATES (ANGSTROEM)
---------------------------------
  Ir     0.583007   -0.730846    0.488788
  C      0.026191   -2.811764    0.380945
  C      0.071253   -2.357635    1.748105
  C      2.183177   -2.144436    0.850390
  C      1.307141   -2.655379   -0.179763
  C      1.430761   -1.996881    2.029708
  N     -1.040998    0.147091   -0.513535
  C     -2.320700    0.450985    0.148410
  C     -3.120025    1.544190   -0.543368
  H     -3.952281    1.830952    0.098053
  H     -3.556083    1.219923   -1.489516
  H     -2.522609    2.439207   -0.719194
  C     -3.135728   -0.827522    0.302450
  H     -2.041769    0.807213    1.141485
  H     -4.057402   -0.611083    0.840634
  H     -3.407140   -1.243770   -0.668591
  H     -2.601717   -1.588475    0.869540
  C     -0.847367    0.369531   -1.758035
  C      0.495889    0.182751   -2.248984
  H     -1.642628    0.720664   -2.409412
  C      1.596922    0.435384   -1.439901
  C      2.798627    0.074247   -2.111299
  S      0.921402   -0.426664   -3.785164
  C      2.585492   -0.395852   -3.370928
  H      1.541873    1.342544   -0.615001
  H      3.786036    0.212017   -1.695122
  H      3.322073   -0.706443   -4.096539
  H     -0.849606   -3.175012   -0.137343
  H     -0.737623   -2.386803    2.463139
  H      1.793388   -1.600151    2.967140
  O      1.399678    2.408614    0.235935
  O      0.534256    0.933303    1.666467
  C      0.955529    2.105140    1.347080
  C      0.911171    3.121757    2.451121
  H      0.881037    4.129882    2.046837
  H      1.818160    3.031087    3.052163
  H      0.064840    2.958306    3.114559
  H      3.233521   -1.921831    0.735693
  H      1.591623   -2.885046   -1.196205

 Multiplicity           Mult            ....    1
 Number of Electrons    NEL             ....  164
 Basis Dimension        Dim             ....  358

ORBITAL ENERGIES
----------------

  NO   OCC          E(Eh)            E(eV)
   0   2.0000     -89.759080     -2442.4687
   1   2.0000     -19.627070      -534.0797
   2   2.0000     -19.595604      -533.2235
   3   2.0000     -14.838433      -403.7743
   4   2.0000     -10.685733      -290.7736
   5   2.0000     -10.659670      -290.0644
   6   2.0000     -10.636460      -289.4328
   7   2.0000     -10.633509      -289.3525
   8   2.0000     -10.632070      -289.3133
   9   2.0000     -10.630617      -289.2738
  10   2.0000     -10.630169      -289.2616
  11   2.0000     -10.626955      -289.1741
  12   2.0000     -10.615341      -288.8581
  13   2.0000     -10.607568      -288.6466
  14   2.0000     -10.581627      -287.9407
  15   2.0000     -10.579647      -287.8868
  16   2.0000     -10.556485      -287.2566
  17   2.0000     -10.551556      -287.1224
  18   2.0000     -10.535699      -286.6909
  19   2.0000      -8.398479      -228.5342
  20   2.0000      -6.288496      -171.1187
  21   2.0000      -6.284888      -171.0205
  22   2.0000      -6.283274      -170.9766
  23   2.0000      -4.029218      -109.6406
  24   2.0000      -2.348330       -63.9013
  25   2.0000      -2.314208       -62.9728
  26   2.0000      -2.312368       -62.9227
  27   2.0000      -1.311244       -35.6808
  28   2.0000      -1.214753       -33.0551
  29   2.0000      -1.209834       -32.9213
  30   2.0000      -1.172825       -31.9142
  31   2.0000      -1.123366       -30.5683
  32   2.0000      -1.025126       -27.8951
  33   2.0000      -0.987402       -26.8686
  34   2.0000      -0.977805       -26.6074
  35   2.0000      -0.963176       -26.2093
  36   2.0000      -0.956805       -26.0360
  37   2.0000      -0.930494       -25.3200
  38   2.0000      -0.902620       -24.5615
  39   2.0000      -0.871852       -23.7243
  40   2.0000      -0.796711       -21.6796
  41   2.0000      -0.788607       -21.4591
  42   2.0000      -0.787166       -21.4199
  43   2.0000      -0.779229       -21.2039
  44   2.0000      -0.771993       -21.0070
  45   2.0000      -0.758387       -20.6368
  46   2.0000      -0.742865       -20.2144
  47   2.0000      -0.722457       -19.6591
  48   2.0000      -0.693009       -18.8577
  49   2.0000      -0.675824       -18.3901
  50   2.0000      -0.664203       -18.0739
  51   2.0000      -0.651656       -17.7325
  52   2.0000      -0.648899       -17.6574
  53   2.0000      -0.639966       -17.4144
  54   2.0000      -0.638233       -17.3672
  55   2.0000      -0.632372       -17.2077
  56   2.0000      -0.623208       -16.9583
  57   2.0000      -0.610239       -16.6055
  58   2.0000      -0.608353       -16.5541
  59   2.0000      -0.607138       -16.5211
  60   2.0000      -0.596297       -16.2261
  61   2.0000      -0.587675       -15.9914
  62   2.0000      -0.575990       -15.6735
  63   2.0000      -0.568280       -15.4637
  64   2.0000      -0.562422       -15.3043
  65   2.0000      -0.557172       -15.1614
  66   2.0000      -0.552370       -15.0307
  67   2.0000      -0.548536       -14.9264
  68   2.0000      -0.539648       -14.6846
  69   2.0000      -0.534664       -14.5489
  70   2.0000      -0.527915       -14.3653
  71   2.0000      -0.520160       -14.1543
  72   2.0000      -0.515547       -14.0287
  73   2.0000      -0.506307       -13.7773
  74   2.0000      -0.491409       -13.3719
  75   2.0000      -0.480655       -13.0793
  76   2.0000      -0.465249       -12.6601
  77   2.0000      -0.449818       -12.2402
  78   2.0000      -0.442856       -12.0507
  79   2.0000      -0.421141       -11.4598
  80   2.0000      -0.417335       -11.3563
  81   2.0000      -0.402206       -10.9446
  82   0.0000      -0.200600        -5.4586
  83   0.0000      -0.162182        -4.4132
  84   0.0000      -0.141245        -3.8435
  85   0.0000      -0.094592        -2.5740
  86   0.0000      -0.075015        -2.0413

MULLIKEN ATOMIC CHARGES
-----------------------
   0 Ir:    0.615962
   1 C :   -0.210241
   2 C :   -0.291470
   3 C :   -0.234475
   4 C :   -0.244657
   5 C :   -0.166959
   6 N :   -0.432975
   7 C :   -0.120087
   8 C :   -0.692048
   9 H :    0.271725
  10 H :    0.225893
  11 H :    0.259689
  12 C :   -0.637759
  13 H :    0.280627
  14 H :    0.263832
  15 H :    0.231054
  16 H :    0.231582
  17 C :    0.069442
  18 C :   -0.191514
  19 H :    0.289666
  20 C :   -0.437907
  21 C :   -0.140481
  22 S :    0.304696
  23 C :   -0.428217
  24 H :    0.500543
  25 H :    0.263971
  26 H :    0.296208
  27 H :    0.291866
  28 H :    0.292396
  29 H :    0.305588
  30 O :   -0.487738
  31 O :   -0.536088
  32 C :    0.621084
  33 C :   -0.745541
  34 H :    0.270486
  35 H :    0.267654
  36 H :    0.254729
  37 H :    0.293848
  38 H :    0.295615
Sum of atomic charges:    1.0000000

LOEWDIN ATOMIC CHARGES
----------------------
   0 Ir:   -0.219926
   1 C :   -0.039906
   2 C :   -0.064420
   3 C :   -0.052385
   4 C :   -0.054292
   5 C :   -0.024840
   6 N :   -0.010268
   7 C :   -0.068736
   8 C :   -0.364377
   9 H :    0.157048
  10 H :    0.133651
  11 H :    0.146358
  12 C :   -0.343717
  13 H :    0.155899
  14 H :    0.152746
  15 H :    0.137314
  16 H :    0.133434
  17 C :    0.035235
  18 C :   -0.191680
  19 H :    0.161809
  20 C :   -0.199038
  21 C :   -0.141538
  22 S :    0.466341
  23 C :   -0.261820
  24 H :    0.302371
  25 H :    0.160922
  26 H :    0.167440
  27 H :    0.185371
  28 H :    0.185682
  29 H :    0.193090
  30 O :   -0.275802
  31 O :   -0.202688
  32 C :    0.159239
  33 C :   -0.375040
  34 H :    0.160503
  35 H :    0.168054
  36 H :    0.154019
  37 H :    0.187177
  38 H :    0.186769

  Mayer bond orders larger than 0.100000
B(  0-Ir,  1-C ) :   0.4218 B(  0-Ir,  2-C ) :   0.5348 B(  0-Ir,  3-C ) :   0.4598
B(  0-Ir,  4-C ) :   0.4542 B(  0-Ir,  5-C ) :   0.4034 B(  0-Ir,  6-N ) :   0.4675
B(  0-Ir, 20-C ) :   0.2602 B(  0-Ir, 31-O ) :   0.5714 B(  1-C ,  2-C ) :   1.1176
B(  1-C ,  4-C ) :   1.2421 B(  1-C , 27-H ) :   0.9030 B(  2-C ,  5-C ) :   1.1339
B(  2-C , 28-H ) :   0.9074 B(  3-C ,  4-C ) :   1.1070 B(  3-C ,  5-C ) :   1.2330
B(  3-C , 37-H ) :   0.9045 B(  4-C , 38-H ) :   0.8999 B(  5-C , 29-H ) :   0.8982
B(  6-N ,  7-C ) :   0.8919 B(  6-N , 17-C ) :   1.6810 B(  7-C ,  8-C ) :   0.9920
B(  7-C , 12-C ) :   0.9688 B(  7-C , 13-H ) :   0.8733 B(  8-C ,  9-H ) :   0.9037
B(  8-C , 10-H ) :   0.9126 B(  8-C , 11-H ) :   0.9088 B( 12-C , 14-H ) :   0.9066
B( 12-C , 15-H ) :   0.9155 B( 12-C , 16-H ) :   0.9118 B( 17-C , 18-C ) :   1.0680
B( 17-C , 19-H ) :   0.8744 B( 18-C , 20-C ) :   1.2953 B( 18-C , 22-S ) :   1.2195
B( 20-C , 21-C ) :   1.2757 B( 20-C , 24-H ) :   0.4463 B( 21-C , 23-C ) :   1.5433
B( 21-C , 25-H ) :   0.9052 B( 22-S , 23-C ) :   1.2081 B( 23-C , 26-H ) :   0.8924
B( 24-H , 30-O ) :   0.2547 B( 30-O , 32-C ) :   1.6623 B( 31-O , 32-C ) :   1.2954
B( 32-C , 33-C ) :   0.9477 B( 33-C , 34-H ) :   0.9043 B( 33-C , 35-H ) :   0.8977
B( 33-C , 36-H ) :   0.9090

Dispersion correction           -0.030715826
FINAL SINGLE POINT ENERGY     -1288.396269352321

DIPOLE MOMENT
-------------
                                X             Y             Z
Electronic contribution:     34.55298     -69.34426      76.63561
Nuclear contribution   :    -35.17481      68.22166     -76.82039
                        -----------------------------------------
Total Dipole Moment    :     -0.62182      -1.12259      -0.18478
                        -----------------------------------------
Magnitude (a.u.)       :      1.29654
Magnitude (Debye)      :      3.29555

Rotational constants in cm-1:     0.010608     0.008971     0.008181
Rotational constants in MHz :   318.028368   268.934498   245.275079

                             ****ORCA TERMINATED NORMALLY****
TOTAL RUN TIME: 0 days 1 hours 32 minutes 32 seconds 860 msec
