                         Program Version 5.0.3 -  RELEASE  -
|  1> ! Opt PBEh-3c
|  2> %geom Constraints
|  3> { B 0 20 2.2142857142857144 C }
|  4> { B 24 30 1.3 C }
|  5>     end
|  6> end
|  7> %output
|  8> xyzfile=True
|  9> end
| 10> %scf
| 11> maxiter 250
| 12> end
| 13> %output
| 14> Print[P_Hirshfeld] = 1
| 15> end
| 16> % maxcore
| 17> 4000
| 18> *xyz 1 1
| 19> Ir   0.59729557  -0.74042855   0.46963290
| 20> C    0.09271898  -2.84141388   0.39272720
| 21> C   -0.08716084  -2.36385921   1.73897394
| 22> C    2.13940463  -2.09954775   1.16803461
| 23> C    1.45050392  -2.67728824   0.04366532
| 24> C    1.18687247  -1.93532153   2.20354870
| 25> N   -1.05933516   0.10664865  -0.50725721
| 26> C   -2.34474291   0.30771575   0.18209820
| 27> C   -3.13710830   1.50131034  -0.33283100
| 28> H   -3.97450859   1.68356262   0.33893040
| 29> H   -3.56346698   1.33328808  -1.32269967
| 30> H   -2.53528266   2.40998864  -0.35923759
| 31> C   -3.16540215  -0.97506226   0.11254785
| 32> H   -2.08172310   0.50169477   1.22304792
| 33> H   -4.08496361  -0.85959901   0.68496233
| 34> H   -3.44069576  -1.20971806  -0.91651196
| 35> H   -2.62923786  -1.82848462   0.52430514
| 36> C   -0.89692500   0.44496798  -1.73370184
| 37> C    0.42172317   0.29748591  -2.27363501
| 38> H   -1.71168827   0.85214626  -2.32462324
| 39> C    1.49446122   0.13579149  -1.40707332
| 40> C    2.69122251  -0.09645044  -2.14049968
| 41> S    0.86522063   0.20853891  -3.91543607
| 42> C    2.49742377  -0.07446945  -3.49084331
| 43> H    1.65262604   1.17245168  -0.56348876
| 44> H    3.66622470  -0.21766856  -1.69141843
| 45> H    3.23943502  -0.19281936  -4.26590266
| 46> H   -0.67383984  -3.25886947  -0.24378333
| 47> H   -0.99568069  -2.39660906   2.32096627
| 48> H    1.38225181  -1.48889684   3.16844247
| 49> O    1.76288376   2.26301600   0.16167304
| 50> O    0.54737920   1.02222971   1.55185549
| 51> C    1.14013638   2.09762401   1.23287757
| 52> C    1.10535833   3.22216100   2.22290358
| 53> H    0.99864616   4.17715052   1.71323126
| 54> H    2.05471672   3.24905411   2.76058903
| 55> H    0.30648838   3.09283759   2.94739572
| 56> H    3.19455106  -1.88327008   1.23283286
| 57> H    1.89358730  -2.94069755  -0.90555859
| 58> *
| 59>
| 60>                          ****END OF INPUT****
 Total Charge           Charge          ....    1
 Multiplicity           Mult            ....    1
 Number of Electrons    NEL             ....  164
Dispersion correction           -0.030561612
FINAL SINGLE POINT ENERGY     -1288.404700385209
Dispersion correction            ... done
Dispersion correction           -0.030520851
FINAL SINGLE POINT ENERGY     -1288.404954552787
Dispersion correction            ... done
Dispersion correction           -0.030501900
FINAL SINGLE POINT ENERGY     -1288.405043341734
Dispersion correction            ... done
FINAL SINGLE POINT ENERGY     -1288.405089546465
FINAL SINGLE POINT ENERGY     -1288.405129799178
FINAL SINGLE POINT ENERGY     -1288.405148114392
FINAL SINGLE POINT ENERGY     -1288.405156866344
FINAL SINGLE POINT ENERGY     -1288.405161159193
FINAL SINGLE POINT ENERGY     -1288.405168268433
FINAL SINGLE POINT ENERGY     -1288.405176442978
FINAL SINGLE POINT ENERGY     -1288.405188322626
Dispersion correction            ... done
Dispersion correction           -0.030445356
FINAL SINGLE POINT ENERGY     -1288.405198101027
Dispersion correction            ... done
Dispersion correction           -0.030445268
FINAL SINGLE POINT ENERGY     -1288.405203079557
Dispersion correction            ... done
                    ***********************HURRAY********************

CARTESIAN COORDINATES (ANGSTROEM)
---------------------------------
  Ir     0.600019   -0.741455    0.457552
  C      0.128151   -2.848035    0.372401
  C     -0.119827   -2.381542    1.712499
  C      2.124873   -2.072689    1.241957
  C      1.501277   -2.666884    0.092143
  C      1.117104   -1.927813    2.233520
  N     -1.068688    0.098690   -0.504946
  C     -2.352918    0.281928    0.190720
  C     -3.140420    1.495205   -0.283998
  H     -3.978820    1.656875    0.391682
  H     -3.564436    1.364130   -1.280413
  H     -2.534547    2.401524   -0.277147
  C     -3.177010   -0.995662    0.078914
  H     -2.089690    0.441235    1.237503
  H     -4.092340   -0.901371    0.661910
  H     -3.459520   -1.191030   -0.956384
  H     -2.638314   -1.865058    0.452560
  C     -0.914198    0.452942   -1.728233
  C      0.400431    0.307471   -2.275382
  H     -1.732102    0.868752   -2.308583
  C      1.461603    0.083859   -1.407814
  C      2.661545   -0.129668   -2.142647
  S      0.856846    0.295748   -3.915553
  C      2.479971   -0.034947   -3.491785
  H      1.659441    1.175902   -0.583052
  H      3.630589   -0.291023   -1.693125
  H      3.227530   -0.126692   -4.265126
  H     -0.598256   -3.284976   -0.297115
  H     -1.054742   -2.427213    2.249906
  H      1.257049   -1.477090    3.205999
  O      1.794132    2.259895    0.121801
  O      0.567303    1.040912    1.520899
  C      1.171750    2.104004    1.199576
  C      1.161988    3.236131    2.180530
  H      1.035981    4.186859    1.666958
  H      2.127032    3.272299    2.688873
  H      0.384633    3.108906    2.928165
  H      3.173191   -1.846695    1.360723
  H      1.992757   -2.924234   -0.834750

 Multiplicity           Mult            ....    1
 Number of Electrons    NEL             ....  164
 Basis Dimension        Dim             ....  358

ORBITAL ENERGIES
----------------

  NO   OCC          E(Eh)            E(eV)
   0   2.0000     -89.757650     -2442.4298
   1   2.0000     -19.640965      -534.4578
   2   2.0000     -19.633211      -534.2468
   3   2.0000     -14.830104      -403.5477
   4   2.0000     -10.704546      -291.2855
   5   2.0000     -10.652160      -289.8600
   6   2.0000     -10.626736      -289.1682
   7   2.0000     -10.624683      -289.1123
   8   2.0000     -10.623031      -289.0674
   9   2.0000     -10.618093      -288.9330
  10   2.0000     -10.616973      -288.9025
  11   2.0000     -10.613004      -288.7945
  12   2.0000     -10.611577      -288.7557
  13   2.0000     -10.606455      -288.6163
  14   2.0000     -10.587203      -288.0924
  15   2.0000     -10.583686      -287.9967
  16   2.0000     -10.552292      -287.1425
  17   2.0000     -10.549506      -287.0666
  18   2.0000     -10.548975      -287.0522
  19   2.0000      -8.397059      -228.4956
  20   2.0000      -6.286965      -171.0770
  21   2.0000      -6.283448      -170.9813
  22   2.0000      -6.281973      -170.9412
  23   2.0000      -4.020748      -109.4101
  24   2.0000      -2.337992       -63.6200
  25   2.0000      -2.306571       -62.7650
  26   2.0000      -2.303259       -62.6749
  27   2.0000      -1.334459       -36.3125
  28   2.0000      -1.235631       -33.6232
  29   2.0000      -1.202821       -32.7304
  30   2.0000      -1.161418       -31.6038
  31   2.0000      -1.122245       -30.5379
  32   2.0000      -1.021190       -27.7880
  33   2.0000      -0.974211       -26.5096
  34   2.0000      -0.967430       -26.3251
  35   2.0000      -0.963083       -26.2068
  36   2.0000      -0.955491       -26.0002
  37   2.0000      -0.944841       -25.7104
  38   2.0000      -0.898880       -24.4598
  39   2.0000      -0.868387       -23.6300
  40   2.0000      -0.794573       -21.6214
  41   2.0000      -0.778513       -21.1844
  42   2.0000      -0.777640       -21.1606
  43   2.0000      -0.776694       -21.1349
  44   2.0000      -0.768154       -20.9025
  45   2.0000      -0.762045       -20.7363
  46   2.0000      -0.740217       -20.1423
  47   2.0000      -0.721736       -19.6394
  48   2.0000      -0.694181       -18.8896
  49   2.0000      -0.682837       -18.5809
  50   2.0000      -0.665651       -18.1133
  51   2.0000      -0.662459       -18.0264
  52   2.0000      -0.650966       -17.7137
  53   2.0000      -0.638123       -17.3642
  54   2.0000      -0.631202       -17.1759
  55   2.0000      -0.628945       -17.1145
  56   2.0000      -0.620601       -16.8874
  57   2.0000      -0.607036       -16.5183
  58   2.0000      -0.597707       -16.2644
  59   2.0000      -0.596992       -16.2450
  60   2.0000      -0.595942       -16.2164
  61   2.0000      -0.589234       -16.0339
  62   2.0000      -0.576165       -15.6783
  63   2.0000      -0.572181       -15.5698
  64   2.0000      -0.561508       -15.2794
  65   2.0000      -0.560024       -15.2390
  66   2.0000      -0.558299       -15.1921
  67   2.0000      -0.545076       -14.8323
  68   2.0000      -0.541664       -14.7394
  69   2.0000      -0.534854       -14.5541
  70   2.0000      -0.528118       -14.3708
  71   2.0000      -0.517399       -14.0791
  72   2.0000      -0.512649       -13.9499
  73   2.0000      -0.504261       -13.7216
  74   2.0000      -0.498578       -13.5670
  75   2.0000      -0.481328       -13.0976
  76   2.0000      -0.477955       -13.0058
  77   2.0000      -0.450591       -12.2612
  78   2.0000      -0.444764       -12.1027
  79   2.0000      -0.416852       -11.3431
  80   2.0000      -0.414575       -11.2812
  81   2.0000      -0.395020       -10.7491
  82   0.0000      -0.197037        -5.3617
  83   0.0000      -0.142417        -3.8754
  84   0.0000      -0.136261        -3.7079
  85   0.0000      -0.083156        -2.2628
  86   0.0000      -0.075113        -2.0439

MULLIKEN ATOMIC CHARGES
-----------------------
   0 Ir:    0.600636
   1 C :   -0.244313
   2 C :   -0.265639
   3 C :   -0.267782
   4 C :   -0.222098
   5 C :   -0.156213
   6 N :   -0.440698
   7 C :   -0.125617
   8 C :   -0.679630
   9 H :    0.268071
  10 H :    0.224586
  11 H :    0.252768
  12 C :   -0.633062
  13 H :    0.276035
  14 H :    0.257884
  15 H :    0.232662
  16 H :    0.232126
  17 C :    0.069092
  18 C :   -0.134835
  19 H :    0.282656
  20 C :   -0.511588
  21 C :   -0.123689
  22 S :    0.333994
  23 C :   -0.424115
  24 H :    0.479059
  25 H :    0.263623
  26 H :    0.296138
  27 H :    0.286087
  28 H :    0.282486
  29 H :    0.297601
  30 O :   -0.492169
  31 O :   -0.501181
  32 C :    0.636676
  33 C :   -0.744462
  34 H :    0.275356
  35 H :    0.277556
  36 H :    0.264556
  37 H :    0.283344
  38 H :    0.294096
Sum of atomic charges:    1.0000000

LOEWDIN ATOMIC CHARGES
----------------------
   0 Ir:   -0.258037
   1 C :   -0.058660
   2 C :   -0.093237
   3 C :   -0.094672
   4 C :   -0.036770
   5 C :   -0.016595
   6 N :   -0.011814
   7 C :   -0.068871
   8 C :   -0.361847
   9 H :    0.155544
  10 H :    0.132685
  11 H :    0.142891
  12 C :   -0.344254
  13 H :    0.152906
  14 H :    0.150221
  15 H :    0.137985
  16 H :    0.132430
  17 C :    0.031097
  18 C :   -0.201837
  19 H :    0.158723
  20 C :   -0.216540
  21 C :   -0.137191
  22 S :    0.485648
  23 C :   -0.256868
  24 H :    0.362905
  25 H :    0.160239
  26 H :    0.168238
  27 H :    0.182624
  28 H :    0.179989
  29 H :    0.188129
  30 O :   -0.257787
  31 O :   -0.173641
  32 C :    0.171899
  33 C :   -0.370738
  34 H :    0.166588
  35 H :    0.173432
  36 H :    0.157299
  37 H :    0.182325
  38 H :    0.185563

  Mayer bond orders larger than 0.100000
B(  0-Ir,  1-C ) :   0.4466 B(  0-Ir,  2-C ) :   0.4280 B(  0-Ir,  3-C ) :   0.4678
B(  0-Ir,  4-C ) :   0.4329 B(  0-Ir,  5-C ) :   0.3828 B(  0-Ir,  6-N ) :   0.4672
B(  0-Ir, 20-C ) :   0.4563 B(  0-Ir, 31-O ) :   0.5078 B(  1-C ,  2-C ) :   1.1263
B(  1-C ,  4-C ) :   1.2214 B(  1-C , 27-H ) :   0.9079 B(  2-C ,  5-C ) :   1.2023
B(  2-C , 28-H ) :   0.9102 B(  3-C ,  4-C ) :   1.1383 B(  3-C ,  5-C ) :   1.1785
B(  3-C , 37-H ) :   0.9122 B(  4-C , 38-H ) :   0.9000 B(  5-C , 29-H ) :   0.9012
B(  6-N ,  7-C ) :   0.8959 B(  6-N , 17-C ) :   1.6444 B(  7-C ,  8-C ) :   0.9903
B(  7-C , 12-C ) :   0.9675 B(  7-C , 13-H ) :   0.8794 B(  8-C ,  9-H ) :   0.9051
B(  8-C , 10-H ) :   0.9131 B(  8-C , 11-H ) :   0.9128 B( 12-C , 14-H ) :   0.9081
B( 12-C , 15-H ) :   0.9154 B( 12-C , 16-H ) :   0.9127 B( 17-C , 18-C ) :   1.1172
B( 17-C , 19-H ) :   0.8768 B( 18-C , 20-C ) :   1.2534 B( 18-C , 22-S ) :   1.2191
B( 20-C , 21-C ) :   1.2944 B( 20-C , 24-H ) :   0.3056 B( 21-C , 23-C ) :   1.5309
B( 21-C , 25-H ) :   0.9040 B( 22-S , 23-C ) :   1.2278 B( 23-C , 26-H ) :   0.8918
B( 24-H , 30-O ) :   0.3721 B( 30-O , 32-C ) :   1.5221 B( 31-O , 32-C ) :   1.4087
B( 32-C , 33-C ) :   0.9470 B( 33-C , 34-H ) :   0.8981 B( 33-C , 35-H ) :   0.8918
B( 33-C , 36-H ) :   0.9074

Dispersion correction           -0.030447392
FINAL SINGLE POINT ENERGY     -1288.405205060884

DIPOLE MOMENT
-------------
                                X             Y             Z
Electronic contribution:     36.36329     -74.54250      74.77757
Nuclear contribution   :    -36.92434      74.15743     -74.84853
                        -----------------------------------------
Total Dipole Moment    :     -0.56105      -0.38506      -0.07096
                        -----------------------------------------
Magnitude (a.u.)       :      0.68417
Magnitude (Debye)      :      1.73902

Rotational constants in cm-1:     0.010561     0.008652     0.008142
Rotational constants in MHz :   316.615513   259.374435   244.090657

                             ****ORCA TERMINATED NORMALLY****
TOTAL RUN TIME: 0 days 1 hours 49 minutes 44 seconds 728 msec
