                         Program Version 5.0.3 -  RELEASE  -
|  1> ! Opt PBEh-3c
|  2> %geom Constraints
|  3> { B 0 20 2.5142857142857142 C }
|  4> { B 24 30 1.3571428571428572 C }
|  5>     end
|  6> end
|  7> %output
|  8> xyzfile=True
|  9> end
| 10> %scf
| 11> maxiter 250
| 12> end
| 13> %output
| 14> Print[P_Hirshfeld] = 1
| 15> end
| 16> % maxcore
| 17> 4000
| 18> *xyz 1 1
| 19> Ir   0.57098765  -0.73674010   0.49858091
| 20> C    0.01291619  -2.81292252   0.36760535
| 21> C    0.08684561  -2.37215364   1.73942862
| 22> C    2.17894585  -2.15331589   0.80375361
| 23> C    1.28174288  -2.64925027  -0.21602482
| 24> C    1.45447531  -2.02129655   2.00074841
| 25> N   -1.04043393   0.15658697  -0.50879828
| 26> C   -2.31989562   0.48194513   0.14283131
| 27> C   -3.12696769   1.53950987  -0.59328072
| 28> H   -3.96154145   1.84555088   0.03605304
| 29> H   -3.55994319   1.17342806  -1.52557967
| 30> H   -2.53729354   2.43192603  -0.80529105
| 31> C   -3.12748585  -0.79259341   0.35512692
| 32> H   -2.03933631   0.88254112   1.11854159
| 33> H   -4.04928835  -0.55676650   0.88475395
| 34> H   -3.39879361  -1.25291120  -0.59588557
| 35> H   -2.58966631  -1.52481767   0.95571635
| 36> C   -0.83215113   0.36273379  -1.75266676
| 37> C    0.51739106   0.16314681  -2.22986354
| 38> H   -1.61804643   0.71030355  -2.41747842
| 39> C    1.62382361   0.51476950  -1.46718605
| 40> C    2.82354754   0.12984247  -2.12961501
| 41> S    0.93512626  -0.55994776  -3.72220708
| 42> C    2.60453918  -0.44974663  -3.34112467
| 43> H    1.53947707   1.39546169  -0.63562474
| 44> H    3.81312893   0.32698580  -1.74345868
| 45> H    3.33846254  -0.80129417  -4.05060203
| 46> H   -0.87476049  -3.16746012  -0.13631875
| 47> H   -0.70764320  -2.40844911   2.47036407
| 48> H    1.83739607  -1.63876293   2.93594283
| 49> O    1.34763207   2.41988781   0.25575787
| 50> O    0.53744774   0.91247573   1.68704437
| 51> C    0.93148458   2.09761061   1.36979357
| 52> C    0.88662740   3.09827977   2.48878036
| 53> H    0.84253479   4.11115874   2.09787932
| 54> H    1.79939177   3.00922461   3.08127167
| 55> H    0.04797485   2.91819044   3.15781964
| 56> H    3.22504343  -1.92300066   0.66603486
| 57> H    1.54567475  -2.86094024  -1.24208266
| 58> *
| 59>
| 60>                          ****END OF INPUT****
 Total Charge           Charge          ....    1
 Multiplicity           Mult            ....    1
 Number of Electrons    NEL             ....  164
Dispersion correction           -0.030870605
FINAL SINGLE POINT ENERGY     -1288.394383890049
Dispersion correction            ... done
Dispersion correction           -0.030815820
FINAL SINGLE POINT ENERGY     -1288.394544387430
Dispersion correction            ... done
Dispersion correction           -0.030787642
FINAL SINGLE POINT ENERGY     -1288.394604282895
Dispersion correction            ... done
FINAL SINGLE POINT ENERGY     -1288.394626431824
FINAL SINGLE POINT ENERGY     -1288.394638858684
FINAL SINGLE POINT ENERGY     -1288.394645013303
FINAL SINGLE POINT ENERGY     -1288.394649965672
FINAL SINGLE POINT ENERGY     -1288.394656101243
FINAL SINGLE POINT ENERGY     -1288.394662135552
FINAL SINGLE POINT ENERGY     -1288.394668427891
Dispersion correction            ... done
Dispersion correction           -0.030697084
FINAL SINGLE POINT ENERGY     -1288.394672373661
Dispersion correction            ... done
Dispersion correction           -0.030690236
FINAL SINGLE POINT ENERGY     -1288.394673991130
Dispersion correction            ... done
                    ***********************HURRAY********************

CARTESIAN COORDINATES (ANGSTROEM)
---------------------------------
  Ir     0.578715   -0.734905    0.502162
  C      0.029510   -2.815841    0.377396
  C      0.062383   -2.365207    1.746746
  C      2.181194   -2.144465    0.868702
  C      1.314468   -2.652757   -0.170890
  C      1.419359   -2.004700    2.042536
  N     -1.039794    0.143399   -0.505380
  C     -2.321622    0.447824    0.152829
  C     -3.110196    1.552516   -0.533117
  H     -3.943546    1.839986    0.106566
  H     -3.543754    1.238991   -1.483949
  H     -2.505034    2.444181   -0.698864
  C     -3.143548   -0.828292    0.289204
  H     -2.046814    0.792463    1.151088
  H     -4.065293   -0.614707    0.828393
  H     -3.414821   -1.230908   -0.687623
  H     -2.613597   -1.599070    0.846962
  C     -0.845335    0.357872   -1.751020
  C      0.498090    0.172924   -2.244205
  H     -1.642266    0.702216   -2.404290
  C      1.605371    0.460906   -1.456829
  C      2.802670    0.098577   -2.135117
  S      0.912280   -0.466356   -3.773526
  C      2.580642   -0.403290   -3.380992
  H      1.544034    1.361219   -0.619415
  H      3.793421    0.257864   -1.734808
  H      3.312886   -0.721417   -4.107747
  H     -0.840906   -3.179999   -0.149213
  H     -0.752497   -2.399252    2.454842
  H      1.772903   -1.611606    2.984971
  O      1.396128    2.405278    0.234927
  O      0.537837    0.931913    1.672566
  C      0.956306    2.103531    1.348323
  C      0.914164    3.123038    2.449637
  H      0.861845    4.129119    2.042320
  H      1.833236    3.049635    3.034509
  H      0.081982    2.949130    3.127968
  H      3.231451   -1.917343    0.762127
  H      1.607517   -2.873278   -1.187049

 Multiplicity           Mult            ....    1
 Number of Electrons    NEL             ....  164
 Basis Dimension        Dim             ....  358

ORBITAL ENERGIES
----------------

  NO   OCC          E(Eh)            E(eV)
   0   2.0000     -89.757341     -2442.4214
   1   2.0000     -19.627916      -534.1027
   2   2.0000     -19.595726      -533.2268
   3   2.0000     -14.838165      -403.7670
   4   2.0000     -10.686571      -290.7964
   5   2.0000     -10.659561      -290.0614
   6   2.0000     -10.636939      -289.4458
   7   2.0000     -10.634438      -289.3778
   8   2.0000     -10.633656      -289.3565
   9   2.0000     -10.631677      -289.3026
  10   2.0000     -10.631076      -289.2863
  11   2.0000     -10.625539      -289.1356
  12   2.0000     -10.615461      -288.8614
  13   2.0000     -10.606489      -288.6172
  14   2.0000     -10.579865      -287.8928
  15   2.0000     -10.577857      -287.8381
  16   2.0000     -10.556693      -287.2622
  17   2.0000     -10.551484      -287.1205
  18   2.0000     -10.535980      -286.6986
  19   2.0000      -8.396734      -228.4868
  20   2.0000      -6.286772      -171.0718
  21   2.0000      -6.283165      -170.9736
  22   2.0000      -6.281499      -170.9283
  23   2.0000      -4.030059      -109.6635
  24   2.0000      -2.349342       -63.9288
  25   2.0000      -2.315065       -62.9961
  26   2.0000      -2.313151       -62.9440
  27   2.0000      -1.312035       -35.7023
  28   2.0000      -1.215718       -33.0814
  29   2.0000      -1.209618       -32.9154
  30   2.0000      -1.173816       -31.9412
  31   2.0000      -1.121742       -30.5242
  32   2.0000      -1.024709       -27.8837
  33   2.0000      -0.988477       -26.8978
  34   2.0000      -0.978746       -26.6330
  35   2.0000      -0.961841       -26.1730
  36   2.0000      -0.955404       -25.9979
  37   2.0000      -0.930949       -25.3324
  38   2.0000      -0.902581       -24.5605
  39   2.0000      -0.871288       -23.7089
  40   2.0000      -0.796133       -21.6639
  41   2.0000      -0.789486       -21.4830
  42   2.0000      -0.787990       -21.4423
  43   2.0000      -0.778617       -21.1873
  44   2.0000      -0.772474       -21.0201
  45   2.0000      -0.759408       -20.6645
  46   2.0000      -0.742804       -20.2127
  47   2.0000      -0.722476       -19.6596
  48   2.0000      -0.692888       -18.8544
  49   2.0000      -0.675427       -18.3793
  50   2.0000      -0.663881       -18.0651
  51   2.0000      -0.652169       -17.7464
  52   2.0000      -0.649277       -17.6677
  53   2.0000      -0.640549       -17.4302
  54   2.0000      -0.638963       -17.3871
  55   2.0000      -0.632856       -17.2209
  56   2.0000      -0.623381       -16.9631
  57   2.0000      -0.610299       -16.6071
  58   2.0000      -0.609215       -16.5776
  59   2.0000      -0.607551       -16.5323
  60   2.0000      -0.595665       -16.2089
  61   2.0000      -0.587010       -15.9734
  62   2.0000      -0.574962       -15.6455
  63   2.0000      -0.567675       -15.4472
  64   2.0000      -0.562186       -15.2979
  65   2.0000      -0.556885       -15.1536
  66   2.0000      -0.552395       -15.0314
  67   2.0000      -0.548496       -14.9253
  68   2.0000      -0.539718       -14.6865
  69   2.0000      -0.534145       -14.5348
  70   2.0000      -0.527717       -14.3599
  71   2.0000      -0.520454       -14.1623
  72   2.0000      -0.515795       -14.0355
  73   2.0000      -0.507191       -13.8014
  74   2.0000      -0.492016       -13.3884
  75   2.0000      -0.480530       -13.0759
  76   2.0000      -0.463690       -12.6177
  77   2.0000      -0.450751       -12.2655
  78   2.0000      -0.442783       -12.0487
  79   2.0000      -0.420582       -11.4446
  80   2.0000      -0.417196       -11.3525
  81   2.0000      -0.402212       -10.9447
  82   0.0000      -0.200242        -5.4489
  83   0.0000      -0.163825        -4.4579
  84   0.0000      -0.141322        -3.8456
  85   0.0000      -0.094672        -2.5761
  86   0.0000      -0.075075        -2.0429

MULLIKEN ATOMIC CHARGES
-----------------------
   0 Ir:    0.618661
   1 C :   -0.210570
   2 C :   -0.293720
   3 C :   -0.234062
   4 C :   -0.242833
   5 C :   -0.166954
   6 N :   -0.433462
   7 C :   -0.121554
   8 C :   -0.690468
   9 H :    0.271348
  10 H :    0.225760
  11 H :    0.259998
  12 C :   -0.637126
  13 H :    0.280070
  14 H :    0.263898
  15 H :    0.231149
  16 H :    0.230941
  17 C :    0.068921
  18 C :   -0.200934
  19 H :    0.289179
  20 C :   -0.421431
  21 C :   -0.145907
  22 S :    0.300046
  23 C :   -0.426958
  24 H :    0.501583
  25 H :    0.263390
  26 H :    0.295585
  27 H :    0.292257
  28 H :    0.293079
  29 H :    0.306171
  30 O :   -0.490216
  31 O :   -0.536709
  32 C :    0.621579
  33 C :   -0.745911
  34 H :    0.270586
  35 H :    0.268050
  36 H :    0.254848
  37 H :    0.295059
  38 H :    0.296657
Sum of atomic charges:    1.0000000

LOEWDIN ATOMIC CHARGES
----------------------
   0 Ir:   -0.214607
   1 C :   -0.041080
   2 C :   -0.061215
   3 C :   -0.051800
   4 C :   -0.051775
   5 C :   -0.024713
   6 N :   -0.011971
   7 C :   -0.068804
   8 C :   -0.364034
   9 H :    0.156916
  10 H :    0.133592
  11 H :    0.146557
  12 C :   -0.343731
  13 H :    0.155520
  14 H :    0.152775
  15 H :    0.137337
  16 H :    0.133141
  17 C :    0.036286
  18 C :   -0.195157
  19 H :    0.161567
  20 C :   -0.197773
  21 C :   -0.144838
  22 S :    0.461160
  23 C :   -0.261637
  24 H :    0.300925
  25 H :    0.160484
  26 H :    0.167097
  27 H :    0.185636
  28 H :    0.185998
  29 H :    0.193390
  30 O :   -0.276378
  31 O :   -0.202319
  32 C :    0.160524
  33 C :   -0.375058
  34 H :    0.160737
  35 H :    0.168322
  36 H :    0.153870
  37 H :    0.187764
  38 H :    0.187292

  Mayer bond orders larger than 0.100000
B(  0-Ir,  1-C ) :   0.4225 B(  0-Ir,  2-C ) :   0.5444 B(  0-Ir,  3-C ) :   0.4607
B(  0-Ir,  4-C ) :   0.4553 B(  0-Ir,  5-C ) :   0.4037 B(  0-Ir,  6-N ) :   0.4688
B(  0-Ir, 20-C ) :   0.2452 B(  0-Ir, 31-O ) :   0.5727 B(  1-C ,  2-C ) :   1.1149
B(  1-C ,  4-C ) :   1.2429 B(  1-C , 27-H ) :   0.9030 B(  2-C ,  5-C ) :   1.1317
B(  2-C , 28-H ) :   0.9070 B(  3-C ,  4-C ) :   1.1058 B(  3-C ,  5-C ) :   1.2341
B(  3-C , 37-H ) :   0.9039 B(  4-C , 38-H ) :   0.8992 B(  5-C , 29-H ) :   0.8979
B(  6-N ,  7-C ) :   0.8913 B(  6-N , 17-C ) :   1.6821 B(  7-C ,  8-C ) :   0.9920
B(  7-C , 12-C ) :   0.9689 B(  7-C , 13-H ) :   0.8742 B(  8-C ,  9-H ) :   0.9038
B(  8-C , 10-H ) :   0.9127 B(  8-C , 11-H ) :   0.9087 B( 12-C , 14-H ) :   0.9065
B( 12-C , 15-H ) :   0.9155 B( 12-C , 16-H ) :   0.9121 B( 17-C , 18-C ) :   1.0674
B( 17-C , 19-H ) :   0.8745 B( 18-C , 20-C ) :   1.3017 B( 18-C , 22-S ) :   1.2129
B( 20-C , 21-C ) :   1.2775 B( 20-C , 24-H ) :   0.4504 B( 21-C , 23-C ) :   1.5421
B( 21-C , 25-H ) :   0.9053 B( 22-S , 23-C ) :   1.2082 B( 23-C , 26-H ) :   0.8927
B( 24-H , 30-O ) :   0.2496 B( 30-O , 32-C ) :   1.6613 B( 31-O , 32-C ) :   1.2952
B( 32-C , 33-C ) :   0.9481 B( 33-C , 34-H ) :   0.9041 B( 33-C , 35-H ) :   0.8974
B( 33-C , 36-H ) :   0.9090

Dispersion correction           -0.030687728
FINAL SINGLE POINT ENERGY     -1288.394674575112

DIPOLE MOMENT
-------------
                                X             Y             Z
Electronic contribution:     34.18937     -69.43610      77.86200
Nuclear contribution   :    -34.81579      68.29941     -77.99114
                        -----------------------------------------
Total Dipole Moment    :     -0.62642      -1.13669      -0.12914
                        -----------------------------------------
Magnitude (a.u.)       :      1.30428
Magnitude (Debye)      :      3.31521

Rotational constants in cm-1:     0.010598     0.008944     0.008172
Rotational constants in MHz :   317.719828   268.140743   244.991599

                             ****ORCA TERMINATED NORMALLY****
TOTAL RUN TIME: 0 days 1 hours 32 minutes 30 seconds 196 msec
