                         Program Version 5.0.3 -  RELEASE  -
|  1> ! Opt PBEh-3c
|  2> %geom Constraints
|  3> { B 0 20 2.428571428571429 C }
|  4> { B 24 30 1.457142857142857 C }
|  5>     end
|  6> end
|  7> %output
|  8> xyzfile=True
|  9> end
| 10> %scf
| 11> maxiter 250
| 12> end
| 13> %output
| 14> Print[P_Hirshfeld] = 1
| 15> end
| 16> % maxcore
| 17> 4000
| 18> *xyz 1 1
| 19> Ir   0.59530013  -0.71719908   0.44765209
| 20> C    0.04467138  -2.80201250   0.34001452
| 21> C    0.12155666  -2.34895817   1.70755662
| 22> C    2.20867714  -2.12640986   0.76037026
| 23> C    1.31064689  -2.63976285  -0.24975448
| 24> C    1.48683073  -1.98634043   1.95883533
| 25> N   -1.04543410   0.17177164  -0.52142926
| 26> C   -2.31404985   0.49937881   0.14740876
| 27> C   -3.12306028   1.56530604  -0.57365612
| 28> H   -3.95067375   1.87082789   0.06504101
| 29> H   -3.56580454   1.20727792  -1.50457122
| 30> H   -2.53063796   2.45625901  -0.78414000
| 31> C   -3.12205205  -0.77511077   0.35923600
| 32> H   -2.01889012   0.89031775   1.12246969
| 33> H   -4.03326464  -0.54235934   0.90812567
| 34> H   -3.41164734  -1.22382309  -0.59187885
| 35> H   -2.57468369  -1.51537651   0.94111285
| 36> C   -0.84672354   0.37843240  -1.76504090
| 37> C    0.50409366   0.14973907  -2.23201034
| 38> H   -1.62639753   0.74035633  -2.42911348
| 39> C    1.60668996   0.49143946  -1.45609230
| 40> C    2.81102807   0.07010809  -2.09139095
| 41> S    0.93048764  -0.62798051  -3.68903964
| 42> C    2.59840305  -0.53961223  -3.28719294
| 43> H    1.53671284   1.37243050  -0.68653484
| 44> H    3.79720066   0.26348829  -1.69499341
| 45> H    3.33446089  -0.92465378  -3.97664376
| 46> H   -0.84282433  -3.16697629  -0.15670176
| 47> H   -0.66964895  -2.38151931   2.44212502
| 48> H    1.87050735  -1.59024024   2.88808298
| 49> O    1.29920245   2.47177821   0.26221459
| 50> O    0.53562104   0.91088033   1.66136043
| 51> C    0.90072420   2.11625315   1.36698391
| 52> C    0.83567954   3.08158725   2.51789154
| 53> H    0.78860279   4.10554084   2.15734792
| 54> H    1.74097096   2.98055783   3.11970524
| 55> H   -0.00988216   2.87678298   3.17129201
| 56> H    3.25435703  -1.89691342   0.61914616
| 57> H    1.57261979  -2.86607545  -1.27304833
| 58> *
| 59>
| 60>                          ****END OF INPUT****
 Total Charge           Charge          ....    1
 Multiplicity           Mult            ....    1
 Number of Electrons    NEL             ....  164
Dispersion correction           -0.031044538
FINAL SINGLE POINT ENERGY     -1288.399024817156
Dispersion correction            ... done
Dispersion correction           -0.031058677
FINAL SINGLE POINT ENERGY     -1288.397888520882
Dispersion correction            ... done
Dispersion correction           -0.031003798
FINAL SINGLE POINT ENERGY     -1288.399111868600
Dispersion correction            ... done
FINAL SINGLE POINT ENERGY     -1288.397689871274
FINAL SINGLE POINT ENERGY     -1288.399182963733
FINAL SINGLE POINT ENERGY     -1288.399192594641
FINAL SINGLE POINT ENERGY     -1288.399215294455
FINAL SINGLE POINT ENERGY     -1288.399223093653
Dispersion correction            ... done
Dispersion correction           -0.030935276
FINAL SINGLE POINT ENERGY     -1288.399229026671
Dispersion correction            ... done
Dispersion correction           -0.030931843
FINAL SINGLE POINT ENERGY     -1288.399238417846
Dispersion correction            ... done
                    ***********************HURRAY********************

CARTESIAN COORDINATES (ANGSTROEM)
---------------------------------
  Ir     0.598513   -0.715953    0.445217
  C      0.048649   -2.802067    0.344442
  C      0.114641   -2.348397    1.711229
  C      2.209217   -2.123628    0.777814
  C      1.319318   -2.640930   -0.237218
  C      1.476125   -1.980213    1.969943
  N     -1.046467    0.166617   -0.523244
  C     -2.315147    0.486898    0.149062
  C     -3.121943    1.564618   -0.557152
  H     -3.949402    1.862444    0.085408
  H     -3.564957    1.220924   -1.493283
  H     -2.527777    2.457358   -0.754615
  C     -3.126082   -0.788828    0.341825
  H     -2.020368    0.863573    1.129805
  H     -4.037137   -0.562178    0.893543
  H     -3.415894   -1.222861   -0.616001
  H     -2.580418   -1.538777    0.912689
  C     -0.853821    0.377793   -1.767667
  C      0.494702    0.156522   -2.239899
  H     -1.637716    0.739023   -2.426988
  C      1.591038    0.455037   -1.436707
  C      2.798928    0.049377   -2.075769
  S      0.929812   -0.566332   -3.720008
  C      2.594127   -0.509314   -3.297827
  H      1.528510    1.351508   -0.668529
  H      3.782393    0.217679   -1.661582
  H      3.334003   -0.871982   -3.995282
  H     -0.834442   -3.169111   -0.158610
  H     -0.681956   -2.380231    2.439803
  H      1.851991   -1.580000    2.900649
  O      1.319910    2.463557    0.249675
  O      0.534141    0.919747    1.654336
  C      0.911639    2.117838    1.356017
  C      0.853046    3.093599    2.498008
  H      0.813656    4.114964    2.129409
  H      1.757381    2.990534    3.100955
  H      0.005673    2.899757    3.152350
  H      3.256699   -1.896979    0.646267
  H      1.588786   -2.872395   -1.257325

 Multiplicity           Mult            ....    1
 Number of Electrons    NEL             ....  164
 Basis Dimension        Dim             ....  358

ORBITAL ENERGIES
----------------

  NO   OCC          E(Eh)            E(eV)
   0   2.0000     -89.764572     -2442.6182
   1   2.0000     -19.621466      -533.9272
   2   2.0000     -19.585442      -532.9470
   3   2.0000     -14.841697      -403.8631
   4   2.0000     -10.678138      -290.5669
   5   2.0000     -10.662720      -290.1474
   6   2.0000     -10.636973      -289.4467
   7   2.0000     -10.634817      -289.3881
   8   2.0000     -10.633582      -289.3545
   9   2.0000     -10.632284      -289.3192
  10   2.0000     -10.630702      -289.2761
  11   2.0000     -10.630213      -289.2628
  12   2.0000     -10.616164      -288.8805
  13   2.0000     -10.611362      -288.7498
  14   2.0000     -10.586376      -288.0699
  15   2.0000     -10.584277      -288.0128
  16   2.0000     -10.557232      -287.2769
  17   2.0000     -10.552165      -287.1390
  18   2.0000     -10.531395      -286.5738
  19   2.0000      -8.403906      -228.6819
  20   2.0000      -6.293945      -171.2670
  21   2.0000      -6.290293      -171.1676
  22   2.0000      -6.288692      -171.1240
  23   2.0000      -4.029460      -109.6472
  24   2.0000      -2.348415       -63.9036
  25   2.0000      -2.314402       -62.9781
  26   2.0000      -2.313043       -62.9411
  27   2.0000      -1.302489       -35.4425
  28   2.0000      -1.214414       -33.0459
  29   2.0000      -1.205757       -32.8103
  30   2.0000      -1.172915       -31.9166
  31   2.0000      -1.128685       -30.7131
  32   2.0000      -1.027864       -27.9696
  33   2.0000      -0.987519       -26.8718
  34   2.0000      -0.978046       -26.6140
  35   2.0000      -0.967633       -26.3306
  36   2.0000      -0.961397       -26.1609
  37   2.0000      -0.924918       -25.1683
  38   2.0000      -0.903585       -24.5878
  39   2.0000      -0.874992       -23.8097
  40   2.0000      -0.798988       -21.7416
  41   2.0000      -0.788894       -21.4669
  42   2.0000      -0.787494       -21.4288
  43   2.0000      -0.782442       -21.2913
  44   2.0000      -0.772676       -21.0256
  45   2.0000      -0.755076       -20.5467
  46   2.0000      -0.744078       -20.2474
  47   2.0000      -0.723426       -19.6854
  48   2.0000      -0.694040       -18.8858
  49   2.0000      -0.672719       -18.3056
  50   2.0000      -0.665631       -18.1127
  51   2.0000      -0.651306       -17.7229
  52   2.0000      -0.647215       -17.6116
  53   2.0000      -0.640159       -17.4196
  54   2.0000      -0.635749       -17.2996
  55   2.0000      -0.627943       -17.0872
  56   2.0000      -0.623565       -16.9681
  57   2.0000      -0.612755       -16.6739
  58   2.0000      -0.608532       -16.5590
  59   2.0000      -0.607741       -16.5375
  60   2.0000      -0.598696       -16.2914
  61   2.0000      -0.589843       -16.0504
  62   2.0000      -0.579513       -15.7693
  63   2.0000      -0.572735       -15.5849
  64   2.0000      -0.564382       -15.3576
  65   2.0000      -0.554134       -15.0788
  66   2.0000      -0.552573       -15.0363
  67   2.0000      -0.548517       -14.9259
  68   2.0000      -0.539245       -14.6736
  69   2.0000      -0.535982       -14.5848
  70   2.0000      -0.528125       -14.3710
  71   2.0000      -0.520901       -14.1744
  72   2.0000      -0.516108       -14.0440
  73   2.0000      -0.504992       -13.7415
  74   2.0000      -0.487785       -13.2733
  75   2.0000      -0.481487       -13.1019
  76   2.0000      -0.467947       -12.7335
  77   2.0000      -0.448145       -12.1947
  78   2.0000      -0.441088       -12.0026
  79   2.0000      -0.424535       -11.5522
  80   2.0000      -0.417024       -11.3478
  81   2.0000      -0.403622       -10.9831
  82   0.0000      -0.202198        -5.5021
  83   0.0000      -0.162166        -4.4128
  84   0.0000      -0.141955        -3.8628
  85   0.0000      -0.100676        -2.7395
  86   0.0000      -0.077189        -2.1004

MULLIKEN ATOMIC CHARGES
-----------------------
   0 Ir:    0.613898
   1 C :   -0.209640
   2 C :   -0.289642
   3 C :   -0.235525
   4 C :   -0.246709
   5 C :   -0.164570
   6 N :   -0.423885
   7 C :   -0.120018
   8 C :   -0.693123
   9 H :    0.272705
  10 H :    0.225308
  11 H :    0.261229
  12 C :   -0.638469
  13 H :    0.282543
  14 H :    0.264706
  15 H :    0.230772
  16 H :    0.232872
  17 C :    0.070185
  18 C :   -0.192546
  19 H :    0.292597
  20 C :   -0.451028
  21 C :   -0.127148
  22 S :    0.304177
  23 C :   -0.432195
  24 H :    0.498356
  25 H :    0.268144
  26 H :    0.298176
  27 H :    0.291480
  28 H :    0.292559
  29 H :    0.306636
  30 O :   -0.477801
  31 O :   -0.542409
  32 C :    0.612027
  33 C :   -0.745224
  34 H :    0.268459
  35 H :    0.264816
  36 H :    0.251328
  37 H :    0.293046
  38 H :    0.293913
Sum of atomic charges:    1.0000000

LOEWDIN ATOMIC CHARGES
----------------------
   0 Ir:   -0.224049
   1 C :   -0.039496
   2 C :   -0.063294
   3 C :   -0.053066
   4 C :   -0.057207
   5 C :   -0.023475
   6 N :   -0.002731
   7 C :   -0.068973
   8 C :   -0.364515
   9 H :    0.157615
  10 H :    0.133574
  11 H :    0.147163
  12 C :   -0.343379
  13 H :    0.157137
  14 H :    0.153207
  15 H :    0.137198
  16 H :    0.134207
  17 C :    0.035083
  18 C :   -0.179545
  19 H :    0.163394
  20 C :   -0.189788
  21 C :   -0.135099
  22 S :    0.470845
  23 C :   -0.263522
  24 H :    0.285763
  25 H :    0.163214
  26 H :    0.168338
  27 H :    0.185219
  28 H :    0.185851
  29 H :    0.193649
  30 O :   -0.276438
  31 O :   -0.210215
  32 C :    0.150709
  33 C :   -0.376875
  34 H :    0.158965
  35 H :    0.166108
  36 H :    0.152307
  37 H :    0.186762
  38 H :    0.185361

  Mayer bond orders larger than 0.100000
B(  0-Ir,  1-C ) :   0.4184 B(  0-Ir,  2-C ) :   0.5281 B(  0-Ir,  3-C ) :   0.4627
B(  0-Ir,  4-C ) :   0.4490 B(  0-Ir,  5-C ) :   0.4013 B(  0-Ir,  6-N ) :   0.4613
B(  0-Ir, 20-C ) :   0.2567 B(  0-Ir, 31-O ) :   0.5869 B(  1-C ,  2-C ) :   1.1185
B(  1-C ,  4-C ) :   1.2463 B(  1-C , 27-H ) :   0.9033 B(  2-C ,  5-C ) :   1.1369
B(  2-C , 28-H ) :   0.9074 B(  3-C ,  4-C ) :   1.1055 B(  3-C ,  5-C ) :   1.2317
B(  3-C , 37-H ) :   0.9046 B(  4-C , 38-H ) :   0.8991 B(  5-C , 29-H ) :   0.8977
B(  6-N ,  7-C ) :   0.8914 B(  6-N , 17-C ) :   1.6949 B(  7-C ,  8-C ) :   0.9920
B(  7-C , 12-C ) :   0.9689 B(  7-C , 13-H ) :   0.8712 B(  8-C ,  9-H ) :   0.9034
B(  8-C , 10-H ) :   0.9126 B(  8-C , 11-H ) :   0.9079 B( 12-C , 14-H ) :   0.9063
B( 12-C , 15-H ) :   0.9154 B( 12-C , 16-H ) :   0.9113 B( 17-C , 18-C ) :   1.0513
B( 17-C , 19-H ) :   0.8740 B( 18-C , 20-C ) :   1.2896 B( 18-C , 22-S ) :   1.2332
B( 20-C , 21-C ) :   1.2570 B( 20-C , 24-H ) :   0.4890 B( 21-C , 23-C ) :   1.5514
B( 21-C , 25-H ) :   0.9036 B( 22-S , 23-C ) :   1.2000 B( 23-C , 26-H ) :   0.8919
B( 24-H , 30-O ) :   0.2326 B( 30-O , 32-C ) :   1.7091 B( 31-O , 32-C ) :   1.2662
B( 32-C , 33-C ) :   0.9456 B( 33-C , 34-H ) :   0.9057 B( 33-C , 35-H ) :   0.8997
B( 33-C , 36-H ) :   0.9100

Dispersion correction           -0.030930656
FINAL SINGLE POINT ENERGY     -1288.399240798829

DIPOLE MOMENT
-------------
                                X             Y             Z
Electronic contribution:     36.13482     -67.18309      71.93417
Nuclear contribution   :    -36.76574      65.91969     -72.27306
                        -----------------------------------------
Total Dipole Moment    :     -0.63091      -1.26340      -0.33889
                        -----------------------------------------
Magnitude (a.u.)       :      1.45227
Magnitude (Debye)      :      3.69137

Rotational constants in cm-1:     0.010745     0.009124     0.008268
Rotational constants in MHz :   322.132300   273.538033   247.863548

                             ****ORCA TERMINATED NORMALLY****
TOTAL RUN TIME: 0 days 1 hours 31 minutes 4 seconds 329 msec
