                         Program Version 5.0.3 -  RELEASE  -
|  1> ! Opt PBEh-3c
|  2> %geom Constraints
|  3> { B 0 20 2.6 C }
|  4> { B 24 30 1.457142857142857 C }
|  5>     end
|  6> end
|  7> %output
|  8> xyzfile=True
|  9> end
| 10> %scf
| 11> maxiter 250
| 12> end
| 13> %output
| 14> Print[P_Hirshfeld] = 1
| 15> end
| 16> % maxcore
| 17> 4000
| 18> %pal nprocs 2
| 19> end
| 20> *xyz 1 1
| 21> Ir   0.57736794  -0.73073427   0.47584652
| 22> C    0.02600208  -2.81018095   0.33540620
| 23> C    0.11682231  -2.37037306   1.70826853
| 24> C    2.19434695  -2.14296818   0.74758461
| 25> C    1.28615542  -2.64014651  -0.26211488
| 26> C    1.48759221  -2.01939762   1.95520902
| 27> N   -1.03907794   0.17976100  -0.51146388
| 28> C   -2.31070952   0.52514483   0.14314724
| 29> C   -3.12938279   1.55214173  -0.62154677
| 30> H   -3.96318408   1.87125269   0.00215506
| 31> H   -3.56337774   1.15170758  -1.53923512
| 32> H   -2.54853160   2.44251080  -0.86449827
| 33> C   -3.10916705  -0.74495122   0.40923254
| 34> H   -2.01856641   0.95949203   1.10080645
| 35> H   -4.02340372  -0.49501558   0.94531741
| 36> H   -3.39375645  -1.23693660  -0.52185624
| 37> H   -2.55916030  -1.45508885   1.02526242
| 38> C   -0.82208480   0.38071508  -1.75225610
| 39> C    0.53163793   0.14313846  -2.21389503
| 40> H   -1.59275632   0.74506361  -2.42576117
| 41> C    1.64690942   0.57048179  -1.50478918
| 42> C    2.84212164   0.13443429  -2.14505309
| 43> S    0.93679848  -0.71576822  -3.63698681
| 44> C    2.61172152  -0.56010342  -3.29067525
| 45> H    1.55639990   1.41828023  -0.71477730
| 46> H    3.83382411   0.37529096  -1.79082025
| 47> H    3.33888862  -0.97505912  -3.97218767
| 48> H   -0.86721317  -3.16709340  -0.15682763
| 49> H   -0.66806528  -2.41001328   2.44957804
| 50> H    1.88102953  -1.63806415   2.88653112
| 51> O    1.25735995   2.45923289   0.28126222
| 52> O    0.54267999   0.88619118   1.69399080
| 53> C    0.88314114   2.09966396   1.39104609
| 54> C    0.81733490   3.06240560   2.54421775
| 55> H    0.75456265   4.08585175   2.18459177
| 56> H    1.72918523   2.97206755   3.13773308
| 57> H   -0.01949594   2.84764316   3.20570357
| 58> H    3.23680772  -1.90525320   0.59489721
| 59> H    1.53861343  -2.84613351  -1.29230295
| 60> *
| 61>
| 62>                          ****END OF INPUT****
 Total Charge           Charge          ....    1
 Multiplicity           Mult            ....    1
 Number of Electrons    NEL             ....  164
Dispersion correction           -0.030950028
FINAL SINGLE POINT ENERGY     -1288.396357366320
Dispersion correction            ... done
Dispersion correction           -0.030917121
FINAL SINGLE POINT ENERGY     -1288.396355979861
Dispersion correction            ... done
Dispersion correction           -0.030916126
FINAL SINGLE POINT ENERGY     -1288.396326244384
Dispersion correction            ... done
FINAL SINGLE POINT ENERGY     -1288.396252862588
FINAL SINGLE POINT ENERGY     -1288.396357543159
FINAL SINGLE POINT ENERGY     -1288.396362331883
Dispersion correction            ... done
Dispersion correction           -0.030928827
FINAL SINGLE POINT ENERGY     -1288.396368296039
Dispersion correction            ... done
Dispersion correction           -0.030930247
FINAL SINGLE POINT ENERGY     -1288.396370163135
Dispersion correction            ... done
                    ***********************HURRAY********************

CARTESIAN COORDINATES (ANGSTROEM)
---------------------------------
  Ir     0.575307   -0.731929    0.478835
  C      0.023006   -2.810782    0.338625
  C      0.113715   -2.371463    1.711529
  C      2.191616   -2.144803    0.751266
  C      1.283367   -2.641128   -0.258784
  C      1.484575   -2.020982    1.958717
  N     -1.039742    0.177696   -0.511064
  C     -2.312402    0.521545    0.142538
  C     -3.130999    1.548898   -0.621853
  H     -3.965382    1.867102    0.001538
  H     -3.564174    1.149145   -1.540214
  H     -2.550403    2.439738   -0.863683
  C     -3.110681   -0.749090    0.406574
  H     -2.021611    0.955220    1.100933
  H     -4.025939   -0.499956    0.941296
  H     -3.393491   -1.240647   -0.525285
  H     -2.561395   -1.459344    1.023100
  C     -0.822508    0.379060   -1.751969
  C      0.531330    0.145449   -2.214220
  H     -1.594173    0.741681   -2.425289
  C      1.645444    0.569496   -1.501342
  C      2.841282    0.138150   -2.143568
  S      0.938039   -0.703583   -3.642939
  C      2.612417   -0.548916   -3.294125
  H      1.554042    1.419008   -0.705624
  H      3.832673    0.377125   -1.787131
  H      3.340523   -0.958664   -3.977800
  H     -0.870304   -3.167004   -0.153946
  H     -0.671334   -2.411083    2.452656
  H      1.878093   -1.640254    2.890248
  O      1.269289    2.454428    0.279306
  O      0.541717    0.888567    1.693421
  C      0.889519    2.098890    1.389266
  C      0.826004    3.065378    2.539159
  H      0.768768    4.088086    2.176550
  H      1.736267    2.972360    3.134711
  H     -0.013143    2.856238    3.199491
  H      3.234210   -1.907511    0.598829
  H      1.535848   -2.846931   -1.289011

 Multiplicity           Mult            ....    1
 Number of Electrons    NEL             ....  164
 Basis Dimension        Dim             ....  358

ORBITAL ENERGIES
----------------

  NO   OCC          E(Eh)            E(eV)
   0   2.0000     -89.759833     -2442.4892
   1   2.0000     -19.621787      -533.9360
   2   2.0000     -19.581509      -532.8400
   3   2.0000     -14.842275      -403.8788
   4   2.0000     -10.677360      -290.5457
   5   2.0000     -10.663211      -290.1607
   6   2.0000     -10.639946      -289.5276
   7   2.0000     -10.638598      -289.4910
   8   2.0000     -10.636061      -289.4219
   9   2.0000     -10.635259      -289.4001
  10   2.0000     -10.633809      -289.3607
  11   2.0000     -10.631451      -289.2965
  12   2.0000     -10.617235      -288.9097
  13   2.0000     -10.609112      -288.6886
  14   2.0000     -10.581847      -287.9467
  15   2.0000     -10.580905      -287.9211
  16   2.0000     -10.558035      -287.2987
  17   2.0000     -10.552686      -287.1532
  18   2.0000     -10.530529      -286.5503
  19   2.0000      -8.399095      -228.5510
  20   2.0000      -6.289234      -171.1388
  21   2.0000      -6.285589      -171.0396
  22   2.0000      -6.283731      -170.9890
  23   2.0000      -4.032859      -109.7397
  24   2.0000      -2.352434       -64.0130
  25   2.0000      -2.317798       -63.0705
  26   2.0000      -2.316312       -63.0300
  27   2.0000      -1.300838       -35.3976
  28   2.0000      -1.214477       -33.0476
  29   2.0000      -1.204977       -32.7891
  30   2.0000      -1.176792       -32.0221
  31   2.0000      -1.124879       -30.6095
  32   2.0000      -1.027521       -27.9603
  33   2.0000      -0.991854       -26.9897
  34   2.0000      -0.981763       -26.7151
  35   2.0000      -0.964250       -26.2386
  36   2.0000      -0.958744       -26.0888
  37   2.0000      -0.924074       -25.1453
  38   2.0000      -0.904458       -24.6115
  39   2.0000      -0.873756       -23.7761
  40   2.0000      -0.797402       -21.6984
  41   2.0000      -0.792614       -21.5681
  42   2.0000      -0.790673       -21.5153
  43   2.0000      -0.780933       -21.2503
  44   2.0000      -0.775070       -21.0907
  45   2.0000      -0.755084       -20.5469
  46   2.0000      -0.744575       -20.2609
  47   2.0000      -0.722193       -19.6519
  48   2.0000      -0.695640       -18.9293
  49   2.0000      -0.671455       -18.2712
  50   2.0000      -0.665204       -18.1011
  51   2.0000      -0.652792       -17.7634
  52   2.0000      -0.649407       -17.6713
  53   2.0000      -0.641717       -17.4620
  54   2.0000      -0.636350       -17.3160
  55   2.0000      -0.627858       -17.0849
  56   2.0000      -0.624485       -16.9931
  57   2.0000      -0.613144       -16.6845
  58   2.0000      -0.611901       -16.6507
  59   2.0000      -0.609475       -16.5847
  60   2.0000      -0.596633       -16.2352
  61   2.0000      -0.587862       -15.9966
  62   2.0000      -0.576450       -15.6860
  63   2.0000      -0.571156       -15.5420
  64   2.0000      -0.563911       -15.3448
  65   2.0000      -0.554117       -15.0783
  66   2.0000      -0.552071       -15.0226
  67   2.0000      -0.548529       -14.9262
  68   2.0000      -0.539150       -14.6710
  69   2.0000      -0.534391       -14.5415
  70   2.0000      -0.528191       -14.3728
  71   2.0000      -0.522749       -14.2247
  72   2.0000      -0.516528       -14.0555
  73   2.0000      -0.508560       -13.8386
  74   2.0000      -0.488393       -13.2899
  75   2.0000      -0.481116       -13.0918
  76   2.0000      -0.463586       -12.6148
  77   2.0000      -0.451518       -12.2864
  78   2.0000      -0.439733       -11.9657
  79   2.0000      -0.423825       -11.5329
  80   2.0000      -0.417414       -11.3584
  81   2.0000      -0.405038       -11.0216
  82   0.0000      -0.201311        -5.4780
  83   0.0000      -0.167834        -4.5670
  84   0.0000      -0.142266        -3.8712
  85   0.0000      -0.103795        -2.8244
  86   0.0000      -0.077557        -2.1104

MULLIKEN ATOMIC CHARGES
-----------------------
   0 Ir:    0.625845
   1 C :   -0.207473
   2 C :   -0.298412
   3 C :   -0.229673
   4 C :   -0.244551
   5 C :   -0.164724
   6 N :   -0.424238
   7 C :   -0.115397
   8 C :   -0.696781
   9 H :    0.273759
  10 H :    0.226412
  11 H :    0.261474
  12 C :   -0.640734
  13 H :    0.281238
  14 H :    0.265937
  15 H :    0.230978
  16 H :    0.233288
  17 C :    0.066243
  18 C :   -0.238080
  19 H :    0.293457
  20 C :   -0.374390
  21 C :   -0.147741
  22 S :    0.287207
  23 C :   -0.427692
  24 H :    0.488397
  25 H :    0.267789
  26 H :    0.296703
  27 H :    0.293577
  28 H :    0.295623
  29 H :    0.308732
  30 O :   -0.479207
  31 O :   -0.548206
  32 C :    0.609598
  33 C :   -0.746478
  34 H :    0.268076
  35 H :    0.264477
  36 H :    0.250442
  37 H :    0.297934
  38 H :    0.296594
Sum of atomic charges:    1.0000000

LOEWDIN ATOMIC CHARGES
----------------------
   0 Ir:   -0.202618
   1 C :   -0.039441
   2 C :   -0.050304
   3 C :   -0.043799
   4 C :   -0.054213
   5 C :   -0.026794
   6 N :   -0.007266
   7 C :   -0.067919
   8 C :   -0.365091
   9 H :    0.157966
  10 H :    0.134233
  11 H :    0.147349
  12 C :   -0.343353
  13 H :    0.156754
  14 H :    0.153562
  15 H :    0.137369
  16 H :    0.134703
  17 C :    0.037858
  18 C :   -0.192062
  19 H :    0.163578
  20 C :   -0.173500
  21 C :   -0.147449
  22 S :    0.452329
  23 C :   -0.262314
  24 H :    0.268688
  25 H :    0.162455
  26 H :    0.167446
  27 H :    0.186609
  28 H :    0.187329
  29 H :    0.194846
  30 O :   -0.277122
  31 O :   -0.213845
  32 C :    0.150451
  33 C :   -0.377875
  34 H :    0.158669
  35 H :    0.165816
  36 H :    0.151809
  37 H :    0.188998
  38 H :    0.186150

  Mayer bond orders larger than 0.100000
B(  0-Ir,  1-C ) :   0.4203 B(  0-Ir,  2-C ) :   0.5664 B(  0-Ir,  3-C ) :   0.4663
B(  0-Ir,  4-C ) :   0.4512 B(  0-Ir,  5-C ) :   0.4033 B(  0-Ir,  6-N ) :   0.4635
B(  0-Ir, 20-C ) :   0.1885 B(  0-Ir, 31-O ) :   0.6034 B(  1-C ,  2-C ) :   1.1092
B(  1-C ,  4-C ) :   1.2500 B(  1-C , 27-H ) :   0.9027 B(  2-C ,  5-C ) :   1.1265
B(  2-C , 28-H ) :   0.9055 B(  3-C ,  4-C ) :   1.1017 B(  3-C ,  5-C ) :   1.2367
B(  3-C , 37-H ) :   0.9016 B(  4-C , 38-H ) :   0.8960 B(  5-C , 29-H ) :   0.8969
B(  6-N ,  7-C ) :   0.8900 B(  6-N , 17-C ) :   1.7065 B(  7-C ,  8-C ) :   0.9931
B(  7-C , 12-C ) :   0.9698 B(  7-C , 13-H ) :   0.8709 B(  8-C ,  9-H ) :   0.9030
B(  8-C , 10-H ) :   0.9121 B(  8-C , 11-H ) :   0.9074 B( 12-C , 14-H ) :   0.9060
B( 12-C , 15-H ) :   0.9151 B( 12-C , 16-H ) :   0.9102 B( 17-C , 18-C ) :   1.0399
B( 17-C , 19-H ) :   0.8734 B( 18-C , 20-C ) :   1.3198 B( 18-C , 22-S ) :   1.2080
B( 20-C , 21-C ) :   1.2629 B( 20-C , 24-H ) :   0.5381 B( 21-C , 23-C ) :   1.5466
B( 21-C , 25-H ) :   0.9037 B( 22-S , 23-C ) :   1.2009 B( 23-C , 26-H ) :   0.8928
B( 24-H , 30-O ) :   0.2007 B( 30-O , 32-C ) :   1.7333 B( 31-O , 32-C ) :   1.2462
B( 32-C , 33-C ) :   0.9460 B( 33-C , 34-H ) :   0.9061 B( 33-C , 35-H ) :   0.8999
B( 33-C , 36-H ) :   0.9102

Dispersion correction           -0.030927796
FINAL SINGLE POINT ENERGY     -1288.396370390896

DIPOLE MOMENT
-------------
                                X             Y             Z
Electronic contribution:     33.78972     -67.80968      74.62905
Nuclear contribution   :    -34.42761      66.45534     -74.85178
                        -----------------------------------------
Total Dipole Moment    :     -0.63788      -1.35435      -0.22273
                        -----------------------------------------
Magnitude (a.u.)       :      1.51353
Magnitude (Debye)      :      3.84708

Rotational constants in cm-1:     0.010787     0.009071     0.008240
Rotational constants in MHz :   323.372513   271.944578   247.018073

                             ****ORCA TERMINATED NORMALLY****
TOTAL RUN TIME: 0 days 2 hours 15 minutes 20 seconds 725 msec
