                         Program Version 5.0.3 -  RELEASE  -
|  1> ! Opt PBEh-3c
|  2> %geom Constraints
|  3> { B 0 20 2.1714285714285713 C }
|  4> { B 24 30 1.4857142857142858 C }
|  5>     end
|  6> end
|  7> %output
|  8> xyzfile=True
|  9> end
| 10> %scf
| 11> maxiter 250
| 12> end
| 13> %output
| 14> Print[P_Hirshfeld] = 1
| 15> end
| 16> % maxcore
| 17> 4000
| 18> *xyz 1 1
| 19> Ir   0.62910149  -0.70718796   0.41484343
| 20> C    0.10307654  -2.81477675   0.33866080
| 21> C    0.07449122  -2.35272333   1.70024910
| 22> C    2.22355861  -2.09496092   0.89524602
| 23> C    1.40926592  -2.64767296  -0.16128244
| 24> C    1.40112455  -1.94410627   2.03286857
| 25> N   -1.04530882   0.14930200  -0.52752974
| 26> C   -2.30537918   0.43330843   0.17588788
| 27> C   -3.09258768   1.58690877  -0.42660133
| 28> H   -3.91132921   1.84344871   0.24422662
| 29> H   -3.54539332   1.33535542  -1.38668225
| 30> H   -2.47885907   2.47972479  -0.54838929
| 31> C   -3.13991618  -0.84027718   0.25239565
| 32> H   -2.00244296   0.71235727   1.18592956
| 33> H   -4.03904012  -0.65508839   0.83828074
| 34> H   -3.45027425  -1.17019651  -0.73984594
| 35> H   -2.59878798  -1.65395858   0.73297576
| 36> C   -0.88680184   0.39599814  -1.77286938
| 37> C    0.44658528   0.18462692  -2.27204788
| 38> H   -1.68672648   0.77786429  -2.39957164
| 39> C    1.51485621   0.25200109  -1.37357940
| 40> C    2.73257668  -0.09040312  -2.03937538
| 41> S    0.91025174  -0.28150007  -3.83360333
| 42> C    2.55522167  -0.39869955  -3.35088686
| 43> H    1.52245976   1.21559693  -0.66497876
| 44> H    3.70477999  -0.05393036  -1.56979666
| 45> H    3.30667369  -0.66554112  -4.07842894
| 46> H   -0.73711483  -3.20851328  -0.21505532
| 47> H   -0.76734652  -2.38584368   2.37533792
| 48> H    1.70690758  -1.51885912   2.97822529
| 49> O    1.39434202   2.44864946   0.17951358
| 50> O    0.54476180   0.95849726   1.60111439
| 51> C    0.95033095   2.13790992   1.28550418
| 52> C    0.88035211   3.15029301   2.39464132
| 53> H    0.85135652   4.16026501   1.99499056
| 54> H    1.77632209   3.06112307   3.01193240
| 55> H    0.02278965   2.97916749   3.04170120
| 56> H    3.27920966  -1.87652017   0.84200550
| 57> H    1.74628275  -2.90244873  -1.15526580
| 58> *
| 59>
| 60>                          ****END OF INPUT****
 Total Charge           Charge          ....    1
 Multiplicity           Mult            ....    1
 Number of Electrons    NEL             ....  164
Dispersion correction           -0.031084154
FINAL SINGLE POINT ENERGY     -1288.399266174555
Dispersion correction            ... done
Dispersion correction           -0.031010911
FINAL SINGLE POINT ENERGY     -1288.399289616869
Dispersion correction            ... done
Dispersion correction           -0.031019630
FINAL SINGLE POINT ENERGY     -1288.398899132318
Dispersion correction            ... done
FINAL SINGLE POINT ENERGY     -1288.399549943547
FINAL SINGLE POINT ENERGY     -1288.399578623315
FINAL SINGLE POINT ENERGY     -1288.399619871488
FINAL SINGLE POINT ENERGY     -1288.399631081990
FINAL SINGLE POINT ENERGY     -1288.399637557713
FINAL SINGLE POINT ENERGY     -1288.399648122053
FINAL SINGLE POINT ENERGY     -1288.399656063802
FINAL SINGLE POINT ENERGY     -1288.399665194506
FINAL SINGLE POINT ENERGY     -1288.399670567966
FINAL SINGLE POINT ENERGY     -1288.399676192853
FINAL SINGLE POINT ENERGY     -1288.399681733482
Dispersion correction            ... done
Dispersion correction           -0.030931037
FINAL SINGLE POINT ENERGY     -1288.399685152005
Dispersion correction            ... done
Dispersion correction           -0.030929521
FINAL SINGLE POINT ENERGY     -1288.399685198259
Dispersion correction            ... done
                    ***********************HURRAY********************

CARTESIAN COORDINATES (ANGSTROEM)
---------------------------------
  Ir     0.634278   -0.712891    0.413956
  C      0.142869   -2.828968    0.309672
  C      0.028486   -2.377971    1.671383
  C      2.217330   -2.077186    0.993088
  C      1.475927   -2.642946   -0.106896
  C      1.321560   -1.945642    2.080559
  N     -1.048970    0.137409   -0.518037
  C     -2.306452    0.405461    0.196219
  C     -3.081666    1.591117   -0.359038
  H     -3.898890    1.827717    0.320894
  H     -3.534959    1.384339   -1.329414
  H     -2.458677    2.481736   -0.443816
  C     -3.153677   -0.862028    0.217794
  H     -2.003307    0.640996    1.217090
  H     -4.044726   -0.699226    0.822441
  H     -3.477602   -1.137650   -0.786620
  H     -2.614890   -1.705075    0.647870
  C     -0.902782    0.399116   -1.762905
  C      0.424042    0.192877   -2.275891
  H     -1.709391    0.788321   -2.376271
  C      1.487307    0.189609   -1.367318
  C      2.704580   -0.123705   -2.050807
  S      0.889633   -0.175010   -3.861651
  C      2.530368   -0.341928   -3.380764
  H      1.528263    1.181750   -0.671315
  H      3.675239   -0.129879   -1.576566
  H      3.282645   -0.568511   -4.120942
  H     -0.655086   -3.237880   -0.293131
  H     -0.850610   -2.427492    2.295975
  H      1.562511   -1.516922    3.043059
  O      1.449335    2.425146    0.138058
  O      0.561251    0.975190    1.576447
  C      0.986080    2.140595    1.246042
  C      0.919695    3.179126    2.330409
  H      0.875329    4.178705    1.906521
  H      1.825733    3.114916    2.935922
  H      0.072579    3.014857    2.992418
  H      3.272560   -1.851805    1.007486
  H      1.873454   -2.887077   -1.081183

 Multiplicity           Mult            ....    1
 Number of Electrons    NEL             ....  164
 Basis Dimension        Dim             ....  358

ORBITAL ENERGIES
----------------

  NO   OCC          E(Eh)            E(eV)
   0   2.0000     -89.770117     -2442.7691
   1   2.0000     -19.623914      -533.9938
   2   2.0000     -19.597586      -533.2774
   3   2.0000     -14.839739      -403.8098
   4   2.0000     -10.682231      -290.6783
   5   2.0000     -10.660002      -290.0734
   6   2.0000     -10.635499      -289.4066
   7   2.0000     -10.629037      -289.2308
   8   2.0000     -10.628350      -289.2121
   9   2.0000     -10.625893      -289.1453
  10   2.0000     -10.621291      -289.0200
  11   2.0000     -10.618657      -288.9483
  12   2.0000     -10.614420      -288.8330
  13   2.0000     -10.613805      -288.8163
  14   2.0000     -10.592430      -288.2347
  15   2.0000     -10.589760      -288.1620
  16   2.0000     -10.555506      -287.2299
  17   2.0000     -10.551222      -287.1134
  18   2.0000     -10.535218      -286.6778
  19   2.0000      -8.409497      -228.8340
  20   2.0000      -6.299374      -171.4147
  21   2.0000      -6.295762      -171.3164
  22   2.0000      -6.294511      -171.2823
  23   2.0000      -4.023736      -109.4914
  24   2.0000      -2.341589       -63.7179
  25   2.0000      -2.309304       -62.8393
  26   2.0000      -2.307305       -62.7850
  27   2.0000      -1.308066       -35.5943
  28   2.0000      -1.212958       -33.0063
  29   2.0000      -1.209594       -32.9147
  30   2.0000      -1.165082       -31.7035
  31   2.0000      -1.132472       -30.8161
  32   2.0000      -1.027636       -27.9634
  33   2.0000      -0.978208       -26.6184
  34   2.0000      -0.973780       -26.4979
  35   2.0000      -0.970657       -26.4129
  36   2.0000      -0.963008       -26.2048
  37   2.0000      -0.928522       -25.2664
  38   2.0000      -0.901692       -24.5363
  39   2.0000      -0.876128       -23.8407
  40   2.0000      -0.801504       -21.8100
  41   2.0000      -0.785513       -21.3749
  42   2.0000      -0.781084       -21.2544
  43   2.0000      -0.780215       -21.2307
  44   2.0000      -0.765755       -20.8372
  45   2.0000      -0.754898       -20.5418
  46   2.0000      -0.743521       -20.2322
  47   2.0000      -0.724350       -19.7106
  48   2.0000      -0.691195       -18.8084
  49   2.0000      -0.677454       -18.4345
  50   2.0000      -0.665145       -18.0995
  51   2.0000      -0.649595       -17.6764
  52   2.0000      -0.646454       -17.5909
  53   2.0000      -0.635248       -17.2860
  54   2.0000      -0.633145       -17.2288
  55   2.0000      -0.628683       -17.1073
  56   2.0000      -0.622840       -16.9483
  57   2.0000      -0.614366       -16.7177
  58   2.0000      -0.602574       -16.3969
  59   2.0000      -0.601212       -16.3598
  60   2.0000      -0.600476       -16.3398
  61   2.0000      -0.593016       -16.1368
  62   2.0000      -0.582206       -15.8426
  63   2.0000      -0.573930       -15.6174
  64   2.0000      -0.564576       -15.3629
  65   2.0000      -0.558238       -15.1904
  66   2.0000      -0.551347       -15.0029
  67   2.0000      -0.548141       -14.9157
  68   2.0000      -0.541197       -14.7267
  69   2.0000      -0.536894       -14.6096
  70   2.0000      -0.528648       -14.3852
  71   2.0000      -0.518920       -14.1205
  72   2.0000      -0.514847       -14.0097
  73   2.0000      -0.499261       -13.5856
  74   2.0000      -0.487431       -13.2637
  75   2.0000      -0.483372       -13.1532
  76   2.0000      -0.477780       -13.0011
  77   2.0000      -0.445239       -12.1156
  78   2.0000      -0.443104       -12.0575
  79   2.0000      -0.423896       -11.5348
  80   2.0000      -0.415981       -11.3194
  81   2.0000      -0.397255       -10.8099
  82   0.0000      -0.209927        -5.7124
  83   0.0000      -0.144016        -3.9189
  84   0.0000      -0.141493        -3.8502
  85   0.0000      -0.093210        -2.5364
  86   0.0000      -0.077790        -2.1168

MULLIKEN ATOMIC CHARGES
-----------------------
   0 Ir:    0.606564
   1 C :   -0.226345
   2 C :   -0.267238
   3 C :   -0.260138
   4 C :   -0.233872
   5 C :   -0.157280
   6 N :   -0.425033
   7 C :   -0.129658
   8 C :   -0.682802
   9 H :    0.269982
  10 H :    0.223471
  11 H :    0.259248
  12 C :   -0.634078
  13 H :    0.283694
  14 H :    0.261633
  15 H :    0.231191
  16 H :    0.233022
  17 C :    0.072757
  18 C :   -0.133795
  19 H :    0.288975
  20 C :   -0.553080
  21 C :   -0.096973
  22 S :    0.336860
  23 C :   -0.433713
  24 H :    0.479764
  25 H :    0.269678
  26 H :    0.299865
  27 H :    0.286472
  28 H :    0.285662
  29 H :    0.302780
  30 O :   -0.469439
  31 O :   -0.530221
  32 C :    0.616959
  33 C :   -0.743636
  34 H :    0.269286
  35 H :    0.268115
  36 H :    0.253922
  37 H :    0.285121
  38 H :    0.292278
Sum of atomic charges:    1.0000000

LOEWDIN ATOMIC CHARGES
----------------------
   0 Ir:   -0.251711
   1 C :   -0.050985
   2 C :   -0.085851
   3 C :   -0.082343
   4 C :   -0.048999
   5 C :   -0.015509
   6 N :    0.002881
   7 C :   -0.070499
   8 C :   -0.362470
   9 H :    0.156726
  10 H :    0.132579
  11 H :    0.146069
  12 C :   -0.343408
  13 H :    0.156977
  14 H :    0.152105
  15 H :    0.137222
  16 H :    0.133582
  17 C :    0.030319
  18 C :   -0.170425
  19 H :    0.162311
  20 C :   -0.212585
  21 C :   -0.118709
  22 S :    0.499805
  23 C :   -0.261955
  24 H :    0.319359
  25 H :    0.164425
  26 H :    0.169821
  27 H :    0.182603
  28 H :    0.181828
  29 H :    0.191143
  30 O :   -0.268226
  31 O :   -0.201486
  32 C :    0.151417
  33 C :   -0.374805
  34 H :    0.159976
  35 H :    0.168055
  36 H :    0.153470
  37 H :    0.183146
  38 H :    0.184147

  Mayer bond orders larger than 0.100000
B(  0-Ir,  1-C ) :   0.4216 B(  0-Ir,  2-C ) :   0.4496 B(  0-Ir,  3-C ) :   0.4653
B(  0-Ir,  4-C ) :   0.4325 B(  0-Ir,  5-C ) :   0.3876 B(  0-Ir,  6-N ) :   0.4611
B(  0-Ir, 20-C ) :   0.4028 B(  0-Ir, 31-O ) :   0.5601 B(  1-C ,  2-C ) :   1.1277
B(  1-C ,  4-C ) :   1.2415 B(  1-C , 27-H ) :   0.9066 B(  2-C ,  5-C ) :   1.1755
B(  2-C , 28-H ) :   0.9097 B(  3-C ,  4-C ) :   1.1194 B(  3-C ,  5-C ) :   1.2023
B(  3-C , 37-H ) :   0.9110 B(  4-C , 38-H ) :   0.8995 B(  5-C , 29-H ) :   0.8992
B(  6-N ,  7-C ) :   0.8930 B(  6-N , 17-C ) :   1.6660 B(  7-C ,  8-C ) :   0.9903
B(  7-C , 12-C ) :   0.9667 B(  7-C , 13-H ) :   0.8733 B(  8-C ,  9-H ) :   0.9044
B(  8-C , 10-H ) :   0.9134 B(  8-C , 11-H ) :   0.9096 B( 12-C , 14-H ) :   0.9071
B( 12-C , 15-H ) :   0.9156 B( 12-C , 16-H ) :   0.9122 B( 17-C , 18-C ) :   1.0885
B( 17-C , 19-H ) :   0.8761 B( 18-C , 20-C ) :   1.2309 B( 18-C , 22-S ) :   1.2637
B( 20-C , 21-C ) :   1.2485 B( 20-C , 24-H ) :   0.4415 B( 21-C , 23-C ) :   1.5590
B( 21-C , 25-H ) :   0.9021 B( 22-S , 23-C ) :   1.2005 B( 23-C , 26-H ) :   0.8909
B( 24-H , 30-O ) :   0.2718 B( 30-O , 32-C ) :   1.6702 B( 31-O , 32-C ) :   1.3018
B( 32-C , 33-C ) :   0.9436 B( 33-C , 34-H ) :   0.9045 B( 33-C , 35-H ) :   0.8978
B( 33-C , 36-H ) :   0.9093

Dispersion correction           -0.030930232
FINAL SINGLE POINT ENERGY     -1288.399684284833

DIPOLE MOMENT
-------------
                                X             Y             Z
Electronic contribution:     39.82698     -69.13669      70.03931
Nuclear contribution   :    -40.46008      68.17275     -70.51020
                        -----------------------------------------
Total Dipole Moment    :     -0.63310      -0.96394      -0.47089
                        -----------------------------------------
Magnitude (a.u.)       :      1.24569
Magnitude (Debye)      :      3.16629

Rotational constants in cm-1:     0.010579     0.009163     0.008224
Rotational constants in MHz :   317.148974   274.708226   246.563576

                             ****ORCA TERMINATED NORMALLY****
TOTAL RUN TIME: 0 days 2 hours 1 minutes 38 seconds 900 msec
