                         Program Version 5.0.3 -  RELEASE  -
|  1> ! Opt PBEh-3c
|  2> %geom Constraints
|  3> { B 0 20 2.5142857142857142 C }
|  4> { B 24 30 1.4857142857142858 C }
|  5>     end
|  6> end
|  7> %output
|  8> xyzfile=True
|  9> end
| 10> %scf
| 11> maxiter 250
| 12> end
| 13> %output
| 14> Print[P_Hirshfeld] = 1
| 15> end
| 16> % maxcore
| 17> 4000
| 18> %pal nprocs 2
| 19> end
| 20> *xyz 1 1
| 21> Ir   0.58703444  -0.72438777   0.45540759
| 22> C    0.03403474  -2.80558922   0.32800388
| 23> C    0.12682116  -2.36016747   1.69862445
| 24> C    2.20309986  -2.13685671   0.73295152
| 25> C    1.29361653  -2.63984445  -0.27243531
| 26> C    1.49724585  -2.00668717   1.94080985
| 27> N   -1.04019747   0.18422202  -0.51761269
| 28> C   -2.30778721   0.53012834   0.14362334
| 29> C   -3.12975138   1.55754892  -0.61682565
| 30> H   -3.96101165   1.87619081   0.01050809
| 31> H   -3.56751157   1.15763679  -1.53299242
| 32> H   -2.55001170   2.44822982  -0.86133936
| 33> C   -3.10509950  -0.73989211   0.41355734
| 34> H   -2.01006190   0.96380060   1.09981292
| 35> H   -4.01559457  -0.48988357   0.95593925
| 36> H   -3.39613504  -1.23074237  -0.51612522
| 37> H   -2.55118246  -1.45080243   1.02510533
| 38> C   -0.82693201   0.38718045  -1.75831561
| 39> C    0.52675776   0.14156946  -2.21691129
| 40> H   -1.59579591   0.75677238  -2.43083533
| 41> C    1.64015926   0.55226037  -1.49397109
| 42> C    2.83756352   0.10774559  -2.12564024
| 43> S    0.93632759  -0.71846075  -3.63602007
| 44> C    2.61041499  -0.58023154  -3.27524709
| 45> H    1.55623471   1.40756825  -0.72211670
| 46> H    3.82805682   0.33893270  -1.76176724
| 47> H    3.33909043  -0.99949468  -3.95246006
| 48> H   -0.85990300  -3.16502809  -0.16107471
| 49> H   -0.65661832  -2.39641943   2.44154899
| 50> H    1.89175259  -1.61973705   2.86937034
| 51> O    1.24461801   2.47709249   0.28237967
| 52> O    0.54265995   0.88673391   1.68194439
| 53> C    0.87430609   2.10558486   1.38868091
| 54> C    0.80139778   3.05719539   2.55120662
| 55> H    0.73090046   4.08339439   2.20090888
| 56> H    1.71394044   2.96842300   3.14385444
| 57> H   -0.03376147   2.83042677   3.21082122
| 58> H    3.24586619  -1.90184675   0.57867621
| 59> H    1.54482597  -2.85337576  -1.30130510
| 60> *
| 61>
| 62>                          ****END OF INPUT****
 Total Charge           Charge          ....    1
 Multiplicity           Mult            ....    1
 Number of Electrons    NEL             ....  164
Dispersion correction           -0.031068257
FINAL SINGLE POINT ENERGY     -1288.398608256288
Dispersion correction            ... done
Dispersion correction           -0.031031302
FINAL SINGLE POINT ENERGY     -1288.397889609963
Dispersion correction            ... done
Dispersion correction           -0.030980637
FINAL SINGLE POINT ENERGY     -1288.398701237158
Dispersion correction            ... done
FINAL SINGLE POINT ENERGY     -1288.398359406379
FINAL SINGLE POINT ENERGY     -1288.398733048204
Dispersion correction            ... done
Dispersion correction           -0.030955011
FINAL SINGLE POINT ENERGY     -1288.398737615527
Dispersion correction            ... done
Dispersion correction           -0.030964997
FINAL SINGLE POINT ENERGY     -1288.398746501032
Dispersion correction            ... done
                    ***********************HURRAY********************

CARTESIAN COORDINATES (ANGSTROEM)
---------------------------------
  Ir     0.590485   -0.721380    0.445109
  C      0.034402   -2.802959    0.331037
  C      0.127284   -2.353594    1.699595
  C      2.204174   -2.135052    0.731964
  C      1.294477   -2.641922   -0.270973
  C      1.497089   -1.998047    1.938873
  N     -1.043310    0.182332   -0.522255
  C     -2.310173    0.523462    0.142535
  C     -3.134569    1.553809   -0.611449
  H     -3.965326    1.868290    0.018670
  H     -3.573241    1.158144   -1.529025
  H     -2.556396    2.446514   -0.852291
  C     -3.106276   -0.748384    0.407568
  H     -2.011263    0.952761    1.100326
  H     -4.016134   -0.501459    0.952440
  H     -3.398326   -1.234982   -0.524021
  H     -2.550908   -1.461724    1.014844
  C     -0.833480    0.389011   -1.763193
  C      0.520182    0.147501   -2.221653
  H     -1.603788    0.759097   -2.433653
  C      1.627872    0.529470   -1.473442
  C      2.829196    0.091487   -2.103403
  S      0.938660   -0.681662   -3.654540
  C      2.610019   -0.565173   -3.272498
  H      1.548836    1.396099   -0.703023
  H      3.817281    0.306199   -1.723126
  H      3.342798   -0.972219   -3.952732
  H     -0.859833   -3.163336   -0.156851
  H     -0.655895   -2.386690    2.442807
  H      1.891786   -1.606613    2.865473
  O      1.270926    2.476932    0.277749
  O      0.538425    0.894173    1.669842
  C      0.885757    2.108125    1.381235
  C      0.812357    3.061801    2.541810
  H      0.755948    4.088482    2.190436
  H      1.718302    2.963508    3.143026
  H     -0.031336    2.844031    3.193553
  H      3.247812   -1.903936    0.578198
  H      1.545558   -2.862907   -1.298223

 Multiplicity           Mult            ....    1
 Number of Electrons    NEL             ....  164
 Basis Dimension        Dim             ....  358

ORBITAL ENERGIES
----------------

  NO   OCC          E(Eh)            E(eV)
   0   2.0000     -89.763299     -2442.5836
   1   2.0000     -19.620092      -533.8898
   2   2.0000     -19.580446      -532.8110
   3   2.0000     -14.843032      -403.8994
   4   2.0000     -10.675578      -290.4972
   5   2.0000     -10.663952      -290.1809
   6   2.0000     -10.638945      -289.5004
   7   2.0000     -10.635909      -289.4178
   8   2.0000     -10.635440      -289.4050
   9   2.0000     -10.634892      -289.3901
  10   2.0000     -10.633365      -289.3486
  11   2.0000     -10.632176      -289.3162
  12   2.0000     -10.617098      -288.9059
  13   2.0000     -10.611217      -288.7459
  14   2.0000     -10.585214      -288.0383
  15   2.0000     -10.584235      -288.0117
  16   2.0000     -10.557865      -287.2941
  17   2.0000     -10.552770      -287.1555
  18   2.0000     -10.529749      -286.5290
  19   2.0000      -8.402571      -228.6456
  20   2.0000      -6.292683      -171.2326
  21   2.0000      -6.289022      -171.1330
  22   2.0000      -6.287251      -171.0848
  23   2.0000      -4.031519      -109.7032
  24   2.0000      -2.350750       -63.9672
  25   2.0000      -2.316488       -63.0348
  26   2.0000      -2.315118       -62.9976
  27   2.0000      -1.299097       -35.3502
  28   2.0000      -1.215648       -33.0795
  29   2.0000      -1.203069       -32.7372
  30   2.0000      -1.175142       -31.9772
  31   2.0000      -1.128110       -30.6974
  32   2.0000      -1.028548       -27.9882
  33   2.0000      -0.990044       -26.9405
  34   2.0000      -0.980215       -26.6730
  35   2.0000      -0.966878       -26.3101
  36   2.0000      -0.961468       -26.1629
  37   2.0000      -0.922895       -25.1132
  38   2.0000      -0.904488       -24.6124
  39   2.0000      -0.875166       -23.8145
  40   2.0000      -0.798646       -21.7323
  41   2.0000      -0.791125       -21.5276
  42   2.0000      -0.789346       -21.4792
  43   2.0000      -0.782310       -21.2877
  44   2.0000      -0.774487       -21.0749
  45   2.0000      -0.755022       -20.5452
  46   2.0000      -0.744219       -20.2512
  47   2.0000      -0.723206       -19.6794
  48   2.0000      -0.695594       -18.9281
  49   2.0000      -0.671301       -18.2670
  50   2.0000      -0.665395       -18.1063
  51   2.0000      -0.652484       -17.7550
  52   2.0000      -0.648053       -17.6344
  53   2.0000      -0.641311       -17.4509
  54   2.0000      -0.635096       -17.2818
  55   2.0000      -0.626575       -17.0500
  56   2.0000      -0.624053       -16.9813
  57   2.0000      -0.612922       -16.6784
  58   2.0000      -0.610521       -16.6131
  59   2.0000      -0.609466       -16.5844
  60   2.0000      -0.598071       -16.2743
  61   2.0000      -0.589232       -16.0338
  62   2.0000      -0.578891       -15.7524
  63   2.0000      -0.573366       -15.6021
  64   2.0000      -0.564670       -15.3655
  65   2.0000      -0.553998       -15.0750
  66   2.0000      -0.552053       -15.0221
  67   2.0000      -0.548704       -14.9310
  68   2.0000      -0.539071       -14.6689
  69   2.0000      -0.535460       -14.5706
  70   2.0000      -0.528338       -14.3768
  71   2.0000      -0.522238       -14.2108
  72   2.0000      -0.516434       -14.0529
  73   2.0000      -0.506672       -13.7872
  74   2.0000      -0.487495       -13.2654
  75   2.0000      -0.481589       -13.1047
  76   2.0000      -0.466000       -12.6805
  77   2.0000      -0.449460       -12.2304
  78   2.0000      -0.439944       -11.9715
  79   2.0000      -0.425053       -11.5663
  80   2.0000      -0.417020       -11.3477
  81   2.0000      -0.405088       -11.0230
  82   0.0000      -0.200927        -5.4675
  83   0.0000      -0.166020        -4.5176
  84   0.0000      -0.142504        -3.8777
  85   0.0000      -0.104503        -2.8437
  86   0.0000      -0.077809        -2.1173

MULLIKEN ATOMIC CHARGES
-----------------------
   0 Ir:    0.619630
   1 C :   -0.207923
   2 C :   -0.295589
   3 C :   -0.231997
   4 C :   -0.246429
   5 C :   -0.163560
   6 N :   -0.421378
   7 C :   -0.115788
   8 C :   -0.696666
   9 H :    0.273937
  10 H :    0.226068
  11 H :    0.261383
  12 C :   -0.640755
  13 H :    0.282223
  14 H :    0.265717
  15 H :    0.230863
  16 H :    0.233841
  17 C :    0.068230
  18 C :   -0.220306
  19 H :    0.294271
  20 C :   -0.407793
  21 C :   -0.135659
  22 S :    0.293630
  23 C :   -0.430570
  24 H :    0.492084
  25 H :    0.269269
  26 H :    0.297934
  27 H :    0.292663
  28 H :    0.294265
  29 H :    0.308124
  30 O :   -0.475665
  31 O :   -0.547521
  32 C :    0.607600
  33 C :   -0.745807
  34 H :    0.267700
  35 H :    0.263910
  36 H :    0.249724
  37 H :    0.295633
  38 H :    0.294707
Sum of atomic charges:    1.0000000

LOEWDIN ATOMIC CHARGES
----------------------
   0 Ir:   -0.213604
   1 C :   -0.038712
   2 C :   -0.056011
   3 C :   -0.047704
   4 C :   -0.056985
   5 C :   -0.024869
   6 N :   -0.003023
   7 C :   -0.068167
   8 C :   -0.365089
   9 H :    0.158091
  10 H :    0.134102
  11 H :    0.147285
  12 C :   -0.343276
  13 H :    0.157338
  14 H :    0.153542
  15 H :    0.137310
  16 H :    0.134870
  17 C :    0.036543
  18 C :   -0.182933
  19 H :    0.164038
  20 C :   -0.176715
  21 C :   -0.140802
  22 S :    0.460832
  23 C :   -0.263076
  24 H :    0.270650
  25 H :    0.163449
  26 H :    0.168106
  27 H :    0.186044
  28 H :    0.186705
  29 H :    0.194495
  30 O :   -0.276554
  31 O :   -0.214279
  32 C :    0.147992
  33 C :   -0.378028
  34 H :    0.158414
  35 H :    0.165410
  36 H :    0.151418
  37 H :    0.187915
  38 H :    0.185280

  Mayer bond orders larger than 0.100000
B(  0-Ir,  1-C ) :   0.4186 B(  0-Ir,  2-C ) :   0.5486 B(  0-Ir,  3-C ) :   0.4649
B(  0-Ir,  4-C ) :   0.4481 B(  0-Ir,  5-C ) :   0.4017 B(  0-Ir,  6-N ) :   0.4602
B(  0-Ir, 20-C ) :   0.2161 B(  0-Ir, 31-O ) :   0.6005 B(  1-C ,  2-C ) :   1.1134
B(  1-C ,  4-C ) :   1.2498 B(  1-C , 27-H ) :   0.9030 B(  2-C ,  5-C ) :   1.1314
B(  2-C , 28-H ) :   0.9064 B(  3-C ,  4-C ) :   1.1031 B(  3-C ,  5-C ) :   1.2347
B(  3-C , 37-H ) :   0.9027 B(  4-C , 38-H ) :   0.8973 B(  5-C , 29-H ) :   0.8971
B(  6-N ,  7-C ) :   0.8906 B(  6-N , 17-C ) :   1.7067 B(  7-C ,  8-C ) :   0.9927
B(  7-C , 12-C ) :   0.9697 B(  7-C , 13-H ) :   0.8700 B(  8-C ,  9-H ) :   0.9030
B(  8-C , 10-H ) :   0.9122 B(  8-C , 11-H ) :   0.9074 B( 12-C , 14-H ) :   0.9060
B( 12-C , 15-H ) :   0.9151 B( 12-C , 16-H ) :   0.9102 B( 17-C , 18-C ) :   1.0377
B( 17-C , 19-H ) :   0.8734 B( 18-C , 20-C ) :   1.3067 B( 18-C , 22-S ) :   1.2216
B( 20-C , 21-C ) :   1.2549 B( 20-C , 24-H ) :   0.5299 B( 21-C , 23-C ) :   1.5514
B( 21-C , 25-H ) :   0.9032 B( 22-S , 23-C ) :   1.1983 B( 23-C , 26-H ) :   0.8923
B( 24-H , 30-O ) :   0.2081 B( 30-O , 32-C ) :   1.7370 B( 31-O , 32-C ) :   1.2465
B( 32-C , 33-C ) :   0.9451 B( 33-C , 34-H ) :   0.9063 B( 33-C , 35-H ) :   0.9004
B( 33-C , 36-H ) :   0.9105

Dispersion correction           -0.030974837
FINAL SINGLE POINT ENERGY     -1288.398747923429

DIPOLE MOMENT
-------------
                                X             Y             Z
Electronic contribution:     35.28284     -67.01746      71.46355
Nuclear contribution   :    -35.92177      65.66573     -71.77864
                        -----------------------------------------
Total Dipole Moment    :     -0.63893      -1.35173      -0.31509
                        -----------------------------------------
Magnitude (a.u.)       :      1.52797
Magnitude (Debye)      :      3.88378

Rotational constants in cm-1:     0.010841     0.009130     0.008278
Rotational constants in MHz :   324.991942   273.720664   248.171350

                             ****ORCA TERMINATED NORMALLY****
TOTAL RUN TIME: 0 days 2 hours 12 minutes 40 seconds 671 msec
