                         Program Version 5.0.3 -  RELEASE  -
|  1> ! Opt PBEh-3c
|  2> %geom Constraints
|  3> { B 0 20 2.4714285714285715 C }
|  4> { B 24 30 1.342857142857143 C }
|  5>     end
|  6> end
|  7> %output
|  8> xyzfile=True
|  9> end
| 10> %scf
| 11> maxiter 250
| 12> end
| 13> %output
| 14> Print[P_Hirshfeld] = 1
| 15> end
| 16> % maxcore
| 17> 4000
| 18> *xyz 1 1
| 19> Ir   0.57871503  -0.73490453   0.50216244
| 20> C    0.02951039  -2.81584142   0.37739604
| 21> C    0.06238256  -2.36520652   1.74674581
| 22> C    2.18119406  -2.14446521   0.86870165
| 23> C    1.31446761  -2.65275714  -0.17089008
| 24> C    1.41935936  -2.00470047   2.04253639
| 25> N   -1.03979439   0.14339918  -0.50538010
| 26> C   -2.32162185   0.44782431   0.15282898
| 27> C   -3.11019640   1.55251621  -0.53311679
| 28> H   -3.94354568   1.83998630   0.10656563
| 29> H   -3.54375406   1.23899078  -1.48394851
| 30> H   -2.50503382   2.44418058  -0.69886430
| 31> C   -3.14354832  -0.82829210   0.28920414
| 32> H   -2.04681369   0.79246327   1.15108760
| 33> H   -4.06529309  -0.61470740   0.82839279
| 34> H   -3.41482103  -1.23090839  -0.68762332
| 35> H   -2.61359731  -1.59907013   0.84696247
| 36> C   -0.84533462   0.35787216  -1.75102019
| 37> C    0.49809010   0.17292371  -2.24420521
| 38> H   -1.64226629   0.70221619  -2.40428958
| 39> C    1.60537109   0.46090567  -1.45682912
| 40> C    2.80266973   0.09857670  -2.13511653
| 41> S    0.91228047  -0.46635638  -3.77352576
| 42> C    2.58064184  -0.40329013  -3.38099183
| 43> H    1.54403356   1.36121892  -0.61941479
| 44> H    3.79342104   0.25786407  -1.73480842
| 45> H    3.31288582  -0.72141733  -4.10774696
| 46> H   -0.84090554  -3.17999910  -0.14921270
| 47> H   -0.75249653  -2.39925171   2.45484163
| 48> H    1.77290285  -1.61160553   2.98497085
| 49> O    1.39612805   2.40527841   0.23492734
| 50> O    0.53783700   0.93191344   1.67256624
| 51> C    0.95630613   2.10353146   1.34832348
| 52> C    0.91416411   3.12303803   2.44963681
| 53> H    0.86184507   4.12911935   2.04231960
| 54> H    1.83323597   3.04963545   3.03450882
| 55> H    0.08198217   2.94913045   3.12796790
| 56> H    3.23145129  -1.91734281   0.76212712
| 57> H    1.60751735  -2.87327833  -1.18704942
| 58> *
| 59>
| 60>                          ****END OF INPUT****
 Total Charge           Charge          ....    1
 Multiplicity           Mult            ....    1
 Number of Electrons    NEL             ....  164
Dispersion correction           -0.030782731
FINAL SINGLE POINT ENERGY     -1288.395315649331
Dispersion correction            ... done
Dispersion correction           -0.030733756
FINAL SINGLE POINT ENERGY     -1288.395474244667
Dispersion correction            ... done
Dispersion correction           -0.030702111
FINAL SINGLE POINT ENERGY     -1288.395546465342
Dispersion correction            ... done
FINAL SINGLE POINT ENERGY     -1288.395574589656
FINAL SINGLE POINT ENERGY     -1288.395588227202
FINAL SINGLE POINT ENERGY     -1288.395588021835
FINAL SINGLE POINT ENERGY     -1288.395595850201
FINAL SINGLE POINT ENERGY     -1288.395601120135
FINAL SINGLE POINT ENERGY     -1288.395609037924
FINAL SINGLE POINT ENERGY     -1288.395612942046
FINAL SINGLE POINT ENERGY     -1288.395614618901
Dispersion correction            ... done
Dispersion correction           -0.030587188
FINAL SINGLE POINT ENERGY     -1288.395614102532
Dispersion correction            ... done
Dispersion correction           -0.030583208
FINAL SINGLE POINT ENERGY     -1288.395613463889
Dispersion correction            ... done
                    ***********************HURRAY********************

CARTESIAN COORDINATES (ANGSTROEM)
---------------------------------
  Ir     0.585832   -0.737416    0.504849
  C      0.044818   -2.822412    0.384969
  C      0.024922   -2.362069    1.750558
  C      2.176329   -2.140064    0.949707
  C      1.350198   -2.661598   -0.115350
  C      1.366660   -1.991045    2.091395
  N     -1.037039    0.131502   -0.503956
  C     -2.319937    0.414609    0.162656
  C     -3.100900    1.552039   -0.477924
  H     -3.934185    1.817377    0.171333
  H     -3.533793    1.280436   -1.441708
  H     -2.489867    2.445839   -0.605685
  C     -3.149497   -0.861732    0.240052
  H     -2.048381    0.715128    1.175806
  H     -4.069626   -0.669675    0.790137
  H     -3.423864   -1.215935   -0.754505
  H     -2.622455   -1.661644    0.757887
  C     -0.854750    0.365280   -1.749139
  C      0.480599    0.195108   -2.261300
  H     -1.661291    0.714874   -2.387557
  C      1.589373    0.394232   -1.449693
  C      2.782270    0.062608   -2.149472
  S      0.888658   -0.326263   -3.834885
  C      2.554838   -0.330874   -3.433667
  H      1.560253    1.313371   -0.599454
  H      3.774476    0.167401   -1.735171
  H      3.283935   -0.603913   -4.181569
  H     -0.802826   -3.196359   -0.171032
  H     -0.815258   -2.393498    2.428415
  H      1.682202   -1.585762    3.042258
  O      1.464983    2.377258    0.214384
  O      0.540948    0.949410    1.655585
  C      0.989828    2.103799    1.323984
  C      0.944410    3.148175    2.400835
  H      0.901852    4.145386    1.971086
  H      1.858497    3.082478    2.994303
  H      0.105260    2.993471    3.074973
  H      3.230845   -1.917878    0.885062
  H      1.681051   -2.892457   -1.117427

 Multiplicity           Mult            ....    1
 Number of Electrons    NEL             ....  164
 Basis Dimension        Dim             ....  358

ORBITAL ENERGIES
----------------

  NO   OCC          E(Eh)            E(eV)
   0   2.0000     -89.757022     -2442.4127
   1   2.0000     -19.629887      -534.1564
   2   2.0000     -19.601496      -533.3838
   3   2.0000     -14.836496      -403.7216
   4   2.0000     -10.689493      -290.8759
   5   2.0000     -10.658091      -290.0214
   6   2.0000     -10.634862      -289.3893
   7   2.0000     -10.633674      -289.3570
   8   2.0000     -10.631078      -289.2863
   9   2.0000     -10.630565      -289.2724
  10   2.0000     -10.628234      -289.2090
  11   2.0000     -10.623578      -289.0822
  12   2.0000     -10.614680      -288.8401
  13   2.0000     -10.606069      -288.6058
  14   2.0000     -10.580118      -287.8997
  15   2.0000     -10.578865      -287.8655
  16   2.0000     -10.555997      -287.2433
  17   2.0000     -10.551022      -287.1079
  18   2.0000     -10.538065      -286.7553
  19   2.0000      -8.396457      -228.4792
  20   2.0000      -6.286457      -171.0632
  21   2.0000      -6.282871      -170.9656
  22   2.0000      -6.281263      -170.9218
  23   2.0000      -4.028581      -109.6233
  24   2.0000      -2.347630       -63.8823
  25   2.0000      -2.313594       -62.9561
  26   2.0000      -2.311543       -62.9003
  27   2.0000      -1.315744       -35.8032
  28   2.0000      -1.218835       -33.1662
  29   2.0000      -1.207968       -32.8705
  30   2.0000      -1.172027       -31.8925
  31   2.0000      -1.121419       -30.5154
  32   2.0000      -1.023709       -27.8565
  33   2.0000      -0.986426       -26.8420
  34   2.0000      -0.977023       -26.5861
  35   2.0000      -0.961583       -26.1660
  36   2.0000      -0.955078       -25.9890
  37   2.0000      -0.933275       -25.3957
  38   2.0000      -0.901778       -24.5386
  39   2.0000      -0.870596       -23.6901
  40   2.0000      -0.795828       -21.6556
  41   2.0000      -0.787679       -21.4338
  42   2.0000      -0.786397       -21.3990
  43   2.0000      -0.778034       -21.1714
  44   2.0000      -0.771148       -20.9840
  45   2.0000      -0.760719       -20.7002
  46   2.0000      -0.741846       -20.1867
  47   2.0000      -0.722387       -19.6572
  48   2.0000      -0.691900       -18.8276
  49   2.0000      -0.676838       -18.4177
  50   2.0000      -0.663098       -18.0438
  51   2.0000      -0.653419       -17.7804
  52   2.0000      -0.648545       -17.6478
  53   2.0000      -0.639471       -17.4009
  54   2.0000      -0.639044       -17.3893
  55   2.0000      -0.633657       -17.2427
  56   2.0000      -0.622813       -16.9476
  57   2.0000      -0.609185       -16.5768
  58   2.0000      -0.607511       -16.5312
  59   2.0000      -0.606325       -16.4989
  60   2.0000      -0.595451       -16.2030
  61   2.0000      -0.587323       -15.9819
  62   2.0000      -0.574960       -15.6455
  63   2.0000      -0.567032       -15.4297
  64   2.0000      -0.561786       -15.2870
  65   2.0000      -0.558639       -15.2013
  66   2.0000      -0.552560       -15.0359
  67   2.0000      -0.548287       -14.9197
  68   2.0000      -0.539977       -14.6935
  69   2.0000      -0.534001       -14.5309
  70   2.0000      -0.527777       -14.3615
  71   2.0000      -0.519633       -14.1399
  72   2.0000      -0.515114       -14.0170
  73   2.0000      -0.506072       -13.7709
  74   2.0000      -0.493196       -13.4206
  75   2.0000      -0.480308       -13.0698
  76   2.0000      -0.464979       -12.6527
  77   2.0000      -0.449410       -12.2291
  78   2.0000      -0.444093       -12.0844
  79   2.0000      -0.419631       -11.4187
  80   2.0000      -0.417357       -11.3569
  81   2.0000      -0.401150       -10.9158
  82   0.0000      -0.199884        -5.4391
  83   0.0000      -0.160944        -4.3795
  84   0.0000      -0.141193        -3.8421
  85   0.0000      -0.091221        -2.4823
  86   0.0000      -0.073889        -2.0106

MULLIKEN ATOMIC CHARGES
-----------------------
   0 Ir:    0.615322
   1 C :   -0.214325
   2 C :   -0.290887
   3 C :   -0.238741
   4 C :   -0.240211
   5 C :   -0.165876
   6 N :   -0.436345
   7 C :   -0.124099
   8 C :   -0.687441
   9 H :    0.270358
  10 H :    0.225412
  11 H :    0.258942
  12 C :   -0.635857
  13 H :    0.279852
  14 H :    0.262769
  15 H :    0.231448
  16 H :    0.230326
  17 C :    0.069720
  18 C :   -0.186344
  19 H :    0.287399
  20 C :   -0.436658
  21 C :   -0.144131
  22 S :    0.308357
  23 C :   -0.426507
  24 H :    0.497580
  25 H :    0.262574
  26 H :    0.295584
  27 H :    0.291242
  28 H :    0.291461
  29 H :    0.305302
  30 O :   -0.490882
  31 O :   -0.531939
  32 C :    0.625218
  33 C :   -0.745562
  34 H :    0.271412
  35 H :    0.269528
  36 H :    0.256305
  37 H :    0.293222
  38 H :    0.296474
Sum of atomic charges:    1.0000000

LOEWDIN ATOMIC CHARGES
----------------------
   0 Ir:   -0.221169
   1 C :   -0.043610
   2 C :   -0.067121
   3 C :   -0.058924
   4 C :   -0.049211
   5 C :   -0.021759
   6 N :   -0.013045
   7 C :   -0.069038
   8 C :   -0.363449
   9 H :    0.156519
  10 H :    0.133332
  11 H :    0.145995
  12 C :   -0.343816
  13 H :    0.155175
  14 H :    0.152320
  15 H :    0.137426
  16 H :    0.132550
  17 C :    0.035373
  18 C :   -0.196109
  19 H :    0.160748
  20 C :   -0.203971
  21 C :   -0.142698
  22 S :    0.467081
  23 C :   -0.260809
  24 H :    0.311670
  25 H :    0.160179
  26 H :    0.167228
  27 H :    0.185077
  28 H :    0.185103
  29 H :    0.192820
  30 O :   -0.273927
  31 O :   -0.198248
  32 C :    0.162854
  33 C :   -0.374124
  34 H :    0.161460
  35 H :    0.169233
  36 H :    0.154574
  37 H :    0.186943
  38 H :    0.187373

  Mayer bond orders larger than 0.100000
B(  0-Ir,  1-C ) :   0.4229 B(  0-Ir,  2-C ) :   0.5318 B(  0-Ir,  3-C ) :   0.4597
B(  0-Ir,  4-C ) :   0.4540 B(  0-Ir,  5-C ) :   0.4033 B(  0-Ir,  6-N ) :   0.4695
B(  0-Ir, 20-C ) :   0.2744 B(  0-Ir, 31-O ) :   0.5617 B(  1-C ,  2-C ) :   1.1171
B(  1-C ,  4-C ) :   1.2413 B(  1-C , 27-H ) :   0.9036 B(  2-C ,  5-C ) :   1.1367
B(  2-C , 28-H ) :   0.9077 B(  3-C ,  4-C ) :   1.1084 B(  3-C ,  5-C ) :   1.2301
B(  3-C , 37-H ) :   0.9055 B(  4-C , 38-H ) :   0.9001 B(  5-C , 29-H ) :   0.8981
B(  6-N ,  7-C ) :   0.8918 B(  6-N , 17-C ) :   1.6725 B(  7-C ,  8-C ) :   0.9916
B(  7-C , 12-C ) :   0.9685 B(  7-C , 13-H ) :   0.8753 B(  8-C ,  9-H ) :   0.9042
B(  8-C , 10-H ) :   0.9128 B(  8-C , 11-H ) :   0.9095 B( 12-C , 14-H ) :   0.9069
B( 12-C , 15-H ) :   0.9156 B( 12-C , 16-H ) :   0.9125 B( 17-C , 18-C ) :   1.0793
B( 17-C , 19-H ) :   0.8751 B( 18-C , 20-C ) :   1.2949 B( 18-C , 22-S ) :   1.2154
B( 20-C , 21-C ) :   1.2847 B( 20-C , 24-H ) :   0.4251 B( 21-C , 23-C ) :   1.5396
B( 21-C , 25-H ) :   0.9057 B( 22-S , 23-C ) :   1.2126 B( 23-C , 26-H ) :   0.8924
B( 24-H , 30-O ) :   0.2694 B( 30-O , 32-C ) :   1.6387 B( 31-O , 32-C ) :   1.3122
B( 32-C , 33-C ) :   0.9484 B( 33-C , 34-H ) :   0.9033 B( 33-C , 35-H ) :   0.8965
B( 33-C , 36-H ) :   0.9086

Dispersion correction           -0.030581248
FINAL SINGLE POINT ENERGY     -1288.395613209376

DIPOLE MOMENT
-------------
                                X             Y             Z
Electronic contribution:     34.95974     -70.51105      78.59026
Nuclear contribution   :    -35.58136      69.47991     -78.70623
                        -----------------------------------------
Total Dipole Moment    :     -0.62162      -1.03115      -0.11597
                        -----------------------------------------
Magnitude (a.u.)       :      1.20960
Magnitude (Debye)      :      3.07455

Rotational constants in cm-1:     0.010561     0.008867     0.008123
Rotational constants in MHz :   316.608169   265.818425   243.532879

                             ****ORCA TERMINATED NORMALLY****
TOTAL RUN TIME: 0 days 1 hours 42 minutes 24 seconds 316 msec
