                         Program Version 5.0.3 -  RELEASE  -
|  1> ! Opt PBEh-3c
|  2> %geom Constraints
|  3> { B 0 20 2.257142857142857 C }
|  4> { B 24 30 1.3142857142857143 C }
|  5>     end
|  6> end
|  7> %output
|  8> xyzfile=True
|  9> end
| 10> %scf
| 11> maxiter 250
| 12> end
| 13> %output
| 14> Print[P_Hirshfeld] = 1
| 15> end
| 16> % maxcore
| 17> 4000
| 18> *xyz 1 1
| 19> Ir   0.59977810  -0.73660979   0.48002281
| 20> C    0.10522393  -2.83862098   0.37190508
| 21> C   -0.07555941  -2.36853393   1.72146752
| 22> C    2.15000382  -2.09699723   1.15467449
| 23> C    1.46076606  -2.66539291   0.02442468
| 24> C    1.20011903  -1.94480280   2.19223246
| 25> N   -1.05321536   0.11278207  -0.50038287
| 26> C   -2.33787629   0.32645874   0.18707864
| 27> C   -3.12078904   1.52259792  -0.33630027
| 28> H   -3.95746331   1.71610037   0.33330279
| 29> H   -3.54755747   1.35164256  -1.32548048
| 30> H   -2.51158780   2.42612248  -0.36829802
| 31> C   -3.16607600  -0.95178557   0.12439278
| 32> H   -2.07408598   0.52491980   1.22686141
| 33> H   -4.08321988  -0.82923252   0.69915123
| 34> H   -3.44594737  -1.18883041  -0.90291601
| 35> H   -2.63317557  -1.80673870   0.53757608
| 36> C   -0.89240288   0.42705293  -1.73278160
| 37> C    0.42697293   0.27536336  -2.27363502
| 38> H   -1.70912891   0.81909606  -2.33159423
| 39> C    1.51596269   0.18606867  -1.41715148
| 40> C    2.70486559  -0.07439544  -2.15382666
| 41> S    0.84695859   0.08667855  -3.91365244
| 42> C    2.49056272  -0.14281209  -3.49906368
| 43> H    1.64476900   1.18143238  -0.56716376
| 44> H    3.68824155  -0.14893250  -1.71293864
| 45> H    3.22197450  -0.29789407  -4.27771379
| 46> H   -0.66129373  -3.25125365  -0.26778907
| 47> H   -0.98384654  -2.40846342   2.30363062
| 48> H    1.39489851  -1.50795900   3.16160694
| 49> O    1.72453097   2.27839267   0.17810007
| 50> O    0.54393560   1.00986346   1.57465557
| 51> C    1.11686807   2.09907006   1.25133361
| 52> C    1.06834368   3.21426815   2.25226038
| 53> H    0.95250849   4.17248848   1.75081645
| 54> H    2.01668896   3.24604088   2.79149481
| 55> H    0.27042317   3.07090645   2.97533947
| 56> H    3.20411484  -1.87506957   1.21789382
| 57> H    1.90408475  -2.91383136  -0.92879354
| 58> *
| 59>
| 60>                          ****END OF INPUT****
 Total Charge           Charge          ....    1
 Multiplicity           Mult            ....    1
 Number of Electrons    NEL             ....  164
Dispersion correction           -0.030578096
FINAL SINGLE POINT ENERGY     -1288.402722814631
Dispersion correction            ... done
Dispersion correction           -0.030536269
FINAL SINGLE POINT ENERGY     -1288.402971143366
Dispersion correction            ... done
Dispersion correction           -0.030515706
FINAL SINGLE POINT ENERGY     -1288.403056010942
Dispersion correction            ... done
FINAL SINGLE POINT ENERGY     -1288.403105110058
FINAL SINGLE POINT ENERGY     -1288.403140282406
FINAL SINGLE POINT ENERGY     -1288.403155866402
Dispersion correction            ... done
Dispersion correction           -0.030461560
FINAL SINGLE POINT ENERGY     -1288.403160859305
Dispersion correction            ... done
Dispersion correction           -0.030461891
FINAL SINGLE POINT ENERGY     -1288.403161824157
Dispersion correction            ... done
                    ***********************HURRAY********************

CARTESIAN COORDINATES (ANGSTROEM)
---------------------------------
  Ir     0.597296   -0.740429    0.469633
  C      0.092719   -2.841414    0.392727
  C     -0.087161   -2.363859    1.738974
  C      2.139405   -2.099548    1.168035
  C      1.450504   -2.677288    0.043665
  C      1.186872   -1.935322    2.203549
  N     -1.059335    0.106649   -0.507257
  C     -2.344743    0.307716    0.182098
  C     -3.137108    1.501310   -0.332831
  H     -3.974509    1.683563    0.338930
  H     -3.563467    1.333288   -1.322700
  H     -2.535283    2.409989   -0.359238
  C     -3.165402   -0.975062    0.112548
  H     -2.081723    0.501695    1.223048
  H     -4.084964   -0.859599    0.684962
  H     -3.440696   -1.209718   -0.916512
  H     -2.629238   -1.828485    0.524305
  C     -0.896925    0.444968   -1.733702
  C      0.421723    0.297486   -2.273635
  H     -1.711688    0.852146   -2.324623
  C      1.494461    0.135791   -1.407073
  C      2.691223   -0.096450   -2.140500
  S      0.865221    0.208539   -3.915436
  C      2.497424   -0.074469   -3.490843
  H      1.652626    1.172452   -0.563489
  H      3.666225   -0.217669   -1.691418
  H      3.239435   -0.192819   -4.265903
  H     -0.673840   -3.258869   -0.243783
  H     -0.995681   -2.396609    2.320966
  H      1.382252   -1.488897    3.168442
  O      1.762884    2.263016    0.161673
  O      0.547379    1.022230    1.551855
  C      1.140136    2.097624    1.232878
  C      1.105358    3.222161    2.222904
  H      0.998646    4.177151    1.713231
  H      2.054717    3.249054    2.760589
  H      0.306488    3.092838    2.947396
  H      3.194551   -1.883270    1.232833
  H      1.893587   -2.940698   -0.905559

 Multiplicity           Mult            ....    1
 Number of Electrons    NEL             ....  164
 Basis Dimension        Dim             ....  358

ORBITAL ENERGIES
----------------

  NO   OCC          E(Eh)            E(eV)
   0   2.0000     -89.757941     -2442.4378
   1   2.0000     -19.638164      -534.3816
   2   2.0000     -19.625724      -534.0431
   3   2.0000     -14.831582      -403.5879
   4   2.0000     -10.700813      -291.1839
   5   2.0000     -10.653348      -289.8923
   6   2.0000     -10.628466      -289.2153
   7   2.0000     -10.626080      -289.1503
   8   2.0000     -10.625249      -289.1277
   9   2.0000     -10.619405      -288.9687
  10   2.0000     -10.618975      -288.9570
  11   2.0000     -10.616171      -288.8807
  12   2.0000     -10.612173      -288.7719
  13   2.0000     -10.606517      -288.6180
  14   2.0000     -10.586054      -288.0612
  15   2.0000     -10.583463      -287.9907
  16   2.0000     -10.553032      -287.1626
  17   2.0000     -10.549921      -287.0779
  18   2.0000     -10.546488      -286.9845
  19   2.0000      -8.397380      -228.5043
  20   2.0000      -6.287287      -171.0858
  21   2.0000      -6.283755      -170.9897
  22   2.0000      -6.282299      -170.9501
  23   2.0000      -4.022374      -109.4544
  24   2.0000      -2.340001       -63.6747
  25   2.0000      -2.307908       -62.8014
  26   2.0000      -2.304947       -62.7208
  27   2.0000      -1.330008       -36.1914
  28   2.0000      -1.231290       -33.5051
  29   2.0000      -1.203796       -32.7569
  30   2.0000      -1.163505       -31.6606
  31   2.0000      -1.122480       -30.5442
  32   2.0000      -1.021727       -27.8026
  33   2.0000      -0.976535       -26.5729
  34   2.0000      -0.969346       -26.3772
  35   2.0000      -0.963090       -26.2070
  36   2.0000      -0.955784       -26.0082
  37   2.0000      -0.942276       -25.6406
  38   2.0000      -0.899513       -24.4770
  39   2.0000      -0.868998       -23.6466
  40   2.0000      -0.795083       -21.6353
  41   2.0000      -0.779603       -21.2141
  42   2.0000      -0.779155       -21.2019
  43   2.0000      -0.777805       -21.1652
  44   2.0000      -0.766016       -20.8444
  45   2.0000      -0.763847       -20.7853
  46   2.0000      -0.740413       -20.1477
  47   2.0000      -0.721800       -19.6412
  48   2.0000      -0.692440       -18.8423
  49   2.0000      -0.682683       -18.5768
  50   2.0000      -0.662777       -18.0351
  51   2.0000      -0.662028       -18.0147
  52   2.0000      -0.649372       -17.6703
  53   2.0000      -0.638838       -17.3837
  54   2.0000      -0.632616       -17.2144
  55   2.0000      -0.630786       -17.1646
  56   2.0000      -0.620910       -16.8958
  57   2.0000      -0.607390       -16.5279
  58   2.0000      -0.599582       -16.3155
  59   2.0000      -0.598862       -16.2959
  60   2.0000      -0.595876       -16.2146
  61   2.0000      -0.589133       -16.0311
  62   2.0000      -0.576381       -15.6841
  63   2.0000      -0.569843       -15.5062
  64   2.0000      -0.562248       -15.2995
  65   2.0000      -0.560461       -15.2509
  66   2.0000      -0.556554       -15.1446
  67   2.0000      -0.546127       -14.8609
  68   2.0000      -0.541401       -14.7323
  69   2.0000      -0.534403       -14.5418
  70   2.0000      -0.528029       -14.3684
  71   2.0000      -0.517639       -14.0857
  72   2.0000      -0.512824       -13.9547
  73   2.0000      -0.503042       -13.6885
  74   2.0000      -0.497702       -13.5432
  75   2.0000      -0.478964       -13.0333
  76   2.0000      -0.477980       -13.0065
  77   2.0000      -0.449316       -12.2265
  78   2.0000      -0.445537       -12.1237
  79   2.0000      -0.417593       -11.3633
  80   2.0000      -0.415344       -11.3021
  81   2.0000      -0.396486       -10.7889
  82   0.0000      -0.198098        -5.3905
  83   0.0000      -0.142328        -3.8730
  84   0.0000      -0.141127        -3.8403
  85   0.0000      -0.083958        -2.2846
  86   0.0000      -0.072672        -1.9775

MULLIKEN ATOMIC CHARGES
-----------------------
   0 Ir:    0.601922
   1 C :   -0.233438
   2 C :   -0.272766
   3 C :   -0.259393
   4 C :   -0.229536
   5 C :   -0.158823
   6 N :   -0.440230
   7 C :   -0.124669
   8 C :   -0.682599
   9 H :    0.268887
  10 H :    0.224927
  11 H :    0.253672
  12 C :   -0.634017
  13 H :    0.277923
  14 H :    0.258964
  15 H :    0.232469
  16 H :    0.231654
  17 C :    0.069292
  18 C :   -0.140941
  19 H :    0.283860
  20 C :   -0.501421
  21 C :   -0.125921
  22 S :    0.331879
  23 C :   -0.424869
  24 H :    0.479069
  25 H :    0.263233
  26 H :    0.296235
  27 H :    0.287219
  28 H :    0.284126
  29 H :    0.299330
  30 O :   -0.490672
  31 O :   -0.508562
  32 C :    0.634893
  33 C :   -0.744566
  34 H :    0.274272
  35 H :    0.276112
  36 H :    0.262678
  37 H :    0.285262
  38 H :    0.294546
Sum of atomic charges:    1.0000000

LOEWDIN ATOMIC CHARGES
----------------------
   0 Ir:   -0.252094
   1 C :   -0.052987
   2 C :   -0.091551
   3 C :   -0.086764
   4 C :   -0.041438
   5 C :   -0.016008
   6 N :   -0.011590
   7 C :   -0.068816
   8 C :   -0.362435
   9 H :    0.155856
  10 H :    0.132882
  11 H :    0.143300
  12 C :   -0.344104
  13 H :    0.153939
  14 H :    0.150668
  15 H :    0.137909
  16 H :    0.132322
  17 C :    0.031157
  18 C :   -0.199029
  19 H :    0.159229
  20 C :   -0.216784
  21 C :   -0.135890
  22 S :    0.484525
  23 C :   -0.257891
  24 H :    0.353154
  25 H :    0.160268
  26 H :    0.168170
  27 H :    0.183013
  28 H :    0.181090
  29 H :    0.189251
  30 O :   -0.261715
  31 O :   -0.179818
  32 C :    0.169628
  33 C :   -0.371311
  34 H :    0.165626
  35 H :    0.172672
  36 H :    0.156412
  37 H :    0.183202
  38 H :    0.185952

  Mayer bond orders larger than 0.100000
B(  0-Ir,  1-C ) :   0.4353 B(  0-Ir,  2-C ) :   0.4520 B(  0-Ir,  3-C ) :   0.4626
B(  0-Ir,  4-C ) :   0.4398 B(  0-Ir,  5-C ) :   0.3920 B(  0-Ir,  6-N ) :   0.4679
B(  0-Ir, 20-C ) :   0.4175 B(  0-Ir, 31-O ) :   0.5195 B(  1-C ,  2-C ) :   1.1275
B(  1-C ,  4-C ) :   1.2278 B(  1-C , 27-H ) :   0.9065 B(  2-C ,  5-C ) :   1.1804
B(  2-C , 28-H ) :   0.9103 B(  3-C ,  4-C ) :   1.1285 B(  3-C ,  5-C ) :   1.1949
B(  3-C , 37-H ) :   0.9109 B(  4-C , 38-H ) :   0.9005 B(  5-C , 29-H ) :   0.9005
B(  6-N ,  7-C ) :   0.8953 B(  6-N , 17-C ) :   1.6480 B(  7-C ,  8-C ) :   0.9907
B(  7-C , 12-C ) :   0.9673 B(  7-C , 13-H ) :   0.8779 B(  8-C ,  9-H ) :   0.9049
B(  8-C , 10-H ) :   0.9130 B(  8-C , 11-H ) :   0.9122 B( 12-C , 14-H ) :   0.9078
B( 12-C , 15-H ) :   0.9154 B( 12-C , 16-H ) :   0.9126 B( 17-C , 18-C ) :   1.1110
B( 17-C , 19-H ) :   0.8764 B( 18-C , 20-C ) :   1.2590 B( 18-C , 22-S ) :   1.2215
B( 20-C , 21-C ) :   1.2941 B( 20-C , 24-H ) :   0.3354 B( 21-C , 23-C ) :   1.5340
B( 21-C , 25-H ) :   0.9044 B( 22-S , 23-C ) :   1.2249 B( 23-C , 26-H ) :   0.8916
B( 24-H , 30-O ) :   0.3467 B( 30-O , 32-C ) :   1.5489 B( 31-O , 32-C ) :   1.3863
B( 32-C , 33-C ) :   0.9472 B( 33-C , 34-H ) :   0.8992 B( 33-C , 35-H ) :   0.8927
B( 33-C , 36-H ) :   0.9078

Dispersion correction           -0.030459893
FINAL SINGLE POINT ENERGY     -1288.403162787657

DIPOLE MOMENT
-------------
                                X             Y             Z
Electronic contribution:     35.97298     -73.95409      75.79450
Nuclear contribution   :    -36.55809      73.43908     -75.90535
                        -----------------------------------------
Total Dipole Moment    :     -0.58511      -0.51501      -0.11085
                        -----------------------------------------
Magnitude (a.u.)       :      0.78732
Magnitude (Debye)      :      2.00122

Rotational constants in cm-1:     0.010554     0.008681     0.008128
Rotational constants in MHz :   316.401288   260.249309   243.671551

                             ****ORCA TERMINATED NORMALLY****
TOTAL RUN TIME: 0 days 1 hours 13 minutes 30 seconds 740 msec
