                         Program Version 5.0.3 -  RELEASE  -
|  1> ! Opt PBEh-3c
|  2> %geom Constraints
|  3> { B 0 20 2.0 C }
|  4> { B 24 30 1.4857142857142858 C }
|  5>     end
|  6> end
|  7> %output
|  8> xyzfile=True
|  9> end
| 10> %scf
| 11> maxiter 250
| 12> end
| 13> %output
| 14> Print[P_Hirshfeld] = 1
| 15> end
| 16> % maxcore
| 17> 4000
| 18> *xyz 1 1
| 19> Ir   0.62941679  -0.71514447   0.38455188
| 20> C    0.16053631  -2.84175882   0.31677980
| 21> C   -0.02639982  -2.39335937   1.67179686
| 22> C    2.18756628  -2.05349053   1.09502440
| 23> C    1.51609299  -2.65007872  -0.02769582
| 24> C    1.22657012  -1.92904004   2.13573180
| 25> N   -1.06858262   0.13518357  -0.52179500
| 26> C   -2.32776062   0.35520611   0.20320402
| 27> C   -3.13108100   1.54227855  -0.30797876
| 28> H   -3.95199953   1.73389953   0.38123363
| 29> H   -3.58139390   1.35959352  -1.28466741
| 30> H   -2.52994075   2.45024908  -0.36104059
| 31> C   -3.15150486  -0.92820716   0.17775644
| 32> H   -2.02784246   0.56074782   1.23180788
| 33> H   -4.04690205  -0.80453291   0.78543920
| 34> H   -3.46797120  -1.17218044  -0.83712760
| 35> H   -2.59886008  -1.77730048   0.57624337
| 36> C   -0.92420942   0.47317466  -1.75009750
| 37> C    0.39451459   0.27133852  -2.27093884
| 38> H   -1.72741508   0.90900392  -2.33477277
| 39> C    1.41893919   0.05704183  -1.33406621
| 40> C    2.64291086  -0.21490569  -2.03669988
| 41> S    0.89899022   0.15559052  -3.87889670
| 42> C    2.50750566  -0.19134596  -3.38794975
| 43> H    1.59031108   1.10941708  -0.70088169
| 44> H    3.59542045  -0.35636491  -1.54651366
| 45> H    3.27448277  -0.33387634  -4.13393412
| 46> H   -0.59480524  -3.27922692  -0.31962339
| 47> H   -0.93634006  -2.44611371   2.24967446
| 48> H    1.40939759  -1.48233199   3.10285110
| 49> O    1.65995929   2.37176331   0.10635503
| 50> O    0.57282888   1.01677601   1.50066331
| 51> C    1.09579865   2.14059395   1.18311538
| 52> C    1.02330632   3.21556926   2.23116383
| 53> H    1.00759789   4.20060255   1.77185731
| 54> H    1.91585540   3.15798696   2.85662959
| 55> H    0.15781512   3.08919029   2.87670571
| 56> H    3.23970191  -1.82663215   1.17121764
| 57> H    1.96686043  -2.91012644  -0.97438284
| 58> *
| 59>
| 60>                          ****END OF INPUT****
 Total Charge           Charge          ....    1
 Multiplicity           Mult            ....    1
 Number of Electrons    NEL             ....  164
Dispersion correction           -0.030996801
FINAL SINGLE POINT ENERGY     -1288.391942482496
Dispersion correction            ... done
Dispersion correction           -0.030947360
FINAL SINGLE POINT ENERGY     -1288.392025415375
Dispersion correction            ... done
Dispersion correction           -0.030950383
FINAL SINGLE POINT ENERGY     -1288.391426314216
Dispersion correction            ... done
FINAL SINGLE POINT ENERGY     -1288.392271898261
FINAL SINGLE POINT ENERGY     -1288.392300156536
FINAL SINGLE POINT ENERGY     -1288.392335857823
FINAL SINGLE POINT ENERGY     -1288.392359924219
FINAL SINGLE POINT ENERGY     -1288.392369187805
FINAL SINGLE POINT ENERGY     -1288.392373089131
FINAL SINGLE POINT ENERGY     -1288.392375083947
FINAL SINGLE POINT ENERGY     -1288.392375431203
FINAL SINGLE POINT ENERGY     -1288.392374175390
FINAL SINGLE POINT ENERGY     -1288.392376611314
FINAL SINGLE POINT ENERGY     -1288.392381506409
Dispersion correction            ... done
Dispersion correction           -0.030902504
FINAL SINGLE POINT ENERGY     -1288.392385207981
Dispersion correction            ... done
Dispersion correction           -0.030904439
FINAL SINGLE POINT ENERGY     -1288.392387024538
Dispersion correction            ... done
                    ***********************HURRAY********************

CARTESIAN COORDINATES (ANGSTROEM)
---------------------------------
  Ir     0.632792   -0.725638    0.375605
  C      0.181939   -2.854043    0.300941
  C     -0.051482   -2.424194    1.656183
  C      2.173907   -2.050623    1.150463
  C      1.549575   -2.652913    0.007251
  C      1.174102   -1.948064    2.162695
  N     -1.071311    0.125433   -0.515614
  C     -2.326981    0.335625    0.217678
  C     -3.118612    1.546102   -0.255508
  H     -3.938337    1.723416    0.438888
  H     -3.569147    1.400614   -1.238288
  H     -2.507957    2.449003   -0.278510
  C     -3.162193   -0.939077    0.154938
  H     -2.024162    0.507857    1.251569
  H     -4.052057   -0.829393    0.773366
  H     -3.487887   -1.145633   -0.865319
  H     -2.613070   -1.805924    0.518758
  C     -0.932898    0.478891   -1.740880
  C      0.383067    0.277396   -2.265628
  H     -1.737010    0.925626   -2.315671
  C      1.392265    0.010773   -1.321716
  C      2.624403   -0.237253   -2.024347
  S      0.909868    0.245032   -3.869544
  C      2.507950   -0.141310   -3.373904
  H      1.581800    1.115469   -0.743772
  H      3.569268   -0.413514   -1.530442
  H      3.284832   -0.251484   -4.115152
  H     -0.544667   -3.302639   -0.360543
  H     -0.980946   -2.486696    2.200953
  H      1.318774   -1.505492    3.138067
  O      1.645628    2.375078    0.041505
  O      0.604475    1.023011    1.473972
  C      1.106545    2.146201    1.135000
  C      1.048840    3.235070    2.169274
  H      0.982916    4.211986    1.697085
  H      1.970845    3.214817    2.753020
  H      0.217438    3.092877    2.854727
  H      3.221547   -1.820537    1.267472
  H      2.035311   -2.906657   -0.923832

 Multiplicity           Mult            ....    1
 Number of Electrons    NEL             ....  164
 Basis Dimension        Dim             ....  358

ORBITAL ENERGIES
----------------

  NO   OCC          E(Eh)            E(eV)
   0   2.0000     -89.772087     -2442.8227
   1   2.0000     -19.628733      -534.1250
   2   2.0000     -19.611470      -533.6552
   3   2.0000     -14.838308      -403.7709
   4   2.0000     -10.689013      -290.8628
   5   2.0000     -10.657158      -289.9960
   6   2.0000     -10.634611      -289.3825
   7   2.0000     -10.622530      -289.0537
   8   2.0000     -10.621704      -289.0313
   9   2.0000     -10.620445      -288.9970
  10   2.0000     -10.614928      -288.8469
  11   2.0000     -10.614018      -288.8221
  12   2.0000     -10.612360      -288.7770
  13   2.0000     -10.609717      -288.7051
  14   2.0000     -10.595834      -288.3273
  15   2.0000     -10.592841      -288.2459
  16   2.0000     -10.554239      -287.1954
  17   2.0000     -10.551446      -287.1194
  18   2.0000     -10.539908      -286.8055
  19   2.0000      -8.411397      -228.8858
  20   2.0000      -6.301227      -171.4651
  21   2.0000      -6.297654      -171.3679
  22   2.0000      -6.296464      -171.3355
  23   2.0000      -4.019053      -109.3640
  24   2.0000      -2.335880       -63.5625
  25   2.0000      -2.306653       -62.7672
  26   2.0000      -2.302514       -62.6546
  27   2.0000      -1.315179       -35.7878
  28   2.0000      -1.217545       -33.1311
  29   2.0000      -1.211159       -32.9573
  30   2.0000      -1.157553       -31.4986
  31   2.0000      -1.133992       -30.8575
  32   2.0000      -1.027978       -27.9727
  33   2.0000      -0.977406       -26.5966
  34   2.0000      -0.970571       -26.4106
  35   2.0000      -0.965811       -26.2811
  36   2.0000      -0.960702       -26.1420
  37   2.0000      -0.933229       -25.3944
  38   2.0000      -0.901339       -24.5267
  39   2.0000      -0.876352       -23.8468
  40   2.0000      -0.802590       -21.8396
  41   2.0000      -0.786459       -21.4006
  42   2.0000      -0.774659       -21.0795
  43   2.0000      -0.773572       -21.0500
  44   2.0000      -0.759308       -20.6618
  45   2.0000      -0.754767       -20.5382
  46   2.0000      -0.745079       -20.2746
  47   2.0000      -0.723164       -19.6783
  48   2.0000      -0.692057       -18.8318
  49   2.0000      -0.684772       -18.6336
  50   2.0000      -0.665464       -18.1082
  51   2.0000      -0.653946       -17.7948
  52   2.0000      -0.646571       -17.5941
  53   2.0000      -0.635167       -17.2838
  54   2.0000      -0.630507       -17.1570
  55   2.0000      -0.624450       -16.9921
  56   2.0000      -0.622409       -16.9366
  57   2.0000      -0.615181       -16.7399
  58   2.0000      -0.604663       -16.4537
  59   2.0000      -0.596419       -16.2294
  60   2.0000      -0.594076       -16.1656
  61   2.0000      -0.592366       -16.1191
  62   2.0000      -0.582421       -15.8485
  63   2.0000      -0.572493       -15.5783
  64   2.0000      -0.564197       -15.3526
  65   2.0000      -0.563235       -15.3264
  66   2.0000      -0.552387       -15.0312
  67   2.0000      -0.547605       -14.9011
  68   2.0000      -0.542044       -14.7498
  69   2.0000      -0.536936       -14.6108
  70   2.0000      -0.531732       -14.4692
  71   2.0000      -0.519206       -14.1283
  72   2.0000      -0.513799       -13.9812
  73   2.0000      -0.498468       -13.5640
  74   2.0000      -0.492769       -13.4089
  75   2.0000      -0.488837       -13.3019
  76   2.0000      -0.475462       -12.9380
  77   2.0000      -0.449698       -12.2369
  78   2.0000      -0.441200       -12.0057
  79   2.0000      -0.423327       -11.5193
  80   2.0000      -0.412457       -11.2235
  81   2.0000      -0.391747       -10.6600
  82   0.0000      -0.213256        -5.8030
  83   0.0000      -0.144169        -3.9230
  84   0.0000      -0.124868        -3.3978
  85   0.0000      -0.090694        -2.4679
  86   0.0000      -0.078607        -2.1390

MULLIKEN ATOMIC CHARGES
-----------------------
   0 Ir:    0.618769
   1 C :   -0.251776
   2 C :   -0.249185
   3 C :   -0.280340
   4 C :   -0.221282
   5 C :   -0.148567
   6 N :   -0.426147
   7 C :   -0.128850
   8 C :   -0.681521
   9 H :    0.270041
  10 H :    0.223874
  11 H :    0.255382
  12 C :   -0.633384
  13 H :    0.282058
  14 H :    0.259526
  15 H :    0.232529
  16 H :    0.235388
  17 C :    0.071014
  18 C :   -0.112007
  19 H :    0.287682
  20 C :   -0.617623
  21 C :   -0.076315
  22 S :    0.353923
  23 C :   -0.428772
  24 H :    0.467533
  25 H :    0.272362
  26 H :    0.300401
  27 H :    0.282979
  28 H :    0.279826
  29 H :    0.296711
  30 O :   -0.466012
  31 O :   -0.517132
  32 C :    0.622150
  33 C :   -0.742925
  34 H :    0.270336
  35 H :    0.272105
  36 H :    0.257180
  37 H :    0.279406
  38 H :    0.290664
Sum of atomic charges:    1.0000000

LOEWDIN ATOMIC CHARGES
----------------------
   0 Ir:   -0.259243
   1 C :   -0.063302
   2 C :   -0.099470
   3 C :   -0.101517
   4 C :   -0.044003
   5 C :   -0.018999
   6 N :    0.006657
   7 C :   -0.070093
   8 C :   -0.362132
   9 H :    0.156688
  10 H :    0.132745
  11 H :    0.144174
  12 C :   -0.343313
  13 H :    0.156219
  14 H :    0.151194
  15 H :    0.137944
  16 H :    0.134233
  17 C :    0.025405
  18 C :   -0.174310
  19 H :    0.161963
  20 C :   -0.221216
  21 C :   -0.115662
  22 S :    0.512143
  23 C :   -0.258159
  24 H :    0.351308
  25 H :    0.165142
  26 H :    0.170818
  27 H :    0.180813
  28 H :    0.177964
  29 H :    0.187150
  30 O :   -0.261708
  31 O :   -0.190659
  32 C :    0.155142
  33 C :   -0.373193
  34 H :    0.161616
  35 H :    0.170222
  36 H :    0.154376
  37 H :    0.180436
  38 H :    0.182625

  Mayer bond orders larger than 0.100000
B(  0-Ir,  1-C ) :   0.4493 B(  0-Ir,  2-C ) :   0.3681 B(  0-Ir,  3-C ) :   0.4719
B(  0-Ir,  4-C ) :   0.4130 B(  0-Ir,  5-C ) :   0.3455 B(  0-Ir,  6-N ) :   0.4619
B(  0-Ir, 20-C ) :   0.5568 B(  0-Ir, 31-O ) :   0.5336 B(  1-C ,  2-C ) :   1.1249
B(  1-C ,  4-C ) :   1.2248 B(  1-C , 27-H ) :   0.9098 B(  2-C ,  5-C ) :   1.2440
B(  2-C , 28-H ) :   0.9101 B(  3-C ,  4-C ) :   1.1437 B(  3-C ,  5-C ) :   1.1623
B(  3-C , 37-H ) :   0.9149 B(  4-C , 38-H ) :   0.8990 B(  5-C , 29-H ) :   0.9018
B(  6-N ,  7-C ) :   0.8957 B(  6-N , 17-C ) :   1.6478 B(  7-C ,  8-C ) :   0.9901
B(  7-C , 12-C ) :   0.9656 B(  7-C , 13-H ) :   0.8746 B(  8-C ,  9-H ) :   0.9045
B(  8-C , 10-H ) :   0.9132 B(  8-C , 11-H ) :   0.9114 B( 12-C , 14-H ) :   0.9075
B( 12-C , 15-H ) :   0.9151 B( 12-C , 16-H ) :   0.9111 B( 17-C , 18-C ) :   1.1114
B( 17-C , 19-H ) :   0.8764 B( 18-C , 20-C ) :   1.1865 B( 18-C , 22-S ) :   1.2691
B( 20-C , 21-C ) :   1.2265 B( 20-C , 24-H ) :   0.3912 B( 21-C , 23-C ) :   1.5598
B( 21-C , 25-H ) :   0.8996 B( 22-S , 23-C ) :   1.2024 B( 23-C , 26-H ) :   0.8909
B( 24-H , 30-O ) :   0.3098 B( 30-O , 32-C ) :   1.6255 B( 31-O , 32-C ) :   1.3425
B( 32-C , 33-C ) :   0.9416 B( 33-C , 34-H ) :   0.9028 B( 33-C , 35-H ) :   0.8955
B( 33-C , 36-H ) :   0.9087

Dispersion correction           -0.030906089
FINAL SINGLE POINT ENERGY     -1288.392387002346

DIPOLE MOMENT
-------------
                                X             Y             Z
Electronic contribution:     39.30714     -72.94745      66.52198
Nuclear contribution   :    -39.95739      72.36574     -67.01207
                        -----------------------------------------
Total Dipole Moment    :     -0.65026      -0.58171      -0.49009
                        -----------------------------------------
Magnitude (a.u.)       :      1.00070
Magnitude (Debye)      :      2.54359

Rotational constants in cm-1:     0.010519     0.009115     0.008276
Rotational constants in MHz :   315.341067   273.256512   248.122913

                             ****ORCA TERMINATED NORMALLY****
TOTAL RUN TIME: 0 days 2 hours 6 minutes 20 seconds 149 msec
