                         Program Version 5.0.3 -  RELEASE  -
|  1> ! Opt PBEh-3c
|  2> %geom Constraints
|  3> { B 0 20 2.3 C }
|  4> { B 24 30 1.457142857142857 C }
|  5>     end
|  6> end
|  7> %output
|  8> xyzfile=True
|  9> end
| 10> %scf
| 11> maxiter 250
| 12> end
| 13> %output
| 14> Print[P_Hirshfeld] = 1
| 15> end
| 16> % maxcore
| 17> 4000
| 18> *xyz 1 1
| 19> Ir   0.61058513  -0.70977394   0.43164438
| 20> C    0.06445726  -2.80206973   0.34677567
| 21> C    0.10943846  -2.34359002   1.71114077
| 22> C    2.21698766  -2.11321177   0.80392823
| 23> C    1.34341238  -2.64213521  -0.21867818
| 24> C    1.46289371  -1.96310395   1.98384511
| 25> N   -1.04720593   0.16156362  -0.52659595
| 26> C   -2.31348952   0.46848180   0.15604551
| 27> C   -3.11349181   1.57316047  -0.51580377
| 28> H   -3.93820984   1.85741780   0.13635152
| 29> H   -3.55977642   1.26080690  -1.46121741
| 30> H   -2.51233346   2.46655084  -0.68705460
| 31> C   -3.13150717  -0.80857223   0.30769458
| 32> H   -2.01660891   0.81135384   1.14831806
| 33> H   -4.03992069  -0.59612064   0.86937815
| 34> H   -3.42578511  -1.20841771  -0.66353084
| 35> H   -2.58738506  -1.58020716   0.85032839
| 36> C   -0.86705048   0.38271459  -1.77194210
| 37> C    0.47715050   0.16548610  -2.25164253
| 38> H   -1.65665494   0.74852970  -2.42151103
| 39> C    1.56367415   0.38516751  -1.40729664
| 40> C    2.77579252  -0.00245720  -2.05193849
| 41> S    0.92394082  -0.47527653  -3.76125639
| 42> C    2.58172338  -0.47909495  -3.30983777
| 43> H    1.52343855   1.30612963  -0.66049967
| 44> H    3.75507295   0.12106032  -1.61282025
| 45> H    3.32617333  -0.81183615  -4.01724074
| 46> H   -0.80937559  -3.17657327  -0.16683658
| 47> H   -0.69747983  -2.37305827   2.42810658
| 48> H    1.82334820  -1.55352669   2.91661106
| 49> O    1.34478435   2.46413747   0.22955796
| 50> O    0.53453963   0.93532650   1.63516165
| 51> C    0.92344953   2.12736115   1.33496810
| 52> C    0.86132429   3.11248375   2.46868035
| 53> H    0.83232809   4.13145431   2.09262565
| 54> H    1.75940309   3.00718525   3.08047312
| 55> H    0.00656019   2.92872099   3.11622939
| 56> H    3.26749159  -1.89150388   0.69047465
| 57> H    1.62767500  -2.88537329  -1.23189589
| 58> *
| 59>
| 60>                          ****END OF INPUT****
 Total Charge           Charge          ....    1
 Multiplicity           Mult            ....    1
 Number of Electrons    NEL             ....  164
Dispersion correction           -0.031066518
FINAL SINGLE POINT ENERGY     -1288.400183506225
Dispersion correction            ... done
Dispersion correction           -0.031112996
FINAL SINGLE POINT ENERGY     -1288.398399796991
Dispersion correction            ... done
Dispersion correction           -0.031033041
FINAL SINGLE POINT ENERGY     -1288.400328228018
Dispersion correction            ... done
FINAL SINGLE POINT ENERGY     -1288.399076285923
FINAL SINGLE POINT ENERGY     -1288.400394871125
FINAL SINGLE POINT ENERGY     -1288.400418504130
FINAL SINGLE POINT ENERGY     -1288.400451123990
FINAL SINGLE POINT ENERGY     -1288.400469221289
FINAL SINGLE POINT ENERGY     -1288.400479055177
FINAL SINGLE POINT ENERGY     -1288.400484470200
FINAL SINGLE POINT ENERGY     -1288.400485301076
FINAL SINGLE POINT ENERGY     -1288.400486684142
FINAL SINGLE POINT ENERGY     -1288.400489240691
Dispersion correction            ... done
Dispersion correction           -0.030904954
FINAL SINGLE POINT ENERGY     -1288.400489937894
Dispersion correction            ... done
Dispersion correction           -0.030901176
FINAL SINGLE POINT ENERGY     -1288.400490092307
Dispersion correction            ... done
                    ***********************HURRAY********************

CARTESIAN COORDINATES (ANGSTROEM)
---------------------------------
  Ir     0.617730   -0.712670    0.435613
  C      0.089684   -2.812545    0.340581
  C      0.070505   -2.352157    1.704403
  C      2.215650   -2.102663    0.890087
  C      1.392450   -2.644746   -0.166000
  C      1.404105   -1.955694    2.033949
  N     -1.045009    0.149686   -0.520632
  C     -2.310836    0.436810    0.172149
  C     -3.096902    1.581645   -0.447995
  H     -3.919857    1.844651    0.215171
  H     -3.544036    1.318236   -1.407580
  H     -2.484184    2.474138   -0.576959
  C     -3.142239   -0.838114    0.256914
  H     -2.015630    0.727760    1.181182
  H     -4.046576   -0.649008    0.833435
  H     -3.443754   -1.180579   -0.733821
  H     -2.602838   -1.644576    0.751478
  C     -0.878589    0.386170   -1.766310
  C      0.458229    0.180821   -2.264270
  H     -1.678185    0.756558   -2.400784
  C      1.542320    0.321009   -1.399228
  C      2.751871   -0.039286   -2.064805
  S      0.902585   -0.356791   -3.812593
  C      2.556732   -0.420377   -3.355293
  H      1.528183    1.261884   -0.651633
  H      3.731172    0.035938   -1.614998
  H      3.300069   -0.713473   -4.081126
  H     -0.755696   -3.199738   -0.209841
  H     -0.767059   -2.386984    2.384945
  H      1.717543   -1.537887    2.980098
  O      1.394007    2.439517    0.195978
  O      0.542671    0.951661    1.619290
  C      0.951444    2.129927    1.303631
  C      0.888774    3.142066    2.412559
  H      0.853254    4.151676    2.012435
  H      1.791133    3.056351    3.021062
  H      0.037998    2.968890    3.067894
  H      3.270031   -1.880214    0.826821
  H      1.722622   -2.888701   -1.165066

 Multiplicity           Mult            ....    1
 Number of Electrons    NEL             ....  164
 Basis Dimension        Dim             ....  358

ORBITAL ENERGIES
----------------

  NO   OCC          E(Eh)            E(eV)
   0   2.0000     -89.767068     -2442.6861
   1   2.0000     -19.623010      -533.9692
   2   2.0000     -19.592429      -533.1371
   3   2.0000     -14.840224      -403.8230
   4   2.0000     -10.680829      -290.6401
   5   2.0000     -10.661086      -290.1029
   6   2.0000     -10.634481      -289.3789
   7   2.0000     -10.632775      -289.3325
   8   2.0000     -10.631450      -289.2965
   9   2.0000     -10.627743      -289.1956
  10   2.0000     -10.626473      -289.1610
  11   2.0000     -10.624601      -289.1101
  12   2.0000     -10.615042      -288.8500
  13   2.0000     -10.612245      -288.7739
  14   2.0000     -10.589124      -288.1447
  15   2.0000     -10.586624      -288.0767
  16   2.0000     -10.556311      -287.2518
  17   2.0000     -10.551500      -287.1209
  18   2.0000     -10.533661      -286.6355
  19   2.0000      -8.406453      -228.7512
  20   2.0000      -6.296399      -171.3337
  21   2.0000      -6.292768      -171.2349
  22   2.0000      -6.291371      -171.1969
  23   2.0000      -4.026219      -109.5590
  24   2.0000      -2.344668       -63.8017
  25   2.0000      -2.311217       -62.8914
  26   2.0000      -2.309826       -62.8536
  27   2.0000      -1.306237       -35.5445
  28   2.0000      -1.213120       -33.0107
  29   2.0000      -1.208434       -32.8832
  30   2.0000      -1.168926       -31.8081
  31   2.0000      -1.130293       -30.7568
  32   2.0000      -1.027315       -27.9547
  33   2.0000      -0.982859       -26.7450
  34   2.0000      -0.974415       -26.5152
  35   2.0000      -0.969804       -26.3897
  36   2.0000      -0.962031       -26.1782
  37   2.0000      -0.927305       -25.2332
  38   2.0000      -0.902440       -24.5566
  39   2.0000      -0.875251       -23.8168
  40   2.0000      -0.799980       -21.7685
  41   2.0000      -0.784870       -21.3574
  42   2.0000      -0.784753       -21.3542
  43   2.0000      -0.782723       -21.2990
  44   2.0000      -0.769193       -20.9308
  45   2.0000      -0.755087       -20.5470
  46   2.0000      -0.743606       -20.2345
  47   2.0000      -0.723762       -19.6946
  48   2.0000      -0.692188       -18.8354
  49   2.0000      -0.675239       -18.3742
  50   2.0000      -0.665180       -18.1005
  51   2.0000      -0.649854       -17.6834
  52   2.0000      -0.646770       -17.5995
  53   2.0000      -0.637565       -17.3490
  54   2.0000      -0.635041       -17.2804
  55   2.0000      -0.629085       -17.1183
  56   2.0000      -0.622874       -16.9493
  57   2.0000      -0.613185       -16.6856
  58   2.0000      -0.604746       -16.4560
  59   2.0000      -0.604201       -16.4411
  60   2.0000      -0.600116       -16.3300
  61   2.0000      -0.591513       -16.0959
  62   2.0000      -0.580836       -15.8053
  63   2.0000      -0.572904       -15.5895
  64   2.0000      -0.564390       -15.3578
  65   2.0000      -0.556483       -15.1427
  66   2.0000      -0.551705       -15.0126
  67   2.0000      -0.548346       -14.9212
  68   2.0000      -0.540166       -14.6987
  69   2.0000      -0.536543       -14.6001
  70   2.0000      -0.527990       -14.3673
  71   2.0000      -0.519503       -14.1364
  72   2.0000      -0.515324       -14.0227
  73   2.0000      -0.501820       -13.6552
  74   2.0000      -0.487869       -13.2756
  75   2.0000      -0.481241       -13.0952
  76   2.0000      -0.473073       -12.8730
  77   2.0000      -0.445685       -12.1277
  78   2.0000      -0.442877       -12.0513
  79   2.0000      -0.423871       -11.5341
  80   2.0000      -0.416919       -11.3449
  81   2.0000      -0.400823       -10.9069
  82   0.0000      -0.205553        -5.5934
  83   0.0000      -0.153420        -4.1748
  84   0.0000      -0.141655        -3.8546
  85   0.0000      -0.096007        -2.6125
  86   0.0000      -0.076722        -2.0877

MULLIKEN ATOMIC CHARGES
-----------------------
   0 Ir:    0.607752
   1 C :   -0.216148
   2 C :   -0.279460
   3 C :   -0.246615
   4 C :   -0.242108
   5 C :   -0.161913
   6 N :   -0.425282
   7 C :   -0.126228
   8 C :   -0.687021
   9 H :    0.271010
  10 H :    0.224168
  11 H :    0.260400
  12 C :   -0.635680
  13 H :    0.283283
  14 H :    0.263059
  15 H :    0.230970
  16 H :    0.232267
  17 C :    0.072005
  18 C :   -0.158130
  19 H :    0.290260
  20 C :   -0.504706
  21 C :   -0.113331
  22 S :    0.321947
  23 C :   -0.433324
  24 H :    0.491943
  25 H :    0.267850
  26 H :    0.298897
  27 H :    0.288917
  28 H :    0.289175
  29 H :    0.304787
  30 O :   -0.475217
  31 O :   -0.535603
  32 C :    0.616057
  33 C :   -0.744440
  34 H :    0.269136
  35 H :    0.266586
  36 H :    0.253017
  37 H :    0.288853
  38 H :    0.292870
Sum of atomic charges:    1.0000000

LOEWDIN ATOMIC CHARGES
----------------------
   0 Ir:   -0.239771
   1 C :   -0.044154
   2 C :   -0.075508
   3 C :   -0.067142
   4 C :   -0.054201
   5 C :   -0.018621
   6 N :   -0.000595
   7 C :   -0.069937
   8 C :   -0.363309
   9 H :    0.157028
  10 H :    0.132950
  11 H :    0.146700
  12 C :   -0.343396
  13 H :    0.156992
  14 H :    0.152603
  15 H :    0.137172
  16 H :    0.133532
  17 C :    0.032752
  18 C :   -0.174731
  19 H :    0.162564
  20 C :   -0.203775
  21 C :   -0.126241
  22 S :    0.486783
  23 C :   -0.263120
  24 H :    0.304357
  25 H :    0.163474
  26 H :    0.168995
  27 H :    0.183786
  28 H :    0.183934
  29 H :    0.192476
  30 O :   -0.272838
  31 O :   -0.205055
  32 C :    0.152054
  33 C :   -0.375582
  34 H :    0.159636
  35 H :    0.167223
  36 H :    0.153142
  37 H :    0.184844
  38 H :    0.184978

  Mayer bond orders larger than 0.100000
B(  0-Ir,  1-C ) :   0.4173 B(  0-Ir,  2-C ) :   0.4923 B(  0-Ir,  3-C ) :   0.4625
B(  0-Ir,  4-C ) :   0.4439 B(  0-Ir,  5-C ) :   0.3978 B(  0-Ir,  6-N ) :   0.4614
B(  0-Ir, 20-C ) :   0.3251 B(  0-Ir, 31-O ) :   0.5711 B(  1-C ,  2-C ) :   1.1246
B(  1-C ,  4-C ) :   1.2444 B(  1-C , 27-H ) :   0.9048 B(  2-C ,  5-C ) :   1.1512
B(  2-C , 28-H ) :   0.9088 B(  3-C ,  4-C ) :   1.1104 B(  3-C ,  5-C ) :   1.2212
B(  3-C , 37-H ) :   0.9079 B(  4-C , 38-H ) :   0.9004 B(  5-C , 29-H ) :   0.8983
B(  6-N ,  7-C ) :   0.8920 B(  6-N , 17-C ) :   1.6792 B(  7-C ,  8-C ) :   0.9910
B(  7-C , 12-C ) :   0.9677 B(  7-C , 13-H ) :   0.8726 B(  8-C ,  9-H ) :   0.9040
B(  8-C , 10-H ) :   0.9131 B(  8-C , 11-H ) :   0.9088 B( 12-C , 14-H ) :   0.9068
B( 12-C , 15-H ) :   0.9156 B( 12-C , 16-H ) :   0.9121 B( 17-C , 18-C ) :   1.0714
B( 17-C , 19-H ) :   0.8751 B( 18-C , 20-C ) :   1.2627 B( 18-C , 22-S ) :   1.2498
B( 20-C , 21-C ) :   1.2575 B( 20-C , 24-H ) :   0.4549 B( 21-C , 23-C ) :   1.5534
B( 21-C , 25-H ) :   0.9035 B( 22-S , 23-C ) :   1.2021 B( 23-C , 26-H ) :   0.8914
B( 24-H , 30-O ) :   0.2588 B( 30-O , 32-C ) :   1.6821 B( 31-O , 32-C ) :   1.2881
B( 32-C , 33-C ) :   0.9452 B( 33-C , 34-H ) :   0.9049 B( 33-C , 35-H ) :   0.8986
B( 33-C , 36-H ) :   0.9096

Dispersion correction           -0.030898984
FINAL SINGLE POINT ENERGY     -1288.400490261067

DIPOLE MOMENT
-------------
                                X             Y             Z
Electronic contribution:     38.14777     -68.10658      71.70065
Nuclear contribution   :    -38.77735      66.99696     -72.09825
                        -----------------------------------------
Total Dipole Moment    :     -0.62958      -1.10962      -0.39760
                        -----------------------------------------
Magnitude (a.u.)       :      1.33630
Magnitude (Debye)      :      3.39661

Rotational constants in cm-1:     0.010640     0.009125     0.008230
Rotational constants in MHz :   318.983136   273.575090   246.729693

                             ****ORCA TERMINATED NORMALLY****
TOTAL RUN TIME: 0 days 1 hours 58 minutes 53 seconds 416 msec
