                         Program Version 5.0.3 -  RELEASE  -
|  1> ! EnGrad PBEh-3c
|  2> %output
|  3> xyzfile=True
|  4> end
|  5> %scf
|  6> maxiter 250
|  7> end
|  8> %output
|  9> Print[P_Hirshfeld] = 1
| 10> end
| 11> % maxcore
| 12> 4000
| 13> *xyz 0 1
| 14> Lu   0.41279270   0.22739367  -0.15689972
| 15> C    0.45995624   0.91890855   2.50047999
| 16> C    1.36044977  -0.11497750   2.16702041
| 17> C    2.32593595   0.42619338   1.28453619
| 18> C    1.95144503   1.76241976   0.99880522
| 19> C    0.72269974   2.01391271   1.65601504
| 20> H    2.45481987   2.43187764   0.31258183
| 21> H    0.19084684   2.95491383   1.66619405
| 22> H   -0.27724753   0.87796253   3.29114113
| 23> H    1.40446024  -1.08632049   2.64236536
| 24> H    3.21668467  -0.07154309   0.92644586
| 25> C    0.99921470  -0.10743041  -2.55113214
| 26> C   -0.30218634  -0.65889560  -2.51660123
| 27> C    1.02984920  -1.96195576  -1.21136030
| 28> C    1.82854821  -0.91379429  -1.73605629
| 29> H    1.27661080   0.81527910  -3.04360945
| 30> C   -0.24967636  -1.86425022  -1.79668873
| 31> H   -1.13874824  -0.32829573  -3.11373053
| 32> H    2.88286921  -0.76972678  -1.54801992
| 33> H    1.38604360  -2.79635226  -0.62173805
| 34> H   -1.03988958  -2.59699952  -1.71162135
| 35> C   -2.42194826  -1.73944399   1.39727043
| 36> H   -2.31457801  -1.52208030   2.44217708
| 37> H   -2.38377953  -2.79324189   1.12395269
| 38> H   -3.41080565  -1.39017310   1.03896105
| 39> C   -1.93764005   1.89629568  -0.82789139
| 40> H   -2.01956495  -0.14190197   0.47055460
| 41> H   -1.27886211   2.59782009  -1.34205593
| 42> H   -2.55368399   2.49829482  -0.15708142
| 43> H   -2.57462619   1.43611507  -1.58401495
| 44> *
| 45>
| 46>                          ****END OF INPUT****

CARTESIAN COORDINATES (ANGSTROEM)
---------------------------------
  Lu     0.412793    0.227394   -0.156900
  C      0.459956    0.918909    2.500480
  C      1.360450   -0.114977    2.167020
  C      2.325936    0.426193    1.284536
  C      1.951445    1.762420    0.998805
  C      0.722700    2.013913    1.656015
  H      2.454820    2.431878    0.312582
  H      0.190847    2.954914    1.666194
  H     -0.277248    0.877963    3.291141
  H      1.404460   -1.086320    2.642365
  H      3.216685   -0.071543    0.926446
  C      0.999215   -0.107430   -2.551132
  C     -0.302186   -0.658896   -2.516601
  C      1.029849   -1.961956   -1.211360
  C      1.828548   -0.913794   -1.736056
  H      1.276611    0.815279   -3.043609
  C     -0.249676   -1.864250   -1.796689
  H     -1.138748   -0.328296   -3.113731
  H      2.882869   -0.769727   -1.548020
  H      1.386044   -2.796352   -0.621738
  H     -1.039890   -2.597000   -1.711621
  C     -2.421948   -1.739444    1.397270
  H     -2.314578   -1.522080    2.442177
  H     -2.383780   -2.793242    1.123953
  H     -3.410806   -1.390173    1.038961
  C     -1.937640    1.896296   -0.827891
  H     -2.019565   -0.141902    0.470555
  H     -1.278862    2.597820   -1.342056
  H     -2.553684    2.498295   -0.157081
  H     -2.574626    1.436115   -1.584015

 Total Charge           Charge          ....    0
 Multiplicity           Mult            ....    1
 Number of Electrons    NEL             ....  132
 Basis Dimension        Dim             ....  295

ORBITAL ENERGIES
----------------

  NO   OCC          E(Eh)            E(eV)
   0   2.0000     -19.260331      -524.1003
   1   2.0000     -12.632445      -343.7463
   2   2.0000     -12.630362      -343.6896
   3   2.0000     -12.630188      -343.6849
   4   2.0000     -10.457030      -284.5502
   5   2.0000     -10.455090      -284.4975
   6   2.0000     -10.454299      -284.4759
   7   2.0000     -10.453833      -284.4633
   8   2.0000     -10.453268      -284.4479
   9   2.0000     -10.452682      -284.4319
  10   2.0000     -10.452352      -284.4230
  11   2.0000     -10.451105      -284.3890
  12   2.0000     -10.449934      -284.3572
  13   2.0000     -10.449128      -284.3352
  14   2.0000     -10.448565      -284.3199
  15   2.0000     -10.386270      -282.6248
  16   2.0000      -5.901544      -160.5892
  17   2.0000      -5.901203      -160.5799
  18   2.0000      -5.901068      -160.5762
  19   2.0000      -5.899761      -160.5407
  20   2.0000      -5.899697      -160.5389
  21   2.0000      -2.444110       -66.5076
  22   2.0000      -1.286132       -34.9974
  23   2.0000      -1.280712       -34.8499
  24   2.0000      -1.273691       -34.6589
  25   2.0000      -0.988933       -26.9102
  26   2.0000      -0.976348       -26.5678
  27   2.0000      -0.802947       -21.8493
  28   2.0000      -0.801642       -21.8138
  29   2.0000      -0.800542       -21.7838
  30   2.0000      -0.798543       -21.7295
  31   2.0000      -0.743906       -20.2427
  32   2.0000      -0.698941       -19.0191
  33   2.0000      -0.624181       -16.9848
  34   2.0000      -0.620133       -16.8747
  35   2.0000      -0.617689       -16.8082
  36   2.0000      -0.615562       -16.7503
  37   2.0000      -0.604553       -16.4507
  38   2.0000      -0.598229       -16.2786
  39   2.0000      -0.569246       -15.4900
  40   2.0000      -0.568240       -15.4626
  41   2.0000      -0.567059       -15.4305
  42   2.0000      -0.566813       -15.4238
  43   2.0000      -0.566353       -15.4113
  44   2.0000      -0.564837       -15.3700
  45   2.0000      -0.564620       -15.3641
  46   2.0000      -0.474540       -12.9129
  47   2.0000      -0.462507       -12.5854
  48   2.0000      -0.460423       -12.5287
  49   2.0000      -0.458873       -12.4866
  50   2.0000      -0.458053       -12.4642
  51   2.0000      -0.456265       -12.4156
  52   2.0000      -0.441600       -12.0166
  53   2.0000      -0.440870       -11.9967
  54   2.0000      -0.438738       -11.9387
  55   2.0000      -0.438118       -11.9218
  56   2.0000      -0.436717       -11.8837
  57   2.0000      -0.432855       -11.7786
  58   2.0000      -0.398913       -10.8550
  59   2.0000      -0.396208       -10.7814
  60   2.0000      -0.324240        -8.8230
  61   2.0000      -0.298841        -8.1319
  62   2.0000      -0.290240        -7.8978
  63   2.0000      -0.286104        -7.7853
  64   2.0000      -0.281570        -7.6619
  65   2.0000      -0.214003        -5.8233
  66   0.0000      -0.035813        -0.9745
  67   0.0000      -0.023516        -0.6399
  68   0.0000       0.024802         0.6749
  69   0.0000       0.036104         0.9824
  70   0.0000       0.046712         1.2711

MULLIKEN ATOMIC CHARGES
-----------------------
   0 Lu:    0.734598
   1 C :   -0.143820
   2 C :   -0.353714
   3 C :   -0.321615
   4 C :   -0.262260
   5 C :   -0.346026
   6 H :    0.250935
   7 H :    0.245118
   8 H :    0.237725
   9 H :    0.243671
  10 H :    0.251031
  11 C :   -0.275113
  12 C :   -0.317414
  13 C :   -0.373742
  14 C :   -0.309577
  15 H :    0.251550
  16 C :   -0.145572
  17 H :    0.236034
  18 H :    0.249964
  19 H :    0.243219
  20 H :    0.237630
  21 C :   -0.833949
  22 H :    0.233720
  23 H :    0.224846
  24 H :    0.231160
  25 C :   -0.932470
  26 H :    0.146087
  27 H :    0.189523
  28 H :    0.205023
  29 H :    0.203438
Sum of atomic charges:    0.0000000

LOEWDIN ATOMIC CHARGES
----------------------
   0 Lu:   -0.121813
   1 C :   -0.091604
   2 C :   -0.146436
   3 C :   -0.139798
   4 C :   -0.142736
   5 C :   -0.128168
   6 H :    0.162510
   7 H :    0.162070
   8 H :    0.155588
   9 H :    0.159321
  10 H :    0.162733
  11 C :   -0.141093
  12 C :   -0.121385
  13 C :   -0.152446
  14 C :   -0.142764
  15 H :    0.161862
  16 C :   -0.097891
  17 H :    0.158545
  18 H :    0.162369
  19 H :    0.158715
  20 H :    0.155625
  21 C :   -0.519876
  22 H :    0.132496
  23 H :    0.136386
  24 H :    0.131794
  25 C :   -0.618222
  26 H :    0.207534
  27 H :    0.121197
  28 H :    0.118689
  29 H :    0.116798

  Mayer bond orders larger than 0.100000
B(  0-Lu,  1-C ) :   0.2069 B(  0-Lu,  2-C ) :   0.2754 B(  0-Lu,  3-C ) :   0.3286
B(  0-Lu,  4-C ) :   0.3075 B(  0-Lu,  5-C ) :   0.2505 B(  0-Lu, 11-C ) :   0.2956
B(  0-Lu, 12-C ) :   0.2324 B(  0-Lu, 13-C ) :   0.2955 B(  0-Lu, 14-C ) :   0.3294
B(  0-Lu, 16-C ) :   0.2079 B(  0-Lu, 21-C ) :   0.2058 B(  0-Lu, 25-C ) :   0.5911
B(  0-Lu, 26-H ) :   0.2307 B(  1-C ,  2-C ) :   1.3046 B(  1-C ,  5-C ) :   1.3188
B(  1-C ,  8-H ) :   0.9216 B(  2-C ,  3-C ) :   1.2476 B(  2-C ,  9-H ) :   0.9191
B(  3-C ,  4-C ) :   1.2461 B(  3-C , 10-H ) :   0.9079 B(  4-C ,  5-C ) :   1.2564
B(  4-C ,  6-H ) :   0.9019 B(  5-C ,  7-H ) :   0.9225 B( 11-C , 12-C ) :   1.2736
B( 11-C , 14-C ) :   1.2578 B( 11-C , 15-H ) :   0.9028 B( 12-C , 16-C ) :   1.3248
B( 12-C , 17-H ) :   0.9267 B( 13-C , 14-C ) :   1.2323 B( 13-C , 16-C ) :   1.2950
B( 13-C , 19-H ) :   0.9183 B( 14-C , 18-H ) :   0.9060 B( 16-C , 20-H ) :   0.9197
B( 21-C , 22-H ) :   0.9109 B( 21-C , 23-H ) :   0.9196 B( 21-C , 24-H ) :   0.9172
B( 21-C , 25-C ) :   0.1463 B( 21-C , 26-H ) :   0.6042 B( 25-C , 26-H ) :   0.1337
B( 25-C , 27-H ) :   0.9090 B( 25-C , 28-H ) :   0.9276 B( 25-C , 29-H ) :   0.9233

Dispersion correction           -0.017476915
FINAL SINGLE POINT ENERGY     -1702.213843220771
Dispersion correction            ... done

DIPOLE MOMENT
-------------
                                X             Y             Z
Electronic contribution:     13.92918      11.35708      -6.84552
Nuclear contribution   :    -13.09574     -11.73957       6.97863
                        -----------------------------------------
Total Dipole Moment    :      0.83344      -0.38250       0.13311
                        -----------------------------------------
Magnitude (a.u.)       :      0.92663
Magnitude (Debye)      :      2.35531

Rotational constants in cm-1:     0.026845     0.019046     0.016870
Rotational constants in MHz :   804.780185   570.981320   505.750193

                             ****ORCA TERMINATED NORMALLY****
TOTAL RUN TIME: 0 days 0 hours 9 minutes 24 seconds 454 msec
