                         Program Version 5.0.3 -  RELEASE  -
|  1> ! EnGrad PBEh-3c
|  2> %output
|  3> xyzfile=True
|  4> end
|  5> %scf
|  6> maxiter 250
|  7> end
|  8> %output
|  9> Print[P_Hirshfeld] = 1
| 10> end
| 11> % maxcore
| 12> 4000
| 13> *xyz 0 1
| 14> Lu  -0.04547154   0.16828948  -0.03681470
| 15> C    0.43458290   0.79436683   2.49688557
| 16> C    1.42436765  -0.17256583   2.18239258
| 17> C    2.29058068   0.39321554   1.23151875
| 18> C    1.81874496   1.68087295   0.91291795
| 19> C    0.65964007   1.92611453   1.68757495
| 20> H    2.30656644   2.38702438   0.25536958
| 21> H    0.11583477   2.85851880   1.73321902
| 22> H   -0.35080927   0.68063316   3.23014741
| 23> H    1.57197531  -1.12260898   2.68042321
| 24> H    3.21794449  -0.04481057   0.88355306
| 25> C    0.89885179  -0.07202383  -2.40760899
| 26> C   -0.36675558  -0.70245090  -2.42982223
| 27> C    1.05233538  -1.98987976  -1.18238964
| 28> C    1.77281025  -0.87817310  -1.65273695
| 29> H    1.17560349   0.82634281  -2.94026036
| 30> C   -0.26804747  -1.89500644  -1.68540478
| 31> H   -1.23267041  -0.36126053  -2.97455474
| 32> H    2.83792577  -0.72390908  -1.54656256
| 33> H    1.47926579  -2.83605639  -0.65698935
| 34> H   -1.06147936  -2.60939858  -1.51991004
| 35> C   -2.31211901  -1.34757760   1.16651140
| 36> H   -2.22313488  -1.19033169   2.22942348
| 37> H   -1.75140710  -2.22744278   0.86774577
| 38> H   -3.45318714  -1.55880615   0.93149228
| 39> C   -1.81748796   1.81858454  -0.81981258
| 40> H   -2.21070600  -0.31106770   0.57705359
| 41> H   -1.05861540   2.48009044  -1.27520154
| 42> H   -2.44836200   2.53445188  -0.26149691
| 43> H   -2.44954097   1.53636621  -1.68035667
| 44> *
| 45>
| 46>                          ****END OF INPUT****

CARTESIAN COORDINATES (ANGSTROEM)
---------------------------------
  Lu    -0.045472    0.168289   -0.036815
  C      0.434583    0.794367    2.496886
  C      1.424368   -0.172566    2.182393
  C      2.290581    0.393216    1.231519
  C      1.818745    1.680873    0.912918
  C      0.659640    1.926115    1.687575
  H      2.306566    2.387024    0.255370
  H      0.115835    2.858519    1.733219
  H     -0.350809    0.680633    3.230147
  H      1.571975   -1.122609    2.680423
  H      3.217944   -0.044811    0.883553
  C      0.898852   -0.072024   -2.407609
  C     -0.366756   -0.702451   -2.429822
  C      1.052335   -1.989880   -1.182390
  C      1.772810   -0.878173   -1.652737
  H      1.175603    0.826343   -2.940260
  C     -0.268047   -1.895006   -1.685405
  H     -1.232670   -0.361261   -2.974555
  H      2.837926   -0.723909   -1.546563
  H      1.479266   -2.836056   -0.656989
  H     -1.061479   -2.609399   -1.519910
  C     -2.312119   -1.347578    1.166511
  H     -2.223135   -1.190332    2.229423
  H     -1.751407   -2.227443    0.867746
  H     -3.453187   -1.558806    0.931492
  C     -1.817488    1.818585   -0.819813
  H     -2.210706   -0.311068    0.577054
  H     -1.058615    2.480090   -1.275202
  H     -2.448362    2.534452   -0.261497
  H     -2.449541    1.536366   -1.680357

 Total Charge           Charge          ....    0
 Multiplicity           Mult            ....    1
 Number of Electrons    NEL             ....  132
 Basis Dimension        Dim             ....  295

ORBITAL ENERGIES
----------------

  NO   OCC          E(Eh)            E(eV)
   0   2.0000     -19.257094      -524.0122
   1   2.0000     -12.629254      -343.6595
   2   2.0000     -12.627339      -343.6074
   3   2.0000     -12.626850      -343.5941
   4   2.0000     -10.469418      -284.8874
   5   2.0000     -10.446926      -284.2753
   6   2.0000     -10.446614      -284.2668
   7   2.0000     -10.446391      -284.2607
   8   2.0000     -10.445888      -284.2471
   9   2.0000     -10.445583      -284.2388
  10   2.0000     -10.444922      -284.2208
  11   2.0000     -10.443016      -284.1689
  12   2.0000     -10.441716      -284.1335
  13   2.0000     -10.441413      -284.1253
  14   2.0000     -10.440122      -284.0902
  15   2.0000     -10.365988      -282.0729
  16   2.0000      -5.898483      -160.5059
  17   2.0000      -5.898274      -160.5002
  18   2.0000      -5.897713      -160.4849
  19   2.0000      -5.896686      -160.4570
  20   2.0000      -5.896511      -160.4522
  21   2.0000      -2.440147       -66.3998
  22   2.0000      -1.277878       -34.7728
  23   2.0000      -1.277171       -34.7536
  24   2.0000      -1.266221       -34.4556
  25   2.0000      -0.977961       -26.6117
  26   2.0000      -0.969833       -26.3905
  27   2.0000      -0.802641       -21.8410
  28   2.0000      -0.794280       -21.6134
  29   2.0000      -0.791065       -21.5260
  30   2.0000      -0.790577       -21.5127
  31   2.0000      -0.788777       -21.4637
  32   2.0000      -0.693775       -18.8786
  33   2.0000      -0.613421       -16.6920
  34   2.0000      -0.611850       -16.6493
  35   2.0000      -0.609740       -16.5919
  36   2.0000      -0.606478       -16.5031
  37   2.0000      -0.595138       -16.1945
  38   2.0000      -0.590122       -16.0580
  39   2.0000      -0.565791       -15.3959
  40   2.0000      -0.565052       -15.3759
  41   2.0000      -0.564842       -15.3701
  42   2.0000      -0.563788       -15.3415
  43   2.0000      -0.563312       -15.3285
  44   2.0000      -0.562492       -15.3062
  45   2.0000      -0.560840       -15.2612
  46   2.0000      -0.498702       -13.5704
  47   2.0000      -0.484283       -13.1780
  48   2.0000      -0.467611       -12.7243
  49   2.0000      -0.454716       -12.3734
  50   2.0000      -0.450257       -12.2521
  51   2.0000      -0.449458       -12.2304
  52   2.0000      -0.448828       -12.2132
  53   2.0000      -0.444823       -12.1043
  54   2.0000      -0.432360       -11.7651
  55   2.0000      -0.431524       -11.7424
  56   2.0000      -0.429767       -11.6945
  57   2.0000      -0.428787       -11.6679
  58   2.0000      -0.426559       -11.6073
  59   2.0000      -0.383839       -10.4448
  60   2.0000      -0.378759       -10.3066
  61   2.0000      -0.293975        -7.9995
  62   2.0000      -0.281373        -7.6566
  63   2.0000      -0.279357        -7.6017
  64   2.0000      -0.260388        -7.0855
  65   2.0000      -0.245326        -6.6756
  66   0.0000      -0.012752        -0.3470
  67   0.0000       0.021256         0.5784
  68   0.0000       0.040465         1.1011
  69   0.0000       0.054585         1.4853
  70   0.0000       0.058528         1.5926

MULLIKEN ATOMIC CHARGES
-----------------------
   0 Lu:    0.743875
   1 C :   -0.254674
   2 C :   -0.315514
   3 C :   -0.240604
   4 C :   -0.303089
   5 C :   -0.301322
   6 H :    0.242332
   7 H :    0.248378
   8 H :    0.233926
   9 H :    0.230693
  10 H :    0.228656
  11 C :   -0.311064
  12 C :   -0.277186
  13 C :   -0.305318
  14 C :   -0.248544
  15 H :    0.245056
  16 C :   -0.261474
  17 H :    0.247401
  18 H :    0.229666
  19 H :    0.228469
  20 H :    0.231443
  21 C :   -0.965517
  22 H :    0.274720
  23 H :    0.261470
  24 H :    0.255879
  25 C :   -1.017639
  26 H :    0.292513
  27 H :    0.198866
  28 H :    0.206791
  29 H :    0.201812
Sum of atomic charges:   -0.0000000

LOEWDIN ATOMIC CHARGES
----------------------
   0 Lu:   -0.080234
   1 C :   -0.142516
   2 C :   -0.153438
   3 C :   -0.123366
   4 C :   -0.146842
   5 C :   -0.135572
   6 H :    0.157017
   7 H :    0.162554
   8 H :    0.151721
   9 H :    0.150798
  10 H :    0.149952
  11 C :   -0.144542
  12 C :   -0.130779
  13 C :   -0.150252
  14 C :   -0.125396
  15 H :    0.158505
  16 C :   -0.145299
  17 H :    0.161628
  18 H :    0.150192
  19 H :    0.150816
  20 H :    0.149520
  21 C :   -0.479964
  22 H :    0.150745
  23 H :    0.161288
  24 H :    0.159073
  25 C :   -0.649731
  26 H :    0.218383
  27 H :    0.134364
  28 H :    0.121668
  29 H :    0.119708

  Mayer bond orders larger than 0.100000
B(  0-Lu,  1-C ) :   0.2602 B(  0-Lu,  2-C ) :   0.2605 B(  0-Lu,  3-C ) :   0.2410
B(  0-Lu,  4-C ) :   0.2900 B(  0-Lu,  5-C ) :   0.2555 B(  0-Lu, 11-C ) :   0.2931
B(  0-Lu, 12-C ) :   0.2494 B(  0-Lu, 13-C ) :   0.2611 B(  0-Lu, 14-C ) :   0.2534
B(  0-Lu, 16-C ) :   0.2663 B(  0-Lu, 21-C ) :   0.1756 B(  0-Lu, 25-C ) :   0.7965
B(  1-C ,  2-C ) :   1.2705 B(  1-C ,  5-C ) :   1.3044 B(  1-C ,  8-H ) :   0.9166
B(  2-C ,  3-C ) :   1.3135 B(  2-C ,  9-H ) :   0.9217 B(  3-C ,  4-C ) :   1.2908
B(  3-C , 10-H ) :   0.9225 B(  4-C ,  5-C ) :   1.2666 B(  4-C ,  6-H ) :   0.9157
B(  5-C ,  7-H ) :   0.9176 B( 11-C , 12-C ) :   1.2733 B( 11-C , 14-C ) :   1.2872
B( 11-C , 15-H ) :   0.9144 B( 12-C , 16-C ) :   1.3051 B( 12-C , 17-H ) :   0.9147
B( 13-C , 14-C ) :   1.3041 B( 13-C , 16-C ) :   1.2713 B( 13-C , 19-H ) :   0.9242
B( 14-C , 18-H ) :   0.9222 B( 16-C , 20-H ) :   0.9159 B( 21-C , 22-H ) :   0.8895
B( 21-C , 23-H ) :   0.8843 B( 21-C , 24-H ) :   0.9105 B( 21-C , 26-H ) :   0.7722
B( 25-C , 27-H ) :   0.8873 B( 25-C , 28-H ) :   0.9220 B( 25-C , 29-H ) :   0.9157

Dispersion correction           -0.017711435
FINAL SINGLE POINT ENERGY     -1702.361945172481
Dispersion correction            ... done

DIPOLE MOMENT
-------------
                                X             Y             Z
Electronic contribution:     -9.34917       7.94471      -0.61223
Nuclear contribution   :      9.45200      -8.88599       1.18213
                        -----------------------------------------
Total Dipole Moment    :      0.10283      -0.94128       0.56990
                        -----------------------------------------
Magnitude (a.u.)       :      1.10515
Magnitude (Debye)      :      2.80907

Rotational constants in cm-1:     0.028806     0.020445     0.017792
Rotational constants in MHz :   863.580374   612.932161   533.389514

                             ****ORCA TERMINATED NORMALLY****
TOTAL RUN TIME: 0 days 0 hours 10 minutes 30 seconds 545 msec
