                         Program Version 5.0.3 -  RELEASE  -
|  1> ! EnGrad PBEh-3c
|  2> %output
|  3> xyzfile=True
|  4> end
|  5> %scf
|  6> maxiter 250
|  7> end
|  8> %output
|  9> Print[P_Hirshfeld] = 1
| 10> end
| 11> % maxcore
| 12> 4000
| 13> *xyz 0 1
| 14> Lu   0.22678870   0.25248275  -0.14859878
| 15> C    0.44971506   0.90163748   2.46576183
| 16> C    1.38432505  -0.09877751   2.19862895
| 17> C    2.34876089   0.43776026   1.29177362
| 18> C    1.94519814   1.74441273   0.98103688
| 19> C    0.75547236   2.03707801   1.69526516
| 20> H    2.46031132   2.43417283   0.31743566
| 21> H    0.19205435   2.95254070   1.66161434
| 22> H   -0.29095408   0.87402469   3.27116746
| 23> H    1.40366270  -1.08364030   2.63797029
| 24> H    3.21567653  -0.07293336   0.92971009
| 25> C    1.00543083  -0.10758032  -2.53398108
| 26> C   -0.29153158  -0.67775655  -2.55197367
| 27> C    1.04549160  -1.98393147  -1.24035479
| 28> C    1.83902691  -0.91494505  -1.75000730
| 29> H    1.28236886   0.81140627  -3.05121057
| 30> C   -0.24274780  -1.84149463  -1.77224343
| 31> H   -1.13924233  -0.31945777  -3.10567169
| 32> H    2.88464737  -0.77059027  -1.55118291
| 33> H    1.38612640  -2.79183016  -0.62048569
| 34> H   -1.04341843  -2.58486552  -1.70130132
| 35> C   -2.49808422  -1.61141484   1.30630947
| 36> H   -2.29902487  -1.51834389   2.45583430
| 37> H   -2.33862679  -2.77857689   1.10813045
| 38> H   -3.39695444  -1.40347041   1.07255589
| 39> C   -1.90414719   1.84995710  -0.80990784
| 40> H   -1.99732611  -0.24308997   0.51092123
| 41> H   -1.26932504   2.59882245  -1.34710617
| 42> H   -2.54606562   2.47778837  -0.14376837
| 43> H   -2.57256169   1.43048252  -1.57589705
| 44> *
| 45>
| 46>                          ****END OF INPUT****

CARTESIAN COORDINATES (ANGSTROEM)
---------------------------------
  Lu     0.226789    0.252483   -0.148599
  C      0.449715    0.901637    2.465762
  C      1.384325   -0.098778    2.198629
  C      2.348761    0.437760    1.291774
  C      1.945198    1.744413    0.981037
  C      0.755472    2.037078    1.695265
  H      2.460311    2.434173    0.317436
  H      0.192054    2.952541    1.661614
  H     -0.290954    0.874025    3.271167
  H      1.403663   -1.083640    2.637970
  H      3.215677   -0.072933    0.929710
  C      1.005431   -0.107580   -2.533981
  C     -0.291532   -0.677757   -2.551974
  C      1.045492   -1.983931   -1.240355
  C      1.839027   -0.914945   -1.750007
  H      1.282369    0.811406   -3.051211
  C     -0.242748   -1.841495   -1.772243
  H     -1.139242   -0.319458   -3.105672
  H      2.884647   -0.770590   -1.551183
  H      1.386126   -2.791830   -0.620486
  H     -1.043418   -2.584866   -1.701301
  C     -2.498084   -1.611415    1.306309
  H     -2.299025   -1.518344    2.455834
  H     -2.338627   -2.778577    1.108130
  H     -3.396954   -1.403470    1.072556
  C     -1.904147    1.849957   -0.809908
  H     -1.997326   -0.243090    0.510921
  H     -1.269325    2.598822   -1.347106
  H     -2.546066    2.477788   -0.143768
  H     -2.572562    1.430483   -1.575897

 Total Charge           Charge          ....    0
 Multiplicity           Mult            ....    1
 Number of Electrons    NEL             ....  132
 Basis Dimension        Dim             ....  295

ORBITAL ENERGIES
----------------

  NO   OCC          E(Eh)            E(eV)
   0   2.0000     -19.264786      -524.2215
   1   2.0000     -12.637086      -343.8726
   2   2.0000     -12.634805      -343.8105
   3   2.0000     -12.634703      -343.8078
   4   2.0000     -10.472797      -284.9793
   5   2.0000     -10.450765      -284.3798
   6   2.0000     -10.450573      -284.3745
   7   2.0000     -10.449158      -284.3361
   8   2.0000     -10.449041      -284.3329
   9   2.0000     -10.448749      -284.3249
  10   2.0000     -10.448334      -284.3136
  11   2.0000     -10.448289      -284.3124
  12   2.0000     -10.447432      -284.2891
  13   2.0000     -10.445534      -284.2374
  14   2.0000     -10.444054      -284.1972
  15   2.0000     -10.383232      -282.5421
  16   2.0000      -5.906234      -160.7168
  17   2.0000      -5.905934      -160.7086
  18   2.0000      -5.905643      -160.7007
  19   2.0000      -5.904318      -160.6647
  20   2.0000      -5.904208      -160.6617
  21   2.0000      -2.447820       -66.6086
  22   2.0000      -1.284709       -34.9587
  23   2.0000      -1.284249       -34.9462
  24   2.0000      -1.274243       -34.6739
  25   2.0000      -0.984085       -26.7783
  26   2.0000      -0.975288       -26.5389
  27   2.0000      -0.798855       -21.7380
  28   2.0000      -0.798097       -21.7173
  29   2.0000      -0.794740       -21.6260
  30   2.0000      -0.793378       -21.5889
  31   2.0000      -0.769889       -20.9497
  32   2.0000      -0.692649       -18.8479
  33   2.0000      -0.620194       -16.8763
  34   2.0000      -0.615551       -16.7500
  35   2.0000      -0.611979       -16.6528
  36   2.0000      -0.610535       -16.6135
  37   2.0000      -0.599563       -16.3149
  38   2.0000      -0.594691       -16.1824
  39   2.0000      -0.573763       -15.6129
  40   2.0000      -0.572715       -15.5844
  41   2.0000      -0.571693       -15.5566
  42   2.0000      -0.571336       -15.5468
  43   2.0000      -0.571253       -15.5446
  44   2.0000      -0.569839       -15.5061
  45   2.0000      -0.568596       -15.4723
  46   2.0000      -0.482662       -13.1339
  47   2.0000      -0.471262       -12.8237
  48   2.0000      -0.457494       -12.4490
  49   2.0000      -0.455567       -12.3966
  50   2.0000      -0.453787       -12.3482
  51   2.0000      -0.452959       -12.3256
  52   2.0000      -0.439042       -11.9469
  53   2.0000      -0.435834       -11.8596
  54   2.0000      -0.435398       -11.8478
  55   2.0000      -0.433849       -11.8056
  56   2.0000      -0.432448       -11.7675
  57   2.0000      -0.427782       -11.6405
  58   2.0000      -0.394119       -10.7245
  59   2.0000      -0.385508       -10.4902
  60   2.0000      -0.372305       -10.1309
  61   2.0000      -0.291857        -7.9418
  62   2.0000      -0.289138        -7.8678
  63   2.0000      -0.282309        -7.6820
  64   2.0000      -0.273155        -7.4329
  65   2.0000      -0.234094        -6.3700
  66   0.0000      -0.025485        -0.6935
  67   0.0000      -0.020480        -0.5573
  68   0.0000       0.039104         1.0641
  69   0.0000       0.043902         1.1946
  70   0.0000       0.050396         1.3714

MULLIKEN ATOMIC CHARGES
-----------------------
   0 Lu:    0.731463
   1 C :   -0.262283
   2 C :   -0.299981
   3 C :   -0.277867
   4 C :   -0.328267
   5 C :   -0.261713
   6 H :    0.247754
   7 H :    0.254134
   8 H :    0.230464
   9 H :    0.239792
  10 H :    0.239884
  11 C :   -0.320058
  12 C :   -0.258716
  13 C :   -0.309440
  14 C :   -0.279591
  15 H :    0.249440
  16 C :   -0.248593
  17 H :    0.245773
  18 H :    0.240712
  19 H :    0.239303
  20 H :    0.230394
  21 C :   -0.830863
  22 H :    0.217737
  23 H :    0.211801
  24 H :    0.293592
  25 C :   -0.961355
  26 H :    0.173628
  27 H :    0.187651
  28 H :    0.201343
  29 H :    0.203863
Sum of atomic charges:   -0.0000000

LOEWDIN ATOMIC CHARGES
----------------------
   0 Lu:   -0.067187
   1 C :   -0.124986
   2 C :   -0.151031
   3 C :   -0.135473
   4 C :   -0.152191
   5 C :   -0.132817
   6 H :    0.158478
   7 H :    0.162379
   8 H :    0.154486
   9 H :    0.153947
  10 H :    0.155044
  11 C :   -0.149041
  12 C :   -0.127865
  13 C :   -0.151435
  14 C :   -0.136399
  15 H :    0.159732
  16 C :   -0.124524
  17 H :    0.160275
  18 H :    0.155646
  19 H :    0.154155
  20 H :    0.153881
  21 C :   -0.471318
  22 H :    0.137988
  23 H :    0.143102
  24 H :    0.128262
  25 C :   -0.631762
  26 H :    0.216593
  27 H :    0.124375
  28 H :    0.119614
  29 H :    0.118072

  Mayer bond orders larger than 0.100000
B(  0-Lu,  1-C ) :   0.2373 B(  0-Lu,  2-C ) :   0.2662 B(  0-Lu,  3-C ) :   0.2850
B(  0-Lu,  4-C ) :   0.3006 B(  0-Lu,  5-C ) :   0.2447 B(  0-Lu, 11-C ) :   0.2971
B(  0-Lu, 12-C ) :   0.2392 B(  0-Lu, 13-C ) :   0.2779 B(  0-Lu, 14-C ) :   0.2910
B(  0-Lu, 16-C ) :   0.2416 B(  0-Lu, 21-C ) :   0.1793 B(  0-Lu, 25-C ) :   0.7056
B(  0-Lu, 26-H ) :   0.1845 B(  1-C ,  2-C ) :   1.2974 B(  1-C ,  5-C ) :   1.3161
B(  1-C ,  8-H ) :   0.9274 B(  2-C ,  3-C ) :   1.2774 B(  2-C ,  9-H ) :   0.9152
B(  3-C ,  4-C ) :   1.2733 B(  3-C , 10-H ) :   0.9149 B(  4-C ,  5-C ) :   1.2704
B(  4-C ,  6-H ) :   0.9089 B(  5-C ,  7-H ) :   0.9098 B( 11-C , 12-C ) :   1.2756
B( 11-C , 14-C ) :   1.2762 B( 11-C , 15-H ) :   0.9067 B( 12-C , 16-C ) :   1.3171
B( 12-C , 17-H ) :   0.9162 B( 13-C , 14-C ) :   1.2668 B( 13-C , 16-C ) :   1.2921
B( 13-C , 19-H ) :   0.9166 B( 14-C , 18-H ) :   0.9134 B( 16-C , 20-H ) :   0.9249
B( 21-C , 22-H ) :   0.9230 B( 21-C , 23-H ) :   0.9282 B( 21-C , 24-H ) :   0.8715
B( 21-C , 26-H ) :   0.7078 B( 25-C , 27-H ) :   0.9020 B( 25-C , 28-H ) :   0.9255
B( 25-C , 29-H ) :   0.9171

Dispersion correction           -0.017170284
FINAL SINGLE POINT ENERGY     -1702.247438980939
Dispersion correction            ... done

DIPOLE MOMENT
-------------
                                X             Y             Z
Electronic contribution:      4.18704      12.19927      -6.12889
Nuclear contribution   :     -3.76905     -12.88609       6.45855
                        -----------------------------------------
Total Dipole Moment    :      0.41799      -0.68682       0.32966
                        -----------------------------------------
Magnitude (a.u.)       :      0.86897
Magnitude (Debye)      :      2.20875

Rotational constants in cm-1:     0.026986     0.019133     0.016753
Rotational constants in MHz :   809.005918   573.593130   502.237682

                             ****ORCA TERMINATED NORMALLY****
TOTAL RUN TIME: 0 days 0 hours 9 minutes 7 seconds 477 msec
