                         Program Version 5.0.3 -  RELEASE  -
|  1> ! EnGrad PBEh-3c
|  2> %output
|  3> xyzfile=True
|  4> end
|  5> %scf
|  6> maxiter 250
|  7> end
|  8> %output
|  9> Print[P_Hirshfeld] = 1
| 10> end
| 11> % maxcore
| 12> 4000
| 13> *xyz 0 1
| 14> Lu   0.06866377   0.26480187  -0.13330956
| 15> C    0.42770376   0.89234837   2.45584594
| 16> C    1.42025131  -0.09309843   2.20864524
| 17> C    2.34695068   0.43646295   1.30432485
| 18> C    1.93422757   1.74088280   0.96022888
| 19> C    0.77960103   2.04026323   1.71926319
| 20> H    2.45469439   2.43138390   0.31945516
| 21> H    0.18885724   2.94801417   1.66372629
| 22> H   -0.29857720   0.85963792   3.24676602
| 23> H    1.41218138  -1.08524772   2.63849221
| 24> H    3.22283178  -0.07461949   0.92811266
| 25> C    0.99982196  -0.09438906  -2.52563497
| 26> C   -0.27917714  -0.69094490  -2.56612093
| 27> C    1.06670287  -1.98897111  -1.26272419
| 28> C    1.83795356  -0.92515251  -1.74624777
| 29> H    1.27982477   0.80452243  -3.04791390
| 30> C   -0.25407915  -1.83974440  -1.75156495
| 31> H   -1.14612146  -0.31571608  -3.09522839
| 32> H    2.88831858  -0.76831071  -1.55438652
| 33> H    1.39323092  -2.79548504  -0.61976668
| 34> H   -1.04047616  -2.56967916  -1.68256119
| 35> C   -2.38726306  -1.55333761   1.29358731
| 36> H   -2.29277741  -1.50159869   2.40909774
| 37> H   -2.28273419  -2.70721726   1.09083905
| 38> H   -3.51236079  -1.38999991   1.05696993
| 39> C   -1.87129471   1.82725361  -0.79830278
| 40> H   -2.01888956  -0.34107977   0.56033447
| 41> H   -1.25748272   2.59154836  -1.34624861
| 42> H   -2.52828229   2.46290244  -0.15003479
| 43> H   -2.56177312   1.43546232  -1.57516450
| 44> *
| 45>
| 46>                          ****END OF INPUT****

CARTESIAN COORDINATES (ANGSTROEM)
---------------------------------
  Lu     0.068664    0.264802   -0.133310
  C      0.427704    0.892348    2.455846
  C      1.420251   -0.093098    2.208645
  C      2.346951    0.436463    1.304325
  C      1.934228    1.740883    0.960229
  C      0.779601    2.040263    1.719263
  H      2.454694    2.431384    0.319455
  H      0.188857    2.948014    1.663726
  H     -0.298577    0.859638    3.246766
  H      1.412181   -1.085248    2.638492
  H      3.222832   -0.074619    0.928113
  C      0.999822   -0.094389   -2.525635
  C     -0.279177   -0.690945   -2.566121
  C      1.066703   -1.988971   -1.262724
  C      1.837954   -0.925153   -1.746248
  H      1.279825    0.804522   -3.047914
  C     -0.254079   -1.839744   -1.751565
  H     -1.146121   -0.315716   -3.095228
  H      2.888319   -0.768311   -1.554387
  H      1.393231   -2.795485   -0.619767
  H     -1.040476   -2.569679   -1.682561
  C     -2.387263   -1.553338    1.293587
  H     -2.292777   -1.501599    2.409098
  H     -2.282734   -2.707217    1.090839
  H     -3.512361   -1.390000    1.056970
  C     -1.871295    1.827254   -0.798303
  H     -2.018890   -0.341080    0.560334
  H     -1.257483    2.591548   -1.346249
  H     -2.528282    2.462902   -0.150035
  H     -2.561773    1.435462   -1.575165

 Total Charge           Charge          ....    0
 Multiplicity           Mult            ....    1
 Number of Electrons    NEL             ....  132
 Basis Dimension        Dim             ....  295

ORBITAL ENERGIES
----------------

  NO   OCC          E(Eh)            E(eV)
   0   2.0000     -19.267779      -524.3029
   1   2.0000     -12.640011      -343.9522
   2   2.0000     -12.637911      -343.8950
   3   2.0000     -12.637739      -343.8904
   4   2.0000     -10.494421      -285.5677
   5   2.0000     -10.447442      -284.2894
   6   2.0000     -10.446719      -284.2697
   7   2.0000     -10.445747      -284.2432
   8   2.0000     -10.445072      -284.2249
   9   2.0000     -10.443614      -284.1852
  10   2.0000     -10.443484      -284.1817
  11   2.0000     -10.443416      -284.1798
  12   2.0000     -10.442674      -284.1596
  13   2.0000     -10.442452      -284.1536
  14   2.0000     -10.441695      -284.1330
  15   2.0000     -10.381406      -282.4924
  16   2.0000      -5.909250      -160.7989
  17   2.0000      -5.908979      -160.7915
  18   2.0000      -5.908653      -160.7826
  19   2.0000      -5.907472      -160.7505
  20   2.0000      -5.907296      -160.7457
  21   2.0000      -2.450501       -66.6815
  22   2.0000      -1.286727       -35.0136
  23   2.0000      -1.284455       -34.9518
  24   2.0000      -1.275872       -34.7182
  25   2.0000      -0.977878       -26.6094
  26   2.0000      -0.971126       -26.4257
  27   2.0000      -0.793704       -21.5978
  28   2.0000      -0.791335       -21.5333
  29   2.0000      -0.790286       -21.5048
  30   2.0000      -0.789635       -21.4871
  31   2.0000      -0.770522       -20.9670
  32   2.0000      -0.696296       -18.9472
  33   2.0000      -0.614388       -16.7183
  34   2.0000      -0.610555       -16.6140
  35   2.0000      -0.609240       -16.5783
  36   2.0000      -0.608021       -16.5451
  37   2.0000      -0.595281       -16.1984
  38   2.0000      -0.590240       -16.0612
  39   2.0000      -0.576580       -15.6896
  40   2.0000      -0.575739       -15.6667
  41   2.0000      -0.574981       -15.6460
  42   2.0000      -0.574537       -15.6339
  43   2.0000      -0.574146       -15.6233
  44   2.0000      -0.573106       -15.5950
  45   2.0000      -0.571514       -15.5517
  46   2.0000      -0.475972       -12.9519
  47   2.0000      -0.464919       -12.6511
  48   2.0000      -0.455822       -12.4036
  49   2.0000      -0.451431       -12.2841
  50   2.0000      -0.450129       -12.2486
  51   2.0000      -0.448824       -12.2131
  52   2.0000      -0.447208       -12.1691
  53   2.0000      -0.437231       -11.8977
  54   2.0000      -0.432672       -11.7736
  55   2.0000      -0.429323       -11.6825
  56   2.0000      -0.426351       -11.6016
  57   2.0000      -0.425588       -11.5808
  58   2.0000      -0.410212       -11.1624
  59   2.0000      -0.387398       -10.5416
  60   2.0000      -0.384158       -10.4535
  61   2.0000      -0.289158        -7.8684
  62   2.0000      -0.283009        -7.7011
  63   2.0000      -0.277332        -7.5466
  64   2.0000      -0.264483        -7.1969
  65   2.0000      -0.253334        -6.8936
  66   0.0000      -0.016279        -0.4430
  67   0.0000      -0.015516        -0.4222
  68   0.0000       0.042077         1.1450
  69   0.0000       0.049221         1.3394
  70   0.0000       0.056781         1.5451

MULLIKEN ATOMIC CHARGES
-----------------------
   0 Lu:    0.782524
   1 C :   -0.349861
   2 C :   -0.265140
   3 C :   -0.248228
   4 C :   -0.373640
   5 C :   -0.210416
   6 H :    0.242910
   7 H :    0.253574
   8 H :    0.228548
   9 H :    0.235517
  10 H :    0.231423
  11 C :   -0.349653
  12 C :   -0.225388
  13 C :   -0.262455
  14 C :   -0.263267
  15 H :    0.246820
  16 C :   -0.329306
  17 H :    0.248751
  18 H :    0.233408
  19 H :    0.235136
  20 H :    0.228749
  21 C :   -0.859597
  22 H :    0.253188
  23 H :    0.242307
  24 H :    0.248017
  25 C :   -1.001871
  26 H :    0.214595
  27 H :    0.197841
  28 H :    0.208566
  29 H :    0.206946
Sum of atomic charges:   -0.0000000

LOEWDIN ATOMIC CHARGES
----------------------
   0 Lu:   -0.019273
   1 C :   -0.156282
   2 C :   -0.150734
   3 C :   -0.133098
   4 C :   -0.164955
   5 C :   -0.129350
   6 H :    0.155741
   7 H :    0.160108
   8 H :    0.152618
   9 H :    0.150070
  10 H :    0.150376
  11 C :   -0.158431
  12 C :   -0.128619
  13 C :   -0.146720
  14 C :   -0.134524
  15 H :    0.157582
  16 C :   -0.151949
  17 H :    0.159424
  18 H :    0.151402
  19 H :    0.150760
  20 H :    0.152180
  21 C :   -0.478155
  22 H :    0.144833
  23 H :    0.154641
  24 H :    0.144721
  25 C :   -0.639552
  26 H :    0.227418
  27 H :    0.132640
  28 H :    0.124341
  29 H :    0.122790

  Mayer bond orders larger than 0.100000
B(  0-Lu,  1-C ) :   0.2626 B(  0-Lu,  2-C ) :   0.2456 B(  0-Lu,  3-C ) :   0.2406
B(  0-Lu,  4-C ) :   0.2931 B(  0-Lu,  5-C ) :   0.2312 B(  0-Lu, 11-C ) :   0.2952
B(  0-Lu, 12-C ) :   0.2361 B(  0-Lu, 13-C ) :   0.2484 B(  0-Lu, 14-C ) :   0.2528
B(  0-Lu, 16-C ) :   0.2693 B(  0-Lu, 21-C ) :   0.1696 B(  0-Lu, 25-C ) :   0.7766
B(  0-Lu, 26-H ) :   0.1405 B(  1-C ,  2-C ) :   1.2685 B(  1-C ,  5-C ) :   1.3121
B(  1-C ,  8-H ) :   0.9296 B(  2-C ,  3-C ) :   1.3311 B(  2-C ,  9-H ) :   0.9132
B(  3-C ,  4-C ) :   1.2734 B(  3-C , 10-H ) :   0.9177 B(  4-C ,  5-C ) :   1.2807
B(  4-C ,  6-H ) :   0.9156 B(  5-C ,  7-H ) :   0.9045 B( 11-C , 12-C ) :   1.2854
B( 11-C , 14-C ) :   1.2731 B( 11-C , 15-H ) :   0.9113 B( 12-C , 16-C ) :   1.3042
B( 12-C , 17-H ) :   0.9098 B( 13-C , 14-C ) :   1.3185 B( 13-C , 16-C ) :   1.2749
B( 13-C , 19-H ) :   0.9151 B( 14-C , 18-H ) :   0.9173 B( 16-C , 20-H ) :   0.9271
B( 21-C , 22-H ) :   0.8982 B( 21-C , 23-H ) :   0.9081 B( 21-C , 24-H ) :   0.9047
B( 21-C , 26-H ) :   0.7584 B( 25-C , 27-H ) :   0.8947 B( 25-C , 28-H ) :   0.9206
B( 25-C , 29-H ) :   0.9121

Dispersion correction           -0.017048136
FINAL SINGLE POINT ENERGY     -1702.297955858206
Dispersion correction            ... done

DIPOLE MOMENT
-------------
                                X             Y             Z
Electronic contribution:     -4.29625      12.66115      -5.28629
Nuclear contribution   :      4.31977     -13.47564       5.71307
                        -----------------------------------------
Total Dipole Moment    :      0.02352      -0.81449       0.42678
                        -----------------------------------------
Magnitude (a.u.)       :      0.91983
Magnitude (Debye)      :      2.33802

Rotational constants in cm-1:     0.027190     0.019169     0.016789
Rotational constants in MHz :   815.123230   574.663585   503.325913

                             ****ORCA TERMINATED NORMALLY****
TOTAL RUN TIME: 0 days 0 hours 9 minutes 15 seconds 485 msec
