                         Program Version 5.0.3 -  RELEASE  -
|  1> ! EnGrad PBEh-3c
|  2> %output
|  3> xyzfile=True
|  4> end
|  5> %scf
|  6> maxiter 250
|  7> end
|  8> %output
|  9> Print[P_Hirshfeld] = 1
| 10> end
| 11> % maxcore
| 12> 4000
| 13> *xyz 0 1
| 14> Lu   0.06004223   0.25766052  -0.12511885
| 15> C    0.42744820   0.89179122   2.46344827
| 16> C    1.42406661  -0.09868387   2.20271061
| 17> C    2.33868872   0.42916436   1.30276859
| 18> C    1.92665315   1.74400524   0.95772851
| 19> C    0.77221839   2.02992506   1.71352243
| 20> H    2.44638884   2.42878427   0.31576686
| 21> H    0.18612392   2.94329807   1.66916018
| 22> H   -0.30014413   0.84862016   3.24355965
| 23> H    1.42206006  -1.08816337   2.64147212
| 24> H    3.22630246  -0.07326078   0.92578585
| 25> C    0.99120322  -0.09002675  -2.52380208
| 26> C   -0.28198965  -0.68950622  -2.55426836
| 27> C    1.06749585  -1.98568099  -1.25822191
| 28> C    1.83278975  -0.92559103  -1.73698187
| 29> H    1.27386885   0.80465914  -3.04103158
| 30> C   -0.25813994  -1.84690143  -1.75129049
| 31> H   -1.15042435  -0.31947869  -3.08972065
| 32> H    2.88814045  -0.76614087  -1.55503331
| 33> H    1.39978031  -2.79989842  -0.62178660
| 34> H   -1.03995443  -2.56921151  -1.67177680
| 35> C   -2.33272212  -1.56371172   1.30886017
| 36> H   -2.29104791  -1.48598619   2.37277328
| 37> H   -2.25618098  -2.66021443   1.08427099
| 38> H   -3.54146791  -1.38697966   1.03850131
| 39> C   -1.86849796   1.83803128  -0.80232036
| 40> H   -2.05043272  -0.35825410   0.57724681
| 41> H   -1.25119805   2.58386772  -1.34148231
| 42> H   -2.51836387   2.46563282  -0.16431345
| 43> H   -2.55234676   1.44471310  -1.58019590
| 44> *
| 45>
| 46>                          ****END OF INPUT****

CARTESIAN COORDINATES (ANGSTROEM)
---------------------------------
  Lu     0.060042    0.257661   -0.125119
  C      0.427448    0.891791    2.463448
  C      1.424067   -0.098684    2.202711
  C      2.338689    0.429164    1.302769
  C      1.926653    1.744005    0.957729
  C      0.772218    2.029925    1.713522
  H      2.446389    2.428784    0.315767
  H      0.186124    2.943298    1.669160
  H     -0.300144    0.848620    3.243560
  H      1.422060   -1.088163    2.641472
  H      3.226302   -0.073261    0.925786
  C      0.991203   -0.090027   -2.523802
  C     -0.281990   -0.689506   -2.554268
  C      1.067496   -1.985681   -1.258222
  C      1.832790   -0.925591   -1.736982
  H      1.273869    0.804659   -3.041032
  C     -0.258140   -1.846901   -1.751290
  H     -1.150424   -0.319479   -3.089721
  H      2.888140   -0.766141   -1.555033
  H      1.399780   -2.799898   -0.621787
  H     -1.039954   -2.569212   -1.671777
  C     -2.332722   -1.563712    1.308860
  H     -2.291048   -1.485986    2.372773
  H     -2.256181   -2.660214    1.084271
  H     -3.541468   -1.386980    1.038501
  C     -1.868498    1.838031   -0.802320
  H     -2.050433   -0.358254    0.577247
  H     -1.251198    2.583868   -1.341482
  H     -2.518364    2.465633   -0.164313
  H     -2.552347    1.444713   -1.580196

 Total Charge           Charge          ....    0
 Multiplicity           Mult            ....    1
 Number of Electrons    NEL             ....  132
 Basis Dimension        Dim             ....  295

ORBITAL ENERGIES
----------------

  NO   OCC          E(Eh)            E(eV)
   0   2.0000     -19.267038      -524.2828
   1   2.0000     -12.639247      -343.9314
   2   2.0000     -12.637179      -343.8751
   3   2.0000     -12.637012      -343.8706
   4   2.0000     -10.491909      -285.4994
   5   2.0000     -10.447441      -284.2893
   6   2.0000     -10.446905      -284.2747
   7   2.0000     -10.445896      -284.2473
   8   2.0000     -10.445011      -284.2232
   9   2.0000     -10.443382      -284.1789
  10   2.0000     -10.443362      -284.1783
  11   2.0000     -10.443058      -284.1701
  12   2.0000     -10.442415      -284.1526
  13   2.0000     -10.442342      -284.1506
  14   2.0000     -10.441482      -284.1272
  15   2.0000     -10.376847      -282.3684
  16   2.0000      -5.908495      -160.7783
  17   2.0000      -5.908229      -160.7711
  18   2.0000      -5.907904      -160.7623
  19   2.0000      -5.906748      -160.7308
  20   2.0000      -5.906570      -160.7259
  21   2.0000      -2.449764       -66.6615
  22   2.0000      -1.285873       -34.9904
  23   2.0000      -1.283892       -34.9365
  24   2.0000      -1.275136       -34.6982
  25   2.0000      -0.977678       -26.6040
  26   2.0000      -0.970922       -26.4201
  27   2.0000      -0.794367       -21.6158
  28   2.0000      -0.791734       -21.5442
  29   2.0000      -0.790537       -21.5116
  30   2.0000      -0.788372       -21.4527
  31   2.0000      -0.777136       -21.1470
  32   2.0000      -0.698216       -18.9994
  33   2.0000      -0.613905       -16.7052
  34   2.0000      -0.611058       -16.6277
  35   2.0000      -0.609583       -16.5876
  36   2.0000      -0.608313       -16.5531
  37   2.0000      -0.595115       -16.1939
  38   2.0000      -0.589966       -16.0538
  39   2.0000      -0.575816       -15.6687
  40   2.0000      -0.575007       -15.6467
  41   2.0000      -0.574302       -15.6276
  42   2.0000      -0.573787       -15.6135
  43   2.0000      -0.573410       -15.6033
  44   2.0000      -0.572408       -15.5760
  45   2.0000      -0.570783       -15.5318
  46   2.0000      -0.480637       -13.0788
  47   2.0000      -0.471718       -12.8361
  48   2.0000      -0.463926       -12.6241
  49   2.0000      -0.452263       -12.3067
  50   2.0000      -0.450780       -12.2663
  51   2.0000      -0.450074       -12.2471
  52   2.0000      -0.448275       -12.1982
  53   2.0000      -0.435915       -11.8618
  54   2.0000      -0.432215       -11.7612
  55   2.0000      -0.428796       -11.6681
  56   2.0000      -0.426105       -11.5949
  57   2.0000      -0.425054       -11.5663
  58   2.0000      -0.400887       -10.9087
  59   2.0000      -0.387994       -10.5579
  60   2.0000      -0.385874       -10.5002
  61   2.0000      -0.290217        -7.8972
  62   2.0000      -0.281922        -7.6715
  63   2.0000      -0.276511        -7.5242
  64   2.0000      -0.265022        -7.2116
  65   2.0000      -0.251591        -6.8461
  66   0.0000      -0.016274        -0.4428
  67   0.0000      -0.010999        -0.2993
  68   0.0000       0.041954         1.1416
  69   0.0000       0.050201         1.3661
  70   0.0000       0.057108         1.5540

MULLIKEN ATOMIC CHARGES
-----------------------
   0 Lu:    0.781832
   1 C :   -0.341171
   2 C :   -0.268538
   3 C :   -0.251250
   4 C :   -0.363886
   5 C :   -0.218713
   6 H :    0.242911
   7 H :    0.252854
   8 H :    0.229170
   9 H :    0.235096
  10 H :    0.230681
  11 C :   -0.341064
  12 C :   -0.234577
  13 C :   -0.266055
  14 C :   -0.266037
  15 H :    0.246805
  16 C :   -0.320648
  17 H :    0.247886
  18 H :    0.232774
  19 H :    0.234208
  20 H :    0.229211
  21 C :   -0.877868
  22 H :    0.271188
  23 H :    0.259485
  24 H :    0.219706
  25 C :   -1.009212
  26 H :    0.226946
  27 H :    0.201657
  28 H :    0.211112
  29 H :    0.205498
Sum of atomic charges:    0.0000000

LOEWDIN ATOMIC CHARGES
----------------------
   0 Lu:   -0.019485
   1 C :   -0.156589
   2 C :   -0.150238
   3 C :   -0.132030
   4 C :   -0.165012
   5 C :   -0.127680
   6 H :    0.155948
   7 H :    0.159958
   8 H :    0.152272
   9 H :    0.150218
  10 H :    0.150384
  11 C :   -0.158146
  12 C :   -0.127633
  13 C :   -0.145985
  14 C :   -0.134353
  15 H :    0.157569
  16 C :   -0.153121
  17 H :    0.159152
  18 H :    0.151334
  19 H :    0.150690
  20 H :    0.151739
  21 C :   -0.482151
  22 H :    0.144808
  23 H :    0.157119
  24 H :    0.142160
  25 C :   -0.643950
  26 H :    0.233200
  27 H :    0.133098
  28 H :    0.124347
  29 H :    0.122380

  Mayer bond orders larger than 0.100000
B(  0-Lu,  1-C ) :   0.2642 B(  0-Lu,  2-C ) :   0.2458 B(  0-Lu,  3-C ) :   0.2408
B(  0-Lu,  4-C ) :   0.2948 B(  0-Lu,  5-C ) :   0.2312 B(  0-Lu, 11-C ) :   0.2947
B(  0-Lu, 12-C ) :   0.2362 B(  0-Lu, 13-C ) :   0.2478 B(  0-Lu, 14-C ) :   0.2528
B(  0-Lu, 16-C ) :   0.2696 B(  0-Lu, 21-C ) :   0.1696 B(  0-Lu, 25-C ) :   0.7808
B(  0-Lu, 26-H ) :   0.1321 B(  1-C ,  2-C ) :   1.2630 B(  1-C ,  5-C ) :   1.3157
B(  1-C ,  8-H ) :   0.9289 B(  2-C ,  3-C ) :   1.3385 B(  2-C ,  9-H ) :   0.9138
B(  3-C ,  4-C ) :   1.2680 B(  3-C , 10-H ) :   0.9182 B(  4-C ,  5-C ) :   1.2834
B(  4-C ,  6-H ) :   0.9157 B(  5-C ,  7-H ) :   0.9059 B( 11-C , 12-C ) :   1.2894
B( 11-C , 14-C ) :   1.2686 B( 11-C , 15-H ) :   0.9117 B( 12-C , 16-C ) :   1.3055
B( 12-C , 17-H ) :   0.9108 B( 13-C , 14-C ) :   1.3240 B( 13-C , 16-C ) :   1.2718
B( 13-C , 19-H ) :   0.9158 B( 14-C , 18-H ) :   0.9179 B( 16-C , 20-H ) :   0.9265
B( 21-C , 22-H ) :   0.8875 B( 21-C , 23-H ) :   0.8995 B( 21-C , 24-H ) :   0.9230
B( 21-C , 26-H ) :   0.7623 B( 25-C , 27-H ) :   0.8950 B( 25-C , 28-H ) :   0.9207
B( 25-C , 29-H ) :   0.9139

Dispersion correction           -0.017071920
FINAL SINGLE POINT ENERGY     -1702.296198805699
Dispersion correction            ... done

DIPOLE MOMENT
-------------
                                X             Y             Z
Electronic contribution:     -4.74439      12.30996      -4.90196
Nuclear contribution   :      4.77087     -13.14313       5.34548
                        -----------------------------------------
Total Dipole Moment    :      0.02648      -0.83317       0.44352
                        -----------------------------------------
Magnitude (a.u.)       :      0.94424
Magnitude (Debye)      :      2.40006

Rotational constants in cm-1:     0.027323     0.019197     0.016897
Rotational constants in MHz :   819.111037   575.504209   506.549771

                             ****ORCA TERMINATED NORMALLY****
TOTAL RUN TIME: 0 days 0 hours 8 minutes 19 seconds 271 msec
