                         Program Version 5.0.3 -  RELEASE  -
|  1> ! EnGrad PBEh-3c
|  2> %output
|  3> xyzfile=True
|  4> end
|  5> %scf
|  6> maxiter 250
|  7> end
|  8> %output
|  9> Print[P_Hirshfeld] = 1
| 10> end
| 11> % maxcore
| 12> 4000
| 13> *xyz 0 1
| 14> Lu   0.02752232   0.25436445  -0.11660747
| 15> C    0.43401754   0.88389545   2.45833872
| 16> C    1.42174039  -0.10061839   2.20921084
| 17> C    2.34312291   0.42894291   1.29565139
| 18> C    1.91888948   1.73659507   0.95528952
| 19> C    0.76712331   2.02840415   1.71613008
| 20> H    2.44046256   2.42820810   0.31190708
| 21> H    0.18417931   2.93732768   1.67305099
| 22> H   -0.30635819   0.83849576   3.24204640
| 23> H    1.43109863  -1.08991426   2.64280985
| 24> H    3.22588701  -0.07094327   0.92540185
| 25> C    0.98697840  -0.09283548  -2.51343535
| 26> C   -0.28816254  -0.69180131  -2.55123447
| 27> C    1.06513412  -1.99272646  -1.25601867
| 28> C    1.83253133  -0.91913615  -1.73551493
| 29> H    1.26976483   0.80723949  -3.03755091
| 30> C   -0.25195993  -1.84352447  -1.74679998
| 31> H   -1.15315316  -0.32198995  -3.08243545
| 32> H    2.88605147  -0.76490165  -1.55591341
| 33> H    1.40509515  -2.80125269  -0.62456543
| 34> H   -1.04376517  -2.57114767  -1.66088042
| 35> C   -2.36096763  -1.52979195   1.27471586
| 36> H   -2.28237072  -1.47077458   2.36706769
| 37> H   -2.22196966  -2.63306959   1.07471763
| 38> H   -3.51298614  -1.39803029   1.03936786
| 39> C   -1.86198349   1.83585544  -0.80396579
| 40> H   -2.06778355  -0.38286286   0.59507675
| 41> H   -1.24166458   2.57934465  -1.33919742
| 42> H   -2.51206368   2.46870077  -0.17209338
| 43> H   -2.54458273   1.45195923  -1.58440015
| 44> *
| 45>
| 46>                          ****END OF INPUT****

CARTESIAN COORDINATES (ANGSTROEM)
---------------------------------
  Lu     0.027522    0.254364   -0.116607
  C      0.434018    0.883895    2.458339
  C      1.421740   -0.100618    2.209211
  C      2.343123    0.428943    1.295651
  C      1.918889    1.736595    0.955290
  C      0.767123    2.028404    1.716130
  H      2.440463    2.428208    0.311907
  H      0.184179    2.937328    1.673051
  H     -0.306358    0.838496    3.242046
  H      1.431099   -1.089914    2.642810
  H      3.225887   -0.070943    0.925402
  C      0.986978   -0.092835   -2.513435
  C     -0.288163   -0.691801   -2.551234
  C      1.065134   -1.992726   -1.256019
  C      1.832531   -0.919136   -1.735515
  H      1.269765    0.807239   -3.037551
  C     -0.251960   -1.843524   -1.746800
  H     -1.153153   -0.321990   -3.082435
  H      2.886051   -0.764902   -1.555913
  H      1.405095   -2.801253   -0.624565
  H     -1.043765   -2.571148   -1.660880
  C     -2.360968   -1.529792    1.274716
  H     -2.282371   -1.470775    2.367068
  H     -2.221970   -2.633070    1.074718
  H     -3.512986   -1.398030    1.039368
  C     -1.861983    1.835855   -0.803966
  H     -2.067784   -0.382863    0.595077
  H     -1.241665    2.579345   -1.339197
  H     -2.512064    2.468701   -0.172093
  H     -2.544583    1.451959   -1.584400

 Total Charge           Charge          ....    0
 Multiplicity           Mult            ....    1
 Number of Electrons    NEL             ....  132
 Basis Dimension        Dim             ....  295

ORBITAL ENERGIES
----------------

  NO   OCC          E(Eh)            E(eV)
   0   2.0000     -19.267629      -524.2989
   1   2.0000     -12.639877      -343.9485
   2   2.0000     -12.637778      -343.8914
   3   2.0000     -12.637565      -343.8856
   4   2.0000     -10.487548      -285.3807
   5   2.0000     -10.446581      -284.2659
   6   2.0000     -10.446033      -284.2510
   7   2.0000     -10.444969      -284.2221
   8   2.0000     -10.444436      -284.2076
   9   2.0000     -10.442931      -284.1666
  10   2.0000     -10.442698      -284.1603
  11   2.0000     -10.442506      -284.1550
  12   2.0000     -10.441756      -284.1346
  13   2.0000     -10.441080      -284.1162
  14   2.0000     -10.440839      -284.1097
  15   2.0000     -10.374446      -282.3030
  16   2.0000      -5.909127      -160.7955
  17   2.0000      -5.908854      -160.7881
  18   2.0000      -5.908495      -160.7783
  19   2.0000      -5.907329      -160.7466
  20   2.0000      -5.907140      -160.7415
  21   2.0000      -2.450337       -66.6771
  22   2.0000      -1.286665       -35.0119
  23   2.0000      -1.284155       -34.9436
  24   2.0000      -1.275370       -34.7046
  25   2.0000      -0.977243       -26.5921
  26   2.0000      -0.970677       -26.4135
  27   2.0000      -0.793075       -21.5807
  28   2.0000      -0.790568       -21.5124
  29   2.0000      -0.790039       -21.4980
  30   2.0000      -0.788246       -21.4493
  31   2.0000      -0.783252       -21.3134
  32   2.0000      -0.698607       -19.0101
  33   2.0000      -0.613600       -16.6969
  34   2.0000      -0.609771       -16.5927
  35   2.0000      -0.608262       -16.5517
  36   2.0000      -0.607127       -16.5208
  37   2.0000      -0.594621       -16.1804
  38   2.0000      -0.589786       -16.0489
  39   2.0000      -0.576417       -15.6851
  40   2.0000      -0.575615       -15.6633
  41   2.0000      -0.574980       -15.6460
  42   2.0000      -0.574394       -15.6301
  43   2.0000      -0.573959       -15.6182
  44   2.0000      -0.572960       -15.5910
  45   2.0000      -0.571358       -15.5474
  46   2.0000      -0.491109       -13.3638
  47   2.0000      -0.465384       -12.6637
  48   2.0000      -0.464023       -12.6267
  49   2.0000      -0.451406       -12.2834
  50   2.0000      -0.449073       -12.2199
  51   2.0000      -0.448322       -12.1995
  52   2.0000      -0.446300       -12.1444
  53   2.0000      -0.435334       -11.8460
  54   2.0000      -0.431325       -11.7370
  55   2.0000      -0.430097       -11.7035
  56   2.0000      -0.427187       -11.6244
  57   2.0000      -0.425469       -11.5776
  58   2.0000      -0.416416       -11.3313
  59   2.0000      -0.388964       -10.5843
  60   2.0000      -0.385386       -10.4869
  61   2.0000      -0.289277        -7.8716
  62   2.0000      -0.281556        -7.6615
  63   2.0000      -0.277017        -7.5380
  64   2.0000      -0.262168        -7.1339
  65   2.0000      -0.253429        -6.8961
  66   0.0000      -0.014913        -0.4058
  67   0.0000      -0.004281        -0.1165
  68   0.0000       0.042098         1.1456
  69   0.0000       0.051345         1.3972
  70   0.0000       0.055084         1.4989

MULLIKEN ATOMIC CHARGES
-----------------------
   0 Lu:    0.795586
   1 C :   -0.349854
   2 C :   -0.265086
   3 C :   -0.249329
   4 C :   -0.365886
   5 C :   -0.216235
   6 H :    0.241208
   7 H :    0.253511
   8 H :    0.229339
   9 H :    0.234329
  10 H :    0.229868
  11 C :   -0.342443
  12 C :   -0.232700
  13 C :   -0.262349
  14 C :   -0.263876
  15 H :    0.245341
  16 C :   -0.329215
  17 H :    0.248770
  18 H :    0.231553
  19 H :    0.233498
  20 H :    0.228926
  21 C :   -0.895970
  22 H :    0.263332
  23 H :    0.258821
  24 H :    0.243952
  25 C :   -1.018704
  26 H :    0.232706
  27 H :    0.203151
  28 H :    0.211459
  29 H :    0.206298
Sum of atomic charges:    0.0000000

LOEWDIN ATOMIC CHARGES
----------------------
   0 Lu:   -0.001642
   1 C :   -0.158528
   2 C :   -0.151785
   3 C :   -0.132949
   4 C :   -0.162470
   5 C :   -0.131718
   6 H :    0.155115
   7 H :    0.160317
   8 H :    0.152207
   9 H :    0.149535
  10 H :    0.149577
  11 C :   -0.156326
  12 C :   -0.132158
  13 C :   -0.147945
  14 C :   -0.134294
  15 H :    0.157039
  16 C :   -0.154353
  17 H :    0.159657
  18 H :    0.150503
  19 H :    0.150127
  20 H :    0.151316
  21 C :   -0.482978
  22 H :    0.146489
  23 H :    0.158077
  24 H :    0.147800
  25 C :   -0.647178
  26 H :    0.224711
  27 H :    0.133978
  28 H :    0.124804
  29 H :    0.123070

  Mayer bond orders larger than 0.100000
B(  0-Lu,  1-C ) :   0.2652 B(  0-Lu,  2-C ) :   0.2446 B(  0-Lu,  3-C ) :   0.2358
B(  0-Lu,  4-C ) :   0.2898 B(  0-Lu,  5-C ) :   0.2324 B(  0-Lu, 11-C ) :   0.2913
B(  0-Lu, 12-C ) :   0.2376 B(  0-Lu, 13-C ) :   0.2455 B(  0-Lu, 14-C ) :   0.2475
B(  0-Lu, 16-C ) :   0.2707 B(  0-Lu, 21-C ) :   0.1613 B(  0-Lu, 25-C ) :   0.7946
B(  0-Lu, 26-H ) :   0.1199 B(  1-C ,  2-C ) :   1.2690 B(  1-C ,  5-C ) :   1.3098
B(  1-C ,  8-H ) :   0.9272 B(  2-C ,  3-C ) :   1.3323 B(  2-C ,  9-H ) :   0.9139
B(  3-C ,  4-C ) :   1.2788 B(  3-C , 10-H ) :   0.9191 B(  4-C ,  5-C ) :   1.2819
B(  4-C ,  6-H ) :   0.9164 B(  5-C ,  7-H ) :   0.9057 B( 11-C , 12-C ) :   1.2858
B( 11-C , 14-C ) :   1.2792 B( 11-C , 15-H ) :   0.9122 B( 12-C , 16-C ) :   1.3022
B( 12-C , 17-H ) :   0.9103 B( 13-C , 14-C ) :   1.3200 B( 13-C , 16-C ) :   1.2766
B( 13-C , 19-H ) :   0.9162 B( 14-C , 18-H ) :   0.9188 B( 16-C , 20-H ) :   0.9249
B( 21-C , 22-H ) :   0.8955 B( 21-C , 23-H ) :   0.9019 B( 21-C , 24-H ) :   0.9104
B( 21-C , 26-H ) :   0.7819 B( 25-C , 27-H ) :   0.8945 B( 25-C , 28-H ) :   0.9203
B( 25-C , 29-H ) :   0.9130

Dispersion correction           -0.017014112
FINAL SINGLE POINT ENERGY     -1702.318932479830
Dispersion correction            ... done

DIPOLE MOMENT
-------------
                                X             Y             Z
Electronic contribution:     -6.37869      12.09405      -4.41958
Nuclear contribution   :      6.34397     -12.96416       4.89706
                        -----------------------------------------
Total Dipole Moment    :     -0.03473      -0.87011       0.47748
                        -----------------------------------------
Magnitude (a.u.)       :      0.99312
Magnitude (Debye)      :      2.52432

Rotational constants in cm-1:     0.027340     0.019288     0.016889
Rotational constants in MHz :   819.627513   578.243965   506.319091

                             ****ORCA TERMINATED NORMALLY****
TOTAL RUN TIME: 0 days 0 hours 8 minutes 15 seconds 394 msec
