                         Program Version 5.0.3 -  RELEASE  -
|  1> ! EnGrad PBEh-3c
|  2> %output
|  3> xyzfile=True
|  4> end
|  5> %scf
|  6> maxiter 250
|  7> end
|  8> %output
|  9> Print[P_Hirshfeld] = 1
| 10> end
| 11> % maxcore
| 12> 4000
| 13> *xyz 0 1
| 14> Lu  -0.09899328   0.22704053  -0.07300212
| 15> C    0.43889989   0.84930029   2.46623212
| 16> C    1.43410770  -0.11539436   2.21466422
| 17> C    2.33386838   0.42105691   1.27648080
| 18> C    1.88545949   1.71227822   0.93718648
| 19> C    0.74210385   2.00455998   1.71651860
| 20> H    2.39966824   2.41792696   0.29438254
| 21> H    0.16661799   2.90930199   1.69529319
| 22> H   -0.32340762   0.78327835   3.22725780
| 23> H    1.47939639  -1.10265329   2.65427968
| 24> H    3.23234073  -0.06199130   0.91717620
| 25> C    0.96184134  -0.08751344  -2.47447385
| 26> C   -0.31230864  -0.69780777  -2.52149691
| 27> C    1.06833182  -2.00192776  -1.24489191
| 28> C    1.81622515  -0.90629253  -1.71286655
| 29> H    1.24087363   0.81257532  -3.00872097
| 30> C   -0.25185725  -1.85769631  -1.72418002
| 31> H   -1.17507394  -0.33635434  -3.04550266
| 32> H    2.87747433  -0.75533253  -1.55943807
| 33> H    1.43423912  -2.81596121  -0.63628426
| 34> H   -1.05004348  -2.57410840  -1.60516884
| 35> C   -2.45635436  -1.39433426   1.17142990
| 36> H   -2.24551350  -1.38890297   2.29720579
| 37> H   -2.04878929  -2.48907973   1.02252574
| 38> H   -3.38722650  -1.45122171   1.02504342
| 39> C   -1.83716571   1.83442648  -0.81484454
| 40> H   -2.15827696  -0.46507798   0.66165485
| 41> H   -1.18635341   2.55515131  -1.32556093
| 42> H   -2.48424235   2.49537609  -0.21638152
| 43> H   -2.50650891   1.49217927  -1.61440687
| 44> *
| 45>
| 46>                          ****END OF INPUT****

CARTESIAN COORDINATES (ANGSTROEM)
---------------------------------
  Lu    -0.098993    0.227041   -0.073002
  C      0.438900    0.849300    2.466232
  C      1.434108   -0.115394    2.214664
  C      2.333868    0.421057    1.276481
  C      1.885459    1.712278    0.937186
  C      0.742104    2.004560    1.716519
  H      2.399668    2.417927    0.294383
  H      0.166618    2.909302    1.695293
  H     -0.323408    0.783278    3.227258
  H      1.479396   -1.102653    2.654280
  H      3.232341   -0.061991    0.917176
  C      0.961841   -0.087513   -2.474474
  C     -0.312309   -0.697808   -2.521497
  C      1.068332   -2.001928   -1.244892
  C      1.816225   -0.906293   -1.712867
  H      1.240874    0.812575   -3.008721
  C     -0.251857   -1.857696   -1.724180
  H     -1.175074   -0.336354   -3.045503
  H      2.877474   -0.755333   -1.559438
  H      1.434239   -2.815961   -0.636284
  H     -1.050043   -2.574108   -1.605169
  C     -2.456354   -1.394334    1.171430
  H     -2.245513   -1.388903    2.297206
  H     -2.048789   -2.489080    1.022526
  H     -3.387226   -1.451222    1.025043
  C     -1.837166    1.834426   -0.814845
  H     -2.158277   -0.465078    0.661655
  H     -1.186353    2.555151   -1.325561
  H     -2.484242    2.495376   -0.216382
  H     -2.506509    1.492179   -1.614407

 Total Charge           Charge          ....    0
 Multiplicity           Mult            ....    1
 Number of Electrons    NEL             ....  132
 Basis Dimension        Dim             ....  295

ORBITAL ENERGIES
----------------

  NO   OCC          E(Eh)            E(eV)
   0   2.0000     -19.270596      -524.3796
   1   2.0000     -12.642912      -344.0311
   2   2.0000     -12.640745      -343.9721
   3   2.0000     -12.640482      -343.9650
   4   2.0000     -10.459593      -284.6200
   5   2.0000     -10.443782      -284.1898
   6   2.0000     -10.443558      -284.1837
   7   2.0000     -10.442956      -284.1673
   8   2.0000     -10.442928      -284.1665
   9   2.0000     -10.441256      -284.1210
  10   2.0000     -10.440925      -284.1120
  11   2.0000     -10.440471      -284.0997
  12   2.0000     -10.440131      -284.0904
  13   2.0000     -10.439278      -284.0672
  14   2.0000     -10.437927      -284.0304
  15   2.0000     -10.368885      -282.1517
  16   2.0000      -5.912189      -160.8788
  17   2.0000      -5.911873      -160.8702
  18   2.0000      -5.911475      -160.8594
  19   2.0000      -5.910300      -160.8274
  20   2.0000      -5.910069      -160.8212
  21   2.0000      -2.453267       -66.7568
  22   2.0000      -1.290114       -35.1058
  23   2.0000      -1.285961       -34.9928
  24   2.0000      -1.277675       -34.7673
  25   2.0000      -0.974439       -26.5158
  26   2.0000      -0.968691       -26.3594
  27   2.0000      -0.826177       -22.4814
  28   2.0000      -0.790677       -21.5154
  29   2.0000      -0.787832       -21.4380
  30   2.0000      -0.787668       -21.4335
  31   2.0000      -0.785829       -21.3835
  32   2.0000      -0.702877       -19.1263
  33   2.0000      -0.610339       -16.6082
  34   2.0000      -0.608698       -16.5635
  35   2.0000      -0.606565       -16.5055
  36   2.0000      -0.605157       -16.4671
  37   2.0000      -0.592695       -16.1280
  38   2.0000      -0.588245       -16.0069
  39   2.0000      -0.579325       -15.7642
  40   2.0000      -0.578780       -15.7494
  41   2.0000      -0.578349       -15.7377
  42   2.0000      -0.577209       -15.7067
  43   2.0000      -0.576867       -15.6973
  44   2.0000      -0.575789       -15.6680
  45   2.0000      -0.574190       -15.6245
  46   2.0000      -0.523576       -14.2472
  47   2.0000      -0.505393       -13.7524
  48   2.0000      -0.459755       -12.5106
  49   2.0000      -0.450346       -12.2545
  50   2.0000      -0.447134       -12.1671
  51   2.0000      -0.446399       -12.1471
  52   2.0000      -0.445804       -12.1309
  53   2.0000      -0.437516       -11.9054
  54   2.0000      -0.431743       -11.7483
  55   2.0000      -0.429176       -11.6785
  56   2.0000      -0.427579       -11.6350
  57   2.0000      -0.425881       -11.5888
  58   2.0000      -0.423800       -11.5322
  59   2.0000      -0.391356       -10.6493
  60   2.0000      -0.386094       -10.5061
  61   2.0000      -0.289293        -7.8721
  62   2.0000      -0.277324        -7.5464
  63   2.0000      -0.276137        -7.5141
  64   2.0000      -0.260587        -7.0909
  65   2.0000      -0.255009        -6.9391
  66   0.0000      -0.013212        -0.3595
  67   0.0000       0.014393         0.3917
  68   0.0000       0.039036         1.0622
  69   0.0000       0.046336         1.2609
  70   0.0000       0.050412         1.3718

MULLIKEN ATOMIC CHARGES
-----------------------
   0 Lu:    0.836814
   1 C :   -0.367808
   2 C :   -0.260462
   3 C :   -0.239658
   4 C :   -0.357278
   5 C :   -0.226538
   6 H :    0.236539
   7 H :    0.252658
   8 H :    0.232874
   9 H :    0.230812
  10 H :    0.225465
  11 C :   -0.337859
  12 C :   -0.243342
  13 C :   -0.257296
  14 C :   -0.252736
  15 H :    0.241331
  16 C :   -0.343311
  17 H :    0.249153
  18 H :    0.226428
  19 H :    0.229338
  20 H :    0.231038
  21 C :   -0.942895
  22 H :    0.247781
  23 H :    0.242698
  24 H :    0.308546
  25 C :   -1.046775
  26 H :    0.246453
  27 H :    0.211799
  28 H :    0.215115
  29 H :    0.211117
Sum of atomic charges:    0.0000000

LOEWDIN ATOMIC CHARGES
----------------------
   0 Lu:    0.058895
   1 C :   -0.169488
   2 C :   -0.154782
   3 C :   -0.134204
   4 C :   -0.158480
   5 C :   -0.138616
   6 H :    0.153341
   7 H :    0.159909
   8 H :    0.151240
   9 H :    0.147590
  10 H :    0.147482
  11 C :   -0.154102
  12 C :   -0.140448
  13 C :   -0.151171
  14 C :   -0.133786
  15 H :    0.155398
  16 C :   -0.163297
  17 H :    0.159599
  18 H :    0.148064
  19 H :    0.148239
  20 H :    0.149742
  21 C :   -0.468339
  22 H :    0.151845
  23 H :    0.162350
  24 H :    0.143905
  25 C :   -0.651348
  26 H :    0.187835
  27 H :    0.138743
  28 H :    0.127378
  29 H :    0.126510

  Mayer bond orders larger than 0.100000
B(  0-Lu,  1-C ) :   0.2745 B(  0-Lu,  2-C ) :   0.2380 B(  0-Lu,  3-C ) :   0.2136
B(  0-Lu,  4-C ) :   0.2762 B(  0-Lu,  5-C ) :   0.2380 B(  0-Lu, 11-C ) :   0.2831
B(  0-Lu, 12-C ) :   0.2438 B(  0-Lu, 13-C ) :   0.2345 B(  0-Lu, 14-C ) :   0.2263
B(  0-Lu, 16-C ) :   0.2793 B(  0-Lu, 21-C ) :   0.1378 B(  0-Lu, 25-C ) :   0.8299
B(  1-C ,  2-C ) :   1.2703 B(  1-C ,  5-C ) :   1.2987 B(  1-C ,  8-H ) :   0.9216
B(  2-C ,  3-C ) :   1.3375 B(  2-C ,  9-H ) :   0.9149 B(  3-C ,  4-C ) :   1.2983
B(  3-C , 10-H ) :   0.9217 B(  4-C ,  5-C ) :   1.2837 B(  4-C ,  6-H ) :   0.9194
B(  5-C ,  7-H ) :   0.9071 B( 11-C , 12-C ) :   1.2824 B( 11-C , 14-C ) :   1.2958
B( 11-C , 15-H ) :   0.9153 B( 12-C , 16-C ) :   1.2951 B( 12-C , 17-H ) :   0.9099
B( 13-C , 14-C ) :   1.3295 B( 13-C , 16-C ) :   1.2773 B( 13-C , 19-H ) :   0.9182
B( 14-C , 18-H ) :   0.9218 B( 16-C , 20-H ) :   0.9199 B( 21-C , 22-H ) :   0.9153
B( 21-C , 23-H ) :   0.9157 B( 21-C , 24-H ) :   0.8795 B( 21-C , 26-H ) :   0.8328
B( 25-C , 27-H ) :   0.8906 B( 25-C , 28-H ) :   0.9185 B( 25-C , 29-H ) :   0.9099

Dispersion correction           -0.017195093
FINAL SINGLE POINT ENERGY     -1702.333831193501
Dispersion correction            ... done

DIPOLE MOMENT
-------------
                                X             Y             Z
Electronic contribution:    -12.59059      10.63670      -2.14431
Nuclear contribution   :     12.39389     -11.57411       2.71416
                        -----------------------------------------
Total Dipole Moment    :     -0.19670      -0.93741       0.56985
                        -----------------------------------------
Magnitude (a.u.)       :      1.11452
Magnitude (Debye)      :      2.83289

Rotational constants in cm-1:     0.027381     0.019703     0.016903
Rotational constants in MHz :   820.865682   590.667341   506.746105

                             ****ORCA TERMINATED NORMALLY****
TOTAL RUN TIME: 0 days 0 hours 8 minutes 27 seconds 835 msec
