                         Program Version 5.0.3 -  RELEASE  -
|  1> ! EnGrad PBEh-3c
|  2> %output
|  3> xyzfile=True
|  4> end
|  5> %scf
|  6> maxiter 250
|  7> end
|  8> %output
|  9> Print[P_Hirshfeld] = 1
| 10> end
| 11> % maxcore
| 12> 4000
| 13> *xyz 0 1
| 14> Lu  -0.08967346   0.22284615  -0.07014586
| 15> C    0.44555317   0.84575532   2.46671597
| 16> C    1.42602089  -0.12449341   2.21296826
| 17> C    2.33413135   0.41669293   1.26590243
| 18> C    1.87674021   1.70937554   0.93650995
| 19> C    0.72926785   1.99153450   1.71028298
| 20> H    2.38991503   2.41486588   0.28909199
| 21> H    0.16163980   2.90540642   1.70062992
| 22> H   -0.32989304   0.77091078   3.22992734
| 23> H    1.49136615  -1.10436509   2.65715471
| 24> H    3.22921414  -0.05852936   0.91498955
| 25> C    0.95294101  -0.08841801  -2.46589118
| 26> C   -0.31889412  -0.69830524  -2.50651506
| 27> C    1.06130522  -2.00332878  -1.23385495
| 28> C    1.81509235  -0.89873756  -1.70627979
| 29> H    1.23456949   0.81570037  -3.00198044
| 30> C   -0.24765273  -1.85716845  -1.72354926
| 31> H   -1.18169786  -0.33924833  -3.03908242
| 32> H    2.87162568  -0.75258437  -1.55883403
| 33> H    1.44047481  -2.81792276  -0.63993251
| 34> H   -1.05482055  -2.58049027  -1.59379120
| 35> C   -2.37186556  -1.41148103   1.19601584
| 36> H   -2.24588939  -1.36149192   2.27653352
| 37> H   -2.02022316  -2.43784169   1.00288608
| 38> H   -3.45619457  -1.47007908   1.00565833
| 39> C   -1.83441252   1.83462376  -0.81703635
| 40> H   -2.16959837  -0.45554299   0.65805525
| 41> H   -1.17163285   2.55012763  -1.32276874
| 42> H   -2.47815425   2.50053022  -0.22252262
| 43> H   -2.49813482   1.49818418  -1.62213828
| 44> *
| 45>
| 46>                          ****END OF INPUT****

CARTESIAN COORDINATES (ANGSTROEM)
---------------------------------
  Lu    -0.089673    0.222846   -0.070146
  C      0.445553    0.845755    2.466716
  C      1.426021   -0.124493    2.212968
  C      2.334131    0.416693    1.265902
  C      1.876740    1.709376    0.936510
  C      0.729268    1.991534    1.710283
  H      2.389915    2.414866    0.289092
  H      0.161640    2.905406    1.700630
  H     -0.329893    0.770911    3.229927
  H      1.491366   -1.104365    2.657155
  H      3.229214   -0.058529    0.914990
  C      0.952941   -0.088418   -2.465891
  C     -0.318894   -0.698305   -2.506515
  C      1.061305   -2.003329   -1.233855
  C      1.815092   -0.898738   -1.706280
  H      1.234569    0.815700   -3.001980
  C     -0.247653   -1.857168   -1.723549
  H     -1.181698   -0.339248   -3.039082
  H      2.871626   -0.752584   -1.558834
  H      1.440475   -2.817923   -0.639933
  H     -1.054821   -2.580490   -1.593791
  C     -2.371866   -1.411481    1.196016
  H     -2.245889   -1.361492    2.276534
  H     -2.020223   -2.437842    1.002886
  H     -3.456195   -1.470079    1.005658
  C     -1.834413    1.834624   -0.817036
  H     -2.169598   -0.455543    0.658055
  H     -1.171633    2.550128   -1.322769
  H     -2.478154    2.500530   -0.222523
  H     -2.498135    1.498184   -1.622138

 Total Charge           Charge          ....    0
 Multiplicity           Mult            ....    1
 Number of Electrons    NEL             ....  132
 Basis Dimension        Dim             ....  295

ORBITAL ENERGIES
----------------

  NO   OCC          E(Eh)            E(eV)
   0   2.0000     -19.268023      -524.3096
   1   2.0000     -12.640319      -343.9606
   2   2.0000     -12.638201      -343.9029
   3   2.0000     -12.637878      -343.8941
   4   2.0000     -10.462954      -284.7115
   5   2.0000     -10.443699      -284.1875
   6   2.0000     -10.443565      -284.1839
   7   2.0000     -10.442922      -284.1663
   8   2.0000     -10.442769      -284.1622
   9   2.0000     -10.442034      -284.1422
  10   2.0000     -10.441153      -284.1182
  11   2.0000     -10.440940      -284.1124
  12   2.0000     -10.440523      -284.1011
  13   2.0000     -10.438452      -284.0447
  14   2.0000     -10.437020      -284.0058
  15   2.0000     -10.368063      -282.1293
  16   2.0000      -5.909592      -160.8082
  17   2.0000      -5.909299      -160.8002
  18   2.0000      -5.908857      -160.7882
  19   2.0000      -5.907712      -160.7570
  20   2.0000      -5.907492      -160.7510
  21   2.0000      -2.450747       -66.6882
  22   2.0000      -1.287607       -35.0376
  23   2.0000      -1.284150       -34.9435
  24   2.0000      -1.275304       -34.7028
  25   2.0000      -0.975253       -26.5380
  26   2.0000      -0.969115       -26.3710
  27   2.0000      -0.817916       -22.2566
  28   2.0000      -0.790869       -21.5206
  29   2.0000      -0.788187       -21.4476
  30   2.0000      -0.787934       -21.4408
  31   2.0000      -0.785759       -21.3816
  32   2.0000      -0.701800       -19.0970
  33   2.0000      -0.611652       -16.6439
  34   2.0000      -0.607755       -16.5379
  35   2.0000      -0.605678       -16.4813
  36   2.0000      -0.604974       -16.4622
  37   2.0000      -0.592432       -16.1209
  38   2.0000      -0.588205       -16.0059
  39   2.0000      -0.576723       -15.6934
  40   2.0000      -0.576166       -15.6783
  41   2.0000      -0.575787       -15.6680
  42   2.0000      -0.574695       -15.6382
  43   2.0000      -0.574288       -15.6272
  44   2.0000      -0.573266       -15.5994
  45   2.0000      -0.571705       -15.5569
  46   2.0000      -0.528578       -14.3833
  47   2.0000      -0.475347       -12.9348
  48   2.0000      -0.465421       -12.6648
  49   2.0000      -0.453908       -12.3515
  50   2.0000      -0.448627       -12.2078
  51   2.0000      -0.447120       -12.1667
  52   2.0000      -0.446502       -12.1499
  53   2.0000      -0.444088       -12.0842
  54   2.0000      -0.430604       -11.7173
  55   2.0000      -0.429907       -11.6984
  56   2.0000      -0.427112       -11.6223
  57   2.0000      -0.426068       -11.5939
  58   2.0000      -0.424156       -11.5419
  59   2.0000      -0.390190       -10.6176
  60   2.0000      -0.385532       -10.4909
  61   2.0000      -0.289594        -7.8803
  62   2.0000      -0.278158        -7.5691
  63   2.0000      -0.276347        -7.5198
  64   2.0000      -0.258495        -7.0340
  65   2.0000      -0.254742        -6.9319
  66   0.0000      -0.012426        -0.3381
  67   0.0000       0.016701         0.4544
  68   0.0000       0.040616         1.1052
  69   0.0000       0.048048         1.3074
  70   0.0000       0.052133         1.4186

MULLIKEN ATOMIC CHARGES
-----------------------
   0 Lu:    0.825099
   1 C :   -0.342267
   2 C :   -0.271936
   3 C :   -0.242829
   4 C :   -0.345832
   5 C :   -0.242517
   6 H :    0.236911
   7 H :    0.251973
   8 H :    0.231575
   9 H :    0.231057
  10 H :    0.225951
  11 C :   -0.331861
  12 C :   -0.252236
  13 C :   -0.268579
  14 C :   -0.253313
  15 H :    0.241213
  16 C :   -0.323475
  17 H :    0.248701
  18 H :    0.226979
  19 H :    0.229185
  20 H :    0.228806
  21 C :   -0.972552
  22 H :    0.269051
  23 H :    0.267706
  24 H :    0.274227
  25 C :   -1.044603
  26 H :    0.269305
  27 H :    0.209883
  28 H :    0.214095
  29 H :    0.210282
Sum of atomic charges:   -0.0000000

LOEWDIN ATOMIC CHARGES
----------------------
   0 Lu:    0.038196
   1 C :   -0.162512
   2 C :   -0.155572
   3 C :   -0.132959
   4 C :   -0.155194
   5 C :   -0.141755
   6 H :    0.153488
   7 H :    0.160847
   8 H :    0.151144
   9 H :    0.148078
  10 H :    0.147404
  11 C :   -0.151523
  12 C :   -0.142614
  13 C :   -0.152463
  14 C :   -0.132576
  15 H :    0.155604
  16 C :   -0.158024
  17 H :    0.160449
  18 H :    0.148113
  19 H :    0.148601
  20 H :    0.149154
  21 C :   -0.485135
  22 H :    0.151687
  23 H :    0.163110
  24 H :    0.157914
  25 C :   -0.651644
  26 H :    0.197921
  27 H :    0.138236
  28 H :    0.126499
  29 H :    0.125525

  Mayer bond orders larger than 0.100000
B(  0-Lu,  1-C ) :   0.2683 B(  0-Lu,  2-C ) :   0.2422 B(  0-Lu,  3-C ) :   0.2193
B(  0-Lu,  4-C ) :   0.2773 B(  0-Lu,  5-C ) :   0.2417 B(  0-Lu, 11-C ) :   0.2832
B(  0-Lu, 12-C ) :   0.2452 B(  0-Lu, 13-C ) :   0.2391 B(  0-Lu, 14-C ) :   0.2313
B(  0-Lu, 16-C ) :   0.2726 B(  0-Lu, 21-C ) :   0.1473 B(  0-Lu, 25-C ) :   0.8244
B(  1-C ,  2-C ) :   1.2776 B(  1-C ,  5-C ) :   1.3002 B(  1-C ,  8-H ) :   0.9205
B(  2-C ,  3-C ) :   1.3271 B(  2-C ,  9-H ) :   0.9162 B(  3-C ,  4-C ) :   1.3032
B(  3-C , 10-H ) :   0.9223 B(  4-C ,  5-C ) :   1.2788 B(  4-C ,  6-H ) :   0.9186
B(  5-C ,  7-H ) :   0.9090 B( 11-C , 12-C ) :   1.2784 B( 11-C , 14-C ) :   1.3006
B( 11-C , 15-H ) :   0.9148 B( 12-C , 16-C ) :   1.2970 B( 12-C , 17-H ) :   0.9110
B( 13-C , 14-C ) :   1.3196 B( 13-C , 16-C ) :   1.2829 B( 13-C , 19-H ) :   0.9194
B( 14-C , 18-H ) :   0.9221 B( 16-C , 20-H ) :   0.9192 B( 21-C , 22-H ) :   0.9003
B( 21-C , 23-H ) :   0.8993 B( 21-C , 24-H ) :   0.9021 B( 21-C , 26-H ) :   0.8120
B( 25-C , 27-H ) :   0.8907 B( 25-C , 28-H ) :   0.9191 B( 25-C , 29-H ) :   0.9107

Dispersion correction           -0.017257323
FINAL SINGLE POINT ENERGY     -1702.359465530722
Dispersion correction            ... done

DIPOLE MOMENT
-------------
                                X             Y             Z
Electronic contribution:    -12.17579      10.47616      -2.06010
Nuclear contribution   :     11.99082     -11.41881       2.62949
                        -----------------------------------------
Total Dipole Moment    :     -0.18497      -0.94264       0.56939
                        -----------------------------------------
Magnitude (a.u.)       :      1.11669
Magnitude (Debye)      :      2.83840

Rotational constants in cm-1:     0.027648     0.019771     0.017084
Rotational constants in MHz :   828.858246   592.726553   512.154999

                             ****ORCA TERMINATED NORMALLY****
TOTAL RUN TIME: 0 days 0 hours 8 minutes 38 seconds 734 msec
