                         Program Version 5.0.3 -  RELEASE  -
|  1> ! EnGrad PBEh-3c
|  2> %output
|  3> xyzfile=True
|  4> end
|  5> %scf
|  6> maxiter 250
|  7> end
|  8> %output
|  9> Print[P_Hirshfeld] = 1
| 10> end
| 11> % maxcore
| 12> 4000
| 13> *xyz 0 1
| 14> Lu  -0.08394093   0.21275246  -0.06254105
| 15> C    0.44404235   0.83648935   2.47630818
| 16> C    1.42595951  -0.13519358   2.20450220
| 17> C    2.32372985   0.41156475   1.25819073
| 18> C    1.86610904   1.70390275   0.93160799
| 19> C    0.71295298   1.97652930   1.70206668
| 20> H    2.37276737   2.40912823   0.28211044
| 21> H    0.15309840   2.89685004   1.70870483
| 22> H   -0.33466021   0.75158950   3.22906177
| 23> H    1.50919512  -1.10892244   2.66274766
| 24> H    3.22900875  -0.05541989   0.90928553
| 25> C    0.94224183  -0.08416764  -2.45438196
| 26> C   -0.32930226  -0.69712979  -2.48834125
| 27> C    1.05969675  -1.99887501  -1.22197462
| 28> C    1.80581426  -0.89459585  -1.69417372
| 29> H    1.22268667   0.81768626  -2.98928355
| 30> C   -0.25235597  -1.86742095  -1.71750875
| 31> H   -1.19189242  -0.34437529  -3.02679969
| 32> H    2.86580783  -0.74727553  -1.55758075
| 33> H    1.44995098  -2.82306346  -0.64405649
| 34> H   -1.05647640  -2.58543858  -1.57680999
| 35> C   -2.35666762  -1.41408013   1.19990301
| 36> H   -2.24003066  -1.32304989   2.25948758
| 37> H   -1.96433033  -2.38242097   0.97396553
| 38> H   -3.46126081  -1.49264627   0.98988622
| 39> C   -1.83054406   1.83427514  -0.81955832
| 40> H   -2.18270851  -0.43312714   0.64785977
| 41> H   -1.14791706   2.53988456  -1.31634649
| 42> H   -2.47055183   2.51004532  -0.23295552
| 43> H   -2.48657573   1.50824303  -1.63535859
| 44> *
| 45>
| 46>                          ****END OF INPUT****

CARTESIAN COORDINATES (ANGSTROEM)
---------------------------------
  Lu    -0.083941    0.212752   -0.062541
  C      0.444042    0.836489    2.476308
  C      1.425960   -0.135194    2.204502
  C      2.323730    0.411565    1.258191
  C      1.866109    1.703903    0.931608
  C      0.712953    1.976529    1.702067
  H      2.372767    2.409128    0.282110
  H      0.153098    2.896850    1.708705
  H     -0.334660    0.751590    3.229062
  H      1.509195   -1.108922    2.662748
  H      3.229009   -0.055420    0.909286
  C      0.942242   -0.084168   -2.454382
  C     -0.329302   -0.697130   -2.488341
  C      1.059697   -1.998875   -1.221975
  C      1.805814   -0.894596   -1.694174
  H      1.222687    0.817686   -2.989284
  C     -0.252356   -1.867421   -1.717509
  H     -1.191892   -0.344375   -3.026800
  H      2.865808   -0.747276   -1.557581
  H      1.449951   -2.823063   -0.644056
  H     -1.056476   -2.585439   -1.576810
  C     -2.356668   -1.414080    1.199903
  H     -2.240031   -1.323050    2.259488
  H     -1.964330   -2.382421    0.973966
  H     -3.461261   -1.492646    0.989886
  C     -1.830544    1.834275   -0.819558
  H     -2.182709   -0.433127    0.647860
  H     -1.147917    2.539885   -1.316346
  H     -2.470552    2.510045   -0.232956
  H     -2.486576    1.508243   -1.635359

 Total Charge           Charge          ....    0
 Multiplicity           Mult            ....    1
 Number of Electrons    NEL             ....  132
 Basis Dimension        Dim             ....  295

ORBITAL ENERGIES
----------------

  NO   OCC          E(Eh)            E(eV)
   0   2.0000     -19.265635      -524.2446
   1   2.0000     -12.637909      -343.8950
   2   2.0000     -12.635829      -343.8384
   3   2.0000     -12.635466      -343.8285
   4   2.0000     -10.461721      -284.6779
   5   2.0000     -10.444191      -284.2009
   6   2.0000     -10.444052      -284.1971
   7   2.0000     -10.443538      -284.1831
   8   2.0000     -10.443402      -284.1794
   9   2.0000     -10.442835      -284.1640
  10   2.0000     -10.442216      -284.1472
  11   2.0000     -10.441434      -284.1259
  12   2.0000     -10.440611      -284.1035
  13   2.0000     -10.439054      -284.0611
  14   2.0000     -10.437609      -284.0218
  15   2.0000     -10.367111      -282.1034
  16   2.0000      -5.907173      -160.7424
  17   2.0000      -5.906898      -160.7349
  18   2.0000      -5.906428      -160.7221
  19   2.0000      -5.905305      -160.6915
  20   2.0000      -5.905094      -160.6858
  21   2.0000      -2.448414       -66.6247
  22   2.0000      -1.285392       -34.9773
  23   2.0000      -1.282470       -34.8978
  24   2.0000      -1.273211       -34.6458
  25   2.0000      -0.975498       -26.5447
  26   2.0000      -0.969062       -26.3695
  27   2.0000      -0.817623       -22.2487
  28   2.0000      -0.791482       -21.5373
  29   2.0000      -0.788562       -21.4579
  30   2.0000      -0.788305       -21.4509
  31   2.0000      -0.786277       -21.3957
  32   2.0000      -0.700113       -19.0511
  33   2.0000      -0.611581       -16.6420
  34   2.0000      -0.608462       -16.5571
  35   2.0000      -0.606242       -16.4967
  36   2.0000      -0.605701       -16.4820
  37   2.0000      -0.592951       -16.1350
  38   2.0000      -0.588533       -16.0148
  39   2.0000      -0.574332       -15.6284
  40   2.0000      -0.573749       -15.6125
  41   2.0000      -0.573434       -15.6039
  42   2.0000      -0.572347       -15.5744
  43   2.0000      -0.571896       -15.5621
  44   2.0000      -0.570911       -15.5353
  45   2.0000      -0.569338       -15.4925
  46   2.0000      -0.522723       -14.2240
  47   2.0000      -0.481584       -13.1046
  48   2.0000      -0.467430       -12.7194
  49   2.0000      -0.453700       -12.3458
  50   2.0000      -0.448471       -12.2035
  51   2.0000      -0.447047       -12.1648
  52   2.0000      -0.446811       -12.1584
  53   2.0000      -0.445328       -12.1180
  54   2.0000      -0.430534       -11.7154
  55   2.0000      -0.429922       -11.6988
  56   2.0000      -0.427869       -11.6429
  57   2.0000      -0.426616       -11.6088
  58   2.0000      -0.426106       -11.5949
  59   2.0000      -0.388443       -10.5701
  60   2.0000      -0.384367       -10.4592
  61   2.0000      -0.290467        -7.9040
  62   2.0000      -0.278315        -7.5733
  63   2.0000      -0.276911        -7.5351
  64   2.0000      -0.256123        -6.9695
  65   2.0000      -0.255344        -6.9483
  66   0.0000      -0.012236        -0.3330
  67   0.0000       0.017863         0.4861
  68   0.0000       0.040996         1.1155
  69   0.0000       0.050501         1.3742
  70   0.0000       0.052871         1.4387

MULLIKEN ATOMIC CHARGES
-----------------------
   0 Lu:    0.809053
   1 C :   -0.316478
   2 C :   -0.285038
   3 C :   -0.242464
   4 C :   -0.331064
   5 C :   -0.263589
   6 H :    0.238123
   7 H :    0.250958
   8 H :    0.232228
   9 H :    0.230838
  10 H :    0.226161
  11 C :   -0.324163
  12 C :   -0.264358
  13 C :   -0.280266
  14 C :   -0.251427
  15 H :    0.242009
  16 C :   -0.304005
  17 H :    0.248106
  18 H :    0.227247
  19 H :    0.228636
  20 H :    0.229160
  21 C :   -0.971755
  22 H :    0.273785
  23 H :    0.271774
  24 H :    0.266967
  25 C :   -1.039375
  26 H :    0.270110
  27 H :    0.207297
  28 H :    0.212689
  29 H :    0.208843
Sum of atomic charges:   -0.0000000

LOEWDIN ATOMIC CHARGES
----------------------
   0 Lu:    0.015705
   1 C :   -0.157818
   2 C :   -0.155736
   3 C :   -0.130821
   4 C :   -0.153062
   5 C :   -0.141437
   6 H :    0.154240
   7 H :    0.161169
   8 H :    0.151135
   9 H :    0.148581
  10 H :    0.147935
  11 C :   -0.149977
  12 C :   -0.140963
  13 C :   -0.152448
  14 C :   -0.131048
  15 H :    0.156187
  16 C :   -0.155170
  17 H :    0.160573
  18 H :    0.148487
  19 H :    0.148958
  20 H :    0.149019
  21 C :   -0.481586
  22 H :    0.150889
  23 H :    0.160424
  24 H :    0.158735
  25 C :   -0.651079
  26 H :    0.202020
  27 H :    0.137300
  28 H :    0.125443
  29 H :    0.124346

  Mayer bond orders larger than 0.100000
B(  0-Lu,  1-C ) :   0.2662 B(  0-Lu,  2-C ) :   0.2463 B(  0-Lu,  3-C ) :   0.2230
B(  0-Lu,  4-C ) :   0.2793 B(  0-Lu,  5-C ) :   0.2460 B(  0-Lu, 11-C ) :   0.2848
B(  0-Lu, 12-C ) :   0.2468 B(  0-Lu, 13-C ) :   0.2433 B(  0-Lu, 14-C ) :   0.2351
B(  0-Lu, 16-C ) :   0.2704 B(  0-Lu, 21-C ) :   0.1528 B(  0-Lu, 25-C ) :   0.8200
B(  1-C ,  2-C ) :   1.2763 B(  1-C ,  5-C ) :   1.3023 B(  1-C ,  8-H ) :   0.9195
B(  2-C ,  3-C ) :   1.3253 B(  2-C ,  9-H ) :   0.9175 B(  3-C ,  4-C ) :   1.3013
B(  3-C , 10-H ) :   0.9226 B(  4-C ,  5-C ) :   1.2767 B(  4-C ,  6-H ) :   0.9179
B(  5-C ,  7-H ) :   0.9115 B( 11-C , 12-C ) :   1.2779 B( 11-C , 14-C ) :   1.2977
B( 11-C , 15-H ) :   0.9148 B( 12-C , 16-C ) :   1.2993 B( 12-C , 17-H ) :   0.9123
B( 13-C , 14-C ) :   1.3178 B( 13-C , 16-C ) :   1.2807 B( 13-C , 19-H ) :   0.9207
B( 14-C , 18-H ) :   0.9223 B( 16-C , 20-H ) :   0.9185 B( 21-C , 22-H ) :   0.8965
B( 21-C , 23-H ) :   0.8941 B( 21-C , 24-H ) :   0.9067 B( 21-C , 26-H ) :   0.8059
B( 25-C , 27-H ) :   0.8904 B( 25-C , 28-H ) :   0.9197 B( 25-C , 29-H ) :   0.9117

Dispersion correction           -0.017340737
FINAL SINGLE POINT ENERGY     -1702.362736872503
Dispersion correction            ... done

DIPOLE MOMENT
-------------
                                X             Y             Z
Electronic contribution:    -11.76513      10.02483      -1.73105
Nuclear contribution   :     11.63638     -10.96887       2.30370
                        -----------------------------------------
Total Dipole Moment    :     -0.12875      -0.94403       0.57266
                        -----------------------------------------
Magnitude (a.u.)       :      1.11163
Magnitude (Debye)      :      2.82553

Rotational constants in cm-1:     0.027831     0.019890     0.017230
Rotational constants in MHz :   834.340809   596.301532   516.554311

                             ****ORCA TERMINATED NORMALLY****
TOTAL RUN TIME: 0 days 0 hours 8 minutes 33 seconds 898 msec
