                         Program Version 5.0.3 -  RELEASE  -
|  1> ! EnGrad PBEh-3c
|  2> %output
|  3> xyzfile=True
|  4> end
|  5> %scf
|  6> maxiter 250
|  7> end
|  8> %output
|  9> Print[P_Hirshfeld] = 1
| 10> end
| 11> % maxcore
| 12> 4000
| 13> *xyz 0 1
| 14> Lu  -0.05813236   0.17531128  -0.03878655
| 15> C    0.43807829   0.80297072   2.49604120
| 16> C    1.42464064  -0.16607011   2.18373264
| 17> C    2.29706248   0.39272821   1.23500882
| 18> C    1.82566630   1.68752773   0.91482165
| 19> C    0.66789521   1.92860808   1.68712397
| 20> H    2.31671624   2.38994763   0.25991371
| 21> H    0.12166462   2.86712855   1.73106666
| 22> H   -0.34910157   0.69052986   3.22983661
| 23> H    1.56415746  -1.12199954   2.67896483
| 24> H    3.22106500  -0.04506579   0.88919896
| 25> C    0.90362820  -0.07186395  -2.41600447
| 26> C   -0.35761228  -0.70236723  -2.43391410
| 27> C    1.05338687  -1.98967115  -1.18786576
| 28> C    1.77943122  -0.88146980  -1.65711626
| 29> H    1.18320400   0.82434420  -2.94751385
| 30> C   -0.26573973  -1.89122663  -1.69312837
| 31> H   -1.22795485  -0.35858236  -2.98477422
| 32> H    2.84270316  -0.72855026  -1.55031844
| 33> H    1.47681868  -2.83606841  -0.65591557
| 34> H   -1.06140782  -2.60530739  -1.52647816
| 35> C   -2.32066231  -1.34257936   1.18093742
| 36> H   -2.22423633  -1.21036521   2.23387419
| 37> H   -1.77317540  -2.26617939   0.87877865
| 38> H   -3.46567859  -1.55673222   0.93900461
| 39> C   -1.81891444   1.82560175  -0.82177764
| 40> H   -2.21104007  -0.33855163   0.59483090
| 41> H   -1.07138691   2.49471632  -1.28573007
| 42> H   -2.45175811   2.53618970  -0.26059334
| 43> H   -2.45507686   1.53523389  -1.67698858
| 44> *
| 45>
| 46>                          ****END OF INPUT****

CARTESIAN COORDINATES (ANGSTROEM)
---------------------------------
  Lu    -0.058132    0.175311   -0.038787
  C      0.438078    0.802971    2.496041
  C      1.424641   -0.166070    2.183733
  C      2.297062    0.392728    1.235009
  C      1.825666    1.687528    0.914822
  C      0.667895    1.928608    1.687124
  H      2.316716    2.389948    0.259914
  H      0.121665    2.867129    1.731067
  H     -0.349102    0.690530    3.229837
  H      1.564157   -1.122000    2.678965
  H      3.221065   -0.045066    0.889199
  C      0.903628   -0.071864   -2.416004
  C     -0.357612   -0.702367   -2.433914
  C      1.053387   -1.989671   -1.187866
  C      1.779431   -0.881470   -1.657116
  H      1.183204    0.824344   -2.947514
  C     -0.265740   -1.891227   -1.693128
  H     -1.227955   -0.358582   -2.984774
  H      2.842703   -0.728550   -1.550318
  H      1.476819   -2.836068   -0.655916
  H     -1.061408   -2.605307   -1.526478
  C     -2.320662   -1.342579    1.180937
  H     -2.224236   -1.210365    2.233874
  H     -1.773175   -2.266179    0.878779
  H     -3.465679   -1.556732    0.939005
  C     -1.818914    1.825602   -0.821778
  H     -2.211040   -0.338552    0.594831
  H     -1.071387    2.494716   -1.285730
  H     -2.451758    2.536190   -0.260593
  H     -2.455077    1.535234   -1.676989

 Total Charge           Charge          ....    0
 Multiplicity           Mult            ....    1
 Number of Electrons    NEL             ....  132
 Basis Dimension        Dim             ....  295

ORBITAL ENERGIES
----------------

  NO   OCC          E(Eh)            E(eV)
   0   2.0000     -19.258824      -524.0592
   1   2.0000     -12.631009      -343.7072
   2   2.0000     -12.629056      -343.6541
   3   2.0000     -12.628598      -343.6416
   4   2.0000     -10.470990      -284.9301
   5   2.0000     -10.446335      -284.2592
   6   2.0000     -10.445973      -284.2494
   7   2.0000     -10.445561      -284.2382
   8   2.0000     -10.445476      -284.2359
   9   2.0000     -10.445182      -284.2279
  10   2.0000     -10.444519      -284.2098
  11   2.0000     -10.442638      -284.1586
  12   2.0000     -10.441333      -284.1231
  13   2.0000     -10.440900      -284.1113
  14   2.0000     -10.439626      -284.0767
  15   2.0000     -10.366105      -282.0760
  16   2.0000      -5.900246      -160.5539
  17   2.0000      -5.900022      -160.5478
  18   2.0000      -5.899481      -160.5330
  19   2.0000      -5.898433      -160.5045
  20   2.0000      -5.898250      -160.4996
  21   2.0000      -2.441821       -66.4453
  22   2.0000      -1.279394       -34.8141
  23   2.0000      -1.278266       -34.7834
  24   2.0000      -1.267574       -34.4925
  25   2.0000      -0.977625       -26.6025
  26   2.0000      -0.969843       -26.3908
  27   2.0000      -0.804363       -21.8878
  28   2.0000      -0.793792       -21.6002
  29   2.0000      -0.790244       -21.5036
  30   2.0000      -0.789976       -21.4963
  31   2.0000      -0.788294       -21.4506
  32   2.0000      -0.694186       -18.8898
  33   2.0000      -0.613039       -16.6816
  34   2.0000      -0.610669       -16.6171
  35   2.0000      -0.608421       -16.5560
  36   2.0000      -0.606487       -16.5033
  37   2.0000      -0.594221       -16.1696
  38   2.0000      -0.589397       -16.0383
  39   2.0000      -0.567504       -15.4426
  40   2.0000      -0.566834       -15.4243
  41   2.0000      -0.566616       -15.4184
  42   2.0000      -0.565516       -15.3885
  43   2.0000      -0.565056       -15.3759
  44   2.0000      -0.564201       -15.3527
  45   2.0000      -0.562533       -15.3073
  46   2.0000      -0.500900       -13.6302
  47   2.0000      -0.486353       -13.2343
  48   2.0000      -0.467309       -12.7161
  49   2.0000      -0.454209       -12.3596
  50   2.0000      -0.449539       -12.2326
  51   2.0000      -0.448978       -12.2173
  52   2.0000      -0.447796       -12.1851
  53   2.0000      -0.444953       -12.1078
  54   2.0000      -0.432844       -11.7783
  55   2.0000      -0.430188       -11.7060
  56   2.0000      -0.429026       -11.6744
  57   2.0000      -0.427605       -11.6357
  58   2.0000      -0.426781       -11.6133
  59   2.0000      -0.383858       -10.4453
  60   2.0000      -0.379269       -10.3204
  61   2.0000      -0.293732        -7.9928
  62   2.0000      -0.280376        -7.6294
  63   2.0000      -0.278632        -7.5820
  64   2.0000      -0.259463        -7.0603
  65   2.0000      -0.247096        -6.7238
  66   0.0000      -0.012546        -0.3414
  67   0.0000       0.021216         0.5773
  68   0.0000       0.039874         1.0850
  69   0.0000       0.054222         1.4754
  70   0.0000       0.058056         1.5798

MULLIKEN ATOMIC CHARGES
-----------------------
   0 Lu:    0.756889
   1 C :   -0.256448
   2 C :   -0.314866
   3 C :   -0.241300
   4 C :   -0.302479
   5 C :   -0.303319
   6 H :    0.241654
   7 H :    0.248198
   8 H :    0.233774
   9 H :    0.230180
  10 H :    0.228039
  11 C :   -0.310330
  12 C :   -0.280719
  13 C :   -0.305237
  14 C :   -0.248692
  15 H :    0.244458
  16 C :   -0.261369
  17 H :    0.247013
  18 H :    0.228840
  19 H :    0.227807
  20 H :    0.230720
  21 C :   -0.965138
  22 H :    0.278988
  23 H :    0.256004
  24 H :    0.254990
  25 C :   -1.021107
  26 H :    0.293655
  27 H :    0.199977
  28 H :    0.207584
  29 H :    0.202237
Sum of atomic charges:   -0.0000000

LOEWDIN ATOMIC CHARGES
----------------------
   0 Lu:   -0.062131
   1 C :   -0.145619
   2 C :   -0.153806
   3 C :   -0.124440
   4 C :   -0.147616
   5 C :   -0.136959
   6 H :    0.156454
   7 H :    0.162549
   8 H :    0.151827
   9 H :    0.150277
  10 H :    0.149422
  11 C :   -0.145863
  12 C :   -0.132859
  13 C :   -0.150852
  14 C :   -0.126011
  15 H :    0.158084
  16 C :   -0.147716
  17 H :    0.161638
  18 H :    0.149601
  19 H :    0.150292
  20 H :    0.149459
  21 C :   -0.479077
  22 H :    0.150708
  23 H :    0.162997
  24 H :    0.159301
  25 C :   -0.650045
  26 H :    0.213233
  27 H :    0.134637
  28 H :    0.122204
  29 H :    0.120311

  Mayer bond orders larger than 0.100000
B(  0-Lu,  1-C ) :   0.2608 B(  0-Lu,  2-C ) :   0.2580 B(  0-Lu,  3-C ) :   0.2373
B(  0-Lu,  4-C ) :   0.2880 B(  0-Lu,  5-C ) :   0.2546 B(  0-Lu, 11-C ) :   0.2917
B(  0-Lu, 12-C ) :   0.2489 B(  0-Lu, 13-C ) :   0.2576 B(  0-Lu, 14-C ) :   0.2495
B(  0-Lu, 16-C ) :   0.2662 B(  0-Lu, 21-C ) :   0.1707 B(  0-Lu, 25-C ) :   0.8030
B(  1-C ,  2-C ) :   1.2693 B(  1-C ,  5-C ) :   1.3034 B(  1-C ,  8-H ) :   0.9165
B(  2-C ,  3-C ) :   1.3189 B(  2-C ,  9-H ) :   0.9212 B(  3-C ,  4-C ) :   1.2905
B(  3-C , 10-H ) :   0.9230 B(  4-C ,  5-C ) :   1.2695 B(  4-C ,  6-H ) :   0.9162
B(  5-C ,  7-H ) :   0.9170 B( 11-C , 12-C ) :   1.2750 B( 11-C , 14-C ) :   1.2871
B( 11-C , 15-H ) :   0.9147 B( 12-C , 16-C ) :   1.3047 B( 12-C , 17-H ) :   0.9144
B( 13-C , 14-C ) :   1.3102 B( 13-C , 16-C ) :   1.2705 B( 13-C , 19-H ) :   0.9239
B( 14-C , 18-H ) :   0.9226 B( 16-C , 20-H ) :   0.9160 B( 21-C , 22-H ) :   0.8872
B( 21-C , 23-H ) :   0.8894 B( 21-C , 24-H ) :   0.9113 B( 21-C , 26-H ) :   0.7779
B( 25-C , 27-H ) :   0.8882 B( 25-C , 28-H ) :   0.9216 B( 25-C , 29-H ) :   0.9151

Dispersion correction           -0.017644769
FINAL SINGLE POINT ENERGY     -1702.361969556658
Dispersion correction            ... done

DIPOLE MOMENT
-------------
                                X             Y             Z
Electronic contribution:    -10.07193       8.23617      -0.68337
Nuclear contribution   :     10.12827      -9.19146       1.26438
                        -----------------------------------------
Total Dipole Moment    :      0.05634      -0.95529       0.58101
                        -----------------------------------------
Magnitude (a.u.)       :      1.11952
Magnitude (Debye)      :      2.84560

Rotational constants in cm-1:     0.028614     0.020370     0.017695
Rotational constants in MHz :   857.830861   610.691252   530.491244

                             ****ORCA TERMINATED NORMALLY****
TOTAL RUN TIME: 0 days 0 hours 8 minutes 46 seconds 192 msec
