                         Program Version 5.0.3 -  RELEASE  -
|  1> ! EnGrad PBEh-3c
|  2> %output
|  3> xyzfile=True
|  4> end
|  5> %scf
|  6> maxiter 250
|  7> end
|  8> %output
|  9> Print[P_Hirshfeld] = 1
| 10> end
| 11> % maxcore
| 12> 4000
| 13> *xyz 0 1
| 14> Lu  -0.01398434   0.15082644  -0.03191076
| 15> C    0.42588994   0.77296914   2.49898551
| 16> C    1.42368875  -0.18872054   2.17905990
| 17> C    2.27446058   0.39442752   1.22283900
| 18> C    1.80153174   1.66432265   0.90818350
| 19> C    0.63910971   1.91991315   1.68869652
| 20> H    2.28132411   2.37975432   0.24406840
| 21> H    0.10133605   2.83710652   1.73857189
| 22> H   -0.35505629   0.65602029   3.23092036
| 23> H    1.59141814  -1.12412466   2.68405018
| 24> H    3.21018385  -0.04417584   0.86951183
| 25> C    0.88697297  -0.07242147  -2.38672959
| 26> C   -0.38949478  -0.70265898  -2.41964583
| 27> C    1.04972034  -1.99039854  -1.16877064
| 28> C    1.75634404  -0.86997430  -1.64184569
| 29> H    1.15670120   0.83131331  -2.92222107
| 30> C   -0.27378679  -1.90440673  -1.66619640
| 31> H   -1.24439793  -0.36792108  -2.94913911
| 32> H    2.82604451  -0.71236658  -1.53722175
| 33> H    1.48535169  -2.83602652  -0.65965982
| 34> H   -1.06165730  -2.61957328  -1.50357526
| 35> C   -2.29087200  -1.36000812   1.13063420
| 36> H   -2.22039560  -1.14050877   2.21835467
| 37> H   -1.69726981  -2.13110565   0.84030724
| 38> H   -3.42212116  -1.56396396   0.91280925
| 39> C   -1.81394033   1.80113290  -0.81492550
| 40> H   -2.20987516  -0.24271574   0.53284179
| 41> H   -1.02685293   2.44371620  -1.24901734
| 42> H   -2.43991594   2.53012995  -0.26374406
| 43> H   -2.43577333   1.53918224  -1.68873303
| 44> *
| 45>
| 46>                          ****END OF INPUT****

CARTESIAN COORDINATES (ANGSTROEM)
---------------------------------
  Lu    -0.013984    0.150826   -0.031911
  C      0.425890    0.772969    2.498986
  C      1.423689   -0.188721    2.179060
  C      2.274461    0.394428    1.222839
  C      1.801532    1.664323    0.908184
  C      0.639110    1.919913    1.688697
  H      2.281324    2.379754    0.244068
  H      0.101336    2.837107    1.738572
  H     -0.355056    0.656020    3.230920
  H      1.591418   -1.124125    2.684050
  H      3.210184   -0.044176    0.869512
  C      0.886973   -0.072421   -2.386730
  C     -0.389495   -0.702659   -2.419646
  C      1.049720   -1.990399   -1.168771
  C      1.756344   -0.869974   -1.641846
  H      1.156701    0.831313   -2.922221
  C     -0.273787   -1.904407   -1.666196
  H     -1.244398   -0.367921   -2.949139
  H      2.826045   -0.712367   -1.537222
  H      1.485352   -2.836027   -0.659660
  H     -1.061657   -2.619573   -1.503575
  C     -2.290872   -1.360008    1.130634
  H     -2.220396   -1.140509    2.218355
  H     -1.697270   -2.131106    0.840307
  H     -3.422121   -1.563964    0.912809
  C     -1.813940    1.801133   -0.814925
  H     -2.209875   -0.242716    0.532842
  H     -1.026853    2.443716   -1.249017
  H     -2.439916    2.530130   -0.263744
  H     -2.435773    1.539182   -1.688733

 Total Charge           Charge          ....    0
 Multiplicity           Mult            ....    1
 Number of Electrons    NEL             ....  132
 Basis Dimension        Dim             ....  295

ORBITAL ENERGIES
----------------

  NO   OCC          E(Eh)            E(eV)
   0   2.0000     -19.253067      -523.9026
   1   2.0000     -12.625159      -343.5480
   2   2.0000     -12.623341      -343.4986
   3   2.0000     -12.622782      -343.4834
   4   2.0000     -10.465480      -284.7802
   5   2.0000     -10.449171      -284.3364
   6   2.0000     -10.448552      -284.3196
   7   2.0000     -10.447708      -284.2966
   8   2.0000     -10.446782      -284.2714
   9   2.0000     -10.446455      -284.2625
  10   2.0000     -10.445833      -284.2456
  11   2.0000     -10.444018      -284.1962
  12   2.0000     -10.442775      -284.1624
  13   2.0000     -10.442707      -284.1605
  14   2.0000     -10.441434      -284.1259
  15   2.0000     -10.366536      -282.0878
  16   2.0000      -5.894369      -160.3939
  17   2.0000      -5.894198      -160.3893
  18   2.0000      -5.893590      -160.3727
  19   2.0000      -5.892614      -160.3462
  20   2.0000      -5.892457      -160.3419
  21   2.0000      -2.436268       -66.2942
  22   2.0000      -1.274815       -34.6895
  23   2.0000      -1.274413       -34.6785
  24   2.0000      -1.263207       -34.3736
  25   2.0000      -0.978895       -26.6371
  26   2.0000      -0.969814       -26.3900
  27   2.0000      -0.799952       -21.7678
  28   2.0000      -0.795344       -21.6424
  29   2.0000      -0.793201       -21.5841
  30   2.0000      -0.791956       -21.5502
  31   2.0000      -0.789915       -21.4947
  32   2.0000      -0.693192       -18.8627
  33   2.0000      -0.616310       -16.7707
  34   2.0000      -0.614859       -16.7312
  35   2.0000      -0.611727       -16.6459
  36   2.0000      -0.606348       -16.4996
  37   2.0000      -0.597246       -16.2519
  38   2.0000      -0.591755       -16.1025
  39   2.0000      -0.561815       -15.2878
  40   2.0000      -0.560894       -15.2627
  41   2.0000      -0.560692       -15.2572
  42   2.0000      -0.559745       -15.2314
  43   2.0000      -0.559249       -15.2179
  44   2.0000      -0.558504       -15.1977
  45   2.0000      -0.556885       -15.1536
  46   2.0000      -0.507704       -13.8153
  47   2.0000      -0.470224       -12.7955
  48   2.0000      -0.465557       -12.6684
  49   2.0000      -0.456377       -12.4187
  50   2.0000      -0.452695       -12.3184
  51   2.0000      -0.451903       -12.2969
  52   2.0000      -0.450555       -12.2602
  53   2.0000      -0.440412       -11.9842
  54   2.0000      -0.436129       -11.8677
  55   2.0000      -0.434547       -11.8246
  56   2.0000      -0.429942       -11.6993
  57   2.0000      -0.427508       -11.6331
  58   2.0000      -0.425200       -11.5703
  59   2.0000      -0.384141       -10.4530
  60   2.0000      -0.377922       -10.2838
  61   2.0000      -0.294584        -8.0160
  62   2.0000      -0.284116        -7.7312
  63   2.0000      -0.280910        -7.6440
  64   2.0000      -0.262612        -7.1460
  65   2.0000      -0.241271        -6.5653
  66   0.0000      -0.013509        -0.3676
  67   0.0000       0.020741         0.5644
  68   0.0000       0.041669         1.1339
  69   0.0000       0.054707         1.4887
  70   0.0000       0.057088         1.5534

MULLIKEN ATOMIC CHARGES
-----------------------
   0 Lu:    0.710617
   1 C :   -0.250203
   2 C :   -0.317196
   3 C :   -0.238931
   4 C :   -0.304519
   5 C :   -0.296106
   6 H :    0.244048
   7 H :    0.248425
   8 H :    0.234394
   9 H :    0.231885
  10 H :    0.230251
  11 C :   -0.313026
  12 C :   -0.267920
  13 C :   -0.305627
  14 C :   -0.248281
  15 H :    0.246562
  16 C :   -0.261699
  17 H :    0.247868
  18 H :    0.231805
  19 H :    0.230110
  20 H :    0.233633
  21 C :   -0.964139
  22 H :    0.263398
  23 H :    0.273545
  24 H :    0.258390
  25 C :   -1.008592
  26 H :    0.288582
  27 H :    0.196386
  28 H :    0.205266
  29 H :    0.201075
Sum of atomic charges:    0.0000000

LOEWDIN ATOMIC CHARGES
----------------------
   0 Lu:   -0.124360
   1 C :   -0.134720
   2 C :   -0.152457
   3 C :   -0.120828
   4 C :   -0.144802
   5 C :   -0.132051
   6 H :    0.158481
   7 H :    0.162316
   8 H :    0.151507
   9 H :    0.152109
  10 H :    0.151297
  11 C :   -0.141241
  12 C :   -0.125419
  13 C :   -0.148730
  14 C :   -0.124059
  15 H :    0.159584
  16 C :   -0.139147
  17 H :    0.161266
  18 H :    0.151702
  19 H :    0.152152
  20 H :    0.149861
  21 C :   -0.481878
  22 H :    0.150801
  23 H :    0.155120
  24 H :    0.158988
  25 C :   -0.648341
  26 H :    0.229867
  27 H :    0.134007
  28 H :    0.120543
  29 H :    0.118432

  Mayer bond orders larger than 0.100000
B(  0-Lu,  1-C ) :   0.2585 B(  0-Lu,  2-C ) :   0.2668 B(  0-Lu,  3-C ) :   0.2499
B(  0-Lu,  4-C ) :   0.2947 B(  0-Lu,  5-C ) :   0.2580 B(  0-Lu, 11-C ) :   0.2967
B(  0-Lu, 12-C ) :   0.2509 B(  0-Lu, 13-C ) :   0.2700 B(  0-Lu, 14-C ) :   0.2631
B(  0-Lu, 16-C ) :   0.2667 B(  0-Lu, 21-C ) :   0.1901 B(  0-Lu, 25-C ) :   0.7774
B(  0-Lu, 26-H ) :   0.1102 B(  1-C ,  2-C ) :   1.2734 B(  1-C ,  5-C ) :   1.3069
B(  1-C ,  8-H ) :   0.9168 B(  2-C ,  3-C ) :   1.3003 B(  2-C ,  9-H ) :   0.9230
B(  3-C ,  4-C ) :   1.2911 B(  3-C , 10-H ) :   0.9214 B(  4-C ,  5-C ) :   1.2597
B(  4-C ,  6-H ) :   0.9144 B(  5-C ,  7-H ) :   0.9191 B( 11-C , 12-C ) :   1.2694
B( 11-C , 14-C ) :   1.2872 B( 11-C , 15-H ) :   0.9136 B( 12-C , 16-C ) :   1.3061
B( 12-C , 17-H ) :   0.9155 B( 13-C , 14-C ) :   1.2892 B( 13-C , 16-C ) :   1.2732
B( 13-C , 19-H ) :   0.9248 B( 14-C , 18-H ) :   0.9211 B( 16-C , 20-H ) :   0.9156
B( 21-C , 22-H ) :   0.8955 B( 21-C , 23-H ) :   0.8717 B( 21-C , 24-H ) :   0.9087
B( 21-C , 26-H ) :   0.7555 B( 25-C , 27-H ) :   0.8846 B( 25-C , 28-H ) :   0.9228
B( 25-C , 29-H ) :   0.9169

Dispersion correction           -0.017879484
FINAL SINGLE POINT ENERGY     -1702.350048353026
Dispersion correction            ... done

DIPOLE MOMENT
-------------
                                X             Y             Z
Electronic contribution:     -7.55442       7.23336      -0.44031
Nuclear contribution   :      7.77015      -8.12628       0.97760
                        -----------------------------------------
Total Dipole Moment    :      0.21573      -0.89292       0.53729
                        -----------------------------------------
Magnitude (a.u.)       :      1.06420
Magnitude (Debye)      :      2.70498

Rotational constants in cm-1:     0.029280     0.020631     0.018032
Rotational constants in MHz :   877.799303   618.492866   540.580292

                             ****ORCA TERMINATED NORMALLY****
TOTAL RUN TIME: 0 days 0 hours 9 minutes 15 seconds 825 msec
