                         Program Version 5.0.3 -  RELEASE  -
|  1> ! EnGrad PBEh-3c
|  2> %output
|  3> xyzfile=True
|  4> end
|  5> %scf
|  6> maxiter 250
|  7> end
|  8> %output
|  9> Print[P_Hirshfeld] = 1
| 10> end
| 11> % maxcore
| 12> 4000
| 13> *xyz 0 1
| 14> Lu   0.25240949   0.04284922  -0.00745793
| 15> C    0.44818933   0.80426527   2.51000842
| 16> C    1.42185001  -0.16573988   2.19123646
| 17> C    2.34040002   0.42648419   1.29399107
| 18> C    1.86737408   1.71634204   0.96490004
| 19> C    0.66809421   1.92141378   1.68566351
| 20> H    2.30880127   2.40087677   0.25190841
| 21> H    0.12946704   2.85690311   1.73701460
| 22> H   -0.25440090   0.73785716   3.32818393
| 23> H    1.53007450  -1.13114051   2.66885902
| 24> H    3.24045303  -0.03602932   0.91354000
| 25> C    0.91835147  -0.09814784  -2.45294427
| 26> C   -0.35834365  -0.70164871  -2.41503685
| 27> C    1.05784969  -2.01022038  -1.21394790
| 28> C    1.80382783  -0.92532197  -1.72973804
| 29> H    1.15824266   0.84227624  -2.92994386
| 30> C   -0.27098411  -1.88948181  -1.67573514
| 31> H   -1.19979644  -0.40457185  -3.02175216
| 32> H    2.85700497  -0.75374524  -1.55982110
| 33> H    1.46343878  -2.84562678  -0.65824969
| 34> H   -1.04075909  -2.64247972  -1.59956582
| 35> C   -2.21307707  -1.66135506   1.27118080
| 36> H   -2.26188382  -1.42460191   2.33682520
| 37> H   -2.09338953  -2.74478592   1.16837041
| 38> H   -3.23405309  -1.54075054   0.87861880
| 39> C   -1.92397947   2.01828163  -0.91089572
| 40> H   -2.43951533   0.26242517   0.41985793
| 41> H   -1.12926355   2.62127337  -1.35287958
| 42> H   -2.54512316   2.72346181  -0.35553517
| 43> H   -2.50126919   1.60094400  -1.73665761
| 44> *
| 45>
| 46>                          ****END OF INPUT****

CARTESIAN COORDINATES (ANGSTROEM)
---------------------------------
  Lu     0.252409    0.042849   -0.007458
  C      0.448189    0.804265    2.510008
  C      1.421850   -0.165740    2.191236
  C      2.340400    0.426484    1.293991
  C      1.867374    1.716342    0.964900
  C      0.668094    1.921414    1.685664
  H      2.308801    2.400877    0.251908
  H      0.129467    2.856903    1.737015
  H     -0.254401    0.737857    3.328184
  H      1.530074   -1.131141    2.668859
  H      3.240453   -0.036029    0.913540
  C      0.918351   -0.098148   -2.452944
  C     -0.358344   -0.701649   -2.415037
  C      1.057850   -2.010220   -1.213948
  C      1.803828   -0.925322   -1.729738
  H      1.158243    0.842276   -2.929944
  C     -0.270984   -1.889482   -1.675735
  H     -1.199796   -0.404572   -3.021752
  H      2.857005   -0.753745   -1.559821
  H      1.463439   -2.845627   -0.658250
  H     -1.040759   -2.642480   -1.599566
  C     -2.213077   -1.661355    1.271181
  H     -2.261884   -1.424602    2.336825
  H     -2.093390   -2.744786    1.168370
  H     -3.234053   -1.540751    0.878619
  C     -1.923979    2.018282   -0.910896
  H     -2.439515    0.262425    0.419858
  H     -1.129264    2.621273   -1.352880
  H     -2.545123    2.723462   -0.355535
  H     -2.501269    1.600944   -1.736658

 Total Charge           Charge          ....    0
 Multiplicity           Mult            ....    1
 Number of Electrons    NEL             ....  132
 Basis Dimension        Dim             ....  295

ORBITAL ENERGIES
----------------

  NO   OCC          E(Eh)            E(eV)
   0   2.0000     -19.262648      -524.1633
   1   2.0000     -12.634122      -343.7919
   2   2.0000     -12.633190      -343.7666
   3   2.0000     -12.632797      -343.7559
   4   2.0000     -10.455850      -284.5181
   5   2.0000     -10.454317      -284.4764
   6   2.0000     -10.453876      -284.4644
   7   2.0000     -10.453546      -284.4554
   8   2.0000     -10.451019      -284.3867
   9   2.0000     -10.450586      -284.3749
  10   2.0000     -10.450489      -284.3723
  11   2.0000     -10.449078      -284.3339
  12   2.0000     -10.448236      -284.3110
  13   2.0000     -10.447174      -284.2821
  14   2.0000     -10.420376      -283.5529
  15   2.0000     -10.418022      -283.4888
  16   2.0000      -5.903494      -160.6423
  17   2.0000      -5.903362      -160.6387
  18   2.0000      -5.903253      -160.6357
  19   2.0000      -5.902640      -160.6190
  20   2.0000      -5.902540      -160.6163
  21   2.0000      -2.445932       -66.5572
  22   2.0000      -1.286800       -35.0156
  23   2.0000      -1.279585       -34.8193
  24   2.0000      -1.276604       -34.7382
  25   2.0000      -0.988785       -26.9062
  26   2.0000      -0.976656       -26.5762
  27   2.0000      -0.802428       -21.8352
  28   2.0000      -0.801160       -21.8007
  29   2.0000      -0.799210       -21.7476
  30   2.0000      -0.797692       -21.7063
  31   2.0000      -0.726006       -19.7556
  32   2.0000      -0.722265       -19.6538
  33   2.0000      -0.622494       -16.9389
  34   2.0000      -0.618507       -16.8304
  35   2.0000      -0.616273       -16.7696
  36   2.0000      -0.613912       -16.7054
  37   2.0000      -0.603576       -16.4241
  38   2.0000      -0.597491       -16.2586
  39   2.0000      -0.570879       -15.5344
  40   2.0000      -0.570044       -15.5117
  41   2.0000      -0.569375       -15.4935
  42   2.0000      -0.568858       -15.4794
  43   2.0000      -0.568715       -15.4755
  44   2.0000      -0.568283       -15.4638
  45   2.0000      -0.567577       -15.4445
  46   2.0000      -0.478164       -13.0115
  47   2.0000      -0.461196       -12.5498
  48   2.0000      -0.457349       -12.4451
  49   2.0000      -0.456143       -12.4123
  50   2.0000      -0.454663       -12.3720
  51   2.0000      -0.440752       -11.9935
  52   2.0000      -0.439281       -11.9534
  53   2.0000      -0.437462       -11.9039
  54   2.0000      -0.436428       -11.8758
  55   2.0000      -0.434514       -11.8237
  56   2.0000      -0.425235       -11.5712
  57   2.0000      -0.420277       -11.4363
  58   2.0000      -0.419586       -11.4175
  59   2.0000      -0.411292       -11.1918
  60   2.0000      -0.313467        -8.5299
  61   2.0000      -0.297894        -8.1061
  62   2.0000      -0.290414        -7.9026
  63   2.0000      -0.284741        -7.7482
  64   2.0000      -0.282080        -7.6758
  65   2.0000      -0.224398        -6.1062
  66   0.0000      -0.056385        -1.5343
  67   0.0000      -0.011667        -0.3175
  68   0.0000       0.013504         0.3675
  69   0.0000       0.041168         1.1202
  70   0.0000       0.048345         1.3155

MULLIKEN ATOMIC CHARGES
-----------------------
   0 Lu:    0.739780
   1 C :   -0.190170
   2 C :   -0.356299
   3 C :   -0.269851
   4 C :   -0.277274
   5 C :   -0.317189
   6 H :    0.249976
   7 H :    0.240846
   8 H :    0.238808
   9 H :    0.249146
  10 H :    0.244608
  11 C :   -0.295840
  12 C :   -0.281237
  13 C :   -0.340577
  14 C :   -0.266237
  15 H :    0.248152
  16 C :   -0.214960
  17 H :    0.233490
  18 H :    0.242614
  19 H :    0.245214
  20 H :    0.238397
  21 C :   -0.921284
  22 H :    0.217703
  23 H :    0.220874
  24 H :    0.207177
  25 C :   -0.917640
  26 H :    0.174946
  27 H :    0.212629
  28 H :    0.221869
  29 H :    0.222329
Sum of atomic charges:    0.0000000

LOEWDIN ATOMIC CHARGES
----------------------
   0 Lu:   -0.136986
   1 C :   -0.102835
   2 C :   -0.147158
   3 C :   -0.126823
   4 C :   -0.141555
   5 C :   -0.128183
   6 H :    0.160354
   7 H :    0.159991
   8 H :    0.159311
   9 H :    0.161517
  10 H :    0.158170
  11 C :   -0.144154
  12 C :   -0.121568
  13 C :   -0.148792
  14 C :   -0.128913
  15 H :    0.158757
  16 C :   -0.108193
  17 H :    0.157473
  18 H :    0.157011
  19 H :    0.158898
  20 H :    0.160301
  21 C :   -0.587536
  22 H :    0.122424
  23 H :    0.134178
  24 H :    0.118300
  25 C :   -0.572376
  26 H :    0.243149
  27 H :    0.135171
  28 H :    0.125565
  29 H :    0.124502

  Mayer bond orders larger than 0.100000
B(  0-Lu,  1-C ) :   0.2345 B(  0-Lu,  2-C ) :   0.2950 B(  0-Lu,  3-C ) :   0.3018
B(  0-Lu,  4-C ) :   0.2967 B(  0-Lu,  5-C ) :   0.2618 B(  0-Lu, 11-C ) :   0.2902
B(  0-Lu, 12-C ) :   0.2509 B(  0-Lu, 13-C ) :   0.3030 B(  0-Lu, 14-C ) :   0.2993
B(  0-Lu, 16-C ) :   0.2407 B(  0-Lu, 21-C ) :   0.3631 B(  0-Lu, 25-C ) :   0.4114
B(  0-Lu, 26-H ) :   0.2450 B(  1-C ,  2-C ) :   1.2806 B(  1-C ,  5-C ) :   1.3095
B(  1-C ,  8-H ) :   0.9253 B(  2-C ,  3-C ) :   1.2583 B(  2-C ,  9-H ) :   0.9152
B(  3-C ,  4-C ) :   1.2668 B(  3-C , 10-H ) :   0.9111 B(  4-C ,  5-C ) :   1.2615
B(  4-C ,  6-H ) :   0.9056 B(  5-C ,  7-H ) :   0.9250 B( 11-C , 12-C ) :   1.2706
B( 11-C , 14-C ) :   1.2757 B( 11-C , 15-H ) :   0.9074 B( 12-C , 16-C ) :   1.3139
B( 12-C , 17-H ) :   0.9282 B( 13-C , 14-C ) :   1.2545 B( 13-C , 16-C ) :   1.2739
B( 13-C , 19-H ) :   0.9151 B( 14-C , 18-H ) :   0.9103 B( 16-C , 20-H ) :   0.9250
B( 21-C , 22-H ) :   0.9148 B( 21-C , 23-H ) :   0.9144 B( 21-C , 24-H ) :   0.9216
B( 21-C , 25-C ) :   0.1687 B( 21-C , 26-H ) :   0.3668 B( 25-C , 26-H ) :   0.3369
B( 25-C , 27-H ) :   0.9027 B( 25-C , 28-H ) :   0.9217 B( 25-C , 29-H ) :   0.9158

Dispersion correction           -0.017814868
FINAL SINGLE POINT ENERGY     -1702.197174952737
Dispersion correction            ... done

DIPOLE MOMENT
-------------
                                X             Y             Z
Electronic contribution:      5.84513       2.89610       0.17362
Nuclear contribution   :     -5.13589      -2.85569      -0.24832
                        -----------------------------------------
Total Dipole Moment    :      0.70924       0.04042      -0.07469
                        -----------------------------------------
Magnitude (a.u.)       :      0.71431
Magnitude (Debye)      :      1.81562

Rotational constants in cm-1:     0.027775     0.019381     0.017652
Rotational constants in MHz :   832.678308   581.040064   529.196502

                             ****ORCA TERMINATED NORMALLY****
TOTAL RUN TIME: 0 days 0 hours 9 minutes 21 seconds 669 msec
