                         Program Version 5.0.3 -  RELEASE  -
|  1> ! EnGrad PBEh-3c
|  2> %output
|  3> xyzfile=True
|  4> end
|  5> %scf
|  6> maxiter 250
|  7> end
|  8> %output
|  9> Print[P_Hirshfeld] = 1
| 10> end
| 11> % maxcore
| 12> 4000
| 13> *xyz 0 1
| 14> Lu   0.01046840   0.02828300   0.03658317
| 15> C    0.43956347   0.79067335   2.51195459
| 16> C    1.42844167  -0.17074374   2.19603503
| 17> C    2.29155017   0.39324589   1.23828631
| 18> C    1.81033334   1.67652968   0.91264203
| 19> C    0.65957500   1.91660237   1.69680504
| 20> H    2.29891610   2.38284984   0.25701842
| 21> H    0.09766764   2.84213928   1.72526849
| 22> H   -0.34237144   0.67766475   3.24778006
| 23> H    1.57213154  -1.12415694   2.68783142
| 24> H    3.20697520  -0.04933676   0.87247695
| 25> C    0.89098615  -0.07282660  -2.39831167
| 26> C   -0.36721686  -0.71535778  -2.42956211
| 27> C    1.05212189  -2.00067226  -1.19306808
| 28> C    1.77062089  -0.88074461  -1.65222353
| 29> H    1.16736665   0.82545759  -2.93029389
| 30> C   -0.26735844  -1.90797535  -1.69146307
| 31> H   -1.24315653  -0.36131390  -2.95514039
| 32> H    2.83066855  -0.71572754  -1.53449410
| 33> H    1.47271452  -2.83865554  -0.65209351
| 34> H   -1.05464955  -2.62978910  -1.53479838
| 35> C   -2.24820149  -1.32968248   1.13850442
| 36> H   -2.23358699  -1.24417984   2.23055376
| 37> H   -1.79482040  -2.31997800   0.94678590
| 38> H   -3.32418497  -1.47563750   0.88290989
| 39> C   -1.92577951   1.75381880  -0.76618289
| 40> H   -2.10571253   0.19071153   0.26059575
| 41> H   -1.05927812   2.32952137  -1.15159290
| 42> H   -2.51552477   2.52739660  -0.25055459
| 43> H   -2.50361304   1.52387077  -1.67385584
| 44> *
| 45>
| 46>                          ****END OF INPUT****

CARTESIAN COORDINATES (ANGSTROEM)
---------------------------------
  Lu     0.010468    0.028283    0.036583
  C      0.439563    0.790673    2.511955
  C      1.428442   -0.170744    2.196035
  C      2.291550    0.393246    1.238286
  C      1.810333    1.676530    0.912642
  C      0.659575    1.916602    1.696805
  H      2.298916    2.382850    0.257018
  H      0.097668    2.842139    1.725268
  H     -0.342371    0.677665    3.247780
  H      1.572132   -1.124157    2.687831
  H      3.206975   -0.049337    0.872477
  C      0.890986   -0.072827   -2.398312
  C     -0.367217   -0.715358   -2.429562
  C      1.052122   -2.000672   -1.193068
  C      1.770621   -0.880745   -1.652224
  H      1.167367    0.825458   -2.930294
  C     -0.267358   -1.907975   -1.691463
  H     -1.243157   -0.361314   -2.955140
  H      2.830669   -0.715728   -1.534494
  H      1.472715   -2.838656   -0.652094
  H     -1.054650   -2.629789   -1.534798
  C     -2.248201   -1.329682    1.138504
  H     -2.233587   -1.244180    2.230554
  H     -1.794820   -2.319978    0.946786
  H     -3.324185   -1.475637    0.882910
  C     -1.925780    1.753819   -0.766183
  H     -2.105713    0.190712    0.260596
  H     -1.059278    2.329521   -1.151593
  H     -2.515525    2.527397   -0.250555
  H     -2.503613    1.523871   -1.673856

 Total Charge           Charge          ....    0
 Multiplicity           Mult            ....    1
 Number of Electrons    NEL             ....  132
 Basis Dimension        Dim             ....  295

ORBITAL ENERGIES
----------------

  NO   OCC          E(Eh)            E(eV)
   0   2.0000     -19.258404      -524.0478
   1   2.0000     -12.629766      -343.6734
   2   2.0000     -12.628899      -343.6498
   3   2.0000     -12.628688      -343.6441
   4   2.0000     -10.449087      -284.3341
   5   2.0000     -10.447960      -284.3034
   6   2.0000     -10.447563      -284.2926
   7   2.0000     -10.446918      -284.2751
   8   2.0000     -10.446669      -284.2683
   9   2.0000     -10.446210      -284.2558
  10   2.0000     -10.445887      -284.2470
  11   2.0000     -10.445351      -284.2325
  12   2.0000     -10.445091      -284.2254
  13   2.0000     -10.444220      -284.2017
  14   2.0000     -10.432761      -283.8899
  15   2.0000     -10.418497      -283.5017
  16   2.0000      -5.899166      -160.5245
  17   2.0000      -5.899116      -160.5231
  18   2.0000      -5.898921      -160.5178
  19   2.0000      -5.898427      -160.5043
  20   2.0000      -5.898336      -160.5019
  21   2.0000      -2.441391       -66.4336
  22   2.0000      -1.279370       -34.8134
  23   2.0000      -1.275208       -34.7002
  24   2.0000      -1.272984       -34.6397
  25   2.0000      -0.981903       -26.7189
  26   2.0000      -0.972907       -26.4742
  27   2.0000      -0.797287       -21.6953
  28   2.0000      -0.794501       -21.6195
  29   2.0000      -0.793450       -21.5909
  30   2.0000      -0.792260       -21.5585
  31   2.0000      -0.742824       -20.2133
  32   2.0000      -0.732575       -19.9344
  33   2.0000      -0.616321       -16.7710
  34   2.0000      -0.614054       -16.7092
  35   2.0000      -0.611396       -16.6369
  36   2.0000      -0.609598       -16.5880
  37   2.0000      -0.598289       -16.2803
  38   2.0000      -0.592739       -16.1292
  39   2.0000      -0.566510       -15.4155
  40   2.0000      -0.565405       -15.3855
  41   2.0000      -0.565217       -15.3803
  42   2.0000      -0.564925       -15.3724
  43   2.0000      -0.564734       -15.3672
  44   2.0000      -0.564653       -15.3650
  45   2.0000      -0.563370       -15.3301
  46   2.0000      -0.469663       -12.7802
  47   2.0000      -0.457071       -12.4375
  48   2.0000      -0.454313       -12.3625
  49   2.0000      -0.452788       -12.3210
  50   2.0000      -0.451955       -12.2983
  51   2.0000      -0.439889       -11.9700
  52   2.0000      -0.434275       -11.8172
  53   2.0000      -0.433998       -11.8097
  54   2.0000      -0.432778       -11.7765
  55   2.0000      -0.431726       -11.7479
  56   2.0000      -0.431417       -11.7394
  57   2.0000      -0.424234       -11.5440
  58   2.0000      -0.422167       -11.4878
  59   2.0000      -0.415086       -11.2951
  60   2.0000      -0.390947       -10.6382
  61   2.0000      -0.295195        -8.0327
  62   2.0000      -0.286229        -7.7887
  63   2.0000      -0.281373        -7.6566
  64   2.0000      -0.266980        -7.2649
  65   2.0000      -0.256338        -6.9753
  66   0.0000      -0.021175        -0.5762
  67   0.0000       0.028184         0.7669
  68   0.0000       0.037776         1.0279
  69   0.0000       0.044168         1.2019
  70   0.0000       0.055996         1.5237

MULLIKEN ATOMIC CHARGES
-----------------------
   0 Lu:    0.665225
   1 C :   -0.238551
   2 C :   -0.331538
   3 C :   -0.246389
   4 C :   -0.299850
   5 C :   -0.289381
   6 H :    0.239223
   7 H :    0.243169
   8 H :    0.243088
   9 H :    0.239642
  10 H :    0.233917
  11 C :   -0.310724
  12 C :   -0.258747
  13 C :   -0.318070
  14 C :   -0.251612
  15 H :    0.239836
  16 C :   -0.252578
  17 H :    0.241895
  18 H :    0.232497
  19 H :    0.237038
  20 H :    0.242750
  21 C :   -0.963752
  22 H :    0.238600
  23 H :    0.229633
  24 H :    0.241092
  25 C :   -0.965763
  26 H :    0.268232
  27 H :    0.222495
  28 H :    0.235540
  29 H :    0.233082
Sum of atomic charges:   -0.0000000

LOEWDIN ATOMIC CHARGES
----------------------
   0 Lu:   -0.181731
   1 C :   -0.128490
   2 C :   -0.149761
   3 C :   -0.123253
   4 C :   -0.145316
   5 C :   -0.133303
   6 H :    0.155848
   7 H :    0.158704
   8 H :    0.157768
   9 H :    0.155736
  10 H :    0.152187
  11 C :   -0.145999
  12 C :   -0.126604
  13 C :   -0.149216
  14 C :   -0.123912
  15 H :    0.155609
  16 C :   -0.130746
  17 H :    0.158173
  18 H :    0.151672
  19 H :    0.154783
  20 H :    0.156942
  21 C :   -0.567229
  22 H :    0.135050
  23 H :    0.144435
  24 H :    0.139065
  25 C :   -0.581106
  26 H :    0.294218
  27 H :    0.151760
  28 H :    0.133595
  29 H :    0.131121

  Mayer bond orders larger than 0.100000
B(  0-Lu,  1-C ) :   0.2504 B(  0-Lu,  2-C ) :   0.2851 B(  0-Lu,  3-C ) :   0.2648
B(  0-Lu,  4-C ) :   0.2853 B(  0-Lu,  5-C ) :   0.2593 B(  0-Lu, 11-C ) :   0.2871
B(  0-Lu, 12-C ) :   0.2518 B(  0-Lu, 13-C ) :   0.2904 B(  0-Lu, 14-C ) :   0.2716
B(  0-Lu, 16-C ) :   0.2579 B(  0-Lu, 21-C ) :   0.3991 B(  0-Lu, 25-C ) :   0.5141
B(  0-Lu, 26-H ) :   0.2456 B(  1-C ,  2-C ) :   1.2724 B(  1-C ,  5-C ) :   1.3071
B(  1-C ,  8-H ) :   0.9146 B(  2-C ,  3-C ) :   1.2889 B(  2-C ,  9-H ) :   0.9181
B(  3-C ,  4-C ) :   1.2858 B(  3-C , 10-H ) :   0.9197 B(  4-C ,  5-C ) :   1.2703
B(  4-C ,  6-H ) :   0.9186 B(  5-C ,  7-H ) :   0.9178 B( 11-C , 12-C ) :   1.2730
B( 11-C , 14-C ) :   1.2889 B( 11-C , 15-H ) :   0.9177 B( 12-C , 16-C ) :   1.3125
B( 12-C , 17-H ) :   0.9151 B( 13-C , 14-C ) :   1.2805 B( 13-C , 16-C ) :   1.2688
B( 13-C , 19-H ) :   0.9194 B( 14-C , 18-H ) :   0.9211 B( 16-C , 20-H ) :   0.9138
B( 21-C , 22-H ) :   0.9036 B( 21-C , 23-H ) :   0.8936 B( 21-C , 24-H ) :   0.9108
B( 21-C , 25-C ) :   0.1285 B( 21-C , 26-H ) :   0.3850 B( 25-C , 26-H ) :   0.2786
B( 25-C , 27-H ) :   0.8719 B( 25-C , 28-H ) :   0.9125 B( 25-C , 29-H ) :   0.9075

Dispersion correction           -0.017906108
FINAL SINGLE POINT ENERGY     -1702.299818581654
Dispersion correction            ... done

DIPOLE MOMENT
-------------
                                X             Y             Z
Electronic contribution:     -6.20825       1.94376       2.40057
Nuclear contribution   :      6.61299      -2.08369      -2.34664
                        -----------------------------------------
Total Dipole Moment    :      0.40475      -0.13993       0.05393
                        -----------------------------------------
Magnitude (a.u.)       :      0.43164
Magnitude (Debye)      :      1.09713

Rotational constants in cm-1:     0.029425     0.020588     0.017804
Rotational constants in MHz :   882.150682   617.219156   533.739971

                             ****ORCA TERMINATED NORMALLY****
TOTAL RUN TIME: 0 days 0 hours 10 minutes 30 seconds 717 msec
