                         Program Version 5.0.3 -  RELEASE  -
|  1> ! EnGrad PBEh-3c
|  2> %output
|  3> xyzfile=True
|  4> end
|  5> %scf
|  6> maxiter 250
|  7> end
|  8> %output
|  9> Print[P_Hirshfeld] = 1
| 10> end
| 11> % maxcore
| 12> 4000
| 13> *xyz 0 1
| 14> Lu   0.10785212   0.05181159   0.00132361
| 15> C    0.45105351   0.80093825   2.49567091
| 16> C    1.44680679  -0.15310526   2.21645522
| 17> C    2.34432669   0.42197159   1.28283996
| 18> C    1.86370159   1.69802337   0.95765924
| 19> C    0.68600732   1.94796210   1.71159923
| 20> H    2.31523245   2.40203002   0.25855756
| 21> H    0.12477289   2.85319360   1.72855034
| 22> H   -0.27031669   0.73359210   3.30934188
| 23> H    1.52748525  -1.12798789   2.66607810
| 24> H    3.23839554  -0.03736485   0.91422666
| 25> C    0.92717859  -0.09964713  -2.44438008
| 26> C   -0.35442147  -0.70490909  -2.44059536
| 27> C    1.06835517  -2.01989343  -1.22180408
| 28> C    1.80300177  -0.91901948  -1.72024129
| 29> H    1.16366130   0.83831581  -2.93777906
| 30> C   -0.25844282  -1.89254282  -1.68510447
| 31> H   -1.20516072  -0.39249918  -3.00933800
| 32> H    2.85748963  -0.75305715  -1.56298409
| 33> H    1.46021045  -2.84215571  -0.65676900
| 34> H   -1.04451477  -2.63219875  -1.58676247
| 35> C   -2.28807177  -1.59902451   1.26209939
| 36> H   -2.25233500  -1.41824695   2.32754441
| 37> H   -2.04334898  -2.73242153   1.14209693
| 38> H   -3.23231946  -1.53542561   0.89783703
| 39> C   -1.94893821   1.97508998  -0.88946348
| 40> H   -2.34120467   0.23782925   0.39704038
| 41> H   -1.10431930   2.60464338  -1.34288819
| 42> H   -2.54284541   2.70096600  -0.34225167
| 43> H   -2.50161718   1.59581313  -1.72427769
| 44> *
| 45>
| 46>                          ****END OF INPUT****

CARTESIAN COORDINATES (ANGSTROEM)
---------------------------------
  Lu     0.107852    0.051812    0.001324
  C      0.451054    0.800938    2.495671
  C      1.446807   -0.153105    2.216455
  C      2.344327    0.421972    1.282840
  C      1.863702    1.698023    0.957659
  C      0.686007    1.947962    1.711599
  H      2.315232    2.402030    0.258558
  H      0.124773    2.853194    1.728550
  H     -0.270317    0.733592    3.309342
  H      1.527485   -1.127988    2.666078
  H      3.238396   -0.037365    0.914227
  C      0.927179   -0.099647   -2.444380
  C     -0.354421   -0.704909   -2.440595
  C      1.068355   -2.019893   -1.221804
  C      1.803002   -0.919019   -1.720241
  H      1.163661    0.838316   -2.937779
  C     -0.258443   -1.892543   -1.685104
  H     -1.205161   -0.392499   -3.009338
  H      2.857490   -0.753057   -1.562984
  H      1.460210   -2.842156   -0.656769
  H     -1.044515   -2.632199   -1.586762
  C     -2.288072   -1.599025    1.262099
  H     -2.252335   -1.418247    2.327544
  H     -2.043349   -2.732422    1.142097
  H     -3.232319   -1.535426    0.897837
  C     -1.948938    1.975090   -0.889463
  H     -2.341205    0.237829    0.397040
  H     -1.104319    2.604643   -1.342888
  H     -2.542845    2.700966   -0.342252
  H     -2.501617    1.595813   -1.724278

 Total Charge           Charge          ....    0
 Multiplicity           Mult            ....    1
 Number of Electrons    NEL             ....  132
 Basis Dimension        Dim             ....  295

ORBITAL ENERGIES
----------------

  NO   OCC          E(Eh)            E(eV)
   0   2.0000     -19.266520      -524.2687
   1   2.0000     -12.638065      -343.8992
   2   2.0000     -12.637019      -343.8708
   3   2.0000     -12.636807      -343.8650
   4   2.0000     -10.451756      -284.4067
   5   2.0000     -10.451270      -284.3935
   6   2.0000     -10.449975      -284.3583
   7   2.0000     -10.449027      -284.3325
   8   2.0000     -10.448207      -284.3102
   9   2.0000     -10.447588      -284.2933
  10   2.0000     -10.447527      -284.2917
  11   2.0000     -10.446887      -284.2743
  12   2.0000     -10.446534      -284.2646
  13   2.0000     -10.445149      -284.2269
  14   2.0000     -10.429500      -283.8011
  15   2.0000     -10.424062      -283.6531
  16   2.0000      -5.907450      -160.7499
  17   2.0000      -5.907347      -160.7471
  18   2.0000      -5.907277      -160.7452
  19   2.0000      -5.906592      -160.7265
  20   2.0000      -5.906530      -160.7249
  21   2.0000      -2.449253       -66.6476
  22   2.0000      -1.286367       -35.0038
  23   2.0000      -1.282089       -34.8874
  24   2.0000      -1.278503       -34.7898
  25   2.0000      -0.983614       -26.7655
  26   2.0000      -0.974569       -26.5194
  27   2.0000      -0.798564       -21.7300
  28   2.0000      -0.796415       -21.6716
  29   2.0000      -0.795463       -21.6457
  30   2.0000      -0.794925       -21.6310
  31   2.0000      -0.738721       -20.1016
  32   2.0000      -0.726395       -19.7662
  33   2.0000      -0.619120       -16.8471
  34   2.0000      -0.615491       -16.7484
  35   2.0000      -0.613173       -16.6853
  36   2.0000      -0.612707       -16.6726
  37   2.0000      -0.599930       -16.3249
  38   2.0000      -0.594948       -16.1893
  39   2.0000      -0.574725       -15.6391
  40   2.0000      -0.573841       -15.6150
  41   2.0000      -0.573098       -15.5948
  42   2.0000      -0.572996       -15.5920
  43   2.0000      -0.572870       -15.5886
  44   2.0000      -0.572597       -15.5811
  45   2.0000      -0.571254       -15.5446
  46   2.0000      -0.472473       -12.8567
  47   2.0000      -0.457217       -12.4415
  48   2.0000      -0.455263       -12.3883
  49   2.0000      -0.454392       -12.3646
  50   2.0000      -0.453740       -12.3469
  51   2.0000      -0.449105       -12.2208
  52   2.0000      -0.437982       -11.9181
  53   2.0000      -0.436894       -11.8885
  54   2.0000      -0.435585       -11.8529
  55   2.0000      -0.432712       -11.7747
  56   2.0000      -0.431209       -11.7338
  57   2.0000      -0.427229       -11.6255
  58   2.0000      -0.418573       -11.3900
  59   2.0000      -0.412254       -11.2180
  60   2.0000      -0.337080        -9.1724
  61   2.0000      -0.292969        -7.9721
  62   2.0000      -0.289758        -7.8847
  63   2.0000      -0.282261        -7.6807
  64   2.0000      -0.273267        -7.4360
  65   2.0000      -0.236152        -6.4260
  66   0.0000      -0.051236        -1.3942
  67   0.0000      -0.001698        -0.0462
  68   0.0000       0.021492         0.5848
  69   0.0000       0.044985         1.2241
  70   0.0000       0.050656         1.3784

MULLIKEN ATOMIC CHARGES
-----------------------
   0 Lu:    0.723034
   1 C :   -0.278512
   2 C :   -0.302119
   3 C :   -0.265935
   4 C :   -0.308284
   5 C :   -0.265167
   6 H :    0.243366
   7 H :    0.246359
   8 H :    0.234524
   9 H :    0.245917
  10 H :    0.237643
  11 C :   -0.300422
  12 C :   -0.276253
  13 C :   -0.311670
  14 C :   -0.259105
  15 H :    0.245199
  16 C :   -0.258027
  17 H :    0.238244
  18 H :    0.236905
  19 H :    0.242025
  20 H :    0.239261
  21 C :   -0.914056
  22 H :    0.229419
  23 H :    0.205418
  24 H :    0.249416
  25 C :   -0.922984
  26 H :    0.182832
  27 H :    0.200980
  28 H :    0.228604
  29 H :    0.233391
Sum of atomic charges:   -0.0000000

LOEWDIN ATOMIC CHARGES
----------------------
   0 Lu:   -0.122498
   1 C :   -0.127846
   2 C :   -0.148386
   3 C :   -0.129294
   4 C :   -0.146919
   5 C :   -0.132888
   6 H :    0.156089
   7 H :    0.159211
   8 H :    0.157082
   9 H :    0.157071
  10 H :    0.153756
  11 C :   -0.145567
  12 C :   -0.130834
  13 C :   -0.149193
  14 C :   -0.126789
  15 H :    0.156966
  16 C :   -0.123103
  17 H :    0.157831
  18 H :    0.153434
  19 H :    0.156025
  20 H :    0.158520
  21 C :   -0.553861
  22 H :    0.129462
  23 H :    0.137378
  24 H :    0.125167
  25 C :   -0.567153
  26 H :    0.252669
  27 H :    0.138449
  28 H :    0.128444
  29 H :    0.126778

  Mayer bond orders larger than 0.100000
B(  0-Lu,  1-C ) :   0.2526 B(  0-Lu,  2-C ) :   0.2794 B(  0-Lu,  3-C ) :   0.2752
B(  0-Lu,  4-C ) :   0.2873 B(  0-Lu,  5-C ) :   0.2550 B(  0-Lu, 11-C ) :   0.2847
B(  0-Lu, 12-C ) :   0.2581 B(  0-Lu, 13-C ) :   0.2886 B(  0-Lu, 14-C ) :   0.2755
B(  0-Lu, 16-C ) :   0.2564 B(  0-Lu, 21-C ) :   0.3688 B(  0-Lu, 25-C ) :   0.4636
B(  0-Lu, 26-H ) :   0.2702 B(  1-C ,  2-C ) :   1.2823 B(  1-C ,  5-C ) :   1.3052
B(  1-C ,  8-H ) :   0.9268 B(  2-C ,  3-C ) :   1.2801 B(  2-C ,  9-H ) :   0.9121
B(  3-C ,  4-C ) :   1.2849 B(  3-C , 10-H ) :   0.9173 B(  4-C ,  5-C ) :   1.2723
B(  4-C ,  6-H ) :   0.9113 B(  5-C ,  7-H ) :   0.9171 B( 11-C , 12-C ) :   1.2696
B( 11-C , 14-C ) :   1.2922 B( 11-C , 15-H ) :   0.9103 B( 12-C , 16-C ) :   1.3046
B( 12-C , 17-H ) :   0.9232 B( 13-C , 14-C ) :   1.2725 B( 13-C , 16-C ) :   1.2770
B( 13-C , 19-H ) :   0.9161 B( 14-C , 18-H ) :   0.9161 B( 16-C , 20-H ) :   0.9220
B( 21-C , 22-H ) :   0.9120 B( 21-C , 23-H ) :   0.9232 B( 21-C , 24-H ) :   0.9015
B( 21-C , 25-C ) :   0.1711 B( 21-C , 26-H ) :   0.3892 B( 25-C , 26-H ) :   0.2905
B( 25-C , 27-H ) :   0.9015 B( 25-C , 28-H ) :   0.9165 B( 25-C , 29-H ) :   0.9068

Dispersion correction           -0.017717101
FINAL SINGLE POINT ENERGY     -1702.222715892362
Dispersion correction            ... done

DIPOLE MOMENT
-------------
                                X             Y             Z
Electronic contribution:     -1.57159       3.16363       0.65208
Nuclear contribution   :      2.01967      -3.27098      -0.67197
                        -----------------------------------------
Total Dipole Moment    :      0.44809      -0.10735      -0.01989
                        -----------------------------------------
Magnitude (a.u.)       :      0.46120
Magnitude (Debye)      :      1.17227

Rotational constants in cm-1:     0.027527     0.019449     0.017394
Rotational constants in MHz :   825.237745   583.068569   521.473527

                             ****ORCA TERMINATED NORMALLY****
TOTAL RUN TIME: 0 days 0 hours 9 minutes 10 seconds 734 msec
