                         Program Version 5.0.3 -  RELEASE  -
|  1> ! EnGrad PBEh-3c
|  2> %output
|  3> xyzfile=True
|  4> end
|  5> %scf
|  6> maxiter 250
|  7> end
|  8> %output
|  9> Print[P_Hirshfeld] = 1
| 10> end
| 11> % maxcore
| 12> 4000
| 13> *xyz 0 1
| 14> Lu  -0.01269250   0.06262715   0.01016540
| 15> C    0.44557421   0.80429291   2.49520714
| 16> C    1.46684716  -0.14034786   2.22669361
| 17> C    2.33613711   0.41222604   1.27911200
| 18> C    1.85664703   1.69867065   0.94500803
| 19> C    0.71131037   1.94935677   1.72662450
| 20> H    2.32009872   2.39854656   0.26763481
| 21> H    0.11623325   2.86004901   1.72163256
| 22> H   -0.28190339   0.72910637   3.28640832
| 23> H    1.52634529  -1.12768071   2.66636544
| 24> H    3.24163976  -0.04151358   0.91103991
| 25> C    0.92632101  -0.09309356  -2.44290524
| 26> C   -0.33995312  -0.71375983  -2.45280087
| 27> C    1.07198462  -2.01748190  -1.23127570
| 28> C    1.80403095  -0.91685311  -1.70513108
| 29> H    1.17012842   0.83165784  -2.94332505
| 30> C   -0.25419146  -1.89562295  -1.69718377
| 31> H   -1.21446959  -0.37896945  -3.00210269
| 32> H    2.85829253  -0.75121963  -1.56480769
| 33> H    1.46021104  -2.84391716  -0.65187269
| 34> H   -1.04555552  -2.62095645  -1.57497247
| 35> C   -2.28532752  -1.57503492   1.26188938
| 36> H   -2.24710269  -1.40585243   2.32398776
| 37> H   -2.00181972  -2.68137405   1.11577692
| 38> H   -3.29388597  -1.52511672   0.89688907
| 39> C   -1.93617411   1.94666690  -0.86871860
| 40> H   -2.24773554   0.20675343   0.37787070
| 41> H   -1.10052186   2.57143262  -1.32147748
| 42> H   -2.54387116   2.67848358  -0.32571391
| 43> H   -2.51072446   1.58469317  -1.72156763
| 44> *
| 45>
| 46>                          ****END OF INPUT****

CARTESIAN COORDINATES (ANGSTROEM)
---------------------------------
  Lu    -0.012693    0.062627    0.010165
  C      0.445574    0.804293    2.495207
  C      1.466847   -0.140348    2.226694
  C      2.336137    0.412226    1.279112
  C      1.856647    1.698671    0.945008
  C      0.711310    1.949357    1.726625
  H      2.320099    2.398547    0.267635
  H      0.116233    2.860049    1.721633
  H     -0.281903    0.729106    3.286408
  H      1.526345   -1.127681    2.666365
  H      3.241640   -0.041514    0.911040
  C      0.926321   -0.093094   -2.442905
  C     -0.339953   -0.713760   -2.452801
  C      1.071985   -2.017482   -1.231276
  C      1.804031   -0.916853   -1.705131
  H      1.170128    0.831658   -2.943325
  C     -0.254191   -1.895623   -1.697184
  H     -1.214470   -0.378969   -3.002103
  H      2.858293   -0.751220   -1.564808
  H      1.460211   -2.843917   -0.651873
  H     -1.045556   -2.620956   -1.574972
  C     -2.285328   -1.575035    1.261889
  H     -2.247103   -1.405852    2.323988
  H     -2.001820   -2.681374    1.115777
  H     -3.293886   -1.525117    0.896889
  C     -1.936174    1.946667   -0.868719
  H     -2.247736    0.206753    0.377871
  H     -1.100522    2.571433   -1.321477
  H     -2.543871    2.678484   -0.325714
  H     -2.510724    1.584693   -1.721568

 Total Charge           Charge          ....    0
 Multiplicity           Mult            ....    1
 Number of Electrons    NEL             ....  132
 Basis Dimension        Dim             ....  295

ORBITAL ENERGIES
----------------

  NO   OCC          E(Eh)            E(eV)
   0   2.0000     -19.268487      -524.3222
   1   2.0000     -12.639988      -343.9516
   2   2.0000     -12.638984      -343.9242
   3   2.0000     -12.638874      -343.9212
   4   2.0000     -10.448282      -284.3122
   5   2.0000     -10.446826      -284.2726
   6   2.0000     -10.446144      -284.2540
   7   2.0000     -10.445453      -284.2352
   8   2.0000     -10.445279      -284.2305
   9   2.0000     -10.444807      -284.2176
  10   2.0000     -10.444420      -284.2071
  11   2.0000     -10.443721      -284.1881
  12   2.0000     -10.443535      -284.1830
  13   2.0000     -10.442884      -284.1653
  14   2.0000     -10.441031      -284.1149
  15   2.0000     -10.430020      -283.8153
  16   2.0000      -5.909398      -160.8029
  17   2.0000      -5.909331      -160.8011
  18   2.0000      -5.909275      -160.7995
  19   2.0000      -5.908643      -160.7823
  20   2.0000      -5.908570      -160.7804
  21   2.0000      -2.450983       -66.6946
  22   2.0000      -1.285843       -34.9896
  23   2.0000      -1.283202       -34.9177
  24   2.0000      -1.280017       -34.8310
  25   2.0000      -0.980053       -26.6686
  26   2.0000      -0.972683       -26.4680
  27   2.0000      -0.795038       -21.6341
  28   2.0000      -0.792720       -21.5710
  29   2.0000      -0.791671       -21.5425
  30   2.0000      -0.789628       -21.4869
  31   2.0000      -0.744364       -20.2552
  32   2.0000      -0.730781       -19.8856
  33   2.0000      -0.615246       -16.7417
  34   2.0000      -0.610876       -16.6228
  35   2.0000      -0.609375       -16.5819
  36   2.0000      -0.608024       -16.5452
  37   2.0000      -0.596380       -16.2283
  38   2.0000      -0.591338       -16.0911
  39   2.0000      -0.576591       -15.6898
  40   2.0000      -0.575657       -15.6644
  41   2.0000      -0.575195       -15.6518
  42   2.0000      -0.575042       -15.6477
  43   2.0000      -0.574822       -15.6417
  44   2.0000      -0.574732       -15.6392
  45   2.0000      -0.573235       -15.5985
  46   2.0000      -0.467566       -12.7231
  47   2.0000      -0.454185       -12.3590
  48   2.0000      -0.452676       -12.3180
  49   2.0000      -0.451362       -12.2822
  50   2.0000      -0.449758       -12.2385
  51   2.0000      -0.447791       -12.1850
  52   2.0000      -0.436122       -11.8675
  53   2.0000      -0.435697       -11.8559
  54   2.0000      -0.433198       -11.7879
  55   2.0000      -0.430822       -11.7233
  56   2.0000      -0.429188       -11.6788
  57   2.0000      -0.427277       -11.6268
  58   2.0000      -0.424591       -11.5537
  59   2.0000      -0.420304       -11.4371
  60   2.0000      -0.356841        -9.7101
  61   2.0000      -0.292634        -7.9630
  62   2.0000      -0.282962        -7.6998
  63   2.0000      -0.278734        -7.5847
  64   2.0000      -0.264841        -7.2067
  65   2.0000      -0.250641        -6.8203
  66   0.0000      -0.055670        -1.5148
  67   0.0000       0.004566         0.1242
  68   0.0000       0.031036         0.8445
  69   0.0000       0.044936         1.2228
  70   0.0000       0.055045         1.4978

MULLIKEN ATOMIC CHARGES
-----------------------
   0 Lu:    0.703837
   1 C :   -0.334179
   2 C :   -0.267704
   3 C :   -0.266554
   4 C :   -0.326287
   5 C :   -0.237190
   6 H :    0.238313
   7 H :    0.245419
   8 H :    0.233746
   9 H :    0.240822
  10 H :    0.230634
  11 C :   -0.306553
  12 C :   -0.274981
  13 C :   -0.294802
  14 C :   -0.255520
  15 H :    0.241685
  16 C :   -0.282703
  17 H :    0.240140
  18 H :    0.231342
  19 H :    0.237517
  20 H :    0.239910
  21 C :   -0.899508
  22 H :    0.242203
  23 H :    0.220847
  24 H :    0.243008
  25 C :   -0.925530
  26 H :    0.200452
  27 H :    0.214907
  28 H :    0.232939
  29 H :    0.233790
Sum of atomic charges:    0.0000000

LOEWDIN ATOMIC CHARGES
----------------------
   0 Lu:   -0.122624
   1 C :   -0.151118
   2 C :   -0.147054
   3 C :   -0.131702
   4 C :   -0.155798
   5 C :   -0.133559
   6 H :    0.153481
   7 H :    0.157738
   8 H :    0.155526
   9 H :    0.153363
  10 H :    0.150362
  11 C :   -0.150032
  12 C :   -0.137290
  13 C :   -0.148288
  14 C :   -0.127448
  15 H :    0.154881
  16 C :   -0.138873
  17 H :    0.157599
  18 H :    0.150527
  19 H :    0.153482
  20 H :    0.157200
  21 C :   -0.527460
  22 H :    0.134737
  23 H :    0.143526
  24 H :    0.133005
  25 C :   -0.554172
  26 H :    0.261421
  27 H :    0.145702
  28 H :    0.132328
  29 H :    0.130537

  Mayer bond orders larger than 0.100000
B(  0-Lu,  1-C ) :   0.2644 B(  0-Lu,  2-C ) :   0.2613 B(  0-Lu,  3-C ) :   0.2498
B(  0-Lu,  4-C ) :   0.2778 B(  0-Lu,  5-C ) :   0.2454 B(  0-Lu, 11-C ) :   0.2797
B(  0-Lu, 12-C ) :   0.2578 B(  0-Lu, 13-C ) :   0.2708 B(  0-Lu, 14-C ) :   0.2531
B(  0-Lu, 16-C ) :   0.2652 B(  0-Lu, 21-C ) :   0.3902 B(  0-Lu, 25-C ) :   0.5123
B(  0-Lu, 26-H ) :   0.3005 B(  1-C ,  2-C ) :   1.2707 B(  1-C ,  5-C ) :   1.3011
B(  1-C ,  8-H ) :   0.9263 B(  2-C ,  3-C ) :   1.3155 B(  2-C ,  9-H ) :   0.9109
B(  3-C ,  4-C ) :   1.2848 B(  3-C , 10-H ) :   0.9209 B(  4-C ,  5-C ) :   1.2861
B(  4-C ,  6-H ) :   0.9165 B(  5-C ,  7-H ) :   0.9116 B( 11-C , 12-C ) :   1.2770
B( 11-C , 14-C ) :   1.2952 B( 11-C , 15-H ) :   0.9134 B( 12-C , 16-C ) :   1.2985
B( 12-C , 17-H ) :   0.9175 B( 13-C , 14-C ) :   1.3001 B( 13-C , 16-C ) :   1.2750
B( 13-C , 19-H ) :   0.9165 B( 14-C , 18-H ) :   0.9204 B( 16-C , 20-H ) :   0.9188
B( 21-C , 22-H ) :   0.9028 B( 21-C , 23-H ) :   0.9136 B( 21-C , 24-H ) :   0.9062
B( 21-C , 25-C ) :   0.1717 B( 21-C , 26-H ) :   0.3850 B( 25-C , 26-H ) :   0.2565
B( 25-C , 27-H ) :   0.8917 B( 25-C , 28-H ) :   0.9142 B( 25-C , 29-H ) :   0.9055

Dispersion correction           -0.017428355
FINAL SINGLE POINT ENERGY     -1702.244124786329
Dispersion correction            ... done

DIPOLE MOMENT
-------------
                                X             Y             Z
Electronic contribution:     -7.93293       3.63336       1.10637
Nuclear contribution   :      8.08768      -3.80076      -1.09138
                        -----------------------------------------
Total Dipole Moment    :      0.15475      -0.16740       0.01499
                        -----------------------------------------
Magnitude (a.u.)       :      0.22846
Magnitude (Debye)      :      0.58071

Rotational constants in cm-1:     0.027415     0.019500     0.017253
Rotational constants in MHz :   821.894114   584.585791   517.217981

                             ****ORCA TERMINATED NORMALLY****
TOTAL RUN TIME: 0 days 0 hours 9 minutes 27 seconds 572 msec
