                         Program Version 5.0.3 -  RELEASE  -
|  1> ! EnGrad PBEh-3c
|  2> %output
|  3> xyzfile=True
|  4> end
|  5> %scf
|  6> maxiter 250
|  7> end
|  8> %output
|  9> Print[P_Hirshfeld] = 1
| 10> end
| 11> % maxcore
| 12> 4000
| 13> *xyz 0 1
| 14> Lu  -0.01605629   0.06415725   0.01253010
| 15> C    0.44446145   0.80603467   2.50115830
| 16> C    1.46301418  -0.14154569   2.22261085
| 17> C    2.33077123   0.41006356   1.27874545
| 18> C    1.85365121   1.70373630   0.94133971
| 19> C    0.71163679   1.94276976   1.72255342
| 20> H    2.31985800   2.39676868   0.26868551
| 21> H    0.11524979   2.86190377   1.72191822
| 22> H   -0.28355221   0.72696255   3.28207023
| 23> H    1.52862839  -1.12803776   2.66791376
| 24> H    3.24352524  -0.04316986   0.90840796
| 25> C    0.92244070  -0.08991737  -2.44298629
| 26> C   -0.33842986  -0.71573318  -2.45023736
| 27> C    1.06925973  -2.01404956  -1.23043224
| 28> C    1.80302328  -0.91531565  -1.70108877
| 29> H    1.17128004   0.83029472  -2.94307978
| 30> C   -0.25746854  -1.89699781  -1.69949003
| 31> H   -1.21579593  -0.37742375  -3.00094629
| 32> H    2.85889871  -0.74980384  -1.56379381
| 33> H    1.46189644  -2.84560612  -0.65065282
| 34> H   -1.04453599  -2.61960536  -1.57293544
| 35> C   -2.25711180  -1.58648208   1.25658063
| 36> H   -2.24802339  -1.39781621   2.32709020
| 37> H   -1.99610187  -2.64848118   1.10991681
| 38> H   -3.32303733  -1.52131549   0.89024628
| 39> C   -1.91809374   1.94745412  -0.86709260
| 40> H   -2.23536779   0.19896018   0.37568306
| 41> H   -1.10932802   2.55496591  -1.31011781
| 42> H   -2.54429756   2.67307238  -0.32195773
| 43> H   -2.51424851   1.58082350  -1.72346013
| 44> *
| 45>
| 46>                          ****END OF INPUT****

CARTESIAN COORDINATES (ANGSTROEM)
---------------------------------
  Lu    -0.016056    0.064157    0.012530
  C      0.444461    0.806035    2.501158
  C      1.463014   -0.141546    2.222611
  C      2.330771    0.410064    1.278745
  C      1.853651    1.703736    0.941340
  C      0.711637    1.942770    1.722553
  H      2.319858    2.396769    0.268686
  H      0.115250    2.861904    1.721918
  H     -0.283552    0.726963    3.282070
  H      1.528628   -1.128038    2.667914
  H      3.243525   -0.043170    0.908408
  C      0.922441   -0.089917   -2.442986
  C     -0.338430   -0.715733   -2.450237
  C      1.069260   -2.014050   -1.230432
  C      1.803023   -0.915316   -1.701089
  H      1.171280    0.830295   -2.943080
  C     -0.257469   -1.896998   -1.699490
  H     -1.215796   -0.377424   -3.000946
  H      2.858899   -0.749804   -1.563794
  H      1.461896   -2.845606   -0.650653
  H     -1.044536   -2.619605   -1.572935
  C     -2.257112   -1.586482    1.256581
  H     -2.248023   -1.397816    2.327090
  H     -1.996102   -2.648481    1.109917
  H     -3.323037   -1.521315    0.890246
  C     -1.918094    1.947454   -0.867093
  H     -2.235368    0.198960    0.375683
  H     -1.109328    2.554966   -1.310118
  H     -2.544298    2.673072   -0.321958
  H     -2.514249    1.580823   -1.723460

 Total Charge           Charge          ....    0
 Multiplicity           Mult            ....    1
 Number of Electrons    NEL             ....  132
 Basis Dimension        Dim             ....  295

ORBITAL ENERGIES
----------------

  NO   OCC          E(Eh)            E(eV)
   0   2.0000     -19.267370      -524.2918
   1   2.0000     -12.638859      -343.9208
   2   2.0000     -12.637855      -343.8935
   3   2.0000     -12.637758      -343.8909
   4   2.0000     -10.448657      -284.3224
   5   2.0000     -10.448001      -284.3046
   6   2.0000     -10.447129      -284.2808
   7   2.0000     -10.445185      -284.2279
   8   2.0000     -10.444779      -284.2169
   9   2.0000     -10.444622      -284.2126
  10   2.0000     -10.444446      -284.2078
  11   2.0000     -10.443191      -284.1737
  12   2.0000     -10.442991      -284.1682
  13   2.0000     -10.442326      -284.1501
  14   2.0000     -10.440449      -284.0991
  15   2.0000     -10.429433      -283.7993
  16   2.0000      -5.908265      -160.7721
  17   2.0000      -5.908199      -160.7703
  18   2.0000      -5.908141      -160.7687
  19   2.0000      -5.907517      -160.7517
  20   2.0000      -5.907442      -160.7497
  21   2.0000      -2.449887       -66.6648
  22   2.0000      -1.284881       -34.9634
  23   2.0000      -1.282153       -34.8892
  24   2.0000      -1.279073       -34.8053
  25   2.0000      -0.979873       -26.6637
  26   2.0000      -0.972522       -26.4637
  27   2.0000      -0.794564       -21.6212
  28   2.0000      -0.792200       -21.5569
  29   2.0000      -0.791828       -21.5467
  30   2.0000      -0.789264       -21.4770
  31   2.0000      -0.743045       -20.2193
  32   2.0000      -0.732368       -19.9287
  33   2.0000      -0.614685       -16.7264
  34   2.0000      -0.610594       -16.6151
  35   2.0000      -0.609114       -16.5748
  36   2.0000      -0.607862       -16.5408
  37   2.0000      -0.595767       -16.2117
  38   2.0000      -0.590678       -16.0732
  39   2.0000      -0.575458       -15.6590
  40   2.0000      -0.574507       -15.6331
  41   2.0000      -0.574068       -15.6212
  42   2.0000      -0.573957       -15.6182
  43   2.0000      -0.573709       -15.6114
  44   2.0000      -0.573620       -15.6090
  45   2.0000      -0.572128       -15.5684
  46   2.0000      -0.467221       -12.7137
  47   2.0000      -0.453545       -12.3416
  48   2.0000      -0.451584       -12.2882
  49   2.0000      -0.450929       -12.2704
  50   2.0000      -0.449157       -12.2222
  51   2.0000      -0.442663       -12.0455
  52   2.0000      -0.440879       -11.9969
  53   2.0000      -0.434700       -11.8288
  54   2.0000      -0.432601       -11.7717
  55   2.0000      -0.431922       -11.7532
  56   2.0000      -0.428334       -11.6556
  57   2.0000      -0.426839       -11.6149
  58   2.0000      -0.426052       -11.5935
  59   2.0000      -0.421387       -11.4665
  60   2.0000      -0.356557        -9.7024
  61   2.0000      -0.292362        -7.9556
  62   2.0000      -0.282572        -7.6892
  63   2.0000      -0.278900        -7.5892
  64   2.0000      -0.264132        -7.1874
  65   2.0000      -0.252362        -6.8671
  66   0.0000      -0.057550        -1.5660
  67   0.0000       0.005360         0.1459
  68   0.0000       0.032324         0.8796
  69   0.0000       0.045085         1.2268
  70   0.0000       0.055446         1.5088

MULLIKEN ATOMIC CHARGES
-----------------------
   0 Lu:    0.695965
   1 C :   -0.322178
   2 C :   -0.274054
   3 C :   -0.266343
   4 C :   -0.320567
   5 C :   -0.245735
   6 H :    0.238638
   7 H :    0.244001
   8 H :    0.234608
   9 H :    0.240274
  10 H :    0.229884
  11 C :   -0.306996
  12 C :   -0.275429
  13 C :   -0.298095
  14 C :   -0.255197
  15 H :    0.241255
  16 C :   -0.277846
  17 H :    0.239557
  18 H :    0.230873
  19 H :    0.236454
  20 H :    0.239922
  21 C :   -0.899699
  22 H :    0.240836
  23 H :    0.237211
  24 H :    0.227297
  25 C :   -0.928129
  26 H :    0.206235
  27 H :    0.226775
  28 H :    0.231428
  29 H :    0.229055
Sum of atomic charges:   -0.0000000

LOEWDIN ATOMIC CHARGES
----------------------
   0 Lu:   -0.131184
   1 C :   -0.150789
   2 C :   -0.146782
   3 C :   -0.130795
   4 C :   -0.156270
   5 C :   -0.132915
   6 H :    0.153769
   7 H :    0.157359
   8 H :    0.155570
   9 H :    0.153395
  10 H :    0.150265
  11 C :   -0.150994
  12 C :   -0.136487
  13 C :   -0.148154
  14 C :   -0.127401
  15 H :    0.154680
  16 C :   -0.139623
  17 H :    0.157266
  18 H :    0.150444
  19 H :    0.153225
  20 H :    0.157007
  21 C :   -0.527299
  22 H :    0.135192
  23 H :    0.144730
  24 H :    0.133231
  25 C :   -0.552860
  26 H :    0.264862
  27 H :    0.147039
  28 H :    0.132695
  29 H :    0.130822

  Mayer bond orders larger than 0.100000
B(  0-Lu,  1-C ) :   0.2639 B(  0-Lu,  2-C ) :   0.2617 B(  0-Lu,  3-C ) :   0.2505
B(  0-Lu,  4-C ) :   0.2780 B(  0-Lu,  5-C ) :   0.2465 B(  0-Lu, 11-C ) :   0.2803
B(  0-Lu, 12-C ) :   0.2560 B(  0-Lu, 13-C ) :   0.2703 B(  0-Lu, 14-C ) :   0.2528
B(  0-Lu, 16-C ) :   0.2638 B(  0-Lu, 21-C ) :   0.3949 B(  0-Lu, 25-C ) :   0.5172
B(  0-Lu, 26-H ) :   0.3024 B(  1-C ,  2-C ) :   1.2690 B(  1-C ,  5-C ) :   1.3023
B(  1-C ,  8-H ) :   0.9257 B(  2-C ,  3-C ) :   1.3193 B(  2-C ,  9-H ) :   0.9117
B(  3-C ,  4-C ) :   1.2806 B(  3-C , 10-H ) :   0.9209 B(  4-C ,  5-C ) :   1.2880
B(  4-C ,  6-H ) :   0.9170 B(  5-C ,  7-H ) :   0.9122 B( 11-C , 12-C ) :   1.2791
B( 11-C , 14-C ) :   1.2919 B( 11-C , 15-H ) :   0.9139 B( 12-C , 16-C ) :   1.3003
B( 12-C , 17-H ) :   0.9172 B( 13-C , 14-C ) :   1.3033 B( 13-C , 16-C ) :   1.2735
B( 13-C , 19-H ) :   0.9167 B( 14-C , 18-H ) :   0.9206 B( 16-C , 20-H ) :   0.9186
B( 21-C , 22-H ) :   0.9024 B( 21-C , 23-H ) :   0.9052 B( 21-C , 24-H ) :   0.9152
B( 21-C , 25-C ) :   0.1707 B( 21-C , 26-H ) :   0.3811 B( 25-C , 26-H ) :   0.2552
B( 25-C , 27-H ) :   0.8875 B( 25-C , 28-H ) :   0.9157 B( 25-C , 29-H ) :   0.9090

Dispersion correction           -0.017436350
FINAL SINGLE POINT ENERGY     -1702.246151396923
Dispersion correction            ... done

DIPOLE MOMENT
-------------
                                X             Y             Z
Electronic contribution:     -8.14408       3.72921       1.23595
Nuclear contribution   :      8.28592      -3.88734      -1.21429
                        -----------------------------------------
Total Dipole Moment    :      0.14184      -0.15813       0.02166
                        -----------------------------------------
Magnitude (a.u.)       :      0.21352
Magnitude (Debye)      :      0.54273

Rotational constants in cm-1:     0.027542     0.019515     0.017314
Rotational constants in MHz :   825.675607   585.037525   519.069291

                             ****ORCA TERMINATED NORMALLY****
TOTAL RUN TIME: 0 days 0 hours 8 minutes 23 seconds 113 msec
