                         Program Version 5.0.3 -  RELEASE  -
|  1> ! EnGrad PBEh-3c
|  2> %output
|  3> xyzfile=True
|  4> end
|  5> %scf
|  6> maxiter 250
|  7> end
|  8> %output
|  9> Print[P_Hirshfeld] = 1
| 10> end
| 11> % maxcore
| 12> 4000
| 13> *xyz 0 1
| 14> Lu  -0.03696900   0.06520591   0.01585816
| 15> C    0.44861499   0.80443009   2.49947357
| 16> C    1.46108558  -0.14304583   2.22650728
| 17> C    2.33131475   0.41034975   1.27265481
| 18> C    1.85150390   1.69713741   0.93997303
| 19> C    0.70725355   1.95008682   1.72443370
| 20> H    2.32095941   2.39772104   0.26827768
| 21> H    0.11625049   2.85795681   1.72119761
| 22> H   -0.28947238   0.72411176   3.27881364
| 23> H    1.53074911  -1.12676603   2.66815062
| 24> H    3.24199546  -0.04354635   0.90738003
| 25> C    0.92345273  -0.09089158  -2.43813813
| 26> C   -0.34303231  -0.71478786  -2.45555914
| 27> C    1.06987704  -2.01711678  -1.22805951
| 28> C    1.80038690  -0.91034265  -1.69870218
| 29> H    1.17239585   0.83021484  -2.94447010
| 30> C   -0.25568088  -1.89830763  -1.70089696
| 31> H   -1.21536732  -0.37588531  -2.99610969
| 32> H    2.85916513  -0.74853676  -1.56316432
| 33> H    1.46193904  -2.84425510  -0.65121781
| 34> H   -1.04552974  -2.61861222  -1.56926626
| 35> C   -2.27377017  -1.57010923   1.24600338
| 36> H   -2.24606803  -1.39077288   2.32531373
| 37> H   -1.97997129  -2.63157618   1.10001393
| 38> H   -3.32067208  -1.51946260   0.89470726
| 39> C   -1.92146660   1.93608082  -0.86305237
| 40> H   -2.21290377   0.19105006   0.36994035
| 41> H   -1.10530355   2.54384559  -1.30253157
| 42> H   -2.54193361   2.66427196  -0.31858774
| 43> H   -2.51259811   1.57929500  -1.71856999
| 44> *
| 45>
| 46>                          ****END OF INPUT****

CARTESIAN COORDINATES (ANGSTROEM)
---------------------------------
  Lu    -0.036969    0.065206    0.015858
  C      0.448615    0.804430    2.499474
  C      1.461086   -0.143046    2.226507
  C      2.331315    0.410350    1.272655
  C      1.851504    1.697137    0.939973
  C      0.707254    1.950087    1.724434
  H      2.320959    2.397721    0.268278
  H      0.116250    2.857957    1.721198
  H     -0.289472    0.724112    3.278814
  H      1.530749   -1.126766    2.668151
  H      3.241995   -0.043546    0.907380
  C      0.923453   -0.090892   -2.438138
  C     -0.343032   -0.714788   -2.455559
  C      1.069877   -2.017117   -1.228060
  C      1.800387   -0.910343   -1.698702
  H      1.172396    0.830215   -2.944470
  C     -0.255681   -1.898308   -1.700897
  H     -1.215367   -0.375885   -2.996110
  H      2.859165   -0.748537   -1.563164
  H      1.461939   -2.844255   -0.651218
  H     -1.045530   -2.618612   -1.569266
  C     -2.273770   -1.570109    1.246003
  H     -2.246068   -1.390773    2.325314
  H     -1.979971   -2.631576    1.100014
  H     -3.320672   -1.519463    0.894707
  C     -1.921467    1.936081   -0.863052
  H     -2.212904    0.191050    0.369940
  H     -1.105304    2.543846   -1.302532
  H     -2.541934    2.664272   -0.318588
  H     -2.512598    1.579295   -1.718570

 Total Charge           Charge          ....    0
 Multiplicity           Mult            ....    1
 Number of Electrons    NEL             ....  132
 Basis Dimension        Dim             ....  295

ORBITAL ENERGIES
----------------

  NO   OCC          E(Eh)            E(eV)
   0   2.0000     -19.267522      -524.2959
   1   2.0000     -12.639004      -343.9248
   2   2.0000     -12.638002      -343.8975
   3   2.0000     -12.637916      -343.8952
   4   2.0000     -10.450459      -284.3714
   5   2.0000     -10.447507      -284.2911
   6   2.0000     -10.446534      -284.2646
   7   2.0000     -10.444682      -284.2142
   8   2.0000     -10.444501      -284.2093
   9   2.0000     -10.444242      -284.2023
  10   2.0000     -10.443694      -284.1874
  11   2.0000     -10.443089      -284.1709
  12   2.0000     -10.442826      -284.1637
  13   2.0000     -10.441893      -284.1383
  14   2.0000     -10.440802      -284.1087
  15   2.0000     -10.428308      -283.7687
  16   2.0000      -5.908419      -160.7763
  17   2.0000      -5.908354      -160.7745
  18   2.0000      -5.908274      -160.7723
  19   2.0000      -5.907673      -160.7559
  20   2.0000      -5.907589      -160.7537
  21   2.0000      -2.450024       -66.6685
  22   2.0000      -1.284681       -34.9579
  23   2.0000      -1.282335       -34.8941
  24   2.0000      -1.279263       -34.8105
  25   2.0000      -0.978312       -26.6212
  26   2.0000      -0.971207       -26.4279
  27   2.0000      -0.793752       -21.5991
  28   2.0000      -0.791377       -21.5344
  29   2.0000      -0.790898       -21.5214
  30   2.0000      -0.788711       -21.4619
  31   2.0000      -0.746236       -20.3061
  32   2.0000      -0.732940       -19.9443
  33   2.0000      -0.613919       -16.7056
  34   2.0000      -0.610538       -16.6136
  35   2.0000      -0.608548       -16.5594
  36   2.0000      -0.607932       -16.5427
  37   2.0000      -0.595513       -16.2047
  38   2.0000      -0.590512       -16.0687
  39   2.0000      -0.575593       -15.6627
  40   2.0000      -0.574630       -15.6365
  41   2.0000      -0.574279       -15.6269
  42   2.0000      -0.574099       -15.6220
  43   2.0000      -0.573863       -15.6156
  44   2.0000      -0.573758       -15.6128
  45   2.0000      -0.572320       -15.5736
  46   2.0000      -0.465858       -12.6767
  47   2.0000      -0.453391       -12.3374
  48   2.0000      -0.450634       -12.2624
  49   2.0000      -0.449423       -12.2294
  50   2.0000      -0.449249       -12.2247
  51   2.0000      -0.446723       -12.1560
  52   2.0000      -0.441633       -12.0175
  53   2.0000      -0.434083       -11.8120
  54   2.0000      -0.432615       -11.7721
  55   2.0000      -0.431359       -11.7379
  56   2.0000      -0.428862       -11.6699
  57   2.0000      -0.427048       -11.6206
  58   2.0000      -0.425932       -11.5902
  59   2.0000      -0.422333       -11.4923
  60   2.0000      -0.362249        -9.8573
  61   2.0000      -0.291921        -7.9436
  62   2.0000      -0.281449        -7.6586
  63   2.0000      -0.278291        -7.5727
  64   2.0000      -0.262523        -7.1436
  65   2.0000      -0.254132        -6.9153
  66   0.0000      -0.055704        -1.5158
  67   0.0000       0.006533         0.1778
  68   0.0000       0.033317         0.9066
  69   0.0000       0.044992         1.2243
  70   0.0000       0.053790         1.4637

MULLIKEN ATOMIC CHARGES
-----------------------
   0 Lu:    0.689436
   1 C :   -0.327494
   2 C :   -0.272224
   3 C :   -0.263763
   4 C :   -0.323529
   5 C :   -0.244260
   6 H :    0.237139
   7 H :    0.245238
   8 H :    0.234656
   9 H :    0.239813
  10 H :    0.229290
  11 C :   -0.308394
  12 C :   -0.274388
  13 C :   -0.296544
  14 C :   -0.253215
  15 H :    0.240248
  16 C :   -0.282640
  17 H :    0.240529
  18 H :    0.229841
  19 H :    0.236048
  20 H :    0.239599
  21 C :   -0.898598
  22 H :    0.240016
  23 H :    0.236230
  24 H :    0.237429
  25 C :   -0.929384
  26 H :    0.209657
  27 H :    0.225646
  28 H :    0.232229
  29 H :    0.231391
Sum of atomic charges:    0.0000000

LOEWDIN ATOMIC CHARGES
----------------------
   0 Lu:   -0.130647
   1 C :   -0.150938
   2 C :   -0.148391
   3 C :   -0.131488
   4 C :   -0.154655
   5 C :   -0.136325
   6 H :    0.153054
   7 H :    0.157486
   8 H :    0.155094
   9 H :    0.152928
  10 H :    0.149913
  11 C :   -0.150484
  12 C :   -0.138932
  13 C :   -0.149637
  14 C :   -0.127494
  15 H :    0.154298
  16 C :   -0.140280
  17 H :    0.157224
  18 H :    0.150085
  19 H :    0.152823
  20 H :    0.156177
  21 C :   -0.521188
  22 H :    0.136403
  23 H :    0.145653
  24 H :    0.135330
  25 C :   -0.552476
  26 H :    0.264409
  27 H :    0.147654
  28 H :    0.133066
  29 H :    0.131339

  Mayer bond orders larger than 0.100000
B(  0-Lu,  1-C ) :   0.2635 B(  0-Lu,  2-C ) :   0.2612 B(  0-Lu,  3-C ) :   0.2465
B(  0-Lu,  4-C ) :   0.2748 B(  0-Lu,  5-C ) :   0.2478 B(  0-Lu, 11-C ) :   0.2781
B(  0-Lu, 12-C ) :   0.2568 B(  0-Lu, 13-C ) :   0.2688 B(  0-Lu, 14-C ) :   0.2490
B(  0-Lu, 16-C ) :   0.2642 B(  0-Lu, 21-C ) :   0.3958 B(  0-Lu, 25-C ) :   0.5292
B(  0-Lu, 26-H ) :   0.3074 B(  1-C ,  2-C ) :   1.2741 B(  1-C ,  5-C ) :   1.3000
B(  1-C ,  8-H ) :   0.9244 B(  2-C ,  3-C ) :   1.3134 B(  2-C ,  9-H ) :   0.9119
B(  3-C ,  4-C ) :   1.2898 B(  3-C , 10-H ) :   0.9215 B(  4-C ,  5-C ) :   1.2852
B(  4-C ,  6-H ) :   0.9177 B(  5-C ,  7-H ) :   0.9119 B( 11-C , 12-C ) :   1.2767
B( 11-C , 14-C ) :   1.2983 B( 11-C , 15-H ) :   0.9145 B( 12-C , 16-C ) :   1.2998
B( 12-C , 17-H ) :   0.9167 B( 13-C , 14-C ) :   1.3011 B( 13-C , 16-C ) :   1.2762
B( 13-C , 19-H ) :   0.9172 B( 14-C , 18-H ) :   0.9213 B( 16-C , 20-H ) :   0.9178
B( 21-C , 22-H ) :   0.9036 B( 21-C , 23-H ) :   0.9056 B( 21-C , 24-H ) :   0.9102
B( 21-C , 25-C ) :   0.1699 B( 21-C , 26-H ) :   0.3849 B( 25-C , 26-H ) :   0.2458
B( 25-C , 27-H ) :   0.8870 B( 25-C , 28-H ) :   0.9154 B( 25-C , 29-H ) :   0.9077

Dispersion correction           -0.017427244
FINAL SINGLE POINT ENERGY     -1702.251935117672
Dispersion correction            ... done

DIPOLE MOMENT
-------------
                                X             Y             Z
Electronic contribution:     -9.18639       3.74828       1.43455
Nuclear contribution   :      9.28957      -3.93376      -1.38732
                        -----------------------------------------
Total Dipole Moment    :      0.10319      -0.18548       0.04723
                        -----------------------------------------
Magnitude (a.u.)       :      0.21744
Magnitude (Debye)      :      0.55269

Rotational constants in cm-1:     0.027518     0.019557     0.017278
Rotational constants in MHz :   824.966521   586.303624   517.992554

                             ****ORCA TERMINATED NORMALLY****
TOTAL RUN TIME: 0 days 0 hours 8 minutes 33 seconds 931 msec
