                         Program Version 5.0.3 -  RELEASE  -
|  1> ! EnGrad PBEh-3c
|  2> %output
|  3> xyzfile=True
|  4> end
|  5> %scf
|  6> maxiter 250
|  7> end
|  8> %output
|  9> Print[P_Hirshfeld] = 1
| 10> end
| 11> % maxcore
| 12> 4000
| 13> *xyz 0 1
| 14> Lu  -0.10920856   0.06563586   0.03023972
| 15> C    0.45418639   0.80405962   2.50394775
| 16> C    1.45951166  -0.14618171   2.22663387
| 17> C    2.32100731   0.40391247   1.25668394
| 18> C    1.83742053   1.68423007   0.92953066
| 19> C    0.69870157   1.95244926   1.72581130
| 20> H    2.32020101   2.39626758   0.26853961
| 21> H    0.11223577   2.85036764   1.72030095
| 22> H   -0.31114686   0.70814143   3.26095288
| 23> H    1.54354017  -1.12558565   2.67330210
| 24> H    3.23735086  -0.04552243   0.89910260
| 25> C    0.91579750  -0.08580688  -2.42352996
| 26> C   -0.34873015  -0.71855790  -2.46148255
| 27> C    1.06838084  -2.01736649  -1.22152738
| 28> C    1.79181962  -0.89708834  -1.68030785
| 29> H    1.17496220   0.82655568  -2.94572148
| 30> C   -0.25268923  -1.90355853  -1.70803158
| 31> H   -1.22309842  -0.36743699  -2.97862844
| 32> H    2.85630186  -0.74072375  -1.55968056
| 33> H    1.46610871  -2.84352897  -0.65150471
| 34> H   -1.04885038  -2.61680783  -1.55226163
| 35> C   -2.31885308  -1.49765926   1.20980786
| 36> H   -2.23955533  -1.35347903   2.30392957
| 37> H   -1.90630019  -2.53902077   1.05240006
| 38> H   -3.32249293  -1.50865829   0.90477694
| 39> C   -1.92882450   1.88626303  -0.84134387
| 40> H   -2.12261575   0.16107229   0.34160934
| 41> H   -1.08876281   2.48601800  -1.26252681
| 42> H   -2.53169552   2.62466975  -0.30366699
| 43> H   -2.50701546   1.57013483  -1.70148950
| 44> *
| 45>
| 46>                          ****END OF INPUT****

CARTESIAN COORDINATES (ANGSTROEM)
---------------------------------
  Lu    -0.109209    0.065636    0.030240
  C      0.454186    0.804060    2.503948
  C      1.459512   -0.146182    2.226634
  C      2.321007    0.403912    1.256684
  C      1.837421    1.684230    0.929531
  C      0.698702    1.952449    1.725811
  H      2.320201    2.396268    0.268540
  H      0.112236    2.850368    1.720301
  H     -0.311147    0.708141    3.260953
  H      1.543540   -1.125586    2.673302
  H      3.237351   -0.045522    0.899103
  C      0.915798   -0.085807   -2.423530
  C     -0.348730   -0.718558   -2.461483
  C      1.068381   -2.017366   -1.221527
  C      1.791820   -0.897088   -1.680308
  H      1.174962    0.826556   -2.945721
  C     -0.252689   -1.903559   -1.708032
  H     -1.223098   -0.367437   -2.978628
  H      2.856302   -0.740724   -1.559681
  H      1.466109   -2.843529   -0.651505
  H     -1.048850   -2.616808   -1.552262
  C     -2.318853   -1.497659    1.209808
  H     -2.239555   -1.353479    2.303930
  H     -1.906300   -2.539021    1.052400
  H     -3.322493   -1.508658    0.904777
  C     -1.928824    1.886263   -0.841344
  H     -2.122616    0.161072    0.341609
  H     -1.088763    2.486018   -1.262527
  H     -2.531696    2.624670   -0.303667
  H     -2.507015    1.570135   -1.701490

 Total Charge           Charge          ....    0
 Multiplicity           Mult            ....    1
 Number of Electrons    NEL             ....  132
 Basis Dimension        Dim             ....  295

ORBITAL ENERGIES
----------------

  NO   OCC          E(Eh)            E(eV)
   0   2.0000     -19.267574      -524.2973
   1   2.0000     -12.638981      -343.9242
   2   2.0000     -12.638068      -343.8993
   3   2.0000     -12.637964      -343.8965
   4   2.0000     -10.456587      -284.5382
   5   2.0000     -10.445315      -284.2315
   6   2.0000     -10.444393      -284.2064
   7   2.0000     -10.443039      -284.1695
   8   2.0000     -10.442955      -284.1673
   9   2.0000     -10.442418      -284.1526
  10   2.0000     -10.442088      -284.1437
  11   2.0000     -10.441771      -284.1350
  12   2.0000     -10.441155      -284.1183
  13   2.0000     -10.440317      -284.0955
  14   2.0000     -10.439964      -284.0859
  15   2.0000     -10.424397      -283.6623
  16   2.0000      -5.908422      -160.7763
  17   2.0000      -5.908376      -160.7751
  18   2.0000      -5.908221      -160.7709
  19   2.0000      -5.907736      -160.7577
  20   2.0000      -5.907619      -160.7545
  21   2.0000      -2.450114       -66.6710
  22   2.0000      -1.283962       -34.9384
  23   2.0000      -1.282903       -34.9096
  24   2.0000      -1.280048       -34.8319
  25   2.0000      -0.975438       -26.5430
  26   2.0000      -0.969043       -26.3690
  27   2.0000      -0.791996       -21.5513
  28   2.0000      -0.788868       -21.4662
  29   2.0000      -0.788358       -21.4523
  30   2.0000      -0.786584       -21.4041
  31   2.0000      -0.758361       -20.6361
  32   2.0000      -0.735931       -20.0257
  33   2.0000      -0.611409       -16.6373
  34   2.0000      -0.609518       -16.5858
  35   2.0000      -0.607204       -16.5229
  36   2.0000      -0.605801       -16.4847
  37   2.0000      -0.593456       -16.1488
  38   2.0000      -0.588642       -16.0178
  39   2.0000      -0.575547       -15.6614
  40   2.0000      -0.574567       -15.6348
  41   2.0000      -0.574466       -15.6320
  42   2.0000      -0.574118       -15.6226
  43   2.0000      -0.573856       -15.6154
  44   2.0000      -0.573775       -15.6132
  45   2.0000      -0.572503       -15.5786
  46   2.0000      -0.466811       -12.7026
  47   2.0000      -0.463696       -12.6178
  48   2.0000      -0.452712       -12.3189
  49   2.0000      -0.449520       -12.2321
  50   2.0000      -0.448563       -12.2060
  51   2.0000      -0.446881       -12.1603
  52   2.0000      -0.440726       -11.9928
  53   2.0000      -0.431878       -11.7520
  54   2.0000      -0.430560       -11.7161
  55   2.0000      -0.429643       -11.6912
  56   2.0000      -0.427289       -11.6271
  57   2.0000      -0.427113       -11.6223
  58   2.0000      -0.425198       -11.5702
  59   2.0000      -0.423050       -11.5118
  60   2.0000      -0.383928       -10.4472
  61   2.0000      -0.291522        -7.9327
  62   2.0000      -0.277658        -7.5555
  63   2.0000      -0.276241        -7.5169
  64   2.0000      -0.261370        -7.1122
  65   2.0000      -0.257521        -7.0075
  66   0.0000      -0.048371        -1.3162
  67   0.0000       0.010725         0.2918
  68   0.0000       0.037539         1.0215
  69   0.0000       0.045027         1.2252
  70   0.0000       0.048127         1.3096

MULLIKEN ATOMIC CHARGES
-----------------------
   0 Lu:    0.657467
   1 C :   -0.329127
   2 C :   -0.276915
   3 C :   -0.252906
   4 C :   -0.326452
   5 C :   -0.248150
   6 H :    0.232960
   7 H :    0.245444
   8 H :    0.236169
   9 H :    0.236660
  10 H :    0.226541
  11 C :   -0.314526
  12 C :   -0.270490
  13 C :   -0.295717
  14 C :   -0.247115
  15 H :    0.236974
  16 C :   -0.289237
  17 H :    0.242098
  18 H :    0.226324
  19 H :    0.233240
  20 H :    0.238792
  21 C :   -0.894005
  22 H :    0.242630
  23 H :    0.234688
  24 H :    0.261926
  25 C :   -0.934425
  26 H :    0.227912
  27 H :    0.225357
  28 H :    0.235917
  29 H :    0.237967
Sum of atomic charges:    0.0000000

LOEWDIN ATOMIC CHARGES
----------------------
   0 Lu:   -0.135103
   1 C :   -0.155053
   2 C :   -0.152294
   3 C :   -0.131696
   4 C :   -0.153725
   5 C :   -0.142153
   6 H :    0.151586
   7 H :    0.157054
   8 H :    0.154056
   9 H :    0.151292
  10 H :    0.148721
  11 C :   -0.151294
  12 C :   -0.143295
  13 C :   -0.152635
  14 C :   -0.127791
  15 H :    0.153036
  16 C :   -0.146054
  17 H :    0.157035
  18 H :    0.148642
  19 H :    0.151341
  20 H :    0.154335
  21 C :   -0.498426
  22 H :    0.141032
  23 H :    0.149294
  24 H :    0.140077
  25 C :   -0.550400
  26 H :    0.263185
  27 H :    0.150890
  28 H :    0.134890
  29 H :    0.133455

  Mayer bond orders larger than 0.100000
B(  0-Lu,  1-C ) :   0.2640 B(  0-Lu,  2-C ) :   0.2585 B(  0-Lu,  3-C ) :   0.2319
B(  0-Lu,  4-C ) :   0.2674 B(  0-Lu,  5-C ) :   0.2492 B(  0-Lu, 11-C ) :   0.2737
B(  0-Lu, 12-C ) :   0.2554 B(  0-Lu, 13-C ) :   0.2625 B(  0-Lu, 14-C ) :   0.2378
B(  0-Lu, 16-C ) :   0.2654 B(  0-Lu, 21-C ) :   0.4057 B(  0-Lu, 25-C ) :   0.5725
B(  0-Lu, 26-H ) :   0.3222 B(  1-C ,  2-C ) :   1.2770 B(  1-C ,  5-C ) :   1.2984
B(  1-C ,  8-H ) :   0.9194 B(  2-C ,  3-C ) :   1.3147 B(  2-C ,  9-H ) :   0.9133
B(  3-C ,  4-C ) :   1.3035 B(  3-C , 10-H ) :   0.9231 B(  4-C ,  5-C ) :   1.2827
B(  4-C ,  6-H ) :   0.9204 B(  5-C ,  7-H ) :   0.9115 B( 11-C , 12-C ) :   1.2759
B( 11-C , 14-C ) :   1.3067 B( 11-C , 15-H ) :   0.9172 B( 12-C , 16-C ) :   1.2999
B( 12-C , 17-H ) :   0.9136 B( 13-C , 14-C ) :   1.3059 B( 13-C , 16-C ) :   1.2779
B( 13-C , 19-H ) :   0.9186 B( 14-C , 18-H ) :   0.9235 B( 16-C , 20-H ) :   0.9146
B( 21-C , 22-H ) :   0.9035 B( 21-C , 23-H ) :   0.9037 B( 21-C , 24-H ) :   0.8984
B( 21-C , 25-C ) :   0.1637 B( 21-C , 26-H ) :   0.3925 B( 25-C , 26-H ) :   0.2167
B( 25-C , 27-H ) :   0.8822 B( 25-C , 28-H ) :   0.9138 B( 25-C , 29-H ) :   0.9042

Dispersion correction           -0.017497206
FINAL SINGLE POINT ENERGY     -1702.263544035678
Dispersion correction            ... done

DIPOLE MOMENT
-------------
                                X             Y             Z
Electronic contribution:    -12.77667       3.66998       2.24124
Nuclear contribution   :     12.74973      -3.93494      -2.10648
                        -----------------------------------------
Total Dipole Moment    :     -0.02694      -0.26495       0.13475
                        -----------------------------------------
Magnitude (a.u.)       :      0.29847
Magnitude (Debye)      :      0.75865

Rotational constants in cm-1:     0.027595     0.019796     0.017210
Rotational constants in MHz :   827.266002   593.459941   515.949387

                             ****ORCA TERMINATED NORMALLY****
TOTAL RUN TIME: 0 days 0 hours 8 minutes 21 seconds 712 msec
