                         Program Version 5.0.3 -  RELEASE  -
|  1> ! EnGrad PBEh-3c
|  2> %output
|  3> xyzfile=True
|  4> end
|  5> %scf
|  6> maxiter 250
|  7> end
|  8> %output
|  9> Print[P_Hirshfeld] = 1
| 10> end
| 11> % maxcore
| 12> 4000
| 13> *xyz 0 1
| 14> Lu  -0.08802700   0.06191146   0.03036514
| 15> C    0.45502573   0.80237771   2.50590954
| 16> C    1.45214205  -0.15192128   2.22285216
| 17> C    2.31951074   0.40347206   1.25232406
| 18> C    1.83450022   1.68227678   0.92788400
| 19> C    0.69006330   1.94903987   1.72061987
| 20> H    2.31762881   2.39514373   0.26657115
| 21> H    0.11157577   2.84823867   1.72168680
| 22> H   -0.31560212   0.70388946   3.26085255
| 23> H    1.54825036  -1.12481994   2.67519456
| 24> H    3.23303428  -0.04520929   0.89637973
| 25> C    0.91334228  -0.08523004  -2.41878754
| 26> C   -0.35395678  -0.71651721  -2.45856004
| 27> C    1.06660033  -2.01626851  -1.21589284
| 28> C    1.78818710  -0.89341552  -1.67775199
| 29> H    1.17399212   0.82701572  -2.94405719
| 30> C   -0.25517473  -1.90571027  -1.70552135
| 31> H   -1.22430930  -0.36767846  -2.97508912
| 32> H    2.85357395  -0.73782163  -1.55684097
| 33> H    1.46719196  -2.84258084  -0.65261780
| 34> H   -1.04927007  -2.61890761  -1.55010068
| 35> C   -2.30180080  -1.47992030   1.20601948
| 36> H   -2.24029209  -1.34072758   2.29293353
| 37> H   -1.89380821  -2.51084296   1.03999901
| 38> H   -3.33026324  -1.50655529   0.90068665
| 39> C   -1.92894572   1.87362901  -0.83390038
| 40> H   -2.12357682   0.16051211   0.33522816
| 41> H   -1.08482948   2.46949707  -1.25077671
| 42> H   -2.52912545   2.61486025  -0.29943985
| 43> H   -2.50597646   1.56620584  -1.69934547
| 44> *
| 45>
| 46>                          ****END OF INPUT****

CARTESIAN COORDINATES (ANGSTROEM)
---------------------------------
  Lu    -0.088027    0.061911    0.030365
  C      0.455026    0.802378    2.505910
  C      1.452142   -0.151921    2.222852
  C      2.319511    0.403472    1.252324
  C      1.834500    1.682277    0.927884
  C      0.690063    1.949040    1.720620
  H      2.317629    2.395144    0.266571
  H      0.111576    2.848239    1.721687
  H     -0.315602    0.703889    3.260853
  H      1.548250   -1.124820    2.675195
  H      3.233034   -0.045209    0.896380
  C      0.913342   -0.085230   -2.418788
  C     -0.353957   -0.716517   -2.458560
  C      1.066600   -2.016269   -1.215893
  C      1.788187   -0.893416   -1.677752
  H      1.173992    0.827016   -2.944057
  C     -0.255175   -1.905710   -1.705521
  H     -1.224309   -0.367678   -2.975089
  H      2.853574   -0.737822   -1.556841
  H      1.467192   -2.842581   -0.652618
  H     -1.049270   -2.618908   -1.550101
  C     -2.301801   -1.479920    1.206019
  H     -2.240292   -1.340728    2.292934
  H     -1.893808   -2.510843    1.039999
  H     -3.330263   -1.506555    0.900687
  C     -1.928946    1.873629   -0.833900
  H     -2.123577    0.160512    0.335228
  H     -1.084829    2.469497   -1.250777
  H     -2.529125    2.614860   -0.299440
  H     -2.505976    1.566206   -1.699345

 Total Charge           Charge          ....    0
 Multiplicity           Mult            ....    1
 Number of Electrons    NEL             ....  132
 Basis Dimension        Dim             ....  295

ORBITAL ENERGIES
----------------

  NO   OCC          E(Eh)            E(eV)
   0   2.0000     -19.266013      -524.2549
   1   2.0000     -12.637428      -343.8819
   2   2.0000     -12.636504      -343.8568
   3   2.0000     -12.636384      -343.8535
   4   2.0000     -10.453586      -284.4565
   5   2.0000     -10.445931      -284.2482
   6   2.0000     -10.445430      -284.2346
   7   2.0000     -10.443707      -284.1877
   8   2.0000     -10.443550      -284.1834
   9   2.0000     -10.443275      -284.1760
  10   2.0000     -10.443033      -284.1694
  11   2.0000     -10.442700      -284.1603
  12   2.0000     -10.442252      -284.1481
  13   2.0000     -10.441520      -284.1282
  14   2.0000     -10.440527      -284.1012
  15   2.0000     -10.423003      -283.6243
  16   2.0000      -5.906861      -160.7339
  17   2.0000      -5.906817      -160.7327
  18   2.0000      -5.906643      -160.7279
  19   2.0000      -5.906149      -160.7145
  20   2.0000      -5.906042      -160.7116
  21   2.0000      -2.448601       -66.6298
  22   2.0000      -1.282999       -34.9122
  23   2.0000      -1.281544       -34.8726
  24   2.0000      -1.278629       -34.7933
  25   2.0000      -0.975802       -26.5529
  26   2.0000      -0.969075       -26.3699
  27   2.0000      -0.792699       -21.5704
  28   2.0000      -0.789532       -21.4843
  29   2.0000      -0.789169       -21.4744
  30   2.0000      -0.787551       -21.4303
  31   2.0000      -0.755621       -20.5615
  32   2.0000      -0.735085       -20.0027
  33   2.0000      -0.612252       -16.6602
  34   2.0000      -0.610745       -16.6192
  35   2.0000      -0.608378       -16.5548
  36   2.0000      -0.606474       -16.5030
  37   2.0000      -0.594198       -16.1689
  38   2.0000      -0.589394       -16.0382
  39   2.0000      -0.574009       -15.6196
  40   2.0000      -0.573012       -15.5925
  41   2.0000      -0.572908       -15.5896
  42   2.0000      -0.572576       -15.5806
  43   2.0000      -0.572303       -15.5732
  44   2.0000      -0.572239       -15.5714
  45   2.0000      -0.570963       -15.5367
  46   2.0000      -0.464270       -12.6334
  47   2.0000      -0.459566       -12.5054
  48   2.0000      -0.453766       -12.3476
  49   2.0000      -0.450587       -12.2611
  50   2.0000      -0.449403       -12.2289
  51   2.0000      -0.448330       -12.1997
  52   2.0000      -0.441657       -12.0181
  53   2.0000      -0.431643       -11.7456
  54   2.0000      -0.430482       -11.7140
  55   2.0000      -0.430105       -11.7037
  56   2.0000      -0.427481       -11.6323
  57   2.0000      -0.427068       -11.6211
  58   2.0000      -0.425629       -11.5819
  59   2.0000      -0.422392       -11.4939
  60   2.0000      -0.383507       -10.4358
  61   2.0000      -0.291991        -7.9455
  62   2.0000      -0.278903        -7.5893
  63   2.0000      -0.277184        -7.5426
  64   2.0000      -0.260256        -7.0819
  65   2.0000      -0.258805        -7.0424
  66   0.0000      -0.043060        -1.1717
  67   0.0000       0.011908         0.3240
  68   0.0000       0.036595         0.9958
  69   0.0000       0.044902         1.2218
  70   0.0000       0.050414         1.3718

MULLIKEN ATOMIC CHARGES
-----------------------
   0 Lu:    0.658065
   1 C :   -0.309460
   2 C :   -0.289101
   3 C :   -0.250691
   4 C :   -0.321315
   5 C :   -0.258179
   6 H :    0.233973
   7 H :    0.245591
   8 H :    0.236926
   9 H :    0.237500
  10 H :    0.227895
  11 C :   -0.314042
  12 C :   -0.269537
  13 C :   -0.300415
  14 C :   -0.246543
  15 H :    0.237405
  16 C :   -0.282819
  17 H :    0.242269
  18 H :    0.227260
  19 H :    0.233910
  20 H :    0.239038
  21 C :   -0.904749
  22 H :    0.244265
  23 H :    0.236124
  24 H :    0.255182
  25 C :   -0.937592
  26 H :    0.232778
  27 H :    0.223827
  28 H :    0.235593
  29 H :    0.236843
Sum of atomic charges:   -0.0000000

LOEWDIN ATOMIC CHARGES
----------------------
   0 Lu:   -0.143542
   1 C :   -0.148776
   2 C :   -0.152644
   3 C :   -0.130088
   4 C :   -0.151268
   5 C :   -0.142358
   6 H :    0.152162
   7 H :    0.157469
   8 H :    0.154491
   9 H :    0.152054
  10 H :    0.149263
  11 C :   -0.150120
  12 C :   -0.141391
  13 C :   -0.152526
  14 C :   -0.127010
  15 H :    0.153487
  16 C :   -0.142601
  17 H :    0.157094
  18 H :    0.149221
  19 H :    0.151824
  20 H :    0.154373
  21 C :   -0.509093
  22 H :    0.139973
  23 H :    0.148627
  24 H :    0.140632
  25 C :   -0.554883
  26 H :    0.268207
  27 H :    0.150337
  28 H :    0.134328
  29 H :    0.132758

  Mayer bond orders larger than 0.100000
B(  0-Lu,  1-C ) :   0.2606 B(  0-Lu,  2-C ) :   0.2638 B(  0-Lu,  3-C ) :   0.2380
B(  0-Lu,  4-C ) :   0.2702 B(  0-Lu,  5-C ) :   0.2525 B(  0-Lu, 11-C ) :   0.2756
B(  0-Lu, 12-C ) :   0.2555 B(  0-Lu, 13-C ) :   0.2673 B(  0-Lu, 14-C ) :   0.2432
B(  0-Lu, 16-C ) :   0.2636 B(  0-Lu, 21-C ) :   0.4026 B(  0-Lu, 25-C ) :   0.5659
B(  0-Lu, 26-H ) :   0.3105 B(  1-C ,  2-C ) :   1.2800 B(  1-C ,  5-C ) :   1.2997
B(  1-C ,  8-H ) :   0.9186 B(  2-C ,  3-C ) :   1.3060 B(  2-C ,  9-H ) :   0.9143
B(  3-C ,  4-C ) :   1.3040 B(  3-C , 10-H ) :   0.9228 B(  4-C ,  5-C ) :   1.2787
B(  4-C ,  6-H ) :   0.9199 B(  5-C ,  7-H ) :   0.9128 B( 11-C , 12-C ) :   1.2740
B( 11-C , 14-C ) :   1.3057 B( 11-C , 15-H ) :   0.9172 B( 12-C , 16-C ) :   1.3019
B( 12-C , 17-H ) :   0.9142 B( 13-C , 14-C ) :   1.2994 B( 13-C , 16-C ) :   1.2781
B( 13-C , 19-H ) :   0.9190 B( 14-C , 18-H ) :   0.9232 B( 16-C , 20-H ) :   0.9147
B( 21-C , 22-H ) :   0.9021 B( 21-C , 23-H ) :   0.9018 B( 21-C , 24-H ) :   0.9025
B( 21-C , 25-C ) :   0.1592 B( 21-C , 26-H ) :   0.3946 B( 25-C , 26-H ) :   0.2236
B( 25-C , 27-H ) :   0.8821 B( 25-C , 28-H ) :   0.9138 B( 25-C , 29-H ) :   0.9050

Dispersion correction           -0.017544217
FINAL SINGLE POINT ENERGY     -1702.269911976658
Dispersion correction            ... done

DIPOLE MOMENT
-------------
                                X             Y             Z
Electronic contribution:    -11.63146       3.50186       2.22789
Nuclear contribution   :     11.67609      -3.75228      -2.10005
                        -----------------------------------------
Total Dipole Moment    :      0.04462      -0.25042       0.12785
                        -----------------------------------------
Magnitude (a.u.)       :      0.28469
Magnitude (Debye)      :      0.72362

Rotational constants in cm-1:     0.027832     0.019883     0.017304
Rotational constants in MHz :   834.387576   596.073196   518.753884

                             ****ORCA TERMINATED NORMALLY****
TOTAL RUN TIME: 0 days 0 hours 8 minutes 25 seconds 327 msec
