                         Program Version 5.0.3 -  RELEASE  -
|  1> ! EnGrad PBEh-3c
|  2> %output
|  3> xyzfile=True
|  4> end
|  5> %scf
|  6> maxiter 250
|  7> end
|  8> %output
|  9> Print[P_Hirshfeld] = 1
| 10> end
| 11> % maxcore
| 12> 4000
| 13> *xyz 0 1
| 14> Lu  -0.06615418   0.05557069   0.03187092
| 15> C    0.45274486   0.80088814   2.50992545
| 16> C    1.44661926  -0.15644589   2.21515043
| 17> C    2.31311327   0.40111216   1.24939093
| 18> C    1.82936482   1.68175243   0.92439652
| 19> C    0.68304565   1.93984402   1.71436900
| 20> H    2.31343439   2.39260988   0.26471245
| 21> H    0.10828068   2.84748299   1.72327563
| 22> H   -0.32108882   0.69752188   3.25850725
| 23> H    1.55466896  -1.12517772   2.67858171
| 24> H    3.22846340  -0.04551374   0.89154217
| 25> C    0.90757883  -0.08187430  -2.41438576
| 26> C   -0.35628229  -0.71707685  -2.45156446
| 27> C    1.06322458  -2.01210506  -1.21072961
| 28> C    1.78446303  -0.89079188  -1.67160606
| 29> H    1.17243690   0.82643539  -2.94101291
| 30> C   -0.25778474  -1.90716955  -1.70331329
| 31> H   -1.22898315  -0.36650149  -2.97086087
| 32> H    2.84900666  -0.73335250  -1.55296989
| 33> H    1.46934332  -2.84255439  -0.65303226
| 34> H   -1.05022678  -2.62188899  -1.54631795
| 35> C   -2.28830379  -1.45103607   1.19475509
| 36> H   -2.24014620  -1.32167701   2.27937646
| 37> H   -1.87282526  -2.47117276   1.02155055
| 38> H   -3.33306663  -1.50221602   0.89678856
| 39> C   -1.92852841   1.85282397  -0.82169378
| 40> H   -2.11927535   0.16317707   0.32230868
| 41> H   -1.07917489   2.44319243  -1.23197837
| 42> H   -2.52626145   2.60002956  -0.29214951
| 43> H   -2.50523993   1.55973302  -1.69615128
| 44> *
| 45>
| 46>                          ****END OF INPUT****

CARTESIAN COORDINATES (ANGSTROEM)
---------------------------------
  Lu    -0.066154    0.055571    0.031871
  C      0.452745    0.800888    2.509925
  C      1.446619   -0.156446    2.215150
  C      2.313113    0.401112    1.249391
  C      1.829365    1.681752    0.924397
  C      0.683046    1.939844    1.714369
  H      2.313434    2.392610    0.264712
  H      0.108281    2.847483    1.723276
  H     -0.321089    0.697522    3.258507
  H      1.554669   -1.125178    2.678582
  H      3.228463   -0.045514    0.891542
  C      0.907579   -0.081874   -2.414386
  C     -0.356282   -0.717077   -2.451564
  C      1.063225   -2.012105   -1.210730
  C      1.784463   -0.890792   -1.671606
  H      1.172437    0.826435   -2.941013
  C     -0.257785   -1.907170   -1.703313
  H     -1.228983   -0.366501   -2.970861
  H      2.849007   -0.733352   -1.552970
  H      1.469343   -2.842554   -0.653032
  H     -1.050227   -2.621889   -1.546318
  C     -2.288304   -1.451036    1.194755
  H     -2.240146   -1.321677    2.279376
  H     -1.872825   -2.471173    1.021551
  H     -3.333067   -1.502216    0.896789
  C     -1.928528    1.852824   -0.821694
  H     -2.119275    0.163177    0.322309
  H     -1.079175    2.443192   -1.231978
  H     -2.526261    2.600030   -0.292150
  H     -2.505240    1.559733   -1.696151

 Total Charge           Charge          ....    0
 Multiplicity           Mult            ....    1
 Number of Electrons    NEL             ....  132
 Basis Dimension        Dim             ....  295

ORBITAL ENERGIES
----------------

  NO   OCC          E(Eh)            E(eV)
   0   2.0000     -19.264277      -524.2076
   1   2.0000     -12.635683      -343.8344
   2   2.0000     -12.634771      -343.8096
   3   2.0000     -12.634629      -343.8057
   4   2.0000     -10.449682      -284.3503
   5   2.0000     -10.446420      -284.2615
   6   2.0000     -10.446373      -284.2603
   7   2.0000     -10.444477      -284.2087
   8   2.0000     -10.444030      -284.1965
   9   2.0000     -10.444006      -284.1959
  10   2.0000     -10.443404      -284.1795
  11   2.0000     -10.443373      -284.1786
  12   2.0000     -10.443204      -284.1740
  13   2.0000     -10.442623      -284.1582
  14   2.0000     -10.441324      -284.1229
  15   2.0000     -10.421680      -283.5883
  16   2.0000      -5.905109      -160.6862
  17   2.0000      -5.905068      -160.6851
  18   2.0000      -5.904881      -160.6800
  19   2.0000      -5.904388      -160.6666
  20   2.0000      -5.904291      -160.6639
  21   2.0000      -2.446938       -66.5846
  22   2.0000      -1.282050       -34.8864
  23   2.0000      -1.280063       -34.8323
  24   2.0000      -1.277238       -34.7554
  25   2.0000      -0.977215       -26.5914
  26   2.0000      -0.970057       -26.3966
  27   2.0000      -0.793693       -21.5975
  28   2.0000      -0.790322       -21.5058
  29   2.0000      -0.790257       -21.5040
  30   2.0000      -0.788596       -21.4588
  31   2.0000      -0.753076       -20.4922
  32   2.0000      -0.734256       -19.9801
  33   2.0000      -0.613055       -16.6821
  34   2.0000      -0.611225       -16.6323
  35   2.0000      -0.608852       -16.5677
  36   2.0000      -0.607111       -16.5203
  37   2.0000      -0.595050       -16.1921
  38   2.0000      -0.590123       -16.0581
  39   2.0000      -0.572293       -15.5729
  40   2.0000      -0.571277       -15.5452
  41   2.0000      -0.571162       -15.5421
  42   2.0000      -0.570849       -15.5336
  43   2.0000      -0.570573       -15.5261
  44   2.0000      -0.570520       -15.5246
  45   2.0000      -0.569234       -15.4896
  46   2.0000      -0.465472       -12.6661
  47   2.0000      -0.454471       -12.3668
  48   2.0000      -0.453582       -12.3426
  49   2.0000      -0.451098       -12.2750
  50   2.0000      -0.449607       -12.2344
  51   2.0000      -0.449107       -12.2208
  52   2.0000      -0.440684       -11.9916
  53   2.0000      -0.431793       -11.7497
  54   2.0000      -0.431423       -11.7396
  55   2.0000      -0.430955       -11.7269
  56   2.0000      -0.428633       -11.6637
  57   2.0000      -0.427009       -11.6195
  58   2.0000      -0.425245       -11.5715
  59   2.0000      -0.421219       -11.4619
  60   2.0000      -0.384659       -10.4671
  61   2.0000      -0.292726        -7.9655
  62   2.0000      -0.280385        -7.6297
  63   2.0000      -0.278252        -7.5716
  64   2.0000      -0.260691        -7.0938
  65   2.0000      -0.259279        -7.0553
  66   0.0000      -0.036492        -0.9930
  67   0.0000       0.014326         0.3898
  68   0.0000       0.035884         0.9764
  69   0.0000       0.044750         1.2177
  70   0.0000       0.053112         1.4452

MULLIKEN ATOMIC CHARGES
-----------------------
   0 Lu:    0.658043
   1 C :   -0.287624
   2 C :   -0.302813
   3 C :   -0.248187
   4 C :   -0.314664
   5 C :   -0.269590
   6 H :    0.235346
   7 H :    0.244955
   8 H :    0.238423
   9 H :    0.237827
  10 H :    0.229103
  11 C :   -0.313803
  12 C :   -0.267741
  13 C :   -0.305681
  14 C :   -0.247087
  15 H :    0.237987
  16 C :   -0.274226
  17 H :    0.242116
  18 H :    0.228272
  19 H :    0.234316
  20 H :    0.239696
  21 C :   -0.917436
  22 H :    0.244323
  23 H :    0.235884
  24 H :    0.250919
  25 C :   -0.942286
  26 H :    0.240139
  27 H :    0.222942
  28 H :    0.235343
  29 H :    0.235503
Sum of atomic charges:   -0.0000000

LOEWDIN ATOMIC CHARGES
----------------------
   0 Lu:   -0.153287
   1 C :   -0.143860
   2 C :   -0.152403
   3 C :   -0.127996
   4 C :   -0.150012
   5 C :   -0.140507
   6 H :    0.153105
   7 H :    0.157847
   8 H :    0.155246
   9 H :    0.152849
  10 H :    0.149912
  11 C :   -0.149534
  12 C :   -0.138004
  13 C :   -0.151838
  14 C :   -0.126164
  15 H :    0.153985
  16 C :   -0.140173
  17 H :    0.157352
  18 H :    0.149724
  19 H :    0.152399
  20 H :    0.154910
  21 C :   -0.520911
  22 H :    0.138927
  23 H :    0.147837
  24 H :    0.140642
  25 C :   -0.560447
  26 H :    0.274150
  27 H :    0.150166
  28 H :    0.133925
  29 H :    0.132161

  Mayer bond orders larger than 0.100000
B(  0-Lu,  1-C ) :   0.2580 B(  0-Lu,  2-C ) :   0.2692 B(  0-Lu,  3-C ) :   0.2441
B(  0-Lu,  4-C ) :   0.2739 B(  0-Lu,  5-C ) :   0.2546 B(  0-Lu, 11-C ) :   0.2787
B(  0-Lu, 12-C ) :   0.2542 B(  0-Lu, 13-C ) :   0.2723 B(  0-Lu, 14-C ) :   0.2498
B(  0-Lu, 16-C ) :   0.2618 B(  0-Lu, 21-C ) :   0.4007 B(  0-Lu, 25-C ) :   0.5577
B(  0-Lu, 26-H ) :   0.2971 B(  1-C ,  2-C ) :   1.2778 B(  1-C ,  5-C ) :   1.3022
B(  1-C ,  8-H ) :   0.9175 B(  2-C ,  3-C ) :   1.3032 B(  2-C ,  9-H ) :   0.9154
B(  3-C ,  4-C ) :   1.2993 B(  3-C , 10-H ) :   0.9222 B(  4-C ,  5-C ) :   1.2769
B(  4-C ,  6-H ) :   0.9196 B(  5-C ,  7-H ) :   0.9141 B( 11-C , 12-C ) :   1.2742
B( 11-C , 14-C ) :   1.3009 B( 11-C , 15-H ) :   0.9174 B( 12-C , 16-C ) :   1.3047
B( 12-C , 17-H ) :   0.9144 B( 13-C , 14-C ) :   1.2960 B( 13-C , 16-C ) :   1.2757
B( 13-C , 19-H ) :   0.9192 B( 14-C , 18-H ) :   0.9229 B( 16-C , 20-H ) :   0.9145
B( 21-C , 22-H ) :   0.9017 B( 21-C , 23-H ) :   0.9000 B( 21-C , 24-H ) :   0.9052
B( 21-C , 25-C ) :   0.1534 B( 21-C , 26-H ) :   0.3952 B( 25-C , 26-H ) :   0.2326
B( 25-C , 27-H ) :   0.8808 B( 25-C , 28-H ) :   0.9137 B( 25-C , 29-H ) :   0.9059

Dispersion correction           -0.017613325
FINAL SINGLE POINT ENERGY     -1702.277295316086
Dispersion correction            ... done

DIPOLE MOMENT
-------------
                                X             Y             Z
Electronic contribution:    -10.42804       3.20570       2.27902
Nuclear contribution   :     10.55359      -3.43774      -2.16047
                        -----------------------------------------
Total Dipole Moment    :      0.12555      -0.23204       0.11856
                        -----------------------------------------
Magnitude (a.u.)       :      0.28924
Magnitude (Debye)      :      0.73520

Rotational constants in cm-1:     0.028156     0.020021     0.017416
Rotational constants in MHz :   844.081673   600.229095   522.107101

                             ****ORCA TERMINATED NORMALLY****
TOTAL RUN TIME: 0 days 0 hours 8 minutes 29 seconds 761 msec
