                         Program Version 5.0.3 -  RELEASE  -
|  1> ! EnGrad PBEh-3c
|  2> %output
|  3> xyzfile=True
|  4> end
|  5> %scf
|  6> maxiter 250
|  7> end
|  8> %output
|  9> Print[P_Hirshfeld] = 1
| 10> end
| 11> % maxcore
| 12> 4000
| 13> *xyz 0 1
| 14> Lu  -0.00116060   0.03211662   0.03688741
| 15> C    0.44294549   0.79288896   2.51479495
| 16> C    1.43106677  -0.16947265   2.19739932
| 17> C    2.29487935   0.39357616   1.23966194
| 18> C    1.81289256   1.67857694   0.91346125
| 19> C    0.66272950   1.91829006   1.69875983
| 20> H    2.30065711   2.38420988   0.25882812
| 21> H    0.09885883   2.84310813   1.72599480
| 22> H   -0.33874350   0.67957853   3.25018183
| 23> H    1.57127167  -1.12459138   2.68714947
| 24> H    3.21116230  -0.04773312   0.87587996
| 25> C    0.89259934  -0.07426302  -2.39967908
| 26> C   -0.36521738  -0.71663937  -2.43262189
| 27> C    1.05411682  -2.00233755  -1.19506383
| 28> C    1.77235536  -0.88152699  -1.65452549
| 29> H    1.16788079   0.82558667  -2.93197634
| 30> C   -0.26582302  -1.90914873  -1.69436379
| 31> H   -1.24185377  -0.36245067  -2.95716335
| 32> H    2.83367358  -0.71881852  -1.53857930
| 33> H    1.47325625  -2.83992258  -0.65329715
| 34> H   -1.05366088  -2.62959770  -1.53578087
| 35> C   -2.25406499  -1.35104591   1.14792402
| 36> H   -2.23624841  -1.25872690   2.24065441
| 37> H   -1.80607583  -2.34710596   0.96085590
| 38> H   -3.32875135  -1.48286511   0.88553542
| 39> C   -1.92502983   1.77432901  -0.77670328
| 40> H   -2.10507959   0.18579737   0.27088145
| 41> H   -1.06262621   2.35067888  -1.16607915
| 42> H   -2.51886712   2.54529018  -0.26089963
| 43> H   -2.50495405   1.53298183  -1.68171853
| 44> *
| 45>
| 46>                          ****END OF INPUT****

CARTESIAN COORDINATES (ANGSTROEM)
---------------------------------
  Lu    -0.001161    0.032117    0.036887
  C      0.442945    0.792889    2.514795
  C      1.431067   -0.169473    2.197399
  C      2.294879    0.393576    1.239662
  C      1.812893    1.678577    0.913461
  C      0.662729    1.918290    1.698760
  H      2.300657    2.384210    0.258828
  H      0.098859    2.843108    1.725995
  H     -0.338743    0.679579    3.250182
  H      1.571272   -1.124591    2.687149
  H      3.211162   -0.047733    0.875880
  C      0.892599   -0.074263   -2.399679
  C     -0.365217   -0.716639   -2.432622
  C      1.054117   -2.002338   -1.195064
  C      1.772355   -0.881527   -1.654525
  H      1.167881    0.825587   -2.931976
  C     -0.265823   -1.909149   -1.694364
  H     -1.241854   -0.362451   -2.957163
  H      2.833674   -0.718819   -1.538579
  H      1.473256   -2.839923   -0.653297
  H     -1.053661   -2.629598   -1.535781
  C     -2.254065   -1.351046    1.147924
  H     -2.236248   -1.258727    2.240654
  H     -1.806076   -2.347106    0.960856
  H     -3.328751   -1.482865    0.885535
  C     -1.925030    1.774329   -0.776703
  H     -2.105080    0.185797    0.270881
  H     -1.062626    2.350679   -1.166079
  H     -2.518867    2.545290   -0.260900
  H     -2.504954    1.532982   -1.681719

 Total Charge           Charge          ....    0
 Multiplicity           Mult            ....    1
 Number of Electrons    NEL             ....  132
 Basis Dimension        Dim             ....  295

ORBITAL ENERGIES
----------------

  NO   OCC          E(Eh)            E(eV)
   0   2.0000     -19.259298      -524.0721
   1   2.0000     -12.630667      -343.6979
   2   2.0000     -12.629792      -343.6741
   3   2.0000     -12.629594      -343.6687
   4   2.0000     -10.448884      -284.3286
   5   2.0000     -10.447695      -284.2962
   6   2.0000     -10.447184      -284.2823
   7   2.0000     -10.446598      -284.2664
   8   2.0000     -10.446357      -284.2598
   9   2.0000     -10.445849      -284.2460
  10   2.0000     -10.445558      -284.2381
  11   2.0000     -10.445020      -284.2234
  12   2.0000     -10.444733      -284.2156
  13   2.0000     -10.443765      -284.1893
  14   2.0000     -10.436374      -283.9882
  15   2.0000     -10.419398      -283.5262
  16   2.0000      -5.900070      -160.5491
  17   2.0000      -5.900023      -160.5478
  18   2.0000      -5.899827      -160.5425
  19   2.0000      -5.899333      -160.5290
  20   2.0000      -5.899246      -160.5267
  21   2.0000      -2.442229       -66.4564
  22   2.0000      -1.279731       -34.8233
  23   2.0000      -1.275926       -34.7197
  24   2.0000      -1.273620       -34.6570
  25   2.0000      -0.981097       -26.6970
  26   2.0000      -0.972430       -26.4612
  27   2.0000      -0.796703       -21.6794
  28   2.0000      -0.793891       -21.6029
  29   2.0000      -0.792872       -21.5751
  30   2.0000      -0.791627       -21.5413
  31   2.0000      -0.743913       -20.2429
  32   2.0000      -0.732413       -19.9300
  33   2.0000      -0.615817       -16.7572
  34   2.0000      -0.613594       -16.6967
  35   2.0000      -0.610955       -16.6249
  36   2.0000      -0.609155       -16.5760
  37   2.0000      -0.597722       -16.2649
  38   2.0000      -0.592274       -16.1166
  39   2.0000      -0.567386       -15.4394
  40   2.0000      -0.566295       -15.4097
  41   2.0000      -0.566128       -15.4051
  42   2.0000      -0.565829       -15.3970
  43   2.0000      -0.565620       -15.3913
  44   2.0000      -0.565548       -15.3893
  45   2.0000      -0.564261       -15.3543
  46   2.0000      -0.469012       -12.7625
  47   2.0000      -0.456586       -12.4243
  48   2.0000      -0.453941       -12.3524
  49   2.0000      -0.452322       -12.3083
  50   2.0000      -0.451389       -12.2829
  51   2.0000      -0.440734       -11.9930
  52   2.0000      -0.434141       -11.8136
  53   2.0000      -0.433498       -11.7961
  54   2.0000      -0.432884       -11.7794
  55   2.0000      -0.431508       -11.7419
  56   2.0000      -0.431259       -11.7351
  57   2.0000      -0.425194       -11.5701
  58   2.0000      -0.423006       -11.5106
  59   2.0000      -0.415263       -11.2999
  60   2.0000      -0.389810       -10.6073
  61   2.0000      -0.294837        -8.0229
  62   2.0000      -0.285382        -7.7656
  63   2.0000      -0.280930        -7.6445
  64   2.0000      -0.265930        -7.2363
  65   2.0000      -0.257067        -6.9951
  66   0.0000      -0.022767        -0.6195
  67   0.0000       0.026913         0.7323
  68   0.0000       0.035430         0.9641
  69   0.0000       0.044257         1.2043
  70   0.0000       0.056494         1.5373

MULLIKEN ATOMIC CHARGES
-----------------------
   0 Lu:    0.662698
   1 C :   -0.240306
   2 C :   -0.331333
   3 C :   -0.245474
   4 C :   -0.300427
   5 C :   -0.290352
   6 H :    0.238807
   7 H :    0.243294
   8 H :    0.242711
   9 H :    0.239252
  10 H :    0.233165
  11 C :   -0.311626
  12 C :   -0.260149
  13 C :   -0.317844
  14 C :   -0.250282
  15 H :    0.239460
  16 C :   -0.254257
  17 H :    0.241938
  18 H :    0.231717
  19 H :    0.236448
  20 H :    0.242270
  21 C :   -0.955452
  22 H :    0.239176
  23 H :    0.230804
  24 H :    0.242099
  25 C :   -0.960223
  26 H :    0.263977
  27 H :    0.223027
  28 H :    0.234789
  29 H :    0.232094
Sum of atomic charges:    0.0000000

LOEWDIN ATOMIC CHARGES
----------------------
   0 Lu:   -0.179055
   1 C :   -0.130413
   2 C :   -0.150425
   3 C :   -0.123428
   4 C :   -0.146024
   5 C :   -0.134316
   6 H :    0.155496
   7 H :    0.158619
   8 H :    0.157459
   9 H :    0.155319
  10 H :    0.151825
  11 C :   -0.146737
  12 C :   -0.128326
  13 C :   -0.149869
  14 C :   -0.124077
  15 H :    0.155411
  16 C :   -0.132049
  17 H :    0.158098
  18 H :    0.151366
  19 H :    0.154348
  20 H :    0.156598
  21 C :   -0.559258
  22 H :    0.135607
  23 H :    0.144983
  24 H :    0.139396
  25 C :   -0.577516
  26 H :    0.291349
  27 H :    0.151129
  28 H :    0.133473
  29 H :    0.131020

  Mayer bond orders larger than 0.100000
B(  0-Lu,  1-C ) :   0.2511 B(  0-Lu,  2-C ) :   0.2834 B(  0-Lu,  3-C ) :   0.2619
B(  0-Lu,  4-C ) :   0.2839 B(  0-Lu,  5-C ) :   0.2591 B(  0-Lu, 11-C ) :   0.2860
B(  0-Lu, 12-C ) :   0.2517 B(  0-Lu, 13-C ) :   0.2880 B(  0-Lu, 14-C ) :   0.2685
B(  0-Lu, 16-C ) :   0.2579 B(  0-Lu, 21-C ) :   0.3993 B(  0-Lu, 25-C ) :   0.5216
B(  0-Lu, 26-H ) :   0.2548 B(  1-C ,  2-C ) :   1.2722 B(  1-C ,  5-C ) :   1.3066
B(  1-C ,  8-H ) :   0.9146 B(  2-C ,  3-C ) :   1.2916 B(  2-C ,  9-H ) :   0.9180
B(  3-C ,  4-C ) :   1.2868 B(  3-C , 10-H ) :   0.9202 B(  4-C ,  5-C ) :   1.2712
B(  4-C ,  6-H ) :   0.9189 B(  5-C ,  7-H ) :   0.9174 B( 11-C , 12-C ) :   1.2731
B( 11-C , 14-C ) :   1.2904 B( 11-C , 15-H ) :   0.9178 B( 12-C , 16-C ) :   1.3120
B( 12-C , 17-H ) :   0.9149 B( 13-C , 14-C ) :   1.2827 B( 13-C , 16-C ) :   1.2697
B( 13-C , 19-H ) :   0.9195 B( 14-C , 18-H ) :   0.9216 B( 16-C , 20-H ) :   0.9137
B( 21-C , 22-H ) :   0.9032 B( 21-C , 23-H ) :   0.8946 B( 21-C , 24-H ) :   0.9102
B( 21-C , 25-C ) :   0.1334 B( 21-C , 26-H ) :   0.3867 B( 25-C , 26-H ) :   0.2700
B( 25-C , 27-H ) :   0.8736 B( 25-C , 28-H ) :   0.9130 B( 25-C , 29-H ) :   0.9079

Dispersion correction           -0.017852463
FINAL SINGLE POINT ENERGY     -1702.295848646363
Dispersion correction            ... done

DIPOLE MOMENT
-------------
                                X             Y             Z
Electronic contribution:     -6.84605       2.11860       2.43839
Nuclear contribution   :      7.21219      -2.27511      -2.36966
                        -----------------------------------------
Total Dipole Moment    :      0.36615      -0.15651       0.06873
                        -----------------------------------------
Magnitude (a.u.)       :      0.40408
Magnitude (Debye)      :      1.02709

Rotational constants in cm-1:     0.029208     0.020488     0.017746
Rotational constants in MHz :   875.637231   614.204702   532.020091

                             ****ORCA TERMINATED NORMALLY****
TOTAL RUN TIME: 0 days 0 hours 8 minutes 31 seconds 265 msec
