                         Program Version 5.0.3 -  RELEASE  -
|  1> ! EnGrad PBEh-3c
|  2> %output
|  3> xyzfile=True
|  4> end
|  5> %scf
|  6> maxiter 250
|  7> end
|  8> %output
|  9> Print[P_Hirshfeld] = 1
| 10> end
| 11> % maxcore
| 12> 4000
| 13> *xyz 0 1
| 14> Lu   0.03938946   0.01874888   0.03582655
| 15> C    0.43115244   0.78516318   2.50489066
| 16> C    1.42191311  -0.17390492   2.19264209
| 17> C    2.28327059   0.39242453   1.23486516
| 18> C    1.80396861   1.67143820   0.91060466
| 19> C    0.65172982   1.91240510   1.69194353
| 20> H    2.29458626   2.37946744   0.25251773
| 21> H    0.09470519   2.83972978   1.72346216
| 22> H   -0.35139404   0.67290523   3.24180690
| 23> H    1.57427000  -1.12307650   2.68952740
| 24> H    3.19656198  -0.05332499   0.86401374
| 25> C    0.88697419  -0.06925426  -2.39491095
| 26> C   -0.37218952  -0.71217047  -2.42195252
| 27> C    1.04716052  -1.99653072  -1.18810468
| 28> C    1.76630730  -0.87879885  -1.64649860
| 29> H    1.16608802   0.82513655  -2.92610967
| 30> C   -0.27117698  -1.90505719  -1.68424904
| 31> H   -1.24639645  -0.35848677  -2.95010933
| 32> H    2.82319510  -0.70804036  -1.52433431
| 33> H    1.47136725  -2.83550445  -0.64910009
| 34> H   -1.05710836  -2.63026511  -1.53235495
| 35> C   -2.23361909  -1.27655209   1.11507810
| 36> H   -2.22696811  -1.20800162   2.20543367
| 37> H   -1.76682838  -2.25251132   0.91179412
| 38> H   -3.31282849  -1.45766259   0.87638027
| 39> C   -1.92764394   1.70281036  -0.74001888
| 40> H   -2.10728665   0.20293295   0.23501544
| 41> H   -1.05095148   2.27690310  -1.11556589
| 42> H   -2.50721243   2.48289564  -0.22482670
| 43> H   -2.50027799   1.50121177  -1.65430150
| 44> *
| 45>
| 46>                          ****END OF INPUT****

CARTESIAN COORDINATES (ANGSTROEM)
---------------------------------
  Lu     0.039389    0.018749    0.035827
  C      0.431152    0.785163    2.504891
  C      1.421913   -0.173905    2.192642
  C      2.283271    0.392425    1.234865
  C      1.803969    1.671438    0.910605
  C      0.651730    1.912405    1.691944
  H      2.294586    2.379467    0.252518
  H      0.094705    2.839730    1.723462
  H     -0.351394    0.672905    3.241807
  H      1.574270   -1.123076    2.689527
  H      3.196562   -0.053325    0.864014
  C      0.886974   -0.069254   -2.394911
  C     -0.372190   -0.712170   -2.421953
  C      1.047161   -1.996531   -1.188105
  C      1.766307   -0.878799   -1.646499
  H      1.166088    0.825137   -2.926110
  C     -0.271177   -1.905057   -1.684249
  H     -1.246396   -0.358487   -2.950109
  H      2.823195   -0.708040   -1.524334
  H      1.471367   -2.835504   -0.649100
  H     -1.057108   -2.630265   -1.532355
  C     -2.233619   -1.276552    1.115078
  H     -2.226968   -1.208002    2.205434
  H     -1.766828   -2.252511    0.911794
  H     -3.312828   -1.457663    0.876380
  C     -1.927644    1.702810   -0.740019
  H     -2.107287    0.202933    0.235015
  H     -1.050951    2.276903   -1.115566
  H     -2.507212    2.482896   -0.224827
  H     -2.500278    1.501212   -1.654301

 Total Charge           Charge          ....    0
 Multiplicity           Mult            ....    1
 Number of Electrons    NEL             ....  132
 Basis Dimension        Dim             ....  295

ORBITAL ENERGIES
----------------

  NO   OCC          E(Eh)            E(eV)
   0   2.0000     -19.256273      -523.9898
   1   2.0000     -12.627618      -343.6150
   2   2.0000     -12.626765      -343.5917
   3   2.0000     -12.626528      -343.5853
   4   2.0000     -10.449538      -284.3464
   5   2.0000     -10.448584      -284.3204
   6   2.0000     -10.448522      -284.3187
   7   2.0000     -10.447763      -284.2981
   8   2.0000     -10.447326      -284.2862
   9   2.0000     -10.447090      -284.2798
  10   2.0000     -10.446731      -284.2700
  11   2.0000     -10.446201      -284.2556
  12   2.0000     -10.445968      -284.2492
  13   2.0000     -10.445357      -284.2326
  14   2.0000     -10.423735      -283.6443
  15   2.0000     -10.416087      -283.4361
  16   2.0000      -5.897007      -160.4657
  17   2.0000      -5.896948      -160.4641
  18   2.0000      -5.896759      -160.4590
  19   2.0000      -5.896264      -160.4455
  20   2.0000      -5.896159      -160.4426
  21   2.0000      -2.439408       -66.3797
  22   2.0000      -1.278621       -34.7931
  23   2.0000      -1.273563       -34.6554
  24   2.0000      -1.271512       -34.5996
  25   2.0000      -0.983918       -26.7738
  26   2.0000      -0.974035       -26.5048
  27   2.0000      -0.798740       -21.7348
  28   2.0000      -0.796023       -21.6609
  29   2.0000      -0.794866       -21.6294
  30   2.0000      -0.793844       -21.6016
  31   2.0000      -0.740656       -20.1543
  32   2.0000      -0.732375       -19.9289
  33   2.0000      -0.617614       -16.8061
  34   2.0000      -0.615239       -16.7415
  35   2.0000      -0.612497       -16.6669
  36   2.0000      -0.610639       -16.6163
  37   2.0000      -0.599690       -16.3184
  38   2.0000      -0.593882       -16.1604
  39   2.0000      -0.564424       -15.3588
  40   2.0000      -0.563287       -15.3278
  41   2.0000      -0.563037       -15.3210
  42   2.0000      -0.562764       -15.3136
  43   2.0000      -0.562620       -15.3097
  44   2.0000      -0.562510       -15.3067
  45   2.0000      -0.561236       -15.2720
  46   2.0000      -0.471299       -12.8247
  47   2.0000      -0.458256       -12.4698
  48   2.0000      -0.455293       -12.3892
  49   2.0000      -0.453955       -12.3527
  50   2.0000      -0.453374       -12.3369
  51   2.0000      -0.439107       -11.9487
  52   2.0000      -0.435789       -11.8584
  53   2.0000      -0.434813       -11.8319
  54   2.0000      -0.433237       -11.7890
  55   2.0000      -0.432289       -11.7632
  56   2.0000      -0.430931       -11.7262
  57   2.0000      -0.422059       -11.4848
  58   2.0000      -0.418236       -11.3808
  59   2.0000      -0.414490       -11.2788
  60   2.0000      -0.393568       -10.7095
  61   2.0000      -0.296023        -8.0552
  62   2.0000      -0.288320        -7.8456
  63   2.0000      -0.282441        -7.6856
  64   2.0000      -0.269602        -7.3362
  65   2.0000      -0.253955        -6.9105
  66   0.0000      -0.018966        -0.5161
  67   0.0000       0.028186         0.7670
  68   0.0000       0.043802         1.1919
  69   0.0000       0.045442         1.2365
  70   0.0000       0.054986         1.4962

MULLIKEN ATOMIC CHARGES
-----------------------
   0 Lu:    0.670741
   1 C :   -0.234150
   2 C :   -0.332082
   3 C :   -0.248757
   4 C :   -0.298415
   5 C :   -0.286979
   6 H :    0.240248
   7 H :    0.242873
   8 H :    0.244014
   9 H :    0.240598
  10 H :    0.235819
  11 C :   -0.308465
  12 C :   -0.255273
  13 C :   -0.318703
  14 C :   -0.254969
  15 H :    0.240766
  16 C :   -0.248451
  17 H :    0.241806
  18 H :    0.234488
  19 H :    0.238555
  20 H :    0.244027
  21 C :   -0.983359
  22 H :    0.237106
  23 H :    0.226679
  24 H :    0.238305
  25 C :   -0.979232
  26 H :    0.278658
  27 H :    0.221300
  28 H :    0.237469
  29 H :    0.235379
Sum of atomic charges:    0.0000000

LOEWDIN ATOMIC CHARGES
----------------------
   0 Lu:   -0.187902
   1 C :   -0.123655
   2 C :   -0.148135
   3 C :   -0.122948
   4 C :   -0.143543
   5 C :   -0.130817
   6 H :    0.156726
   7 H :    0.158914
   8 H :    0.158535
   9 H :    0.156779
  10 H :    0.153113
  11 C :   -0.144135
  12 C :   -0.122328
  13 C :   -0.147630
  14 C :   -0.123593
  15 H :    0.156099
  16 C :   -0.127513
  17 H :    0.158362
  18 H :    0.152466
  19 H :    0.155888
  20 H :    0.157816
  21 C :   -0.586893
  22 H :    0.133668
  23 H :    0.143141
  24 H :    0.138246
  25 C :   -0.589592
  26 H :    0.300263
  27 H :    0.153358
  28 H :    0.133931
  29 H :    0.131378

  Mayer bond orders larger than 0.100000
B(  0-Lu,  1-C ) :   0.2488 B(  0-Lu,  2-C ) :   0.2893 B(  0-Lu,  3-C ) :   0.2719
B(  0-Lu,  4-C ) :   0.2887 B(  0-Lu,  5-C ) :   0.2600 B(  0-Lu, 11-C ) :   0.2897
B(  0-Lu, 12-C ) :   0.2520 B(  0-Lu, 13-C ) :   0.2962 B(  0-Lu, 14-C ) :   0.2793
B(  0-Lu, 16-C ) :   0.2580 B(  0-Lu, 21-C ) :   0.3991 B(  0-Lu, 25-C ) :   0.4942
B(  0-Lu, 26-H ) :   0.2230 B(  1-C ,  2-C ) :   1.2729 B(  1-C ,  5-C ) :   1.3084
B(  1-C ,  8-H ) :   0.9147 B(  2-C ,  3-C ) :   1.2825 B(  2-C ,  9-H ) :   0.9184
B(  3-C ,  4-C ) :   1.2831 B(  3-C , 10-H ) :   0.9183 B(  4-C ,  5-C ) :   1.2680
B(  4-C ,  6-H ) :   0.9179 B(  5-C ,  7-H ) :   0.9186 B( 11-C , 12-C ) :   1.2731
B( 11-C , 14-C ) :   1.2850 B( 11-C , 15-H ) :   0.9176 B( 12-C , 16-C ) :   1.3135
B( 12-C , 17-H ) :   0.9157 B( 13-C , 14-C ) :   1.2750 B( 13-C , 16-C ) :   1.2667
B( 13-C , 19-H ) :   0.9189 B( 14-C , 18-H ) :   0.9198 B( 16-C , 20-H ) :   0.9139
B( 21-C , 22-H ) :   0.9044 B( 21-C , 23-H ) :   0.8908 B( 21-C , 24-H ) :   0.9122
B( 21-C , 25-C ) :   0.1157 B( 21-C , 26-H ) :   0.3795 B( 25-C , 26-H ) :   0.3009
B( 25-C , 27-H ) :   0.8674 B( 25-C , 28-H ) :   0.9111 B( 25-C , 29-H ) :   0.9064

Dispersion correction           -0.018042335
FINAL SINGLE POINT ENERGY     -1702.308477382277
Dispersion correction            ... done

DIPOLE MOMENT
-------------
                                X             Y             Z
Electronic contribution:     -4.62333       1.50736       2.30678
Nuclear contribution   :      5.12281      -1.60765      -2.28939
                        -----------------------------------------
Total Dipole Moment    :      0.49948      -0.10029       0.01739
                        -----------------------------------------
Magnitude (a.u.)       :      0.50975
Magnitude (Debye)      :      1.29567

Rotational constants in cm-1:     0.029965     0.020839     0.017945
Rotational constants in MHz :   898.337772   624.729911   537.982062

                             ****ORCA TERMINATED NORMALLY****
TOTAL RUN TIME: 0 days 0 hours 8 minutes 36 seconds 19 msec
