                         Program Version 5.0.3 -  RELEASE  -
|  1> ! EnGrad PBEh-3c
|  2> %output
|  3> xyzfile=True
|  4> end
|  5> %scf
|  6> maxiter 250
|  7> end
|  8> %output
|  9> Print[P_Hirshfeld] = 1
| 10> end
| 11> % maxcore
| 12> 4000
| 13> *xyz 0 1
| 14> Pd   0.48749478   0.42886332  -0.45258764
| 15> O    2.09340987   1.47251716   0.50700289
| 16> C    1.70686198   2.62794977   0.29417256
| 17> O    0.51288313   2.81091272  -0.12135975
| 18> C    2.57318578   3.80906235   0.56867761
| 19> H    2.01488005   4.62138802   1.03017918
| 20> H    2.97014373   4.17339931  -0.38074656
| 21> H    3.41577352   3.54750782   1.20308034
| 22> N   -1.27450622  -0.50743586  -1.11460548
| 23> C   -1.28176201  -1.29773159  -2.36599805
| 24> H   -0.93106887  -0.72608475  -3.22256607
| 25> H   -2.28815086  -1.63403354  -2.65097874
| 26> H   -0.65481533  -2.17838393  -2.28185188
| 27> C   -2.17074677   0.61131829  -1.44478742
| 28> H   -2.26257611   1.31001482  -0.62531615
| 29> H   -3.19695292   0.30914924  -1.68720686
| 30> H   -1.78678914   1.18947080  -2.28193774
| 31> C   -1.46294115  -1.00544664   1.33925025
| 32> C   -0.61646735  -1.84263773   2.06846633
| 33> C   -0.50886204  -1.76761832   3.45060470
| 34> C   -1.18353268  -0.76578460   4.12393259
| 35> C   -2.10148569   0.00718927   3.42475582
| 36> C   -2.06504601   0.04711756   2.03700905
| 37> H   -1.08794449  -0.68290683   5.19901991
| 38> H   -2.88187485   0.46990934   4.01516038
| 39> H   -0.11923644  -2.67956363   1.59568423
| 40> H    0.10417986  -2.47224264   3.99657593
| 41> H   -2.66125919   2.67973036   2.00077990
| 42> C   -1.87036309  -1.35701488  -0.06386040
| 43> H   -2.96940628  -1.34656646  -0.06092906
| 44> H   -1.63381442  -2.41255866  -0.22645429
| 45> O    1.83246736  -0.82365042  -1.13441084
| 46> C    2.28156905  -0.66247282  -2.33739807
| 47> O    1.70361559   0.01981516  -3.16301300
| 48> C    3.56252299  -1.35525743  -2.74550530
| 49> H    3.46747522  -2.43856571  -2.67131605
| 50> H    4.37078562  -1.06599588  -2.07161291
| 51> H    3.91234943  -1.11336300  -3.74989340
| 52> *
| 53>
| 54>                          ****END OF INPUT****

CARTESIAN COORDINATES (ANGSTROEM)
---------------------------------
  Pd     0.487495    0.428863   -0.452588
  O      2.093410    1.472517    0.507003
  C      1.706862    2.627950    0.294173
  O      0.512883    2.810913   -0.121360
  C      2.573186    3.809062    0.568678
  H      2.014880    4.621388    1.030179
  H      2.970144    4.173399   -0.380747
  H      3.415774    3.547508    1.203080
  N     -1.274506   -0.507436   -1.114605
  C     -1.281762   -1.297732   -2.365998
  H     -0.931069   -0.726085   -3.222566
  H     -2.288151   -1.634034   -2.650979
  H     -0.654815   -2.178384   -2.281852
  C     -2.170747    0.611318   -1.444787
  H     -2.262576    1.310015   -0.625316
  H     -3.196953    0.309149   -1.687207
  H     -1.786789    1.189471   -2.281938
  C     -1.462941   -1.005447    1.339250
  C     -0.616467   -1.842638    2.068466
  C     -0.508862   -1.767618    3.450605
  C     -1.183533   -0.765785    4.123933
  C     -2.101486    0.007189    3.424756
  C     -2.065046    0.047118    2.037009
  H     -1.087944   -0.682907    5.199020
  H     -2.881875    0.469909    4.015160
  H     -0.119236   -2.679564    1.595684
  H      0.104180   -2.472243    3.996576
  H     -2.661259    2.679730    2.000780
  C     -1.870363   -1.357015   -0.063860
  H     -2.969406   -1.346566   -0.060929
  H     -1.633814   -2.412559   -0.226454
  O      1.832467   -0.823650   -1.134411
  C      2.281569   -0.662473   -2.337398
  O      1.703616    0.019815   -3.163013
  C      3.562523   -1.355257   -2.745505
  H      3.467475   -2.438566   -2.671316
  H      4.370786   -1.065996   -2.071613
  H      3.912349   -1.113363   -3.749893

 Total Charge           Charge          ....    0
 Multiplicity           Mult            ....    1
 Number of Electrons    NEL             ....  154
 Basis Dimension        Dim             ....  339

ORBITAL ENERGIES
----------------

  NO   OCC          E(Eh)            E(eV)
   0   2.0000     -19.483521      -530.1736
   1   2.0000     -19.480184      -530.0828
   2   2.0000     -19.448230      -529.2132
   3   2.0000     -19.425862      -528.6046
   4   2.0000     -14.736832      -401.0096
   5   2.0000     -10.542353      -286.8720
   6   2.0000     -10.531680      -286.5816
   7   2.0000     -10.526743      -286.4472
   8   2.0000     -10.514774      -286.1216
   9   2.0000     -10.499447      -285.7045
  10   2.0000     -10.484715      -285.3036
  11   2.0000     -10.483973      -285.2834
  12   2.0000     -10.477457      -285.1061
  13   2.0000     -10.476518      -285.0806
  14   2.0000     -10.472380      -284.9679
  15   2.0000     -10.468565      -284.8641
  16   2.0000     -10.423062      -283.6259
  17   2.0000     -10.418216      -283.4941
  18   2.0000      -3.664483       -99.7157
  19   2.0000      -2.313596       -62.9562
  20   2.0000      -2.308121       -62.8072
  21   2.0000      -2.273125       -61.8549
  22   2.0000      -1.174762       -31.9669
  23   2.0000      -1.152545       -31.3623
  24   2.0000      -1.091692       -29.7064
  25   2.0000      -1.050423       -28.5835
  26   2.0000      -1.048699       -28.5365
  27   2.0000      -0.989366       -26.9220
  28   2.0000      -0.898141       -24.4396
  29   2.0000      -0.856798       -23.3147
  30   2.0000      -0.823759       -22.4156
  31   2.0000      -0.813143       -22.1268
  32   2.0000      -0.812739       -22.1157
  33   2.0000      -0.798786       -21.7361
  34   2.0000      -0.733461       -19.9585
  35   2.0000      -0.702670       -19.1206
  36   2.0000      -0.680513       -18.5177
  37   2.0000      -0.606202       -16.4956
  38   2.0000      -0.597850       -16.2683
  39   2.0000      -0.587817       -15.9953
  40   2.0000      -0.585938       -15.9442
  41   2.0000      -0.582097       -15.8397
  42   2.0000      -0.564934       -15.3726
  43   2.0000      -0.540357       -14.7038
  44   2.0000      -0.527897       -14.3648
  45   2.0000      -0.520113       -14.1530
  46   2.0000      -0.513852       -13.9826
  47   2.0000      -0.511133       -13.9086
  48   2.0000      -0.505133       -13.7454
  49   2.0000      -0.503820       -13.7096
  50   2.0000      -0.494929       -13.4677
  51   2.0000      -0.488491       -13.2925
  52   2.0000      -0.482642       -13.1333
  53   2.0000      -0.474070       -12.9001
  54   2.0000      -0.460723       -12.5369
  55   2.0000      -0.445229       -12.1153
  56   2.0000      -0.442201       -12.0329
  57   2.0000      -0.440438       -11.9849
  58   2.0000      -0.436544       -11.8790
  59   2.0000      -0.433037       -11.7835
  60   2.0000      -0.428314       -11.6550
  61   2.0000      -0.427170       -11.6239
  62   2.0000      -0.418456       -11.3868
  63   2.0000      -0.408218       -11.1082
  64   2.0000      -0.378384       -10.2963
  65   2.0000      -0.375474       -10.2172
  66   2.0000      -0.349660        -9.5147
  67   2.0000      -0.342829        -9.3289
  68   2.0000      -0.337577        -9.1859
  69   2.0000      -0.326392        -8.8816
  70   2.0000      -0.321516        -8.7489
  71   2.0000      -0.309567        -8.4237
  72   2.0000      -0.301542        -8.2054
  73   2.0000      -0.296020        -8.0551
  74   2.0000      -0.281567        -7.6618
  75   2.0000      -0.272468        -7.4142
  76   2.0000      -0.271150        -7.3784
  77   0.0000      -0.145437        -3.9575
  78   0.0000      -0.076689        -2.0868
  79   0.0000      -0.017237        -0.4690
  80   0.0000      -0.008341        -0.2270
  81   0.0000       0.068351         1.8599

MULLIKEN ATOMIC CHARGES
-----------------------
   0 Pd:    0.530871
   1 O :   -0.458377
   2 C :    0.624719
   3 O :   -0.526615
   4 C :   -0.761598
   5 H :    0.250501
   6 H :    0.253012
   7 H :    0.242611
   8 N :   -0.486814
   9 C :   -0.542100
  10 H :    0.301442
  11 H :    0.226705
  12 H :    0.266955
  13 C :   -0.575341
  14 H :    0.300405
  15 H :    0.237393
  16 H :    0.295855
  17 C :   -0.052949
  18 C :   -0.202932
  19 C :   -0.223290
  20 C :   -0.202787
  21 C :   -0.262420
  22 C :    0.011064
  23 H :    0.240310
  24 H :    0.253110
  25 H :    0.237266
  26 H :    0.240872
  27 H :    0.028628
  28 C :   -0.310628
  29 H :    0.259120
  30 H :    0.264982
  31 O :   -0.542357
  32 C :    0.564961
  33 O :   -0.460159
  34 C :   -0.743082
  35 H :    0.228635
  36 H :    0.243010
  37 H :    0.249021
Sum of atomic charges:   -0.0000000

LOEWDIN ATOMIC CHARGES
----------------------
   0 Pd:   -0.229943
   1 O :   -0.139733
   2 C :    0.150132
   3 O :   -0.266119
   4 C :   -0.379216
   5 H :    0.152755
   6 H :    0.160082
   7 H :    0.145569
   8 N :   -0.038940
   9 C :   -0.237748
  10 H :    0.164795
  11 H :    0.123452
  12 H :    0.145922
  13 C :   -0.243223
  14 H :    0.162023
  15 H :    0.128341
  16 H :    0.163808
  17 C :   -0.069028
  18 C :   -0.101564
  19 C :   -0.124800
  20 C :   -0.122149
  21 C :   -0.136859
  22 C :    0.014096
  23 H :    0.145607
  24 H :    0.152446
  25 H :    0.154862
  26 H :    0.146042
  27 H :    0.029201
  28 C :   -0.102710
  29 H :    0.148547
  30 H :    0.152670
  31 O :   -0.169919
  32 C :    0.126332
  33 O :   -0.261294
  34 C :   -0.380193
  35 H :    0.142487
  36 H :    0.148439
  37 H :    0.145831

  Mayer bond orders larger than 0.100000
B(  0-Pd,  1-O ) :   0.5647 B(  0-Pd,  3-O ) :   0.3663 B(  0-Pd,  8-N ) :   0.4280
B(  0-Pd, 31-O ) :   0.6756 B(  0-Pd, 33-O ) :   0.1052 B(  1-O ,  2-C ) :   1.4452
B(  2-C ,  3-O ) :   1.5749 B(  2-C ,  4-C ) :   0.9461 B(  4-C ,  5-H ) :   0.9131
B(  4-C ,  6-H ) :   0.9077 B(  4-C ,  7-H ) :   0.9120 B(  8-N ,  9-C ) :   0.9153
B(  8-N , 13-C ) :   0.9115 B(  8-N , 28-C ) :   0.8963 B(  9-C , 10-H ) :   0.8853
B(  9-C , 11-H ) :   0.8992 B(  9-C , 12-H ) :   0.9072 B( 13-C , 14-H ) :   0.8753
B( 13-C , 15-H ) :   0.8998 B( 13-C , 16-H ) :   0.8896 B( 17-C , 18-C ) :   1.3859
B( 17-C , 22-C ) :   1.4175 B( 17-C , 28-C ) :   0.9531 B( 18-C , 19-C ) :   1.4416
B( 18-C , 25-H ) :   0.9051 B( 19-C , 20-C ) :   1.4274 B( 19-C , 26-H ) :   0.9082
B( 20-C , 21-C ) :   1.3971 B( 20-C , 23-H ) :   0.9083 B( 21-C , 22-C ) :   1.4535
B( 21-C , 24-H ) :   0.9047 B( 22-C , 27-H ) :   0.7845 B( 28-C , 29-H ) :   0.8933
B( 28-C , 30-H ) :   0.9095 B( 31-O , 32-C ) :   1.2467 B( 32-C , 33-O ) :   1.8694
B( 32-C , 34-C ) :   0.9377 B( 34-C , 35-H ) :   0.9157 B( 34-C , 36-H ) :   0.9104
B( 34-C , 37-H ) :   0.9175

Dispersion correction           -0.025836572
FINAL SINGLE POINT ENERGY      -988.255399024345
Dispersion correction            ... done

DIPOLE MOMENT
-------------
                                X             Y             Z
Electronic contribution:     20.04135      19.47988     -22.35847
Nuclear contribution   :    -21.91522     -20.99536      23.39886
                        -----------------------------------------
Total Dipole Moment    :     -1.87387      -1.51548       1.04039
                        -----------------------------------------
Magnitude (a.u.)       :      2.62497
Magnitude (Debye)      :      6.67214

Rotational constants in cm-1:     0.013351     0.008359     0.006945
Rotational constants in MHz :   400.242897   250.589089   208.197731

                             ****ORCA TERMINATED NORMALLY****
TOTAL RUN TIME: 0 days 0 hours 20 minutes 27 seconds 222 msec
