                         Program Version 5.0.3 -  RELEASE  -
|  1> ! EnGrad PBEh-3c
|  2> %output
|  3> xyzfile=True
|  4> end
|  5> %scf
|  6> maxiter 250
|  7> end
|  8> %output
|  9> Print[P_Hirshfeld] = 1
| 10> end
| 11> % maxcore
| 12> 4000
| 13> *xyz 0 1
| 14> Pd   0.61526711   0.45552157  -0.39306653
| 15> O    2.05122086   1.39076548   0.43079019
| 16> C    1.59867836   2.60926260   0.31305178
| 17> O    0.47182140   2.79951723  -0.12382004
| 18> C    2.58980023   3.75465340   0.57589724
| 19> H    2.05943557   4.59676541   1.02015247
| 20> H    3.00469092   4.12209771  -0.37159368
| 21> H    3.43385080   3.48155752   1.21732077
| 22> N   -1.34460096  -0.54177217  -1.17196237
| 23> C   -1.25416852  -1.42131424  -2.35376149
| 24> H   -0.84045708  -0.83317031  -3.16727454
| 25> H   -2.28128959  -1.75019304  -2.57068101
| 26> H   -0.61194879  -2.27949557  -2.14764598
| 27> C   -2.19624757   0.62613559  -1.48111239
| 28> H   -2.27091469   1.31327831  -0.63137658
| 29> H   -3.18113786   0.22693061  -1.76500593
| 30> H   -1.74215744   1.10096321  -2.35366694
| 31> C   -1.48044075  -0.92542517   1.36029553
| 32> C   -0.76478978  -1.91637321   2.09923139
| 33> C   -0.52620296  -1.76915411   3.45322523
| 34> C   -1.22206191  -0.81279838   4.15374382
| 35> C   -1.97871938   0.15916820   3.49187568
| 36> C   -1.99839465   0.11056715   2.15166713
| 37> H   -1.10355648  -0.67748486   5.21383210
| 38> H   -2.63374387   0.84180486   4.00358550
| 39> H   -0.32538320  -2.76688521   1.57636318
| 40> H   -0.01730372  -2.53896612   4.01527252
| 41> H   -2.50847322   2.45466831   1.81418780
| 42> C   -1.91875429  -1.31108744  -0.03411033
| 43> H   -3.01135797  -1.21666412  -0.08634541
| 44> H   -1.70892423  -2.37498609  -0.19316147
| 45> O    1.90950300  -0.90061474  -1.16680286
| 46> C    2.23391502  -0.60252493  -2.40314816
| 47> O    1.59920533   0.05049404  -3.21476497
| 48> C    3.59426418  -1.24226076  -2.73555490
| 49> H    3.52038690  -2.33323592  -2.73900330
| 50> H    4.38983771  -0.96772132  -2.04098908
| 51> H    3.86038016  -0.92743476  -3.74333893
| 52> *
| 53>
| 54>                          ****END OF INPUT****

CARTESIAN COORDINATES (ANGSTROEM)
---------------------------------
  Pd     0.615267    0.455522   -0.393067
  O      2.051221    1.390765    0.430790
  C      1.598678    2.609263    0.313052
  O      0.471821    2.799517   -0.123820
  C      2.589800    3.754653    0.575897
  H      2.059436    4.596765    1.020152
  H      3.004691    4.122098   -0.371594
  H      3.433851    3.481558    1.217321
  N     -1.344601   -0.541772   -1.171962
  C     -1.254169   -1.421314   -2.353761
  H     -0.840457   -0.833170   -3.167275
  H     -2.281290   -1.750193   -2.570681
  H     -0.611949   -2.279496   -2.147646
  C     -2.196248    0.626136   -1.481112
  H     -2.270915    1.313278   -0.631377
  H     -3.181138    0.226931   -1.765006
  H     -1.742157    1.100963   -2.353667
  C     -1.480441   -0.925425    1.360296
  C     -0.764790   -1.916373    2.099231
  C     -0.526203   -1.769154    3.453225
  C     -1.222062   -0.812798    4.153744
  C     -1.978719    0.159168    3.491876
  C     -1.998395    0.110567    2.151667
  H     -1.103556   -0.677485    5.213832
  H     -2.633744    0.841805    4.003585
  H     -0.325383   -2.766885    1.576363
  H     -0.017304   -2.538966    4.015273
  H     -2.508473    2.454668    1.814188
  C     -1.918754   -1.311087   -0.034110
  H     -3.011358   -1.216664   -0.086345
  H     -1.708924   -2.374986   -0.193161
  O      1.909503   -0.900615   -1.166803
  C      2.233915   -0.602525   -2.403148
  O      1.599205    0.050494   -3.214765
  C      3.594264   -1.242261   -2.735555
  H      3.520387   -2.333236   -2.739003
  H      4.389838   -0.967721   -2.040989
  H      3.860380   -0.927435   -3.743339

 Total Charge           Charge          ....    0
 Multiplicity           Mult            ....    1
 Number of Electrons    NEL             ....  154
 Basis Dimension        Dim             ....  339

ORBITAL ENERGIES
----------------

  NO   OCC          E(Eh)            E(eV)
   0   2.0000     -19.507679      -530.8309
   1   2.0000     -19.488956      -530.3214
   2   2.0000     -19.475586      -529.9576
   3   2.0000     -19.439750      -528.9825
   4   2.0000     -14.706201      -400.1761
   5   2.0000     -10.571697      -287.6705
   6   2.0000     -10.535765      -286.6927
   7   2.0000     -10.526485      -286.4402
   8   2.0000     -10.507204      -285.9155
   9   2.0000     -10.502043      -285.7751
  10   2.0000     -10.483632      -285.2741
  11   2.0000     -10.478497      -285.1344
  12   2.0000     -10.475580      -285.0550
  13   2.0000     -10.474625      -285.0290
  14   2.0000     -10.473227      -284.9910
  15   2.0000     -10.469084      -284.8783
  16   2.0000     -10.441451      -284.1263
  17   2.0000     -10.412381      -283.3353
  18   2.0000      -3.660761       -99.6144
  19   2.0000      -2.313607       -62.9564
  20   2.0000      -2.301200       -62.6188
  21   2.0000      -2.270921       -61.7949
  22   2.0000      -1.199703       -32.6456
  23   2.0000      -1.142929       -31.1007
  24   2.0000      -1.089127       -29.6366
  25   2.0000      -1.065499       -28.9937
  26   2.0000      -1.053619       -28.6704
  27   2.0000      -0.990792       -26.9608
  28   2.0000      -0.891752       -24.2658
  29   2.0000      -0.864140       -23.5144
  30   2.0000      -0.819329       -22.2951
  31   2.0000      -0.813888       -22.1470
  32   2.0000      -0.804867       -21.9015
  33   2.0000      -0.787694       -21.4342
  34   2.0000      -0.715676       -19.4745
  35   2.0000      -0.701476       -19.0881
  36   2.0000      -0.675770       -18.3886
  37   2.0000      -0.617488       -16.8027
  38   2.0000      -0.601542       -16.3688
  39   2.0000      -0.582526       -15.8513
  40   2.0000      -0.573531       -15.6066
  41   2.0000      -0.566002       -15.4017
  42   2.0000      -0.554846       -15.0981
  43   2.0000      -0.548372       -14.9220
  44   2.0000      -0.537357       -14.6222
  45   2.0000      -0.532113       -14.4795
  46   2.0000      -0.526738       -14.3333
  47   2.0000      -0.522619       -14.2212
  48   2.0000      -0.503397       -13.6981
  49   2.0000      -0.495868       -13.4932
  50   2.0000      -0.491944       -13.3865
  51   2.0000      -0.487094       -13.2545
  52   2.0000      -0.477242       -12.9864
  53   2.0000      -0.469024       -12.7628
  54   2.0000      -0.461338       -12.5536
  55   2.0000      -0.455531       -12.3956
  56   2.0000      -0.448500       -12.2043
  57   2.0000      -0.445118       -12.1123
  58   2.0000      -0.441159       -12.0046
  59   2.0000      -0.435235       -11.8434
  60   2.0000      -0.430541       -11.7156
  61   2.0000      -0.427954       -11.6452
  62   2.0000      -0.416592       -11.3360
  63   2.0000      -0.407214       -11.0809
  64   2.0000      -0.382511       -10.4087
  65   2.0000      -0.368637       -10.0311
  66   2.0000      -0.357979        -9.7411
  67   2.0000      -0.355569        -9.6755
  68   2.0000      -0.339725        -9.2444
  69   2.0000      -0.329324        -8.9614
  70   2.0000      -0.324912        -8.8413
  71   2.0000      -0.316021        -8.5994
  72   2.0000      -0.307292        -8.3618
  73   2.0000      -0.296998        -8.0817
  74   2.0000      -0.292657        -7.9636
  75   2.0000      -0.284028        -7.7288
  76   2.0000      -0.280533        -7.6337
  77   0.0000      -0.112416        -3.0590
  78   0.0000      -0.066469        -1.8087
  79   0.0000      -0.021269        -0.5788
  80   0.0000      -0.002139        -0.0582
  81   0.0000       0.049730         1.3532

MULLIKEN ATOMIC CHARGES
-----------------------
   0 Pd:    0.525364
   1 O :   -0.513322
   2 C :    0.632356
   3 O :   -0.449406
   4 C :   -0.762178
   5 H :    0.247422
   6 H :    0.261341
   7 H :    0.252439
   8 N :   -0.458231
   9 C :   -0.519265
  10 H :    0.289445
  11 H :    0.208051
  12 H :    0.258825
  13 C :   -0.532525
  14 H :    0.282334
  15 H :    0.215172
  16 H :    0.274568
  17 C :   -0.014547
  18 C :   -0.255376
  19 C :   -0.185097
  20 C :   -0.239923
  21 C :   -0.238406
  22 C :    0.010136
  23 H :    0.240606
  24 H :    0.261286
  25 H :    0.251329
  26 H :    0.232043
  27 H :   -0.000611
  28 C :   -0.316262
  29 H :    0.245007
  30 H :    0.255571
  31 O :   -0.539282
  32 C :    0.565766
  33 O :   -0.452722
  34 C :   -0.738846
  35 H :    0.230093
  36 H :    0.245044
  37 H :    0.231800
Sum of atomic charges:   -0.0000000

LOEWDIN ATOMIC CHARGES
----------------------
   0 Pd:   -0.233880
   1 O :   -0.140444
   2 C :    0.187942
   3 O :   -0.176641
   4 C :   -0.381824
   5 H :    0.150013
   6 H :    0.162618
   7 H :    0.150696
   8 N :   -0.094674
   9 C :   -0.237501
  10 H :    0.162071
  11 H :    0.115168
  12 H :    0.146310
  13 C :   -0.237677
  14 H :    0.160440
  15 H :    0.118089
  16 H :    0.156395
  17 C :   -0.063010
  18 C :   -0.092007
  19 C :   -0.130262
  20 C :   -0.115453
  21 C :   -0.146996
  22 C :    0.017233
  23 H :    0.145529
  24 H :    0.158359
  25 H :    0.154683
  26 H :    0.147372
  27 H :    0.001551
  28 C :   -0.105016
  29 H :    0.140048
  30 H :    0.147779
  31 O :   -0.197566
  32 C :    0.142773
  33 O :   -0.254933
  34 C :   -0.386068
  35 H :    0.143477
  36 H :    0.147894
  37 H :    0.137510

  Mayer bond orders larger than 0.100000
B(  0-Pd,  1-O ) :   0.6863 B(  0-Pd,  3-O ) :   0.3187 B(  0-Pd,  8-N ) :   0.3595
B(  0-Pd, 31-O ) :   0.6682 B(  1-O ,  2-C ) :   1.2618 B(  1-O ,  3-O ) :   0.1003
B(  2-C ,  3-O ) :   1.7012 B(  2-C ,  4-C ) :   0.9437 B(  4-C ,  5-H ) :   0.9106
B(  4-C ,  6-H ) :   0.9036 B(  4-C ,  7-H ) :   0.9090 B(  8-N ,  9-C ) :   0.9262
B(  8-N , 13-C ) :   0.9224 B(  8-N , 28-C ) :   0.9045 B(  9-C , 10-H ) :   0.8875
B(  9-C , 11-H ) :   0.9054 B(  9-C , 12-H ) :   0.9089 B( 13-C , 14-H ) :   0.8830
B( 13-C , 15-H ) :   0.9062 B( 13-C , 16-H ) :   0.8998 B( 17-C , 18-C ) :   1.3873
B( 17-C , 22-C ) :   1.3946 B( 17-C , 28-C ) :   0.9433 B( 18-C , 19-C ) :   1.4212
B( 18-C , 25-H ) :   0.8997 B( 19-C , 20-C ) :   1.4360 B( 19-C , 26-H ) :   0.9159
B( 20-C , 21-C ) :   1.3642 B( 20-C , 23-H ) :   0.9080 B( 21-C , 22-C ) :   1.4963
B( 21-C , 24-H ) :   0.9009 B( 22-C , 27-H ) :   0.7955 B( 28-C , 29-H ) :   0.8952
B( 28-C , 30-H ) :   0.9140 B( 31-O , 32-C ) :   1.2471 B( 31-O , 33-O ) :   0.1028
B( 32-C , 33-O ) :   1.8853 B( 32-C , 34-C ) :   0.9209 B( 34-C , 35-H ) :   0.9170
B( 34-C , 36-H ) :   0.9132 B( 34-C , 37-H ) :   0.9201

Dispersion correction           -0.025769481
FINAL SINGLE POINT ENERGY      -988.302879070331
Dispersion correction            ... done

DIPOLE MOMENT
-------------
                                X             Y             Z
Electronic contribution:     27.52080      21.56685     -18.79265
Nuclear contribution   :    -28.97427     -22.49525      20.14430
                        -----------------------------------------
Total Dipole Moment    :     -1.45348      -0.92840       1.35165
                        -----------------------------------------
Magnitude (a.u.)       :      2.19123
Magnitude (Debye)      :      5.56966

Rotational constants in cm-1:     0.013399     0.008293     0.006882
Rotational constants in MHz :   401.688561   248.615320   206.326644

                             ****ORCA TERMINATED NORMALLY****
TOTAL RUN TIME: 0 days 0 hours 21 minutes 51 seconds 502 msec
