                         Program Version 5.0.3 -  RELEASE  -
|  1> ! EnGrad PBEh-3c
|  2> %output
|  3> xyzfile=True
|  4> end
|  5> %scf
|  6> maxiter 250
|  7> end
|  8> %output
|  9> Print[P_Hirshfeld] = 1
| 10> end
| 11> % maxcore
| 12> 4000
| 13> *xyz 0 1
| 14> Pd   0.62568181   0.39221898  -0.40066481
| 15> O    2.03768038   1.41781013   0.40079531
| 16> C    1.60121733   2.56610859   0.31560915
| 17> O    0.41813891   2.78202996  -0.11348492
| 18> C    2.58688746   3.68413733   0.58652800
| 19> H    2.11127825   4.56959496   1.01355201
| 20> H    3.03453501   4.04952669  -0.35467178
| 21> H    3.44009764   3.40480106   1.22736265
| 22> N   -1.34397110  -0.56635536  -1.14948520
| 23> C   -1.23737344  -1.52511123  -2.29362342
| 24> H   -0.75135612  -0.97385977  -3.11724406
| 25> H   -2.26606714  -1.89344833  -2.51073108
| 26> H   -0.58189366  -2.37824064  -2.00329784
| 27> C   -2.19503190   0.58389030  -1.54030306
| 28> H   -2.28194803   1.29731747  -0.68075980
| 29> H   -3.17627142   0.16504683  -1.84853653
| 30> H   -1.70586773   1.01698370  -2.42292485
| 31> C   -1.51503334  -0.89886081   1.40389568
| 32> C   -0.90197814  -1.94875263   2.10560335
| 33> C   -0.61126036  -1.81830111   3.47658528
| 34> C   -1.23027872  -0.80005595   4.19233318
| 35> C   -1.85501253   0.29478309   3.56452045
| 36> C   -1.91664465   0.23707604   2.17392203
| 37> H   -1.10809235  -0.68207042   5.24932880
| 38> H   -2.34386753   1.22588906   4.00846666
| 39> H   -0.56785179  -2.85804067   1.57228682
| 40> H   -0.14982839  -2.61560306   4.03551353
| 41> H   -2.33301851   2.20043146   1.62109600
| 42> C   -1.97533467  -1.24544029  -0.02716822
| 43> H   -3.06299310  -1.08366739  -0.09213351
| 44> H   -1.80768735  -2.32696699  -0.14789978
| 45> O    1.95077457  -0.90539645  -1.22251846
| 46> C    2.21396219  -0.56382751  -2.45598330
| 47> O    1.51336490   0.03951848  -3.21404918
| 48> C    3.60627866  -1.10190474  -2.76394757
| 49> H    3.57963369  -2.20059888  -2.81866013
| 50> H    4.39443401  -0.84976602  -2.02139603
| 51> H    3.83154246  -0.72220147  -3.74481504
| 52> *
| 53>
| 54>                          ****END OF INPUT****

CARTESIAN COORDINATES (ANGSTROEM)
---------------------------------
  Pd     0.625682    0.392219   -0.400665
  O      2.037680    1.417810    0.400795
  C      1.601217    2.566109    0.315609
  O      0.418139    2.782030   -0.113485
  C      2.586887    3.684137    0.586528
  H      2.111278    4.569595    1.013552
  H      3.034535    4.049527   -0.354672
  H      3.440098    3.404801    1.227363
  N     -1.343971   -0.566355   -1.149485
  C     -1.237373   -1.525111   -2.293623
  H     -0.751356   -0.973860   -3.117244
  H     -2.266067   -1.893448   -2.510731
  H     -0.581894   -2.378241   -2.003298
  C     -2.195032    0.583890   -1.540303
  H     -2.281948    1.297317   -0.680760
  H     -3.176271    0.165047   -1.848537
  H     -1.705868    1.016984   -2.422925
  C     -1.515033   -0.898861    1.403896
  C     -0.901978   -1.948753    2.105603
  C     -0.611260   -1.818301    3.476585
  C     -1.230279   -0.800056    4.192333
  C     -1.855013    0.294783    3.564520
  C     -1.916645    0.237076    2.173922
  H     -1.108092   -0.682070    5.249329
  H     -2.343868    1.225889    4.008467
  H     -0.567852   -2.858041    1.572287
  H     -0.149828   -2.615603    4.035514
  H     -2.333019    2.200431    1.621096
  C     -1.975335   -1.245440   -0.027168
  H     -3.062993   -1.083667   -0.092134
  H     -1.807687   -2.326967   -0.147900
  O      1.950775   -0.905396   -1.222518
  C      2.213962   -0.563828   -2.455983
  O      1.513365    0.039518   -3.214049
  C      3.606279   -1.101905   -2.763948
  H      3.579634   -2.200599   -2.818660
  H      4.394434   -0.849766   -2.021396
  H      3.831542   -0.722201   -3.744815

 Total Charge           Charge          ....    0
 Multiplicity           Mult            ....    1
 Number of Electrons    NEL             ....  154
 Basis Dimension        Dim             ....  339

ORBITAL ENERGIES
----------------

  NO   OCC          E(Eh)            E(eV)
   0   2.0000     -19.512787      -530.9699
   1   2.0000     -19.475669      -529.9599
   2   2.0000     -19.471698      -529.8518
   3   2.0000     -19.446274      -529.1600
   4   2.0000     -14.708489      -400.2383
   5   2.0000     -10.564902      -287.4856
   6   2.0000     -10.535464      -286.6845
   7   2.0000     -10.527363      -286.4641
   8   2.0000     -10.504417      -285.8397
   9   2.0000     -10.498292      -285.6730
  10   2.0000     -10.483564      -285.2723
  11   2.0000     -10.483322      -285.2657
  12   2.0000     -10.482250      -285.2365
  13   2.0000     -10.482151      -285.2338
  14   2.0000     -10.474282      -285.0197
  15   2.0000     -10.471586      -284.9463
  16   2.0000     -10.437810      -284.0272
  17   2.0000     -10.414935      -283.4048
  18   2.0000      -3.662833       -99.6707
  19   2.0000      -2.315211       -63.0001
  20   2.0000      -2.303526       -62.6821
  21   2.0000      -2.272625       -61.8413
  22   2.0000      -1.208256       -32.8783
  23   2.0000      -1.159110       -31.5410
  24   2.0000      -1.075880       -29.2762
  25   2.0000      -1.069264       -29.0962
  26   2.0000      -1.063809       -28.9477
  27   2.0000      -0.976725       -26.5780
  28   2.0000      -0.882671       -24.0187
  29   2.0000      -0.850524       -23.1439
  30   2.0000      -0.818355       -22.2686
  31   2.0000      -0.810652       -22.0590
  32   2.0000      -0.800018       -21.7696
  33   2.0000      -0.792798       -21.5731
  34   2.0000      -0.709837       -19.3157
  35   2.0000      -0.693067       -18.8593
  36   2.0000      -0.672267       -18.2933
  37   2.0000      -0.623150       -16.9568
  38   2.0000      -0.595156       -16.1950
  39   2.0000      -0.583729       -15.8841
  40   2.0000      -0.566869       -15.4253
  41   2.0000      -0.562003       -15.2929
  42   2.0000      -0.550258       -14.9733
  43   2.0000      -0.546166       -14.8619
  44   2.0000      -0.534745       -14.5512
  45   2.0000      -0.528595       -14.3838
  46   2.0000      -0.524499       -14.2724
  47   2.0000      -0.515172       -14.0186
  48   2.0000      -0.511228       -13.9112
  49   2.0000      -0.500061       -13.6074
  50   2.0000      -0.494538       -13.4571
  51   2.0000      -0.489691       -13.3252
  52   2.0000      -0.478870       -13.0307
  53   2.0000      -0.467137       -12.7115
  54   2.0000      -0.455924       -12.4063
  55   2.0000      -0.448812       -12.2128
  56   2.0000      -0.444332       -12.0909
  57   2.0000      -0.440065       -11.9748
  58   2.0000      -0.436890       -11.8884
  59   2.0000      -0.435000       -11.8369
  60   2.0000      -0.427620       -11.6361
  61   2.0000      -0.418397       -11.3852
  62   2.0000      -0.414771       -11.2865
  63   2.0000      -0.401199       -10.9172
  64   2.0000      -0.379217       -10.3190
  65   2.0000      -0.370047       -10.0695
  66   2.0000      -0.355267        -9.6673
  67   2.0000      -0.351055        -9.5527
  68   2.0000      -0.343682        -9.3521
  69   2.0000      -0.327180        -8.9030
  70   2.0000      -0.324793        -8.8381
  71   2.0000      -0.317442        -8.6380
  72   2.0000      -0.310876        -8.4594
  73   2.0000      -0.304246        -8.2790
  74   2.0000      -0.297743        -8.1020
  75   2.0000      -0.296155        -8.0588
  76   2.0000      -0.283568        -7.7163
  77   0.0000      -0.076303        -2.0763
  78   0.0000      -0.072146        -1.9632
  79   0.0000      -0.013836        -0.3765
  80   0.0000      -0.006299        -0.1714
  81   0.0000       0.053858         1.4656

MULLIKEN ATOMIC CHARGES
-----------------------
   0 Pd:    0.539954
   1 O :   -0.465948
   2 C :    0.626489
   3 O :   -0.504779
   4 C :   -0.771270
   5 H :    0.248619
   6 H :    0.259083
   7 H :    0.248579
   8 N :   -0.452611
   9 C :   -0.524246
  10 H :    0.290522
  11 H :    0.211703
  12 H :    0.256578
  13 C :   -0.522552
  14 H :    0.272292
  15 H :    0.214872
  16 H :    0.275296
  17 C :    0.002518
  18 C :   -0.258481
  19 C :   -0.189925
  20 C :   -0.244266
  21 C :   -0.227105
  22 C :   -0.047064
  23 H :    0.236595
  24 H :    0.254579
  25 H :    0.242835
  26 H :    0.231723
  27 H :    0.059378
  28 C :   -0.315966
  29 H :    0.244241
  30 H :    0.247731
  31 O :   -0.537126
  32 C :    0.561341
  33 O :   -0.432254
  34 C :   -0.741833
  35 H :    0.232759
  36 H :    0.246014
  37 H :    0.231725
Sum of atomic charges:   -0.0000000

LOEWDIN ATOMIC CHARGES
----------------------
   0 Pd:   -0.216418
   1 O :   -0.088121
   2 C :    0.167925
   3 O :   -0.247586
   4 C :   -0.382345
   5 H :    0.148668
   6 H :    0.162142
   7 H :    0.149529
   8 N :   -0.091623
   9 C :   -0.237673
  10 H :    0.165430
  11 H :    0.118250
  12 H :    0.147182
  13 C :   -0.233599
  14 H :    0.160368
  15 H :    0.119129
  16 H :    0.156893
  17 C :   -0.064418
  18 C :   -0.100776
  19 C :   -0.128258
  20 C :   -0.121884
  21 C :   -0.145421
  22 C :   -0.022460
  23 H :    0.143845
  24 H :    0.160711
  25 H :    0.151324
  26 H :    0.146129
  27 H :    0.059119
  28 C :   -0.110653
  29 H :    0.139373
  30 H :    0.143756
  31 O :   -0.193591
  32 C :    0.122084
  33 O :   -0.227460
  34 C :   -0.384515
  35 H :    0.146493
  36 H :    0.150786
  37 H :    0.137664

  Mayer bond orders larger than 0.100000
B(  0-Pd,  1-O ) :   0.6289 B(  0-Pd,  3-O ) :   0.3382 B(  0-Pd,  8-N ) :   0.3718
B(  0-Pd, 31-O ) :   0.6830 B(  1-O ,  2-C ) :   1.3772 B(  1-O ,  3-O ) :   0.1005
B(  2-C ,  3-O ) :   1.6230 B(  2-C ,  4-C ) :   0.9424 B(  4-C ,  5-H ) :   0.9114
B(  4-C ,  6-H ) :   0.9031 B(  4-C ,  7-H ) :   0.9098 B(  8-N ,  9-C ) :   0.9185
B(  8-N , 13-C ) :   0.9192 B(  8-N , 28-C ) :   0.9069 B(  9-C , 10-H ) :   0.8828
B(  9-C , 11-H ) :   0.9040 B(  9-C , 12-H ) :   0.9076 B( 13-C , 14-H ) :   0.8880
B( 13-C , 15-H ) :   0.9044 B( 13-C , 16-H ) :   0.8999 B( 17-C , 18-C ) :   1.4085
B( 17-C , 22-C ) :   1.3772 B( 17-C , 28-C ) :   0.9388 B( 18-C , 19-C ) :   1.3976
B( 18-C , 25-H ) :   0.9041 B( 19-C , 20-C ) :   1.4470 B( 19-C , 26-H ) :   0.9164
B( 20-C , 21-C ) :   1.3642 B( 20-C , 23-H ) :   0.9114 B( 21-C , 22-C ) :   1.4607
B( 21-C , 24-H ) :   0.9054 B( 22-C , 27-H ) :   0.8495 B( 28-C , 29-H ) :   0.8946
B( 28-C , 30-H ) :   0.9155 B( 31-O , 32-C ) :   1.2347 B( 32-C , 33-O ) :   1.9148
B( 32-C , 34-C ) :   0.9185 B( 34-C , 35-H ) :   0.9156 B( 34-C , 36-H ) :   0.9148
B( 34-C , 37-H ) :   0.9175

Dispersion correction           -0.025987594
FINAL SINGLE POINT ENERGY      -988.330787255110
Dispersion correction            ... done

DIPOLE MOMENT
-------------
                                X             Y             Z
Electronic contribution:     28.34706      18.14097     -19.38949
Nuclear contribution   :    -29.69155     -19.06325      20.56549
                        -----------------------------------------
Total Dipole Moment    :     -1.34450      -0.92228       1.17600
                        -----------------------------------------
Magnitude (a.u.)       :      2.01029
Magnitude (Debye)      :      5.10975

Rotational constants in cm-1:     0.013543     0.008290     0.006837
Rotational constants in MHz :   405.996736   248.523485   204.960723

                             ****ORCA TERMINATED NORMALLY****
TOTAL RUN TIME: 0 days 0 hours 19 minutes 4 seconds 615 msec
