                         Program Version 5.0.3 -  RELEASE  -
|  1> ! EnGrad PBEh-3c
|  2> %output
|  3> xyzfile=True
|  4> end
|  5> %scf
|  6> maxiter 250
|  7> end
|  8> %output
|  9> Print[P_Hirshfeld] = 1
| 10> end
| 11> % maxcore
| 12> 4000
| 13> *xyz 0 1
| 14> Pd   0.61969288   0.42862088  -0.39629545
| 15> O    2.04546678   1.40225822   0.41804375
| 16> C    1.59975731   2.59092413   0.31413855
| 17> O    0.44900881   2.79208595  -0.11942809
| 18> C    2.58856244   3.72468731   0.58041483
| 19> H    2.08146633   4.58521922   1.01734758
| 20> H    3.01737329   4.09125836  -0.36440265
| 21> H    3.43650542   3.44893955   1.22158811
| 22> N   -1.34433330  -0.55221889  -1.16241061
| 23> C   -1.24703139  -1.46542319  -2.32820558
| 24> H   -0.80259327  -0.89295686  -3.14601388
| 25> H   -2.27482075  -1.81106995  -2.54520505
| 26> H   -0.59917674  -2.32145769  -2.08630466
| 27> C   -2.19573097   0.60818328  -1.50626571
| 28> H   -2.27560335   1.30649568  -0.65236218
| 29> H   -3.17906985   0.20063285  -1.80050260
| 30> H   -1.72673598   1.06527578  -2.38309837
| 31> C   -1.49514101  -0.91413654   1.37882359
| 32> C   -0.82308853  -1.93013297   2.10193918
| 33> C   -0.56234845  -1.79003932   3.46315218
| 34> C   -1.22555368  -0.80738344   4.17014252
| 35> C   -1.92614965   0.21679829   3.52274637
| 36> C   -1.96365466   0.16432761   2.16112444
| 37> H   -1.10548402  -0.67943351   5.22891656
| 38> H   -2.51055975   1.00502299   4.00565977
| 39> H   -0.42842121  -2.80562209   1.57463091
| 40> H   -0.07362062  -2.57153330   4.02387402
| 41> H   -2.43391303   2.34662933   1.73213266
| 42> C   -1.94279835  -1.28319042  -0.03116025
| 43> H   -3.03330053  -1.16014662  -0.08880509
| 44> H   -1.75089402  -2.35458018  -0.17392733
| 45> O    1.92704152  -0.90264674  -1.19047943
| 46> C    2.22543598  -0.58608030  -2.42560066
| 47> O    1.56272709   0.04582993  -3.21446079
| 48> C    3.59936978  -1.18261590  -2.74762048
| 49> H    3.54556406  -2.27687127  -2.77285379
| 50> H    4.39179093  -0.91759574  -2.03266294
| 51> H    3.84812546  -0.84022004  -3.74396621
| 52> *
| 53>
| 54>                          ****END OF INPUT****

CARTESIAN COORDINATES (ANGSTROEM)
---------------------------------
  Pd     0.619693    0.428621   -0.396295
  O      2.045467    1.402258    0.418044
  C      1.599757    2.590924    0.314139
  O      0.449009    2.792086   -0.119428
  C      2.588562    3.724687    0.580415
  H      2.081466    4.585219    1.017348
  H      3.017373    4.091258   -0.364403
  H      3.436505    3.448940    1.221588
  N     -1.344333   -0.552219   -1.162411
  C     -1.247031   -1.465423   -2.328206
  H     -0.802593   -0.892957   -3.146014
  H     -2.274821   -1.811070   -2.545205
  H     -0.599177   -2.321458   -2.086305
  C     -2.195731    0.608183   -1.506266
  H     -2.275603    1.306496   -0.652362
  H     -3.179070    0.200633   -1.800503
  H     -1.726736    1.065276   -2.383098
  C     -1.495141   -0.914137    1.378824
  C     -0.823089   -1.930133    2.101939
  C     -0.562348   -1.790039    3.463152
  C     -1.225554   -0.807383    4.170143
  C     -1.926150    0.216798    3.522746
  C     -1.963655    0.164328    2.161124
  H     -1.105484   -0.679434    5.228917
  H     -2.510560    1.005023    4.005660
  H     -0.428421   -2.805622    1.574631
  H     -0.073621   -2.571533    4.023874
  H     -2.433913    2.346629    1.732133
  C     -1.942798   -1.283190   -0.031160
  H     -3.033301   -1.160147   -0.088805
  H     -1.750894   -2.354580   -0.173927
  O      1.927042   -0.902647   -1.190479
  C      2.225436   -0.586080   -2.425601
  O      1.562727    0.045830   -3.214461
  C      3.599370   -1.182616   -2.747620
  H      3.545564   -2.276871   -2.772854
  H      4.391791   -0.917596   -2.032663
  H      3.848125   -0.840220   -3.743966

 Total Charge           Charge          ....    0
 Multiplicity           Mult            ....    1
 Number of Electrons    NEL             ....  154
 Basis Dimension        Dim             ....  339

ORBITAL ENERGIES
----------------

  NO   OCC          E(Eh)            E(eV)
   0   2.0000     -19.509781      -530.8881
   1   2.0000     -19.481459      -530.1174
   2   2.0000     -19.475494      -529.9551
   3   2.0000     -19.442382      -529.0541
   4   2.0000     -14.707102      -400.2006
   5   2.0000     -10.568834      -287.5926
   6   2.0000     -10.535315      -286.6805
   7   2.0000     -10.527155      -286.4584
   8   2.0000     -10.505928      -285.8808
   9   2.0000     -10.500238      -285.7260
  10   2.0000     -10.482795      -285.2513
  11   2.0000     -10.480300      -285.1835
  12   2.0000     -10.478762      -285.1416
  13   2.0000     -10.475700      -285.0583
  14   2.0000     -10.473752      -285.0053
  15   2.0000     -10.469887      -284.9001
  16   2.0000     -10.439789      -284.0811
  17   2.0000     -10.413050      -283.3535
  18   2.0000      -3.661644       -99.6384
  19   2.0000      -2.314297       -62.9752
  20   2.0000      -2.302179       -62.6455
  21   2.0000      -2.271634       -61.8143
  22   2.0000      -1.199378       -32.6367
  23   2.0000      -1.149989       -31.2928
  24   2.0000      -1.086375       -29.5618
  25   2.0000      -1.067360       -29.0443
  26   2.0000      -1.058288       -28.7975
  27   2.0000      -0.985354       -26.8128
  28   2.0000      -0.888325       -24.1726
  29   2.0000      -0.858556       -23.3625
  30   2.0000      -0.818810       -22.2809
  31   2.0000      -0.812612       -22.1123
  32   2.0000      -0.803124       -21.8541
  33   2.0000      -0.789923       -21.4949
  34   2.0000      -0.713056       -19.4032
  35   2.0000      -0.698870       -19.0172
  36   2.0000      -0.674419       -18.3519
  37   2.0000      -0.619538       -16.8585
  38   2.0000      -0.599245       -16.3063
  39   2.0000      -0.583017       -15.8647
  40   2.0000      -0.570912       -15.5353
  41   2.0000      -0.564432       -15.3590
  42   2.0000      -0.552885       -15.0448
  43   2.0000      -0.545976       -14.8568
  44   2.0000      -0.536478       -14.5983
  45   2.0000      -0.530605       -14.4385
  46   2.0000      -0.522914       -14.2292
  47   2.0000      -0.522383       -14.2148
  48   2.0000      -0.506852       -13.7921
  49   2.0000      -0.495490       -13.4830
  50   2.0000      -0.494525       -13.4567
  51   2.0000      -0.489145       -13.3103
  52   2.0000      -0.477987       -13.0067
  53   2.0000      -0.467818       -12.7300
  54   2.0000      -0.459640       -12.5074
  55   2.0000      -0.452632       -12.3167
  56   2.0000      -0.446704       -12.1554
  57   2.0000      -0.442846       -12.0504
  58   2.0000      -0.439230       -11.9520
  59   2.0000      -0.432260       -11.7624
  60   2.0000      -0.431734       -11.7481
  61   2.0000      -0.425515       -11.5788
  62   2.0000      -0.415752       -11.3132
  63   2.0000      -0.405074       -11.0226
  64   2.0000      -0.380213       -10.3461
  65   2.0000      -0.369349       -10.0505
  66   2.0000      -0.357064        -9.7162
  67   2.0000      -0.354173        -9.6375
  68   2.0000      -0.341590        -9.2951
  69   2.0000      -0.327791        -8.9196
  70   2.0000      -0.323506        -8.8030
  71   2.0000      -0.317776        -8.6471
  72   2.0000      -0.307960        -8.3800
  73   2.0000      -0.297955        -8.1078
  74   2.0000      -0.295419        -8.0388
  75   2.0000      -0.293439        -7.9849
  76   2.0000      -0.282228        -7.6798
  77   0.0000      -0.098657        -2.6846
  78   0.0000      -0.068812        -1.8725
  79   0.0000      -0.017519        -0.4767
  80   0.0000      -0.003912        -0.1064
  81   0.0000       0.051381         1.3981

MULLIKEN ATOMIC CHARGES
-----------------------
   0 Pd:    0.531695
   1 O :   -0.495344
   2 C :    0.631965
   3 O :   -0.473709
   4 C :   -0.765892
   5 H :    0.248025
   6 H :    0.260375
   7 H :    0.250784
   8 N :   -0.455958
   9 C :   -0.521438
  10 H :    0.289925
  11 H :    0.209532
  12 H :    0.257987
  13 C :   -0.528531
  14 H :    0.278643
  15 H :    0.214844
  16 H :    0.274823
  17 C :   -0.008709
  18 C :   -0.256447
  19 C :   -0.188112
  20 C :   -0.240005
  21 C :   -0.234334
  22 C :   -0.011705
  23 H :    0.238376
  24 H :    0.259288
  25 H :    0.247709
  26 H :    0.231712
  27 H :    0.023424
  28 C :   -0.315721
  29 H :    0.244785
  30 H :    0.252255
  31 O :   -0.538418
  32 C :    0.563912
  33 O :   -0.443631
  34 C :   -0.740561
  35 H :    0.231287
  36 H :    0.245288
  37 H :    0.231882
Sum of atomic charges:   -0.0000000

LOEWDIN ATOMIC CHARGES
----------------------
   0 Pd:   -0.226047
   1 O :   -0.119441
   2 C :    0.180461
   3 O :   -0.207143
   4 C :   -0.382115
   5 H :    0.149444
   6 H :    0.162418
   7 H :    0.150221
   8 N :   -0.093256
   9 C :   -0.237464
  10 H :    0.163446
  11 H :    0.116420
  12 H :    0.146652
  13 C :   -0.236125
  14 H :    0.160692
  15 H :    0.118433
  16 H :    0.156546
  17 C :   -0.063974
  18 C :   -0.095526
  19 C :   -0.129186
  20 C :   -0.118284
  21 C :   -0.146280
  22 C :    0.002027
  23 H :    0.144742
  24 H :    0.158333
  25 H :    0.153141
  26 H :    0.146699
  27 H :    0.025733
  28 C :   -0.107239
  29 H :    0.139784
  30 H :    0.146048
  31 O :   -0.195567
  32 C :    0.133140
  33 O :   -0.242639
  34 C :   -0.385427
  35 H :    0.144762
  36 H :    0.149034
  37 H :    0.137536

  Mayer bond orders larger than 0.100000
B(  0-Pd,  1-O ) :   0.6621 B(  0-Pd,  3-O ) :   0.3265 B(  0-Pd,  8-N ) :   0.3649
B(  0-Pd, 31-O ) :   0.6748 B(  1-O ,  2-C ) :   1.3089 B(  1-O ,  3-O ) :   0.1009
B(  2-C ,  3-O ) :   1.6678 B(  2-C ,  4-C ) :   0.9436 B(  4-C ,  5-H ) :   0.9109
B(  4-C ,  6-H ) :   0.9034 B(  4-C ,  7-H ) :   0.9094 B(  8-N ,  9-C ) :   0.9232
B(  8-N , 13-C ) :   0.9212 B(  8-N , 28-C ) :   0.9059 B(  9-C , 10-H ) :   0.8856
B(  9-C , 11-H ) :   0.9049 B(  9-C , 12-H ) :   0.9083 B( 13-C , 14-H ) :   0.8848
B( 13-C , 15-H ) :   0.9055 B( 13-C , 16-H ) :   0.8999 B( 17-C , 18-C ) :   1.3963
B( 17-C , 22-C ) :   1.3890 B( 17-C , 28-C ) :   0.9413 B( 18-C , 19-C ) :   1.4123
B( 18-C , 25-H ) :   0.9016 B( 19-C , 20-C ) :   1.4392 B( 19-C , 26-H ) :   0.9165
B( 20-C , 21-C ) :   1.3669 B( 20-C , 23-H ) :   0.9096 B( 21-C , 22-C ) :   1.4815
B( 21-C , 24-H ) :   0.9029 B( 22-C , 27-H ) :   0.8192 B( 28-C , 29-H ) :   0.8949
B( 28-C , 30-H ) :   0.9148 B( 31-O , 32-C ) :   1.2421 B( 31-O , 33-O ) :   0.1012
B( 32-C , 33-O ) :   1.8988 B( 32-C , 34-C ) :   0.9200 B( 34-C , 35-H ) :   0.9164
B( 34-C , 36-H ) :   0.9140 B( 34-C , 37-H ) :   0.9190

Dispersion correction           -0.025869349
FINAL SINGLE POINT ENERGY      -988.320617324023
Dispersion correction            ... done

DIPOLE MOMENT
-------------
                                X             Y             Z
Electronic contribution:     27.86582      20.11843     -19.03889
Nuclear contribution   :    -29.27909     -21.03681      20.32329
                        -----------------------------------------
Total Dipole Moment    :     -1.41327      -0.91838       1.28440
                        -----------------------------------------
Magnitude (a.u.)       :      2.11906
Magnitude (Debye)      :      5.38623

Rotational constants in cm-1:     0.013466     0.008293     0.006865
Rotational constants in MHz :   403.692937   248.627226   205.794853

                             ****ORCA TERMINATED NORMALLY****
TOTAL RUN TIME: 0 days 0 hours 18 minutes 12 seconds 677 msec
