                         Program Version 5.0.3 -  RELEASE  -
|  1> ! EnGrad PBEh-3c
|  2> %output
|  3> xyzfile=True
|  4> end
|  5> %scf
|  6> maxiter 250
|  7> end
|  8> %output
|  9> Print[P_Hirshfeld] = 1
| 10> end
| 11> % maxcore
| 12> 4000
| 13> *xyz 0 1
| 14> Pd   0.59362163   0.37637927  -0.41296959
| 15> O    2.04597075   1.41132112   0.41082012
| 16> C    1.61626496   2.58567810   0.30801614
| 17> O    0.42871365   2.77995544  -0.10761189
| 18> C    2.58708728   3.69340077   0.58742598
| 19> H    2.10987508   4.56787832   1.01546810
| 20> H    3.03144100   4.04503423  -0.35367667
| 21> H    3.43299644   3.40360948   1.22471020
| 22> N   -1.32268547  -0.56214876  -1.13676767
| 23> C   -1.23789381  -1.51580305  -2.27991671
| 24> H   -0.76088410  -0.98391169  -3.11574947
| 25> H   -2.25447111  -1.89201785  -2.51682810
| 26> H   -0.59242580  -2.36949811  -2.00686277
| 27> C   -2.18397030   0.56758109  -1.54716552
| 28> H   -2.28233335   1.28939024  -0.70145587
| 29> H   -3.17363177   0.17605559  -1.84420290
| 30> H   -1.71048685   1.02172605  -2.41681749
| 31> C   -1.52423667  -0.90682207   1.40755766
| 32> C   -0.89396230  -1.93739731   2.10853206
| 33> C   -0.63926100  -1.82798512   3.47754153
| 34> C   -1.22372265  -0.76999444   4.19106943
| 35> C   -1.85963301   0.29071491   3.54162117
| 36> C   -1.91394514   0.25824645   2.15156761
| 37> H   -1.10084859  -0.68536056   5.25413093
| 38> H   -2.32844662   1.18460485   4.00774200
| 39> H   -0.57203606  -2.85101009   1.58193205
| 40> H   -0.15140919  -2.61733394   4.03594523
| 41> H   -2.32947245   2.19215128   1.63620825
| 42> C   -1.97827246  -1.24899776  -0.01836831
| 43> H   -3.06059365  -1.08828149  -0.08459150
| 44> H   -1.81497043  -2.32688129  -0.14749950
| 45> O    1.93029469  -0.88030169  -1.21844152
| 46> C    2.24436928  -0.59405877  -2.41349235
| 47> O    1.50328367   0.04673194  -3.23211311
| 48> C    3.60197759  -1.10042689  -2.77865119
| 49> H    3.57995243  -2.19528755  -2.82221699
| 50> H    4.38499245  -0.84488954  -2.03099287
| 51> H    3.84586097  -0.72257554  -3.75160382
| 52> *
| 53>
| 54>                          ****END OF INPUT****

CARTESIAN COORDINATES (ANGSTROEM)
---------------------------------
  Pd     0.593622    0.376379   -0.412970
  O      2.045971    1.411321    0.410820
  C      1.616265    2.585678    0.308016
  O      0.428714    2.779955   -0.107612
  C      2.587087    3.693401    0.587426
  H      2.109875    4.567878    1.015468
  H      3.031441    4.045034   -0.353677
  H      3.432996    3.403609    1.224710
  N     -1.322685   -0.562149   -1.136768
  C     -1.237894   -1.515803   -2.279917
  H     -0.760884   -0.983912   -3.115749
  H     -2.254471   -1.892018   -2.516828
  H     -0.592426   -2.369498   -2.006863
  C     -2.183970    0.567581   -1.547166
  H     -2.282333    1.289390   -0.701456
  H     -3.173632    0.176056   -1.844203
  H     -1.710487    1.021726   -2.416817
  C     -1.524237   -0.906822    1.407558
  C     -0.893962   -1.937397    2.108532
  C     -0.639261   -1.827985    3.477542
  C     -1.223723   -0.769994    4.191069
  C     -1.859633    0.290715    3.541621
  C     -1.913945    0.258246    2.151568
  H     -1.100849   -0.685361    5.254131
  H     -2.328447    1.184605    4.007742
  H     -0.572036   -2.851010    1.581932
  H     -0.151409   -2.617334    4.035945
  H     -2.329472    2.192151    1.636208
  C     -1.978272   -1.248998   -0.018368
  H     -3.060594   -1.088281   -0.084592
  H     -1.814970   -2.326881   -0.147500
  O      1.930295   -0.880302   -1.218442
  C      2.244369   -0.594059   -2.413492
  O      1.503284    0.046732   -3.232113
  C      3.601978   -1.100427   -2.778651
  H      3.579952   -2.195288   -2.822217
  H      4.384992   -0.844890   -2.030993
  H      3.845861   -0.722576   -3.751604

 Total Charge           Charge          ....    0
 Multiplicity           Mult            ....    1
 Number of Electrons    NEL             ....  154
 Basis Dimension        Dim             ....  339

ORBITAL ENERGIES
----------------

  NO   OCC          E(Eh)            E(eV)
   0   2.0000     -19.505823      -530.7804
   1   2.0000     -19.483055      -530.1609
   2   2.0000     -19.470740      -529.8258
   3   2.0000     -19.427286      -528.6433
   4   2.0000     -14.714717      -400.4078
   5   2.0000     -10.563050      -287.4352
   6   2.0000     -10.534498      -286.6583
   7   2.0000     -10.527716      -286.4737
   8   2.0000     -10.505268      -285.8629
   9   2.0000     -10.498321      -285.6738
  10   2.0000     -10.482412      -285.2409
  11   2.0000     -10.480374      -285.1855
  12   2.0000     -10.479749      -285.1685
  13   2.0000     -10.477533      -285.1082
  14   2.0000     -10.473787      -285.0062
  15   2.0000     -10.471902      -284.9550
  16   2.0000     -10.436291      -283.9859
  17   2.0000     -10.415686      -283.4252
  18   2.0000      -3.664823       -99.7249
  19   2.0000      -2.316263       -63.0287
  20   2.0000      -2.306313       -62.7580
  21   2.0000      -2.274100       -61.8814
  22   2.0000      -1.193067       -32.4650
  23   2.0000      -1.149261       -31.2730
  24   2.0000      -1.073428       -29.2095
  25   2.0000      -1.070272       -29.1236
  26   2.0000      -1.035917       -28.1887
  27   2.0000      -0.977495       -26.5990
  28   2.0000      -0.884415       -24.0662
  29   2.0000      -0.851958       -23.1830
  30   2.0000      -0.823088       -22.3974
  31   2.0000      -0.812761       -22.1164
  32   2.0000      -0.801513       -21.8103
  33   2.0000      -0.799927       -21.7671
  34   2.0000      -0.713803       -19.4236
  35   2.0000      -0.693681       -18.8760
  36   2.0000      -0.675676       -18.3861
  37   2.0000      -0.616794       -16.7838
  38   2.0000      -0.596916       -16.2429
  39   2.0000      -0.592180       -16.1140
  40   2.0000      -0.568524       -15.4703
  41   2.0000      -0.565372       -15.3845
  42   2.0000      -0.553024       -15.0486
  43   2.0000      -0.539900       -14.6914
  44   2.0000      -0.530941       -14.4476
  45   2.0000      -0.529207       -14.4004
  46   2.0000      -0.518936       -14.1210
  47   2.0000      -0.518629       -14.1126
  48   2.0000      -0.506896       -13.7934
  49   2.0000      -0.496195       -13.5022
  50   2.0000      -0.494720       -13.4620
  51   2.0000      -0.489447       -13.3185
  52   2.0000      -0.480393       -13.0722
  53   2.0000      -0.469034       -12.7631
  54   2.0000      -0.455265       -12.3884
  55   2.0000      -0.449780       -12.2391
  56   2.0000      -0.442858       -12.0508
  57   2.0000      -0.439114       -11.9489
  58   2.0000      -0.435999       -11.8641
  59   2.0000      -0.431429       -11.7398
  60   2.0000      -0.429569       -11.6892
  61   2.0000      -0.418831       -11.3970
  62   2.0000      -0.416303       -11.3282
  63   2.0000      -0.402397       -10.9498
  64   2.0000      -0.378054       -10.2874
  65   2.0000      -0.366352        -9.9689
  66   2.0000      -0.353458        -9.6181
  67   2.0000      -0.350199        -9.5294
  68   2.0000      -0.345678        -9.4064
  69   2.0000      -0.331964        -9.0332
  70   2.0000      -0.324596        -8.8327
  71   2.0000      -0.318289        -8.6611
  72   2.0000      -0.311372        -8.4729
  73   2.0000      -0.301020        -8.1912
  74   2.0000      -0.296219        -8.0605
  75   2.0000      -0.290123        -7.8946
  76   2.0000      -0.274780        -7.4771
  77   0.0000      -0.076483        -2.0812
  78   0.0000      -0.075000        -2.0408
  79   0.0000      -0.014989        -0.4079
  80   0.0000      -0.003778        -0.1028
  81   0.0000       0.054270         1.4768

MULLIKEN ATOMIC CHARGES
-----------------------
   0 Pd:    0.558389
   1 O :   -0.479831
   2 C :    0.633368
   3 O :   -0.502414
   4 C :   -0.770803
   5 H :    0.251048
   6 H :    0.261232
   7 H :    0.251633
   8 N :   -0.460184
   9 C :   -0.532385
  10 H :    0.299451
  11 H :    0.214214
  12 H :    0.256509
  13 C :   -0.533037
  14 H :    0.271061
  15 H :    0.220965
  16 H :    0.284426
  17 C :   -0.008031
  18 C :   -0.245488
  19 C :   -0.200158
  20 C :   -0.238361
  21 C :   -0.221813
  22 C :   -0.062776
  23 H :    0.236680
  24 H :    0.251508
  25 H :    0.239476
  26 H :    0.233733
  27 H :    0.079594
  28 C :   -0.317713
  29 H :    0.249467
  30 H :    0.249927
  31 O :   -0.514367
  32 C :    0.573894
  33 O :   -0.512739
  34 C :   -0.739175
  35 H :    0.233042
  36 H :    0.243018
  37 H :    0.246641
Sum of atomic charges:    0.0000000

LOEWDIN ATOMIC CHARGES
----------------------
   0 Pd:   -0.208312
   1 O :   -0.116301
   2 C :    0.175031
   3 O :   -0.245736
   4 C :   -0.380733
   5 H :    0.150150
   6 H :    0.163994
   7 H :    0.151500
   8 N :   -0.077555
   9 C :   -0.239827
  10 H :    0.168745
  11 H :    0.118766
  12 H :    0.145463
  13 C :   -0.235081
  14 H :    0.157862
  15 H :    0.121346
  16 H :    0.159362
  17 C :   -0.063180
  18 C :   -0.104486
  19 C :   -0.126762
  20 C :   -0.122151
  21 C :   -0.144262
  22 C :   -0.029802
  23 H :    0.143845
  24 H :    0.155161
  25 H :    0.150922
  26 H :    0.145695
  27 H :    0.078125
  28 C :   -0.108415
  29 H :    0.142107
  30 H :    0.144805
  31 O :   -0.156069
  32 C :    0.142776
  33 O :   -0.323113
  34 C :   -0.377383
  35 H :    0.147900
  36 H :    0.150621
  37 H :    0.144992

  Mayer bond orders larger than 0.100000
B(  0-Pd,  1-O ) :   0.6357 B(  0-Pd,  3-O ) :   0.3326 B(  0-Pd,  8-N ) :   0.3894
B(  0-Pd, 31-O ) :   0.6433 B(  0-Pd, 33-O ) :   0.1096 B(  1-O ,  2-C ) :   1.3531
B(  2-C ,  3-O ) :   1.6360 B(  2-C ,  4-C ) :   0.9481 B(  4-C ,  5-H ) :   0.9102
B(  4-C ,  6-H ) :   0.9017 B(  4-C ,  7-H ) :   0.9091 B(  8-N ,  9-C ) :   0.9170
B(  8-N , 13-C ) :   0.9191 B(  8-N , 28-C ) :   0.9005 B(  9-C , 10-H ) :   0.8762
B(  9-C , 11-H ) :   0.9031 B(  9-C , 12-H ) :   0.9082 B( 13-C , 14-H ) :   0.8898
B( 13-C , 15-H ) :   0.9033 B( 13-C , 16-H ) :   0.8959 B( 17-C , 18-C ) :   1.4080
B( 17-C , 22-C ) :   1.3850 B( 17-C , 28-C ) :   0.9419 B( 18-C , 19-C ) :   1.4130
B( 18-C , 25-H ) :   0.9056 B( 19-C , 20-C ) :   1.4388 B( 19-C , 26-H ) :   0.9151
B( 20-C , 21-C ) :   1.3836 B( 20-C , 23-H ) :   0.9114 B( 21-C , 22-C ) :   1.4544
B( 21-C , 24-H ) :   0.9066 B( 22-C , 27-H ) :   0.8563 B( 28-C , 29-H ) :   0.8945
B( 28-C , 30-H ) :   0.9152 B( 31-O , 32-C ) :   1.3077 B( 31-O , 33-O ) :   0.1011
B( 32-C , 33-O ) :   1.8000 B( 32-C , 34-C ) :   0.9348 B( 34-C , 35-H ) :   0.9129
B( 34-C , 36-H ) :   0.9129 B( 34-C , 37-H ) :   0.9155

Dispersion correction           -0.026078931
FINAL SINGLE POINT ENERGY      -988.349150712879
Dispersion correction            ... done

DIPOLE MOMENT
-------------
                                X             Y             Z
Electronic contribution:     26.55774      17.21435     -19.88539
Nuclear contribution   :    -27.96953     -18.17446      21.22986
                        -----------------------------------------
Total Dipole Moment    :     -1.41179      -0.96011       1.34447
                        -----------------------------------------
Magnitude (a.u.)       :      2.17314
Magnitude (Debye)      :      5.52369

Rotational constants in cm-1:     0.013575     0.008313     0.006846
Rotational constants in MHz :   406.977903   249.212992   205.243399

                             ****ORCA TERMINATED NORMALLY****
TOTAL RUN TIME: 0 days 0 hours 17 minutes 35 seconds 123 msec
