                         Program Version 5.0.3 -  RELEASE  -
|  1> ! EnGrad PBEh-3c
|  2> %output
|  3> xyzfile=True
|  4> end
|  5> %scf
|  6> maxiter 250
|  7> end
|  8> %output
|  9> Print[P_Hirshfeld] = 1
| 10> end
| 11> % maxcore
| 12> 4000
| 13> *xyz 0 1
| 14> Pd   0.55695685   0.35773059  -0.42717217
| 15> O    2.05363182   1.41194482   0.42112449
| 16> C    1.63105588   2.59652840   0.29899284
| 17> O    0.43899940   2.77763520  -0.10045871
| 18> C    2.58833386   3.69773280   0.58847431
| 19> H    2.11062665   4.56609461   1.01791808
| 20> H    3.03009003   4.03642291  -0.35193007
| 21> H    3.42593135   3.39807608   1.22273842
| 22> N   -1.30099908  -0.56031277  -1.11971109
| 23> C   -1.23622431  -1.51172138  -2.26211369
| 24> H   -0.76565981  -1.00275097  -3.11121387
| 25> H   -2.24232763  -1.89878617  -2.51982799
| 26> H   -0.60152791  -2.36651507  -2.00180369
| 27> C   -2.17160847   0.54940361  -1.55557141
| 28> H   -2.28300983   1.27924514  -0.72779961
| 29> H   -3.17110941   0.18348082  -1.84486368
| 30> H   -1.71247612   1.02213633  -2.41568519
| 31> C   -1.53733755  -0.90990803   1.41282576
| 32> C   -0.89360824  -1.92907588   2.11087711
| 33> C   -0.67506831  -1.83686979   3.48593134
| 34> C   -1.21294101  -0.74456008   4.18886142
| 35> C   -1.85599113   0.29548056   3.52492143
| 36> C   -1.90606210   0.28628781   2.12159802
| 37> H   -1.09351086  -0.68794903   5.26130855
| 38> H   -2.29728271   1.16285110   4.00827926
| 39> H   -0.59119234  -2.84793193   1.59276047
| 40> H   -0.16221837  -2.62253358   4.03710884
| 41> H   -2.31485514   2.16662330   1.64296904
| 42> C   -1.98259940  -1.24854685  -0.00999821
| 43> H   -3.06190578  -1.08533300  -0.07656848
| 44> H   -1.82913449  -2.32391772  -0.14406661
| 45> O    1.91238974  -0.85787880  -1.20873474
| 46> C    2.24218237  -0.59004903  -2.41698371
| 47> O    1.51739727   0.02464026  -3.21579737
| 48> C    3.60172664  -1.09299807  -2.79205267
| 49> H    3.58452944  -2.18188106  -2.83136560
| 50> H    4.37470309  -0.83314826  -2.04167328
| 51> H    3.85857952  -0.70988865  -3.75993193
| 52> *
| 53>
| 54>                          ****END OF INPUT****

CARTESIAN COORDINATES (ANGSTROEM)
---------------------------------
  Pd     0.556957    0.357731   -0.427172
  O      2.053632    1.411945    0.421124
  C      1.631056    2.596528    0.298993
  O      0.438999    2.777635   -0.100459
  C      2.588334    3.697733    0.588474
  H      2.110627    4.566095    1.017918
  H      3.030090    4.036423   -0.351930
  H      3.425931    3.398076    1.222738
  N     -1.300999   -0.560313   -1.119711
  C     -1.236224   -1.511721   -2.262114
  H     -0.765660   -1.002751   -3.111214
  H     -2.242328   -1.898786   -2.519828
  H     -0.601528   -2.366515   -2.001804
  C     -2.171608    0.549404   -1.555571
  H     -2.283010    1.279245   -0.727800
  H     -3.171109    0.183481   -1.844864
  H     -1.712476    1.022136   -2.415685
  C     -1.537338   -0.909908    1.412826
  C     -0.893608   -1.929076    2.110877
  C     -0.675068   -1.836870    3.485931
  C     -1.212941   -0.744560    4.188861
  C     -1.855991    0.295481    3.524921
  C     -1.906062    0.286288    2.121598
  H     -1.093511   -0.687949    5.261309
  H     -2.297283    1.162851    4.008279
  H     -0.591192   -2.847932    1.592760
  H     -0.162218   -2.622534    4.037109
  H     -2.314855    2.166623    1.642969
  C     -1.982599   -1.248547   -0.009998
  H     -3.061906   -1.085333   -0.076568
  H     -1.829134   -2.323918   -0.144067
  O      1.912390   -0.857879   -1.208735
  C      2.242182   -0.590049   -2.416984
  O      1.517397    0.024640   -3.215797
  C      3.601727   -1.092998   -2.792053
  H      3.584529   -2.181881   -2.831366
  H      4.374703   -0.833148   -2.041673
  H      3.858580   -0.709889   -3.759932

 Total Charge           Charge          ....    0
 Multiplicity           Mult            ....    1
 Number of Electrons    NEL             ....  154
 Basis Dimension        Dim             ....  339

ORBITAL ENERGIES
----------------

  NO   OCC          E(Eh)            E(eV)
   0   2.0000     -19.494401      -530.4696
   1   2.0000     -19.479790      -530.0720
   2   2.0000     -19.463281      -529.6228
   3   2.0000     -19.429149      -528.6940
   4   2.0000     -14.720991      -400.5785
   5   2.0000     -10.555580      -287.2319
   6   2.0000     -10.532087      -286.5927
   7   2.0000     -10.527295      -286.4623
   8   2.0000     -10.505579      -285.8713
   9   2.0000     -10.497008      -285.6381
  10   2.0000     -10.483023      -285.2576
  11   2.0000     -10.480607      -285.1918
  12   2.0000     -10.476751      -285.0869
  13   2.0000     -10.473849      -285.0079
  14   2.0000     -10.471784      -284.9517
  15   2.0000     -10.470653      -284.9209
  16   2.0000     -10.431225      -283.8481
  17   2.0000     -10.414924      -283.4045
  18   2.0000      -3.662136       -99.6518
  19   2.0000      -2.312388       -62.9233
  20   2.0000      -2.304577       -62.7107
  21   2.0000      -2.271325       -61.8059
  22   2.0000      -1.179762       -32.1030
  23   2.0000      -1.150729       -31.3129
  24   2.0000      -1.078479       -29.3469
  25   2.0000      -1.060615       -28.8608
  26   2.0000      -1.047364       -28.5002
  27   2.0000      -0.975644       -26.5486
  28   2.0000      -0.884854       -24.0781
  29   2.0000      -0.850239       -23.1362
  30   2.0000      -0.822799       -22.3895
  31   2.0000      -0.815625       -22.1943
  32   2.0000      -0.802101       -21.8263
  33   2.0000      -0.800555       -21.7842
  34   2.0000      -0.718250       -19.5446
  35   2.0000      -0.694251       -18.8915
  36   2.0000      -0.676069       -18.3968
  37   2.0000      -0.608247       -16.5512
  38   2.0000      -0.596739       -16.2381
  39   2.0000      -0.591016       -16.0824
  40   2.0000      -0.570484       -15.5236
  41   2.0000      -0.569830       -15.5059
  42   2.0000      -0.555269       -15.1096
  43   2.0000      -0.532081       -14.4787
  44   2.0000      -0.529661       -14.4128
  45   2.0000      -0.521924       -14.2023
  46   2.0000      -0.520938       -14.1754
  47   2.0000      -0.512630       -13.9494
  48   2.0000      -0.509550       -13.8656
  49   2.0000      -0.497272       -13.5314
  50   2.0000      -0.495551       -13.4846
  51   2.0000      -0.490117       -13.3368
  52   2.0000      -0.482436       -13.1278
  53   2.0000      -0.469825       -12.7846
  54   2.0000      -0.454986       -12.3808
  55   2.0000      -0.446925       -12.1615
  56   2.0000      -0.442245       -12.0341
  57   2.0000      -0.436116       -11.8673
  58   2.0000      -0.435543       -11.8517
  59   2.0000      -0.431880       -11.7521
  60   2.0000      -0.429963       -11.6999
  61   2.0000      -0.417988       -11.3740
  62   2.0000      -0.415804       -11.3146
  63   2.0000      -0.402409       -10.9501
  64   2.0000      -0.378967       -10.3122
  65   2.0000      -0.368350       -10.0233
  66   2.0000      -0.351397        -9.5620
  67   2.0000      -0.347432        -9.4541
  68   2.0000      -0.343914        -9.3584
  69   2.0000      -0.338384        -9.2079
  70   2.0000      -0.322992        -8.7891
  71   2.0000      -0.315053        -8.5730
  72   2.0000      -0.309285        -8.4161
  73   2.0000      -0.301110        -8.1936
  74   2.0000      -0.295439        -8.0393
  75   2.0000      -0.288670        -7.8551
  76   2.0000      -0.275111        -7.4861
  77   0.0000      -0.073034        -1.9874
  78   0.0000      -0.071438        -1.9439
  79   0.0000      -0.013790        -0.3752
  80   0.0000      -0.002346        -0.0638
  81   0.0000       0.059452         1.6178

MULLIKEN ATOMIC CHARGES
-----------------------
   0 Pd:    0.555813
   1 O :   -0.483726
   2 C :    0.630836
   3 O :   -0.507583
   4 C :   -0.769394
   5 H :    0.250618
   6 H :    0.259028
   7 H :    0.252857
   8 N :   -0.471014
   9 C :   -0.539478
  10 H :    0.300632
  11 H :    0.218473
  12 H :    0.260670
  13 C :   -0.542830
  14 H :    0.272668
  15 H :    0.226761
  16 H :    0.289124
  17 C :   -0.016808
  18 C :   -0.227742
  19 C :   -0.214263
  20 C :   -0.224712
  21 C :   -0.222785
  22 C :   -0.082612
  23 H :    0.235301
  24 H :    0.247900
  25 H :    0.235019
  26 H :    0.235696
  27 H :    0.103899
  28 C :   -0.318427
  29 H :    0.253161
  30 H :    0.251499
  31 O :   -0.526365
  32 C :    0.570643
  33 O :   -0.485400
  34 C :   -0.741909
  35 H :    0.233876
  36 H :    0.244136
  37 H :    0.246436
Sum of atomic charges:   -0.0000000

LOEWDIN ATOMIC CHARGES
----------------------
   0 Pd:   -0.217513
   1 O :   -0.137089
   2 C :    0.170713
   3 O :   -0.252695
   4 C :   -0.380031
   5 H :    0.150050
   6 H :    0.163302
   7 H :    0.151976
   8 N :   -0.064320
   9 C :   -0.240490
  10 H :    0.167930
  11 H :    0.120450
  12 H :    0.145512
  13 C :   -0.235909
  14 H :    0.156355
  15 H :    0.123659
  16 H :    0.159958
  17 C :   -0.062035
  18 C :   -0.106834
  19 C :   -0.125411
  20 C :   -0.124046
  21 C :   -0.141641
  22 C :   -0.040882
  23 H :    0.143718
  24 H :    0.149995
  25 H :    0.150366
  26 H :    0.145020
  27 H :    0.100481
  28 C :   -0.106562
  29 H :    0.144097
  30 H :    0.145538
  31 O :   -0.162258
  32 C :    0.131381
  33 O :   -0.288052
  34 C :   -0.378135
  35 H :    0.147649
  36 H :    0.150701
  37 H :    0.145052

  Mayer bond orders larger than 0.100000
B(  0-Pd,  1-O ) :   0.6240 B(  0-Pd,  3-O ) :   0.3224 B(  0-Pd,  8-N ) :   0.4020
B(  0-Pd, 31-O ) :   0.6647 B(  0-Pd, 33-O ) :   0.1050 B(  1-O ,  2-C ) :   1.3565
B(  2-C ,  3-O ) :   1.6413 B(  2-C ,  4-C ) :   0.9504 B(  4-C ,  5-H ) :   0.9108
B(  4-C ,  6-H ) :   0.9025 B(  4-C ,  7-H ) :   0.9093 B(  8-N ,  9-C ) :   0.9166
B(  8-N , 13-C ) :   0.9183 B(  8-N , 28-C ) :   0.8944 B(  9-C , 10-H ) :   0.8773
B(  9-C , 11-H ) :   0.9023 B(  9-C , 12-H ) :   0.9067 B( 13-C , 14-H ) :   0.8901
B( 13-C , 15-H ) :   0.9021 B( 13-C , 16-H ) :   0.8939 B( 17-C , 18-C ) :   1.4061
B( 17-C , 22-C ) :   1.3931 B( 17-C , 28-C ) :   0.9465 B( 18-C , 19-C ) :   1.4220
B( 18-C , 25-H ) :   0.9078 B( 19-C , 20-C ) :   1.4339 B( 19-C , 26-H ) :   0.9133
B( 20-C , 21-C ) :   1.3995 B( 20-C , 23-H ) :   0.9119 B( 21-C , 22-C ) :   1.4412
B( 21-C , 24-H ) :   0.9085 B( 22-C , 27-H ) :   0.8648 B( 28-C , 29-H ) :   0.8944
B( 28-C , 30-H ) :   0.9148 B( 31-O , 32-C ) :   1.2754 B( 32-C , 33-O ) :   1.8403
B( 32-C , 34-C ) :   0.9351 B( 34-C , 35-H ) :   0.9131 B( 34-C , 36-H ) :   0.9127
B( 34-C , 37-H ) :   0.9163

Dispersion correction           -0.026189613
FINAL SINGLE POINT ENERGY      -988.365369728115
Dispersion correction            ... done

DIPOLE MOMENT
-------------
                                X             Y             Z
Electronic contribution:     24.42624      16.16036     -20.85934
Nuclear contribution   :    -25.98780     -17.14617      22.02361
                        -----------------------------------------
Total Dipole Moment    :     -1.56156      -0.98582       1.16427
                        -----------------------------------------
Magnitude (a.u.)       :      2.18308
Magnitude (Debye)      :      5.54894

Rotational constants in cm-1:     0.013631     0.008345     0.006856
Rotational constants in MHz :   408.660122   250.177447   205.528856

                             ****ORCA TERMINATED NORMALLY****
TOTAL RUN TIME: 0 days 0 hours 16 minutes 59 seconds 988 msec
