                         Program Version 5.0.3 -  RELEASE  -
|  1> ! EnGrad PBEh-3c
|  2> %output
|  3> xyzfile=True
|  4> end
|  5> %scf
|  6> maxiter 250
|  7> end
|  8> %output
|  9> Print[P_Hirshfeld] = 1
| 10> end
| 11> % maxcore
| 12> 4000
| 13> *xyz 0 1
| 14> Pd   0.53865858   0.34258590  -0.43044246
| 15> O    2.05280066   1.40516055   0.41887206
| 16> C    1.62129477   2.59271076   0.29117632
| 17> O    0.44802914   2.77464897  -0.09153214
| 18> C    2.59477586   3.69098865   0.58998762
| 19> H    2.12037773   4.56036461   1.01953648
| 20> H    3.03647716   4.01583204  -0.34815466
| 21> H    3.42207595   3.37736100   1.22416152
| 22> N   -1.29315511  -0.56767776  -1.11200868
| 23> C   -1.22611497  -1.53421880  -2.23809831
| 24> H   -0.75240468  -1.04838956  -3.09382938
| 25> H   -2.22761955  -1.93128693  -2.50604992
| 26> H   -0.60285507  -2.38544358  -1.96601983
| 27> C   -2.16226033   0.53383285  -1.56975747
| 28> H   -2.28510536   1.26675362  -0.76294785
| 29> H   -3.16491207   0.17344572  -1.86294619
| 30> H   -1.70402795   1.00347494  -2.43161901
| 31> C   -1.55800863  -0.89340039   1.41831437
| 32> C   -0.92551855  -1.93626863   2.12372204
| 33> C   -0.72085912  -1.84591035   3.49881043
| 34> C   -1.20483604  -0.73150203   4.19194194
| 35> C   -1.82172193   0.33145226   3.51101179
| 36> C   -1.88313410   0.33312440   2.11425799
| 37> H   -1.08772812  -0.68804764   5.27209313
| 38> H   -2.21042627   1.22000411   4.00935346
| 39> H   -0.65882135  -2.86327313   1.60241109
| 40> H   -0.20396958  -2.64189340   4.04229437
| 41> H   -2.26383791   2.08773173   1.61269509
| 42> C   -1.99565056  -1.23864233   0.00637222
| 43> H   -3.07375291  -1.05372339  -0.07179073
| 44> H   -1.86371807  -2.31262572  -0.13226789
| 45> O    1.90921591  -0.84708174  -1.20513114
| 46> C    2.22787798  -0.57136493  -2.43552627
| 47> O    1.51186624   0.00327295  -3.20777800
| 48> C    3.60900277  -1.05935173  -2.80201003
| 49> H    3.60196060  -2.14362153  -2.85806507
| 50> H    4.36540323  -0.79782398  -2.04993218
| 51> H    3.86325710  -0.65384742  -3.77032528
| 52> *
| 53>
| 54>                          ****END OF INPUT****

CARTESIAN COORDINATES (ANGSTROEM)
---------------------------------
  Pd     0.538659    0.342586   -0.430442
  O      2.052801    1.405161    0.418872
  C      1.621295    2.592711    0.291176
  O      0.448029    2.774649   -0.091532
  C      2.594776    3.690989    0.589988
  H      2.120378    4.560365    1.019536
  H      3.036477    4.015832   -0.348155
  H      3.422076    3.377361    1.224162
  N     -1.293155   -0.567678   -1.112009
  C     -1.226115   -1.534219   -2.238098
  H     -0.752405   -1.048390   -3.093829
  H     -2.227620   -1.931287   -2.506050
  H     -0.602855   -2.385444   -1.966020
  C     -2.162260    0.533833   -1.569757
  H     -2.285105    1.266754   -0.762948
  H     -3.164912    0.173446   -1.862946
  H     -1.704028    1.003475   -2.431619
  C     -1.558009   -0.893400    1.418314
  C     -0.925519   -1.936269    2.123722
  C     -0.720859   -1.845910    3.498810
  C     -1.204836   -0.731502    4.191942
  C     -1.821722    0.331452    3.511012
  C     -1.883134    0.333124    2.114258
  H     -1.087728   -0.688048    5.272093
  H     -2.210426    1.220004    4.009353
  H     -0.658821   -2.863273    1.602411
  H     -0.203970   -2.641893    4.042294
  H     -2.263838    2.087732    1.612695
  C     -1.995651   -1.238642    0.006372
  H     -3.073753   -1.053723   -0.071791
  H     -1.863718   -2.312626   -0.132268
  O      1.909216   -0.847082   -1.205131
  C      2.227878   -0.571365   -2.435526
  O      1.511866    0.003273   -3.207778
  C      3.609003   -1.059352   -2.802010
  H      3.601961   -2.143622   -2.858065
  H      4.365403   -0.797824   -2.049932
  H      3.863257   -0.653847   -3.770325

 Total Charge           Charge          ....    0
 Multiplicity           Mult            ....    1
 Number of Electrons    NEL             ....  154
 Basis Dimension        Dim             ....  339

ORBITAL ENERGIES
----------------

  NO   OCC          E(Eh)            E(eV)
   0   2.0000     -19.486510      -530.2549
   1   2.0000     -19.475933      -529.9671
   2   2.0000     -19.461071      -529.5627
   3   2.0000     -19.435969      -528.8796
   4   2.0000     -14.722980      -400.6327
   5   2.0000     -10.550161      -287.0845
   6   2.0000     -10.531260      -286.5701
   7   2.0000     -10.525231      -286.4061
   8   2.0000     -10.505470      -285.8684
   9   2.0000     -10.497643      -285.6554
  10   2.0000     -10.483796      -285.2786
  11   2.0000     -10.480798      -285.1970
  12   2.0000     -10.476634      -285.0837
  13   2.0000     -10.473717      -285.0043
  14   2.0000     -10.472049      -284.9590
  15   2.0000     -10.469601      -284.8923
  16   2.0000     -10.426839      -283.7287
  17   2.0000     -10.414113      -283.3824
  18   2.0000      -3.659701       -99.5855
  19   2.0000      -2.309553       -62.8461
  20   2.0000      -2.302465       -62.6533
  21   2.0000      -2.269153       -61.7468
  22   2.0000      -1.177105       -32.0307
  23   2.0000      -1.157825       -31.5060
  24   2.0000      -1.079500       -29.3747
  25   2.0000      -1.062612       -28.9151
  26   2.0000      -1.058074       -28.7917
  27   2.0000      -0.972679       -26.4679
  28   2.0000      -0.883523       -24.0419
  29   2.0000      -0.850645       -23.1472
  30   2.0000      -0.818129       -22.2624
  31   2.0000      -0.817577       -22.2474
  32   2.0000      -0.800583       -21.7850
  33   2.0000      -0.798701       -21.7338
  34   2.0000      -0.720593       -19.6083
  35   2.0000      -0.692495       -18.8437
  36   2.0000      -0.675032       -18.3686
  37   2.0000      -0.603369       -16.4185
  38   2.0000      -0.594647       -16.1812
  39   2.0000      -0.587208       -15.9788
  40   2.0000      -0.572056       -15.5664
  41   2.0000      -0.571084       -15.5400
  42   2.0000      -0.555924       -15.1275
  43   2.0000      -0.529955       -14.4208
  44   2.0000      -0.526462       -14.3258
  45   2.0000      -0.521858       -14.2005
  46   2.0000      -0.518513       -14.1094
  47   2.0000      -0.513568       -13.9749
  48   2.0000      -0.509233       -13.8569
  49   2.0000      -0.498194       -13.5565
  50   2.0000      -0.495930       -13.4949
  51   2.0000      -0.491222       -13.3668
  52   2.0000      -0.483964       -13.1693
  53   2.0000      -0.469610       -12.7787
  54   2.0000      -0.455384       -12.3916
  55   2.0000      -0.446167       -12.1408
  56   2.0000      -0.443695       -12.0736
  57   2.0000      -0.436455       -11.8765
  58   2.0000      -0.434957       -11.8358
  59   2.0000      -0.430428       -11.7125
  60   2.0000      -0.429542       -11.6884
  61   2.0000      -0.418084       -11.3766
  62   2.0000      -0.416950       -11.3458
  63   2.0000      -0.403698       -10.9852
  64   2.0000      -0.378832       -10.3086
  65   2.0000      -0.371537       -10.1100
  66   2.0000      -0.356337        -9.6964
  67   2.0000      -0.346510        -9.4290
  68   2.0000      -0.346047        -9.4164
  69   2.0000      -0.340148        -9.2559
  70   2.0000      -0.320920        -8.7327
  71   2.0000      -0.313462        -8.5297
  72   2.0000      -0.310345        -8.4449
  73   2.0000      -0.302319        -8.2265
  74   2.0000      -0.295096        -8.0300
  75   2.0000      -0.289564        -7.8794
  76   2.0000      -0.276972        -7.5368
  77   0.0000      -0.070271        -1.9122
  78   0.0000      -0.054318        -1.4781
  79   0.0000      -0.013461        -0.3663
  80   0.0000      -0.001811        -0.0493
  81   0.0000       0.064614         1.7582

MULLIKEN ATOMIC CHARGES
-----------------------
   0 Pd:    0.550937
   1 O :   -0.489231
   2 C :    0.619932
   3 O :   -0.495073
   4 C :   -0.766580
   5 H :    0.246340
   6 H :    0.255773
   7 H :    0.252724
   8 N :   -0.477610
   9 C :   -0.543048
  10 H :    0.299983
  11 H :    0.219270
  12 H :    0.264161
  13 C :   -0.545843
  14 H :    0.272954
  15 H :    0.228518
  16 H :    0.290157
  17 C :   -0.018333
  18 C :   -0.218810
  19 C :   -0.216772
  20 C :   -0.219966
  21 C :   -0.218412
  22 C :   -0.109507
  23 H :    0.234373
  24 H :    0.244552
  25 H :    0.232394
  26 H :    0.235459
  27 H :    0.128668
  28 C :   -0.321057
  29 H :    0.252938
  30 H :    0.252767
  31 O :   -0.538726
  32 C :    0.562423
  33 O :   -0.444509
  34 C :   -0.743931
  35 H :    0.234671
  36 H :    0.248017
  37 H :    0.240396
Sum of atomic charges:    0.0000000

LOEWDIN ATOMIC CHARGES
----------------------
   0 Pd:   -0.225054
   1 O :   -0.149921
   2 C :    0.158934
   3 O :   -0.238681
   4 C :   -0.381668
   5 H :    0.147587
   6 H :    0.160639
   7 H :    0.151205
   8 N :   -0.060891
   9 C :   -0.240996
  10 H :    0.166680
  11 H :    0.120736
  12 H :    0.146015
  13 C :   -0.235621
  14 H :    0.154451
  15 H :    0.124456
  16 H :    0.159964
  17 C :   -0.058287
  18 C :   -0.107115
  19 C :   -0.126183
  20 C :   -0.124196
  21 C :   -0.139431
  22 C :   -0.057056
  23 H :    0.143897
  24 H :    0.148259
  25 H :    0.149469
  26 H :    0.144608
  27 H :    0.119436
  28 C :   -0.106024
  29 H :    0.144608
  30 H :    0.145852
  31 O :   -0.175749
  32 C :    0.119911
  33 O :   -0.240498
  34 C :   -0.380867
  35 H :    0.147302
  36 H :    0.150890
  37 H :    0.143339

  Mayer bond orders larger than 0.100000
B(  0-Pd,  1-O ) :   0.6260 B(  0-Pd,  3-O ) :   0.3022 B(  0-Pd,  8-N ) :   0.4047
B(  0-Pd, 31-O ) :   0.6904 B(  1-O ,  2-C ) :   1.3437 B(  2-C ,  3-O ) :   1.6746
B(  2-C ,  4-C ) :   0.9470 B(  4-C ,  5-H ) :   0.9129 B(  4-C ,  6-H ) :   0.9047
B(  4-C ,  7-H ) :   0.9103 B(  8-N ,  9-C ) :   0.9176 B(  8-N , 13-C ) :   0.9186
B(  8-N , 28-C ) :   0.8878 B(  9-C , 10-H ) :   0.8785 B(  9-C , 11-H ) :   0.9028
B(  9-C , 12-H ) :   0.9050 B( 13-C , 14-H ) :   0.8908 B( 13-C , 15-H ) :   0.9020
B( 13-C , 16-H ) :   0.8935 B( 17-C , 18-C ) :   1.4091 B( 17-C , 22-C ) :   1.3838
B( 17-C , 28-C ) :   0.9500 B( 18-C , 19-C ) :   1.4161 B( 18-C , 25-H ) :   0.9093
B( 19-C , 20-C ) :   1.4405 B( 19-C , 26-H ) :   0.9128 B( 20-C , 21-C ) :   1.3902
B( 20-C , 23-H ) :   0.9127 B( 21-C , 22-C ) :   1.4460 B( 21-C , 24-H ) :   0.9095
B( 22-C , 27-H ) :   0.8766 B( 28-C , 29-H ) :   0.8945 B( 28-C , 30-H ) :   0.9144
B( 31-O , 32-C ) :   1.2348 B( 32-C , 33-O ) :   1.8966 B( 32-C , 34-C ) :   0.9299
B( 34-C , 35-H ) :   0.9138 B( 34-C , 36-H ) :   0.9121 B( 34-C , 37-H ) :   0.9187

Dispersion correction           -0.026289688
FINAL SINGLE POINT ENERGY      -988.386342547174
Dispersion correction            ... done

DIPOLE MOMENT
-------------
                                X             Y             Z
Electronic contribution:     23.33862      15.33240     -21.23300
Nuclear contribution   :    -25.02525     -16.31236      22.22564
                        -----------------------------------------
Total Dipole Moment    :     -1.68663      -0.97996       0.99264
                        -----------------------------------------
Magnitude (a.u.)       :      2.18869
Magnitude (Debye)      :      5.56322

Rotational constants in cm-1:     0.013694     0.008368     0.006853
Rotational constants in MHz :   410.541463   250.860034   205.434925

                             ****ORCA TERMINATED NORMALLY****
TOTAL RUN TIME: 0 days 0 hours 15 minutes 20 seconds 981 msec
