                         Program Version 5.0.3 -  RELEASE  -
|  1> ! EnGrad PBEh-3c
|  2> %output
|  3> xyzfile=True
|  4> end
|  5> %scf
|  6> maxiter 250
|  7> end
|  8> %output
|  9> Print[P_Hirshfeld] = 1
| 10> end
| 11> % maxcore
| 12> 4000
| 13> *xyz 0 1
| 14> Pd   0.50720862   0.31870206  -0.42548751
| 15> O    2.04453974   1.37558371   0.41014508
| 16> C    1.60457870   2.58272592   0.28176528
| 17> O    0.45834311   2.77612467  -0.07803410
| 18> C    2.60789519   3.67194764   0.59183003
| 19> H    2.14225564   4.54893626   1.02470590
| 20> H    3.05535523   3.97052927  -0.34359748
| 21> H    3.41517806   3.32766367   1.22999905
| 22> N   -1.28827666  -0.59068464  -1.10114380
| 23> C   -1.20146441  -1.59303659  -2.18345504
| 24> H   -0.72107962  -1.15726528  -3.05033083
| 25> H   -2.18997536  -2.00464766  -2.46855622
| 26> H   -0.60302115  -2.43472595  -1.87650809
| 27> C   -2.14179142   0.49973363  -1.60720959
| 28> H   -2.28875643   1.24124282  -0.84488079
| 29> H   -3.14477794   0.14591125  -1.90598983
| 30> H   -1.68032385   0.95642566  -2.47219665
| 31> C   -1.59780860  -0.85130172   1.43591747
| 32> C   -1.01820197  -1.94454241   2.15298053
| 33> C   -0.82113021  -1.86617725   3.53104801
| 34> C   -1.19200940  -0.70003085   4.19654004
| 35> C   -1.72740339   0.41664095   3.48260935
| 36> C   -1.83167689   0.44299039   2.09176151
| 37> H   -1.07309889  -0.68278686   5.28988176
| 38> H   -2.00082902   1.34534793   4.00876903
| 39> H   -0.82285801  -2.89830857   1.62907518
| 40> H   -0.31345053  -2.68413821   4.05495755
| 41> H   -2.13729023   1.88625043   1.55134263
| 42> C   -2.02893246  -1.21388947   0.04446783
| 43> H   -3.09956844  -0.97715548  -0.06059341
| 44> H   -1.94926142  -2.28888159  -0.10302522
| 45> O    1.90614068  -0.82247333  -1.20376983
| 46> C    2.22490591  -0.55556444  -2.43237148
| 47> O    1.46270354  -0.02169249  -3.23389610
| 48> C    3.62152212  -0.97370225  -2.82902013
| 49> H    3.64583742  -2.05425075  -2.92568756
| 50> H    4.34504710  -0.70982945  -2.06983928
| 51> H    3.87394801  -0.51873612  -3.79275749
| 52> *
| 53>
| 54>                          ****END OF INPUT****

CARTESIAN COORDINATES (ANGSTROEM)
---------------------------------
  Pd     0.507209    0.318702   -0.425488
  O      2.044540    1.375584    0.410145
  C      1.604579    2.582726    0.281765
  O      0.458343    2.776125   -0.078034
  C      2.607895    3.671948    0.591830
  H      2.142256    4.548936    1.024706
  H      3.055355    3.970529   -0.343597
  H      3.415178    3.327664    1.229999
  N     -1.288277   -0.590685   -1.101144
  C     -1.201464   -1.593037   -2.183455
  H     -0.721080   -1.157265   -3.050331
  H     -2.189975   -2.004648   -2.468556
  H     -0.603021   -2.434726   -1.876508
  C     -2.141791    0.499734   -1.607210
  H     -2.288756    1.241243   -0.844881
  H     -3.144778    0.145911   -1.905990
  H     -1.680324    0.956426   -2.472197
  C     -1.597809   -0.851302    1.435917
  C     -1.018202   -1.944542    2.152981
  C     -0.821130   -1.866177    3.531048
  C     -1.192009   -0.700031    4.196540
  C     -1.727403    0.416641    3.482609
  C     -1.831677    0.442990    2.091762
  H     -1.073099   -0.682787    5.289882
  H     -2.000829    1.345348    4.008769
  H     -0.822858   -2.898309    1.629075
  H     -0.313451   -2.684138    4.054958
  H     -2.137290    1.886250    1.551343
  C     -2.028932   -1.213889    0.044468
  H     -3.099568   -0.977155   -0.060593
  H     -1.949261   -2.288882   -0.103025
  O      1.906141   -0.822473   -1.203770
  C      2.224906   -0.555564   -2.432371
  O      1.462704   -0.021692   -3.233896
  C      3.621522   -0.973702   -2.829020
  H      3.645837   -2.054251   -2.925688
  H      4.345047   -0.709829   -2.069839
  H      3.873948   -0.518736   -3.792757

 Total Charge           Charge          ....    0
 Multiplicity           Mult            ....    1
 Number of Electrons    NEL             ....  154
 Basis Dimension        Dim             ....  339

ORBITAL ENERGIES
----------------

  NO   OCC          E(Eh)            E(eV)
   0   2.0000     -19.480831      -530.1004
   1   2.0000     -19.478455      -530.0357
   2   2.0000     -19.463813      -529.6373
   3   2.0000     -19.431137      -528.7481
   4   2.0000     -14.725079      -400.6898
   5   2.0000     -10.548123      -287.0290
   6   2.0000     -10.532924      -286.6154
   7   2.0000     -10.518982      -286.2360
   8   2.0000     -10.505517      -285.8697
   9   2.0000     -10.499326      -285.7012
  10   2.0000     -10.483876      -285.2808
  11   2.0000     -10.478054      -285.1223
  12   2.0000     -10.477406      -285.1047
  13   2.0000     -10.476214      -285.0723
  14   2.0000     -10.474436      -285.0239
  15   2.0000     -10.469617      -284.8928
  16   2.0000     -10.424665      -283.6695
  17   2.0000     -10.414998      -283.4065
  18   2.0000      -3.660319       -99.6024
  19   2.0000      -2.310484       -62.8715
  20   2.0000      -2.302896       -62.6650
  21   2.0000      -2.270007       -61.7700
  22   2.0000      -1.178005       -32.0552
  23   2.0000      -1.148468       -31.2514
  24   2.0000      -1.079671       -29.3793
  25   2.0000      -1.064989       -28.9798
  26   2.0000      -1.049503       -28.5584
  27   2.0000      -0.967535       -26.3280
  28   2.0000      -0.881869       -23.9969
  29   2.0000      -0.852068       -23.1860
  30   2.0000      -0.822448       -22.3800
  31   2.0000      -0.813254       -22.1298
  32   2.0000      -0.799512       -21.7558
  33   2.0000      -0.796547       -21.6752
  34   2.0000      -0.723579       -19.6896
  35   2.0000      -0.689177       -18.7535
  36   2.0000      -0.675142       -18.3715
  37   2.0000      -0.601599       -16.3703
  38   2.0000      -0.593069       -16.1382
  39   2.0000      -0.587027       -15.9738
  40   2.0000      -0.575051       -15.6479
  41   2.0000      -0.571884       -15.5618
  42   2.0000      -0.555787       -15.1237
  43   2.0000      -0.528931       -14.3929
  44   2.0000      -0.524855       -14.2820
  45   2.0000      -0.522717       -14.2238
  46   2.0000      -0.517361       -14.0781
  47   2.0000      -0.510466       -13.8905
  48   2.0000      -0.508165       -13.8279
  49   2.0000      -0.496125       -13.5002
  50   2.0000      -0.493489       -13.4285
  51   2.0000      -0.487812       -13.2740
  52   2.0000      -0.483689       -13.1618
  53   2.0000      -0.474970       -12.9246
  54   2.0000      -0.456992       -12.4354
  55   2.0000      -0.449734       -12.2379
  56   2.0000      -0.445075       -12.1111
  57   2.0000      -0.435670       -11.8552
  58   2.0000      -0.434089       -11.8122
  59   2.0000      -0.430786       -11.7223
  60   2.0000      -0.428640       -11.6639
  61   2.0000      -0.417884       -11.3712
  62   2.0000      -0.416040       -11.3210
  63   2.0000      -0.406283       -11.0555
  64   2.0000      -0.385862       -10.4998
  65   2.0000      -0.376268       -10.2388
  66   2.0000      -0.369122       -10.0443
  67   2.0000      -0.349591        -9.5129
  68   2.0000      -0.344203        -9.3662
  69   2.0000      -0.339690        -9.2434
  70   2.0000      -0.319330        -8.6894
  71   2.0000      -0.313506        -8.5309
  72   2.0000      -0.311651        -8.4804
  73   2.0000      -0.301743        -8.2108
  74   2.0000      -0.292416        -7.9570
  75   2.0000      -0.288022        -7.8375
  76   2.0000      -0.275192        -7.4883
  77   0.0000      -0.071203        -1.9375
  78   0.0000      -0.023769        -0.6468
  79   0.0000      -0.003010        -0.0819
  80   0.0000       0.009422         0.2564
  81   0.0000       0.066875         1.8198

MULLIKEN ATOMIC CHARGES
-----------------------
   0 Pd:    0.563381
   1 O :   -0.502740
   2 C :    0.608162
   3 O :   -0.469700
   4 C :   -0.762237
   5 H :    0.241013
   6 H :    0.254361
   7 H :    0.252897
   8 N :   -0.486153
   9 C :   -0.550740
  10 H :    0.306705
  11 H :    0.218786
  12 H :    0.266930
  13 C :   -0.552548
  14 H :    0.270493
  15 H :    0.231786
  16 H :    0.296998
  17 C :    0.000548
  18 C :   -0.215026
  19 C :   -0.214585
  20 C :   -0.216434
  21 C :   -0.207372
  22 C :   -0.193548
  23 H :    0.232134
  24 H :    0.237084
  25 H :    0.227598
  26 H :    0.236099
  27 H :    0.197006
  28 C :   -0.328057
  29 H :    0.251437
  30 H :    0.254926
  31 O :   -0.532263
  32 C :    0.568556
  33 O :   -0.472963
  34 C :   -0.739653
  35 H :    0.235070
  36 H :    0.250726
  37 H :    0.241323
Sum of atomic charges:   -0.0000000

LOEWDIN ATOMIC CHARGES
----------------------
   0 Pd:   -0.220049
   1 O :   -0.171223
   2 C :    0.151571
   3 O :   -0.213526
   4 C :   -0.383664
   5 H :    0.145245
   6 H :    0.158661
   7 H :    0.150819
   8 N :   -0.057114
   9 C :   -0.243532
  10 H :    0.168287
  11 H :    0.119911
  12 H :    0.145889
  13 C :   -0.235579
  14 H :    0.149568
  15 H :    0.125624
  16 H :    0.162353
  17 C :   -0.051032
  18 C :   -0.109393
  19 C :   -0.127519
  20 C :   -0.124691
  21 C :   -0.132130
  22 C :   -0.095132
  23 H :    0.144147
  24 H :    0.144804
  25 H :    0.147463
  26 H :    0.144557
  27 H :    0.161178
  28 C :   -0.104868
  29 H :    0.144699
  30 H :    0.146317
  31 O :   -0.167698
  32 C :    0.136340
  33 O :   -0.275260
  34 C :   -0.379014
  35 H :    0.148056
  36 H :    0.149911
  37 H :    0.146025

  Mayer bond orders larger than 0.100000
B(  0-Pd,  1-O ) :   0.6436 B(  0-Pd,  3-O ) :   0.2735 B(  0-Pd,  8-N ) :   0.4127
B(  0-Pd, 31-O ) :   0.6798 B(  0-Pd, 33-O ) :   0.1000 B(  1-O ,  2-C ) :   1.3046
B(  2-C ,  3-O ) :   1.7300 B(  2-C ,  4-C ) :   0.9429 B(  4-C ,  5-H ) :   0.9155
B(  4-C ,  6-H ) :   0.9061 B(  4-C ,  7-H ) :   0.9110 B(  8-N ,  9-C ) :   0.9188
B(  8-N , 13-C ) :   0.9197 B(  8-N , 28-C ) :   0.8742 B(  9-C , 10-H ) :   0.8726
B(  9-C , 11-H ) :   0.9037 B(  9-C , 12-H ) :   0.9036 B( 13-C , 14-H ) :   0.8934
B( 13-C , 15-H ) :   0.9018 B( 13-C , 16-H ) :   0.8906 B( 17-C , 18-C ) :   1.4166
B( 17-C , 22-C ) :   1.3447 B( 17-C , 28-C ) :   0.9541 B( 18-C , 19-C ) :   1.4017
B( 18-C , 25-H ) :   0.9122 B( 19-C , 20-C ) :   1.4505 B( 19-C , 26-H ) :   0.9115
B( 20-C , 21-C ) :   1.3742 B( 20-C , 23-H ) :   0.9147 B( 21-C , 22-C ) :   1.4517
B( 21-C , 24-H ) :   0.9120 B( 22-C , 27-H ) :   0.8971 B( 28-C , 29-H ) :   0.8949
B( 28-C , 30-H ) :   0.9136 B( 31-O , 32-C ) :   1.2527 B( 32-C , 33-O ) :   1.8550
B( 32-C , 34-C ) :   0.9337 B( 34-C , 35-H ) :   0.9133 B( 34-C , 36-H ) :   0.9090
B( 34-C , 37-H ) :   0.9202

Dispersion correction           -0.026428373
FINAL SINGLE POINT ENERGY      -988.433388305005
Dispersion correction            ... done

DIPOLE MOMENT
-------------
                                X             Y             Z
Electronic contribution:     21.62067      14.02380     -20.97075
Nuclear contribution   :    -23.42530     -14.96448      21.97880
                        -----------------------------------------
Total Dipole Moment    :     -1.80463      -0.94068       1.00806
                        -----------------------------------------
Magnitude (a.u.)       :      2.27107
Magnitude (Debye)      :      5.77260

Rotational constants in cm-1:     0.013802     0.008408     0.006838
Rotational constants in MHz :   413.780127   252.073846   204.996760

                             ****ORCA TERMINATED NORMALLY****
TOTAL RUN TIME: 0 days 0 hours 17 minutes 16 seconds 617 msec
