                         Program Version 5.0.3 -  RELEASE  -
|  1> ! EnGrad PBEh-3c
|  2> %output
|  3> xyzfile=True
|  4> end
|  5> %scf
|  6> maxiter 250
|  7> end
|  8> %output
|  9> Print[P_Hirshfeld] = 1
| 10> end
| 11> % maxcore
| 12> 4000
| 13> *xyz 0 1
| 14> Pd   0.49372121   0.31808411  -0.40940263
| 15> O    2.03128240   1.34648926   0.40227548
| 16> C    1.59668555   2.57169911   0.28210038
| 17> O    0.45890527   2.78556448  -0.07445739
| 18> C    2.61580049   3.65655008   0.59241526
| 19> H    2.15557061   4.54190124   1.02911300
| 20> H    3.07215515   3.94402584  -0.34556017
| 21> H    3.41158771   3.29402605   1.23620062
| 22> N   -1.29933396  -0.61095338  -1.09945383
| 23> C   -1.18389583  -1.63852034  -2.14791456
| 24> H   -0.69899438  -1.23141072  -3.01870304
| 25> H   -2.16228268  -2.04910313  -2.43806770
| 26> H   -0.59891186  -2.47314447  -1.80904048
| 27> C   -2.12802364   0.47714546  -1.63872606
| 28> H   -2.28922504   1.23122973  -0.89813727
| 29> H   -3.12494333   0.12297499  -1.93553912
| 30> H   -1.65877090   0.92176381  -2.50364077
| 31> C   -1.61801407  -0.81453109   1.44882002
| 32> C   -1.09476247  -1.94362923   2.17629524
| 33> C   -0.88602125  -1.86936104   3.54882961
| 34> C   -1.18531828  -0.67994084   4.19522036
| 35> C   -1.65046426   0.47590679   3.46208118
| 36> C   -1.79983172   0.51510920   2.07018002
| 37> H   -1.06181434  -0.67025808   5.29151921
| 38> H   -1.85347133   1.40905625   4.00332891
| 39> H   -0.94105044  -2.91219267   1.65501972
| 40> H   -0.40041422  -2.70909630   4.06610419
| 41> H   -2.04297020   1.71800884   1.53293591
| 42> C   -2.05400431  -1.19639565   0.06592654
| 43> H   -3.11359199  -0.92421173  -0.05242049
| 44> H   -2.01213322  -2.27415133  -0.08021037
| 45> O    1.91041919  -0.81112196  -1.19760711
| 46> C    2.19047573  -0.52104474  -2.46028967
| 47> O    1.45060782  -0.06217008  -3.23372407
| 48> C    3.62839209  -0.91430168  -2.84998147
| 49> H    3.68000047  -1.99230294  -2.97762072
| 50> H    4.33369840  -0.64518676  -2.08482756
| 51> H    3.87855506  -0.42481576  -3.80448202
| 52> *
| 53>
| 54>                          ****END OF INPUT****

CARTESIAN COORDINATES (ANGSTROEM)
---------------------------------
  Pd     0.493721    0.318084   -0.409403
  O      2.031282    1.346489    0.402275
  C      1.596686    2.571699    0.282100
  O      0.458905    2.785564   -0.074457
  C      2.615800    3.656550    0.592415
  H      2.155571    4.541901    1.029113
  H      3.072155    3.944026   -0.345560
  H      3.411588    3.294026    1.236201
  N     -1.299334   -0.610953   -1.099454
  C     -1.183896   -1.638520   -2.147915
  H     -0.698994   -1.231411   -3.018703
  H     -2.162283   -2.049103   -2.438068
  H     -0.598912   -2.473144   -1.809040
  C     -2.128024    0.477145   -1.638726
  H     -2.289225    1.231230   -0.898137
  H     -3.124943    0.122975   -1.935539
  H     -1.658771    0.921764   -2.503641
  C     -1.618014   -0.814531    1.448820
  C     -1.094762   -1.943629    2.176295
  C     -0.886021   -1.869361    3.548830
  C     -1.185318   -0.679941    4.195220
  C     -1.650464    0.475907    3.462081
  C     -1.799832    0.515109    2.070180
  H     -1.061814   -0.670258    5.291519
  H     -1.853471    1.409056    4.003329
  H     -0.941050   -2.912193    1.655020
  H     -0.400414   -2.709096    4.066104
  H     -2.042970    1.718009    1.532936
  C     -2.054004   -1.196396    0.065927
  H     -3.113592   -0.924212   -0.052420
  H     -2.012133   -2.274151   -0.080210
  O      1.910419   -0.811122   -1.197607
  C      2.190476   -0.521045   -2.460290
  O      1.450608   -0.062170   -3.233724
  C      3.628392   -0.914302   -2.849981
  H      3.680000   -1.992303   -2.977621
  H      4.333698   -0.645187   -2.084828
  H      3.878555   -0.424816   -3.804482

 Total Charge           Charge          ....    0
 Multiplicity           Mult            ....    1
 Number of Electrons    NEL             ....  154
 Basis Dimension        Dim             ....  339

ORBITAL ENERGIES
----------------

  NO   OCC          E(Eh)            E(eV)
   0   2.0000     -19.480998      -530.1049
   1   2.0000     -19.471672      -529.8511
   2   2.0000     -19.466116      -529.7000
   3   2.0000     -19.441976      -529.0431
   4   2.0000     -14.722367      -400.6160
   5   2.0000     -10.549855      -287.0762
   6   2.0000     -10.531142      -286.5669
   7   2.0000     -10.507368      -285.9200
   8   2.0000     -10.504166      -285.8329
   9   2.0000     -10.498685      -285.6837
  10   2.0000     -10.483352      -285.2665
  11   2.0000     -10.476853      -285.0897
  12   2.0000     -10.476815      -285.0886
  13   2.0000     -10.475525      -285.0535
  14   2.0000     -10.474040      -285.0131
  15   2.0000     -10.468099      -284.8515
  16   2.0000     -10.426430      -283.7176
  17   2.0000     -10.412411      -283.3361
  18   2.0000      -3.656841       -99.5077
  19   2.0000      -2.307174       -62.7814
  20   2.0000      -2.298991       -62.5587
  21   2.0000      -2.267152       -61.6923
  22   2.0000      -1.177598       -32.0441
  23   2.0000      -1.167772       -31.7767
  24   2.0000      -1.078066       -29.3357
  25   2.0000      -1.064925       -28.9781
  26   2.0000      -1.057895       -28.7868
  27   2.0000      -0.964194       -26.2371
  28   2.0000      -0.879638       -23.9362
  29   2.0000      -0.853178       -23.2161
  30   2.0000      -0.824739       -22.4423
  31   2.0000      -0.811528       -22.0828
  32   2.0000      -0.794421       -21.6173
  33   2.0000      -0.790515       -21.5110
  34   2.0000      -0.723396       -19.6846
  35   2.0000      -0.688155       -18.7257
  36   2.0000      -0.675289       -18.3755
  37   2.0000      -0.600910       -16.3516
  38   2.0000      -0.592209       -16.1148
  39   2.0000      -0.580748       -15.8029
  40   2.0000      -0.574851       -15.6425
  41   2.0000      -0.571991       -15.5647
  42   2.0000      -0.556272       -15.1369
  43   2.0000      -0.528730       -14.3875
  44   2.0000      -0.526231       -14.3195
  45   2.0000      -0.522986       -14.2312
  46   2.0000      -0.517169       -14.0729
  47   2.0000      -0.513166       -13.9639
  48   2.0000      -0.508245       -13.8301
  49   2.0000      -0.498089       -13.5537
  50   2.0000      -0.496693       -13.5157
  51   2.0000      -0.491919       -13.3858
  52   2.0000      -0.484609       -13.1869
  53   2.0000      -0.481488       -13.1020
  54   2.0000      -0.458263       -12.4700
  55   2.0000      -0.451810       -12.2944
  56   2.0000      -0.445205       -12.1146
  57   2.0000      -0.439376       -11.9560
  58   2.0000      -0.433894       -11.8068
  59   2.0000      -0.431549       -11.7430
  60   2.0000      -0.427084       -11.6215
  61   2.0000      -0.417601       -11.3635
  62   2.0000      -0.414160       -11.2699
  63   2.0000      -0.405500       -11.0342
  64   2.0000      -0.399248       -10.8641
  65   2.0000      -0.379312       -10.3216
  66   2.0000      -0.370303       -10.0765
  67   2.0000      -0.348845        -9.4925
  68   2.0000      -0.345090        -9.3904
  69   2.0000      -0.339919        -9.2497
  70   2.0000      -0.319840        -8.7033
  71   2.0000      -0.313095        -8.5198
  72   2.0000      -0.308981        -8.4078
  73   2.0000      -0.302454        -8.2302
  74   2.0000      -0.292166        -7.9502
  75   2.0000      -0.287953        -7.8356
  76   2.0000      -0.277961        -7.5637
  77   0.0000      -0.067465        -1.8358
  78   0.0000      -0.021631        -0.5886
  79   0.0000      -0.002611        -0.0710
  80   0.0000       0.054862         1.4929
  81   0.0000       0.067971         1.8496

MULLIKEN ATOMIC CHARGES
-----------------------
   0 Pd:    0.548790
   1 O :   -0.509258
   2 C :    0.606591
   3 O :   -0.462637
   4 C :   -0.759108
   5 H :    0.239432
   6 H :    0.253000
   7 H :    0.252783
   8 N :   -0.484385
   9 C :   -0.551286
  10 H :    0.303365
  11 H :    0.218749
  12 H :    0.269405
  13 C :   -0.554446
  14 H :    0.268553
  15 H :    0.232223
  16 H :    0.296581
  17 C :    0.021876
  18 C :   -0.218651
  19 C :   -0.208596
  20 C :   -0.216814
  21 C :   -0.209521
  22 C :   -0.248463
  23 H :    0.230343
  24 H :    0.233255
  25 H :    0.225708
  26 H :    0.235663
  27 H :    0.243105
  28 C :   -0.331551
  29 H :    0.248521
  30 H :    0.254996
  31 O :   -0.546412
  32 C :    0.550613
  33 O :   -0.405567
  34 C :   -0.742546
  35 H :    0.233308
  36 H :    0.251488
  37 H :    0.230896
Sum of atomic charges:    0.0000000

LOEWDIN ATOMIC CHARGES
----------------------
   0 Pd:   -0.230706
   1 O :   -0.175372
   2 C :    0.156879
   3 O :   -0.208506
   4 C :   -0.383617
   5 H :    0.145057
   6 H :    0.158059
   7 H :    0.150729
   8 N :   -0.061271
   9 C :   -0.243552
  10 H :    0.165625
  11 H :    0.118781
  12 H :    0.147011
  13 C :   -0.236018
  14 H :    0.147700
  15 H :    0.124610
  16 H :    0.161858
  17 C :   -0.043712
  18 C :   -0.112022
  19 C :   -0.127743
  20 C :   -0.125854
  21 C :   -0.124053
  22 C :   -0.115424
  23 H :    0.143802
  24 H :    0.142326
  25 H :    0.146174
  26 H :    0.144605
  27 H :    0.176815
  28 C :   -0.104812
  29 H :    0.143082
  30 H :    0.146015
  31 O :   -0.190919
  32 C :    0.115938
  33 O :   -0.200508
  34 C :   -0.385598
  35 H :    0.146038
  36 H :    0.147824
  37 H :    0.140756

  Mayer bond orders larger than 0.100000
B(  0-Pd,  1-O ) :   0.6535 B(  0-Pd,  3-O ) :   0.2600 B(  0-Pd,  8-N ) :   0.4068
B(  0-Pd, 31-O ) :   0.7081 B(  1-O ,  2-C ) :   1.2832 B(  2-C ,  3-O ) :   1.7470
B(  2-C ,  4-C ) :   0.9410 B(  4-C ,  5-H ) :   0.9163 B(  4-C ,  6-H ) :   0.9069
B(  4-C ,  7-H ) :   0.9106 B(  8-N ,  9-C ) :   0.9226 B(  8-N , 13-C ) :   0.9230
B(  8-N , 28-C ) :   0.8695 B(  9-C , 10-H ) :   0.8758 B(  9-C , 11-H ) :   0.9042
B(  9-C , 12-H ) :   0.9031 B( 13-C , 14-H ) :   0.8955 B( 13-C , 15-H ) :   0.9014
B( 13-C , 16-H ) :   0.8910 B( 17-C , 18-C ) :   1.4185 B( 17-C , 22-C ) :   1.3208
B( 17-C , 28-C ) :   0.9538 B( 18-C , 19-C ) :   1.3986 B( 18-C , 25-H ) :   0.9137
B( 19-C , 20-C ) :   1.4527 B( 19-C , 26-H ) :   0.9111 B( 20-C , 21-C ) :   1.3707
B( 20-C , 23-H ) :   0.9161 B( 21-C , 22-C ) :   1.4580 B( 21-C , 24-H ) :   0.9136
B( 22-C , 27-H ) :   0.9002 B( 28-C , 29-H ) :   0.8956 B( 28-C , 30-H ) :   0.9136
B( 31-O , 32-C ) :   1.2018 B( 32-C , 33-O ) :   1.9446 B( 32-C , 34-C ) :   0.9207
B( 34-C , 35-H ) :   0.9162 B( 34-C , 36-H ) :   0.9100 B( 34-C , 37-H ) :   0.9230

Dispersion correction           -0.026032230
FINAL SINGLE POINT ENERGY      -988.468713922382
Dispersion correction            ... done

DIPOLE MOMENT
-------------
                                X             Y             Z
Electronic contribution:     20.89727      14.06935     -20.25438
Nuclear contribution   :    -22.76937     -14.89237      21.12017
                        -----------------------------------------
Total Dipole Moment    :     -1.87210      -0.82302       0.86579
                        -----------------------------------------
Magnitude (a.u.)       :      2.22074
Magnitude (Debye)      :      5.64468

Rotational constants in cm-1:     0.013873     0.008444     0.006828
Rotational constants in MHz :   415.892576   253.143475   204.695880

                             ****ORCA TERMINATED NORMALLY****
TOTAL RUN TIME: 0 days 0 hours 8 minutes 26 seconds 161 msec
