                         Program Version 5.0.3 -  RELEASE  -
|  1> ! EnGrad PBEh-3c
|  2> %output
|  3> xyzfile=True
|  4> end
|  5> %scf
|  6> maxiter 250
|  7> end
|  8> %output
|  9> Print[P_Hirshfeld] = 1
| 10> end
| 11> % maxcore
| 12> 4000
| 13> *xyz 0 1
| 14> Pd   0.46971813   0.30911453  -0.38055405
| 15> O    1.99950341   1.30656640   0.38536527
| 16> C    1.60149688   2.54125976   0.28832468
| 17> O    0.44607146   2.80475447  -0.07053269
| 18> C    2.62701008   3.62280006   0.59479369
| 19> H    2.18406183   4.52476590   1.03571464
| 20> H    3.10503943   3.89149752  -0.34824920
| 21> H    3.40451957   3.22771716   1.24815839
| 22> N   -1.31518349  -0.64708270  -1.08891194
| 23> C   -1.15334368  -1.72774584  -2.07533503
| 24> H   -0.65147659  -1.37588723  -2.95911380
| 25> H   -2.11127198  -2.13922174  -2.37915483
| 26> H   -0.58731920  -2.55106405  -1.67359073
| 27> C   -2.10146672   0.42779818  -1.70438555
| 28> H   -2.28948461   1.21561589  -0.99724352
| 29> H   -3.08841013   0.07705690  -1.99599486
| 30> H   -1.61502252   0.85292188  -2.56697170
| 31> C   -1.65394056  -0.75107120   1.47896547
| 32> C   -1.24754357  -1.93456057   2.21290996
| 33> C   -1.01038162  -1.87928665   3.58057969
| 34> C   -1.17592909  -0.62901959   4.19368488
| 35> C   -1.49851024   0.58499529   3.43257301
| 36> C   -1.73315445   0.64597243   2.02705130
| 37> H   -1.04051422  -0.64407151   5.29266833
| 38> H   -1.56255690   1.54090912   3.99220623
| 39> H   -1.17619399  -2.93582303   1.70607614
| 40> H   -0.57276982  -2.75670251   4.08870091
| 41> H   -1.85805244   1.38275942   1.49872185
| 42> C   -2.10567401  -1.15648706   0.09826993
| 43> H   -3.14189007  -0.81942502  -0.03724879
| 44> H   -2.13453891  -2.24350640  -0.03310884
| 45> O    1.91763676  -0.78327680  -1.19942043
| 46> C    2.17704838  -0.49289587  -2.46201743
| 47> O    1.37790370  -0.11179403  -3.27728631
| 48> C    3.63215202  -0.79285094  -2.89631539
| 49> H    3.74725311  -1.86845205  -3.07942188
| 50> H    4.31484962  -0.51657113  -2.10946011
| 51> H    3.88472233  -0.24069911  -3.82337801
| 52> *
| 53>
| 54>                          ****END OF INPUT****

CARTESIAN COORDINATES (ANGSTROEM)
---------------------------------
  Pd     0.469718    0.309115   -0.380554
  O      1.999503    1.306566    0.385365
  C      1.601497    2.541260    0.288325
  O      0.446071    2.804754   -0.070533
  C      2.627010    3.622800    0.594794
  H      2.184062    4.524766    1.035715
  H      3.105039    3.891498   -0.348249
  H      3.404520    3.227717    1.248158
  N     -1.315183   -0.647083   -1.088912
  C     -1.153344   -1.727746   -2.075335
  H     -0.651477   -1.375887   -2.959114
  H     -2.111272   -2.139222   -2.379155
  H     -0.587319   -2.551064   -1.673591
  C     -2.101467    0.427798   -1.704386
  H     -2.289485    1.215616   -0.997244
  H     -3.088410    0.077057   -1.995995
  H     -1.615023    0.852922   -2.566972
  C     -1.653941   -0.751071    1.478965
  C     -1.247544   -1.934561    2.212910
  C     -1.010382   -1.879287    3.580580
  C     -1.175929   -0.629020    4.193685
  C     -1.498510    0.584995    3.432573
  C     -1.733154    0.645972    2.027051
  H     -1.040514   -0.644072    5.292668
  H     -1.562557    1.540909    3.992206
  H     -1.176194   -2.935823    1.706076
  H     -0.572770   -2.756703    4.088701
  H     -1.858052    1.382759    1.498722
  C     -2.105674   -1.156487    0.098270
  H     -3.141890   -0.819425   -0.037249
  H     -2.134539   -2.243506   -0.033109
  O      1.917637   -0.783277   -1.199420
  C      2.177048   -0.492896   -2.462017
  O      1.377904   -0.111794   -3.277286
  C      3.632152   -0.792851   -2.896315
  H      3.747253   -1.868452   -3.079422
  H      4.314850   -0.516571   -2.109460
  H      3.884722   -0.240699   -3.823378

 Total Charge           Charge          ....    0
 Multiplicity           Mult            ....    1
 Number of Electrons    NEL             ....  154
 Basis Dimension        Dim             ....  339

ORBITAL ENERGIES
----------------

  NO   OCC          E(Eh)            E(eV)
   0   2.0000     -19.491256      -530.3840
   1   2.0000     -19.474889      -529.9387
   2   2.0000     -19.466241      -529.7033
   3   2.0000     -19.437125      -528.9111
   4   2.0000     -14.721392      -400.5894
   5   2.0000     -10.555937      -287.2417
   6   2.0000     -10.534719      -286.6643
   7   2.0000     -10.504879      -285.8523
   8   2.0000     -10.500860      -285.7429
   9   2.0000     -10.487963      -285.3920
  10   2.0000     -10.482159      -285.2341
  11   2.0000     -10.480440      -285.1873
  12   2.0000     -10.480222      -285.1813
  13   2.0000     -10.478977      -285.1475
  14   2.0000     -10.472929      -284.9829
  15   2.0000     -10.472272      -284.9650
  16   2.0000     -10.432034      -283.8701
  17   2.0000     -10.415602      -283.4229
  18   2.0000      -3.660275       -99.6011
  19   2.0000      -2.311921       -62.9106
  20   2.0000      -2.301097       -62.6160
  21   2.0000      -2.270879       -61.7938
  22   2.0000      -1.173042       -31.9201
  23   2.0000      -1.147950       -31.2373
  24   2.0000      -1.075317       -29.2609
  25   2.0000      -1.066615       -29.0241
  26   2.0000      -1.052349       -28.6359
  27   2.0000      -0.960997       -26.1501
  28   2.0000      -0.877341       -23.8737
  29   2.0000      -0.861731       -23.4489
  30   2.0000      -0.825075       -22.4514
  31   2.0000      -0.813191       -22.1280
  32   2.0000      -0.792747       -21.5717
  33   2.0000      -0.787228       -21.4216
  34   2.0000      -0.726335       -19.7646
  35   2.0000      -0.704493       -19.1702
  36   2.0000      -0.677533       -18.4366
  37   2.0000      -0.610146       -16.6029
  38   2.0000      -0.601443       -16.3661
  39   2.0000      -0.581862       -15.8333
  40   2.0000      -0.578170       -15.7328
  41   2.0000      -0.572099       -15.5676
  42   2.0000      -0.567466       -15.4415
  43   2.0000      -0.540225       -14.7003
  44   2.0000      -0.528995       -14.3947
  45   2.0000      -0.523026       -14.2323
  46   2.0000      -0.518238       -14.1020
  47   2.0000      -0.512820       -13.9545
  48   2.0000      -0.509260       -13.8577
  49   2.0000      -0.505272       -13.7492
  50   2.0000      -0.493401       -13.4261
  51   2.0000      -0.491028       -13.3615
  52   2.0000      -0.483003       -13.1432
  53   2.0000      -0.475865       -12.9490
  54   2.0000      -0.459920       -12.5150
  55   2.0000      -0.450181       -12.2500
  56   2.0000      -0.446635       -12.1535
  57   2.0000      -0.444747       -12.1022
  58   2.0000      -0.435319       -11.8456
  59   2.0000      -0.429615       -11.6904
  60   2.0000      -0.424482       -11.5508
  61   2.0000      -0.416269       -11.3273
  62   2.0000      -0.413946       -11.2641
  63   2.0000      -0.408542       -11.1170
  64   2.0000      -0.399962       -10.8835
  65   2.0000      -0.376046       -10.2327
  66   2.0000      -0.369326       -10.0499
  67   2.0000      -0.351487        -9.5644
  68   2.0000      -0.345404        -9.3989
  69   2.0000      -0.342431        -9.3180
  70   2.0000      -0.322214        -8.7679
  71   2.0000      -0.314938        -8.5699
  72   2.0000      -0.309373        -8.4185
  73   2.0000      -0.303200        -8.2505
  74   2.0000      -0.288310        -7.8453
  75   2.0000      -0.287311        -7.8181
  76   2.0000      -0.279324        -7.6008
  77   0.0000      -0.071103        -1.9348
  78   0.0000      -0.026877        -0.7314
  79   0.0000      -0.007580        -0.2063
  80   0.0000       0.060092         1.6352
  81   0.0000       0.067040         1.8242

MULLIKEN ATOMIC CHARGES
-----------------------
   0 Pd:    0.558130
   1 O :   -0.503247
   2 C :    0.612830
   3 O :   -0.480523
   4 C :   -0.754822
   5 H :    0.243101
   6 H :    0.253821
   7 H :    0.249661
   8 N :   -0.482082
   9 C :   -0.554238
  10 H :    0.309055
  11 H :    0.219725
  12 H :    0.266965
  13 C :   -0.561437
  14 H :    0.265549
  15 H :    0.235119
  16 H :    0.303452
  17 C :   -0.014678
  18 C :   -0.228235
  19 C :   -0.202942
  20 C :   -0.211779
  21 C :   -0.258805
  22 C :   -0.168793
  23 H :    0.230984
  24 H :    0.226551
  25 H :    0.223767
  26 H :    0.238586
  27 H :    0.260015
  28 C :   -0.331891
  29 H :    0.247125
  30 H :    0.254593
  31 O :   -0.538821
  32 C :    0.561059
  33 O :   -0.444511
  34 C :   -0.736241
  35 H :    0.232764
  36 H :    0.246484
  37 H :    0.233706
Sum of atomic charges:   -0.0000000

LOEWDIN ATOMIC CHARGES
----------------------
   0 Pd:   -0.217406
   1 O :   -0.157857
   2 C :    0.171986
   3 O :   -0.235423
   4 C :   -0.381297
   5 H :    0.147809
   6 H :    0.159527
   7 H :    0.150031
   8 N :   -0.064304
   9 C :   -0.245142
  10 H :    0.167913
  11 H :    0.117673
  12 H :    0.147044
  13 C :   -0.237604
  14 H :    0.146163
  15 H :    0.124133
  16 H :    0.164686
  17 C :   -0.029043
  18 C :   -0.119961
  19 C :   -0.125991
  20 C :   -0.127953
  21 C :   -0.102334
  22 C :   -0.110630
  23 H :    0.144732
  24 H :    0.142116
  25 H :    0.144655
  26 H :    0.146535
  27 H :    0.146438
  28 C :   -0.105868
  29 H :    0.141979
  30 H :    0.145761
  31 O :   -0.187940
  32 C :    0.138984
  33 O :   -0.248391
  34 C :   -0.384558
  35 H :    0.146518
  36 H :    0.144852
  37 H :    0.142165

  Mayer bond orders larger than 0.100000
B(  0-Pd,  1-O ) :   0.6527 B(  0-Pd,  3-O ) :   0.2625 B(  0-Pd,  8-N ) :   0.4123
B(  0-Pd, 31-O ) :   0.6837 B(  1-O ,  2-C ) :   1.2896 B(  1-O ,  3-O ) :   0.1010
B(  2-C ,  3-O ) :   1.7210 B(  2-C ,  4-C ) :   0.9417 B(  4-C ,  5-H ) :   0.9159
B(  4-C ,  6-H ) :   0.9064 B(  4-C ,  7-H ) :   0.9097 B(  8-N ,  9-C ) :   0.9219
B(  8-N , 13-C ) :   0.9233 B(  8-N , 28-C ) :   0.8627 B(  9-C , 10-H ) :   0.8698
B(  9-C , 11-H ) :   0.9037 B(  9-C , 12-H ) :   0.9049 B( 13-C , 14-H ) :   0.8979
B( 13-C , 15-H ) :   0.9000 B( 13-C , 16-H ) :   0.8874 B( 17-C , 18-C ) :   1.4036
B( 17-C , 22-C ) :   1.3469 B( 17-C , 28-C ) :   0.9521 B( 18-C , 19-C ) :   1.4016
B( 18-C , 25-H ) :   0.9164 B( 19-C , 20-C ) :   1.4428 B( 19-C , 26-H ) :   0.9094
B( 20-C , 21-C ) :   1.3703 B( 20-C , 23-H ) :   0.9168 B( 21-C , 22-C ) :   1.4656
B( 21-C , 24-H ) :   0.9188 B( 22-C , 27-H ) :   0.8951 B( 28-C , 29-H ) :   0.8961
B( 28-C , 30-H ) :   0.9139 B( 31-O , 32-C ) :   1.2305 B( 32-C , 33-O ) :   1.8907
B( 32-C , 34-C ) :   0.9218 B( 34-C , 35-H ) :   0.9168 B( 34-C , 36-H ) :   0.9098
B( 34-C , 37-H ) :   0.9220

Dispersion correction           -0.026106484
FINAL SINGLE POINT ENERGY      -988.458583317521
Dispersion correction            ... done

DIPOLE MOMENT
-------------
                                X             Y             Z
Electronic contribution:     19.89053      13.46013     -18.49535
Nuclear contribution   :    -21.65203     -14.30905      19.54315
                        -----------------------------------------
Total Dipole Moment    :     -1.76150      -0.84892       1.04780
                        -----------------------------------------
Magnitude (a.u.)       :      2.21843
Magnitude (Debye)      :      5.63880

Rotational constants in cm-1:     0.013973     0.008499     0.006797
Rotational constants in MHz :   418.885763   254.799261   203.781890

                             ****ORCA TERMINATED NORMALLY****
TOTAL RUN TIME: 0 days 0 hours 14 minutes 2 seconds 350 msec
