                         Program Version 5.0.3 -  RELEASE  -
|  1> ! EnGrad PBEh-3c
|  2> %output
|  3> xyzfile=True
|  4> end
|  5> %scf
|  6> maxiter 250
|  7> end
|  8> %output
|  9> Print[P_Hirshfeld] = 1
| 10> end
| 11> % maxcore
| 12> 4000
| 13> *xyz 0 1
| 14> Pd   0.48255791   0.32917903  -0.36494443
| 15> O    1.98573691   1.30247608   0.37290920
| 16> C    1.59310563   2.52765504   0.29585127
| 17> O    0.44873801   2.80454395  -0.06530233
| 18> C    2.62568414   3.61338325   0.59284599
| 19> H    2.18290995   4.51971367   1.03436054
| 20> H    3.11060365   3.89280717  -0.35374160
| 21> H    3.40297493   3.22356457   1.25049318
| 22> N   -1.33226035  -0.64938898  -1.09250012
| 23> C   -1.14975659  -1.73848296  -2.07276026
| 24> H   -0.64685209  -1.38043521  -2.95743353
| 25> H   -2.11193504  -2.13705902  -2.37077927
| 26> H   -0.57788888  -2.56016463  -1.65606808
| 27> C   -2.10290231   0.43042363  -1.71191014
| 28> H   -2.28806453   1.22658780  -0.99848312
| 29> H   -3.08360931   0.06649420  -2.00229851
| 30> H   -1.60435761   0.85103711  -2.57765570
| 31> C   -1.64360634  -0.73405710   1.48308112
| 32> C   -1.27967668  -1.90838133   2.21193388
| 33> C   -1.00920626  -1.84887782   3.57553373
| 34> C   -1.18284212  -0.61562628   4.17705294
| 35> C   -1.47489653   0.59789030   3.43020759
| 36> C   -1.68883666   0.44550068   2.13258285
| 37> H   -1.04385600  -0.62385573   5.26898849
| 38> H   -1.53787864   1.52219745   3.98687050
| 39> H   -1.19584203  -2.90132445   1.72043968
| 40> H   -0.60567625  -2.74404261   4.08775776
| 41> H   -1.85559990   1.42372197   1.43332041
| 42> C   -2.11169358  -1.14687065   0.08731354
| 43> H   -3.14058036  -0.81574606  -0.03523920
| 44> H   -2.14356836  -2.23915076  -0.01639599
| 45> O    1.92191216  -0.78956391  -1.20973415
| 46> C    2.16855247  -0.48908626  -2.46540830
| 47> O    1.37471740  -0.11429214  -3.27949271
| 48> C    3.62293670  -0.78348433  -2.89976908
| 49> H    3.75393856  -1.85892517  -3.08919439
| 50> H    4.31984991  -0.50406824  -2.11041006
| 51> H    3.88434270  -0.23556127  -3.81542131
| 52> *
| 53>
| 54>                          ****END OF INPUT****

CARTESIAN COORDINATES (ANGSTROEM)
---------------------------------
  Pd     0.482558    0.329179   -0.364944
  O      1.985737    1.302476    0.372909
  C      1.593106    2.527655    0.295851
  O      0.448738    2.804544   -0.065302
  C      2.625684    3.613383    0.592846
  H      2.182910    4.519714    1.034361
  H      3.110604    3.892807   -0.353742
  H      3.402975    3.223565    1.250493
  N     -1.332260   -0.649389   -1.092500
  C     -1.149757   -1.738483   -2.072760
  H     -0.646852   -1.380435   -2.957434
  H     -2.111935   -2.137059   -2.370779
  H     -0.577889   -2.560165   -1.656068
  C     -2.102902    0.430424   -1.711910
  H     -2.288065    1.226588   -0.998483
  H     -3.083609    0.066494   -2.002299
  H     -1.604358    0.851037   -2.577656
  C     -1.643606   -0.734057    1.483081
  C     -1.279677   -1.908381    2.211934
  C     -1.009206   -1.848878    3.575534
  C     -1.182842   -0.615626    4.177053
  C     -1.474897    0.597890    3.430208
  C     -1.688837    0.445501    2.132583
  H     -1.043856   -0.623856    5.268988
  H     -1.537879    1.522197    3.986870
  H     -1.195842   -2.901324    1.720440
  H     -0.605676   -2.744043    4.087758
  H     -1.855600    1.423722    1.433320
  C     -2.111694   -1.146871    0.087314
  H     -3.140580   -0.815746   -0.035239
  H     -2.143568   -2.239151   -0.016396
  O      1.921912   -0.789564   -1.209734
  C      2.168552   -0.489086   -2.465408
  O      1.374717   -0.114292   -3.279493
  C      3.622937   -0.783484   -2.899769
  H      3.753939   -1.858925   -3.089194
  H      4.319850   -0.504068   -2.110410
  H      3.884343   -0.235561   -3.815421

 Total Charge           Charge          ....    0
 Multiplicity           Mult            ....    1
 Number of Electrons    NEL             ....  154
 Basis Dimension        Dim             ....  339

ORBITAL ENERGIES
----------------

  NO   OCC          E(Eh)            E(eV)
   0   2.0000     -19.498647      -530.5852
   1   2.0000     -19.473691      -529.9061
   2   2.0000     -19.470177      -529.8105
   3   2.0000     -19.436878      -528.9043
   4   2.0000     -14.718332      -400.5062
   5   2.0000     -10.559077      -287.3271
   6   2.0000     -10.533197      -286.6229
   7   2.0000     -10.507234      -285.9164
   8   2.0000     -10.482537      -285.2443
   9   2.0000     -10.482180      -285.2346
  10   2.0000     -10.475721      -285.0589
  11   2.0000     -10.473258      -284.9918
  12   2.0000     -10.472845      -284.9806
  13   2.0000     -10.471987      -284.9573
  14   2.0000     -10.470017      -284.9036
  15   2.0000     -10.466211      -284.8001
  16   2.0000     -10.435113      -283.9539
  17   2.0000     -10.414046      -283.3806
  18   2.0000      -3.662379       -99.6584
  19   2.0000      -2.315006       -62.9945
  20   2.0000      -2.302337       -62.6498
  21   2.0000      -2.273261       -61.8586
  22   2.0000      -1.185547       -32.2604
  23   2.0000      -1.150942       -31.3187
  24   2.0000      -1.078167       -29.3384
  25   2.0000      -1.074653       -29.2428
  26   2.0000      -1.054854       -28.7040
  27   2.0000      -0.982742       -26.7418
  28   2.0000      -0.880997       -23.9732
  29   2.0000      -0.865325       -23.5467
  30   2.0000      -0.823449       -22.4072
  31   2.0000      -0.813358       -22.1326
  32   2.0000      -0.798980       -21.7413
  33   2.0000      -0.785325       -21.3698
  34   2.0000      -0.719920       -19.5900
  35   2.0000      -0.705805       -19.2059
  36   2.0000      -0.674948       -18.3663
  37   2.0000      -0.611769       -16.6471
  38   2.0000      -0.601755       -16.3746
  39   2.0000      -0.581153       -15.8140
  40   2.0000      -0.572537       -15.5795
  41   2.0000      -0.571816       -15.5599
  42   2.0000      -0.558469       -15.1967
  43   2.0000      -0.536826       -14.6078
  44   2.0000      -0.534644       -14.5484
  45   2.0000      -0.526339       -14.3224
  46   2.0000      -0.524283       -14.2665
  47   2.0000      -0.515158       -14.0182
  48   2.0000      -0.505676       -13.7601
  49   2.0000      -0.502363       -13.6700
  50   2.0000      -0.492770       -13.4089
  51   2.0000      -0.491652       -13.3785
  52   2.0000      -0.485954       -13.2235
  53   2.0000      -0.482285       -13.1236
  54   2.0000      -0.456539       -12.4231
  55   2.0000      -0.451894       -12.2967
  56   2.0000      -0.448628       -12.2078
  57   2.0000      -0.445589       -12.1251
  58   2.0000      -0.439147       -11.9498
  59   2.0000      -0.434462       -11.8223
  60   2.0000      -0.427959       -11.6454
  61   2.0000      -0.419281       -11.4092
  62   2.0000      -0.414734       -11.2855
  63   2.0000      -0.407216       -11.0809
  64   2.0000      -0.389586       -10.6012
  65   2.0000      -0.378576       -10.3016
  66   2.0000      -0.368874       -10.0376
  67   2.0000      -0.354149        -9.6369
  68   2.0000      -0.347851        -9.4655
  69   2.0000      -0.345097        -9.3906
  70   2.0000      -0.327533        -8.9126
  71   2.0000      -0.318443        -8.6653
  72   2.0000      -0.312570        -8.5055
  73   2.0000      -0.305215        -8.3053
  74   2.0000      -0.292636        -7.9630
  75   2.0000      -0.289261        -7.8712
  76   2.0000      -0.281531        -7.6608
  77   0.0000      -0.071818        -1.9543
  78   0.0000      -0.013581        -0.3696
  79   0.0000       0.004566         0.1242
  80   0.0000       0.056625         1.5408
  81   0.0000       0.062662         1.7051

MULLIKEN ATOMIC CHARGES
-----------------------
   0 Pd:    0.559476
   1 O :   -0.500108
   2 C :    0.613269
   3 O :   -0.471985
   4 C :   -0.756587
   5 H :    0.243341
   6 H :    0.253521
   7 H :    0.248360
   8 N :   -0.473901
   9 C :   -0.550139
  10 H :    0.307516
  11 H :    0.218410
  12 H :    0.265121
  13 C :   -0.556562
  14 H :    0.264284
  15 H :    0.232294
  16 H :    0.300018
  17 C :    0.149591
  18 C :   -0.283381
  19 C :   -0.180743
  20 C :   -0.269534
  21 C :   -0.190103
  22 C :   -0.293586
  23 H :    0.226450
  24 H :    0.239631
  25 H :    0.222126
  26 H :    0.234720
  27 H :    0.228015
  28 C :   -0.337053
  29 H :    0.249176
  30 H :    0.257904
  31 O :   -0.537295
  32 C :    0.558650
  33 O :   -0.440323
  34 C :   -0.738632
  35 H :    0.231792
  36 H :    0.241691
  37 H :    0.234577
Sum of atomic charges:   -0.0000000

LOEWDIN ATOMIC CHARGES
----------------------
   0 Pd:   -0.213805
   1 O :   -0.138897
   2 C :    0.166068
   3 O :   -0.223387
   4 C :   -0.381334
   5 H :    0.147994
   6 H :    0.159739
   7 H :    0.149017
   8 N :   -0.071235
   9 C :   -0.243270
  10 H :    0.167766
  11 H :    0.116808
  12 H :    0.147667
  13 C :   -0.237515
  14 H :    0.147532
  15 H :    0.122533
  16 H :    0.164250
  17 C :   -0.059022
  18 C :   -0.105099
  19 C :   -0.136789
  20 C :   -0.111625
  21 C :   -0.123039
  22 C :   -0.107337
  23 H :    0.138399
  24 H :    0.151013
  25 H :    0.139487
  26 H :    0.145687
  27 H :    0.155701
  28 C :   -0.098233
  29 H :    0.142130
  30 H :    0.147594
  31 O :   -0.189450
  32 C :    0.130009
  33 O :   -0.243216
  34 C :   -0.386016
  35 H :    0.145863
  36 H :    0.143520
  37 H :    0.140493

  Mayer bond orders larger than 0.100000
B(  0-Pd,  1-O ) :   0.6620 B(  0-Pd,  3-O ) :   0.2698 B(  0-Pd,  8-N ) :   0.4015
B(  0-Pd, 31-O ) :   0.6760 B(  1-O ,  2-C ) :   1.2872 B(  1-O ,  3-O ) :   0.1002
B(  2-C ,  3-O ) :   1.7243 B(  2-C ,  4-C ) :   0.9400 B(  4-C ,  5-H ) :   0.9158
B(  4-C ,  6-H ) :   0.9070 B(  4-C ,  7-H ) :   0.9094 B(  8-N ,  9-C ) :   0.9206
B(  8-N , 13-C ) :   0.9241 B(  8-N , 28-C ) :   0.8749 B(  9-C , 10-H ) :   0.8708
B(  9-C , 11-H ) :   0.9037 B(  9-C , 12-H ) :   0.9061 B( 13-C , 14-H ) :   0.8982
B( 13-C , 15-H ) :   0.9008 B( 13-C , 16-H ) :   0.8889 B( 17-C , 18-C ) :   1.3849
B( 17-C , 22-C ) :   1.3353 B( 17-C , 28-C ) :   0.9305 B( 18-C , 19-C ) :   1.4175
B( 18-C , 21-C ) :   0.1010 B( 18-C , 25-H ) :   0.9154 B( 19-C , 20-C ) :   1.4468
B( 19-C , 26-H ) :   0.9133 B( 20-C , 21-C ) :   1.3728 B( 20-C , 23-H ) :   0.9171
B( 21-C , 22-C ) :   1.4485 B( 21-C , 24-H ) :   0.9145 B( 22-C , 27-H ) :   0.9075
B( 28-C , 29-H ) :   0.8977 B( 28-C , 30-H ) :   0.9142 B( 31-O , 32-C ) :   1.2400
B( 32-C , 33-O ) :   1.8968 B( 32-C , 34-C ) :   0.9196 B( 34-C , 35-H ) :   0.9174
B( 34-C , 36-H ) :   0.9124 B( 34-C , 37-H ) :   0.9206

Dispersion correction           -0.026122447
FINAL SINGLE POINT ENERGY      -988.492796055728
Dispersion correction            ... done

DIPOLE MOMENT
-------------
                                X             Y             Z
Electronic contribution:     20.65501      14.68415     -17.64084
Nuclear contribution   :    -22.35141     -15.45145      18.72531
                        -----------------------------------------
Total Dipole Moment    :     -1.69640      -0.76730       1.08447
                        -----------------------------------------
Magnitude (a.u.)       :      2.15467
Magnitude (Debye)      :      5.47674

Rotational constants in cm-1:     0.014071     0.008519     0.006795
Rotational constants in MHz :   421.824441   255.386045   203.709453

                             ****ORCA TERMINATED NORMALLY****
TOTAL RUN TIME: 0 days 0 hours 8 minutes 34 seconds 880 msec
