                         Program Version 5.0.3 -  RELEASE  -
|  1> ! EnGrad PBEh-3c
|  2> %output
|  3> xyzfile=True
|  4> end
|  5> %scf
|  6> maxiter 250
|  7> end
|  8> %output
|  9> Print[P_Hirshfeld] = 1
| 10> end
| 11> % maxcore
| 12> 4000
| 13> *xyz 0 1
| 14> Pd   0.53441825   0.46226467  -0.42554047
| 15> O    2.10158840   1.38868965   0.49070824
| 16> C    1.59469313   2.67911026   0.28122191
| 17> O    0.55077458   2.80029503  -0.11154553
| 18> C    2.59181412   3.80647391   0.56779479
| 19> H    2.01863382   4.61605867   1.02780867
| 20> H    2.97602829   4.16822743  -0.37883179
| 21> H    3.42052710   3.53970636   1.20570022
| 22> N   -1.30975818  -0.51738150  -1.16270959
| 23> C   -1.26541745  -1.32795416  -2.37853064
| 24> H   -0.91694993  -0.73941485  -3.20621362
| 25> H   -2.28691681  -1.64617049  -2.62916355
| 26> H   -0.64801624  -2.19251996  -2.26085167
| 27> C   -2.18288677   0.63902935  -1.43939607
| 28> H   -2.26336550   1.31137312  -0.62228745
| 29> H   -3.18846057   0.28841286  -1.69886436
| 30> H   -1.77674481   1.17063644  -2.29354720
| 31> C   -1.47513492  -0.96255592   1.32602384
| 32> C   -0.63856333  -1.87679080   2.09419706
| 33> C   -0.49922410  -1.74931079   3.44286099
| 34> C   -1.19174478  -0.79761804   4.12260093
| 35> C   -2.09042983   0.05022052   3.41787761
| 36> C   -2.05395836   0.03953741   2.09666403
| 37> H   -1.09267557  -0.67902795   5.20051118
| 38> H   -2.84013502   0.52625600   4.00517322
| 39> H   -0.14768646  -2.69281026   1.58892397
| 40> H    0.08498688  -2.48288988   3.99928256
| 41> H   -2.63881261   2.64305227   1.97015043
| 42> C   -1.87562673  -1.36471824  -0.03529393
| 43> H   -2.97314167  -1.32292161  -0.07131715
| 44> H   -1.64270998  -2.40564138  -0.22516829
| 45> O    1.85442152  -0.86267590  -1.11838015
| 46> C    2.25036088  -0.62582533  -2.37769982
| 47> O    1.69096764   0.02438185  -3.17494492
| 48> C    3.58477019  -1.34941119  -2.72436660
| 49> H    3.47569259  -2.42316433  -2.68153813
| 50> H    4.37159920  -1.05462554  -2.06917014
| 51> H    3.89806650  -1.08299450  -3.75108119
| 52> *
| 53>
| 54>                          ****END OF INPUT****

CARTESIAN COORDINATES (ANGSTROEM)
---------------------------------
  Pd     0.534418    0.462265   -0.425540
  O      2.101588    1.388690    0.490708
  C      1.594693    2.679110    0.281222
  O      0.550775    2.800295   -0.111546
  C      2.591814    3.806474    0.567795
  H      2.018634    4.616059    1.027809
  H      2.976028    4.168227   -0.378832
  H      3.420527    3.539706    1.205700
  N     -1.309758   -0.517382   -1.162710
  C     -1.265417   -1.327954   -2.378531
  H     -0.916950   -0.739415   -3.206214
  H     -2.286917   -1.646170   -2.629164
  H     -0.648016   -2.192520   -2.260852
  C     -2.182887    0.639029   -1.439396
  H     -2.263365    1.311373   -0.622287
  H     -3.188461    0.288413   -1.698864
  H     -1.776745    1.170636   -2.293547
  C     -1.475135   -0.962556    1.326024
  C     -0.638563   -1.876791    2.094197
  C     -0.499224   -1.749311    3.442861
  C     -1.191745   -0.797618    4.122601
  C     -2.090430    0.050221    3.417878
  C     -2.053958    0.039537    2.096664
  H     -1.092676   -0.679028    5.200511
  H     -2.840135    0.526256    4.005173
  H     -0.147686   -2.692810    1.588924
  H      0.084987   -2.482890    3.999283
  H     -2.638813    2.643052    1.970150
  C     -1.875627   -1.364718   -0.035294
  H     -2.973142   -1.322922   -0.071317
  H     -1.642710   -2.405641   -0.225168
  O      1.854422   -0.862676   -1.118380
  C      2.250361   -0.625825   -2.377700
  O      1.690968    0.024382   -3.174945
  C      3.584770   -1.349411   -2.724367
  H      3.475693   -2.423164   -2.681538
  H      4.371599   -1.054626   -2.069170
  H      3.898067   -1.082995   -3.751081

 Total Charge           Charge          ....    0
 Multiplicity           Mult            ....    1
 Number of Electrons    NEL             ....  154
 Basis Dimension        Dim             ....  339

ORBITAL ENERGIES
----------------

  NO   OCC          E(Eh)            E(eV)
   0   2.0000     -19.493735      -530.4515
   1   2.0000     -19.470888      -529.8298
   2   2.0000     -19.469986      -529.8053
   3   2.0000     -19.441284      -529.0242
   4   2.0000     -14.717965      -400.4962
   5   2.0000     -10.555164      -287.2206
   6   2.0000     -10.532105      -286.5931
   7   2.0000     -10.525110      -286.4028
   8   2.0000     -10.511610      -286.0355
   9   2.0000     -10.504821      -285.8507
  10   2.0000     -10.482751      -285.2502
  11   2.0000     -10.479732      -285.1680
  12   2.0000     -10.477805      -285.1156
  13   2.0000     -10.475204      -285.0448
  14   2.0000     -10.475184      -285.0442
  15   2.0000     -10.466605      -284.8108
  16   2.0000     -10.430586      -283.8307
  17   2.0000     -10.410983      -283.2972
  18   2.0000      -3.651276       -99.3563
  19   2.0000      -2.300209       -62.5919
  20   2.0000      -2.294250       -62.4297
  21   2.0000      -2.262130       -61.5557
  22   2.0000      -1.231489       -33.5105
  23   2.0000      -1.158644       -31.5283
  24   2.0000      -1.072701       -29.1897
  25   2.0000      -1.050484       -28.5851
  26   2.0000      -1.040052       -28.3012
  27   2.0000      -0.994854       -27.0714
  28   2.0000      -0.898578       -24.4516
  29   2.0000      -0.870452       -23.6862
  30   2.0000      -0.822037       -22.3688
  31   2.0000      -0.814506       -22.1638
  32   2.0000      -0.809169       -22.0186
  33   2.0000      -0.786433       -21.3999
  34   2.0000      -0.726414       -19.7667
  35   2.0000      -0.706800       -19.2330
  36   2.0000      -0.677884       -18.4462
  37   2.0000      -0.605381       -16.4732
  38   2.0000      -0.597097       -16.2478
  39   2.0000      -0.581253       -15.8167
  40   2.0000      -0.578034       -15.7291
  41   2.0000      -0.576888       -15.6979
  42   2.0000      -0.562702       -15.3119
  43   2.0000      -0.544744       -14.8232
  44   2.0000      -0.541156       -14.7256
  45   2.0000      -0.530587       -14.4380
  46   2.0000      -0.526110       -14.3162
  47   2.0000      -0.524818       -14.2810
  48   2.0000      -0.507786       -13.8176
  49   2.0000      -0.499908       -13.6032
  50   2.0000      -0.493172       -13.4199
  51   2.0000      -0.490039       -13.3346
  52   2.0000      -0.482604       -13.1323
  53   2.0000      -0.471531       -12.8310
  54   2.0000      -0.462192       -12.5769
  55   2.0000      -0.453412       -12.3380
  56   2.0000      -0.451764       -12.2931
  57   2.0000      -0.445251       -12.1159
  58   2.0000      -0.442049       -12.0288
  59   2.0000      -0.441141       -12.0040
  60   2.0000      -0.438043       -11.9198
  61   2.0000      -0.425358       -11.5746
  62   2.0000      -0.418785       -11.3957
  63   2.0000      -0.398489       -10.8434
  64   2.0000      -0.376196       -10.2368
  65   2.0000      -0.367081        -9.9888
  66   2.0000      -0.350842        -9.5469
  67   2.0000      -0.342859        -9.3297
  68   2.0000      -0.338252        -9.2043
  69   2.0000      -0.332849        -9.0573
  70   2.0000      -0.319416        -8.6917
  71   2.0000      -0.306040        -8.3278
  72   2.0000      -0.300816        -8.1856
  73   2.0000      -0.291515        -7.9325
  74   2.0000      -0.289589        -7.8801
  75   2.0000      -0.275486        -7.4963
  76   2.0000      -0.267069        -7.2673
  77   0.0000      -0.133562        -3.6344
  78   0.0000      -0.062972        -1.7135
  79   0.0000      -0.028268        -0.7692
  80   0.0000       0.000957         0.0260
  81   0.0000       0.066538         1.8106

MULLIKEN ATOMIC CHARGES
-----------------------
   0 Pd:    0.470772
   1 O :   -0.547045
   2 C :    0.594680
   3 O :   -0.352355
   4 C :   -0.760037
   5 H :    0.234648
   6 H :    0.254760
   7 H :    0.260752
   8 N :   -0.475278
   9 C :   -0.526640
  10 H :    0.290723
  11 H :    0.211472
  12 H :    0.267071
  13 C :   -0.554690
  14 H :    0.293834
  15 H :    0.225114
  16 H :    0.280811
  17 C :   -0.035557
  18 C :   -0.228857
  19 C :   -0.183084
  20 C :   -0.238841
  21 C :   -0.240571
  22 C :    0.024914
  23 H :    0.244685
  24 H :    0.261511
  25 H :    0.250673
  26 H :    0.237359
  27 H :   -0.023056
  28 C :   -0.316832
  29 H :    0.249690
  30 H :    0.266229
  31 O :   -0.552945
  32 C :    0.552179
  33 O :   -0.402966
  34 C :   -0.742831
  35 H :    0.230230
  36 H :    0.252142
  37 H :    0.227333
Sum of atomic charges:    0.0000000

LOEWDIN ATOMIC CHARGES
----------------------
   0 Pd:   -0.274636
   1 O :   -0.240448
   2 C :    0.154776
   3 O :   -0.070450
   4 C :   -0.383733
   5 H :    0.146188
   6 H :    0.158521
   7 H :    0.152666
   8 N :   -0.070732
   9 C :   -0.238132
  10 H :    0.159392
  11 H :    0.115906
  12 H :    0.146411
  13 C :   -0.240300
  14 H :    0.158497
  15 H :    0.122173
  16 H :    0.157879
  17 C :   -0.061184
  18 C :   -0.086312
  19 C :   -0.131934
  20 C :   -0.111633
  21 C :   -0.141609
  22 C :    0.029638
  23 H :    0.147396
  24 H :    0.158483
  25 H :    0.157102
  26 H :    0.148769
  27 H :   -0.023325
  28 C :   -0.099134
  29 H :    0.144259
  30 H :    0.152859
  31 O :   -0.206438
  32 C :    0.131250
  33 O :   -0.199547
  34 C :   -0.389131
  35 H :    0.141416
  36 H :    0.148051
  37 H :    0.137045

  Mayer bond orders larger than 0.100000
B(  0-Pd,  1-O ) :   0.7343 B(  0-Pd,  3-O ) :   0.2592 B(  0-Pd,  8-N ) :   0.3722
B(  0-Pd, 31-O ) :   0.7052 B(  1-O ,  2-C ) :   1.1521 B(  2-C ,  3-O ) :   1.8669
B(  2-C ,  4-C ) :   0.9371 B(  4-C ,  5-H ) :   0.9144 B(  4-C ,  6-H ) :   0.9076
B(  4-C ,  7-H ) :   0.9093 B(  8-N ,  9-C ) :   0.9293 B(  8-N , 13-C ) :   0.9211
B(  8-N , 28-C ) :   0.8937 B(  9-C , 10-H ) :   0.8906 B(  9-C , 11-H ) :   0.9051
B(  9-C , 12-H ) :   0.9068 B( 13-C , 14-H ) :   0.8778 B( 13-C , 15-H ) :   0.9051
B( 13-C , 16-H ) :   0.8961 B( 17-C , 18-C ) :   1.3752 B( 17-C , 20-C ) :   0.1053
B( 17-C , 22-C ) :   1.4125 B( 17-C , 28-C ) :   0.9523 B( 18-C , 19-C ) :   1.4403
B( 18-C , 25-H ) :   0.8992 B( 19-C , 20-C ) :   1.4389 B( 19-C , 26-H ) :   0.9101
B( 20-C , 21-C ) :   1.3594 B( 20-C , 23-H ) :   0.9055 B( 21-C , 22-C ) :   1.5066
B( 21-C , 24-H ) :   0.8978 B( 22-C , 27-H ) :   0.7585 B( 28-C , 29-H ) :   0.8958
B( 28-C , 30-H ) :   0.9103 B( 31-O , 32-C ) :   1.1953 B( 32-C , 33-O ) :   1.9487
B( 32-C , 34-C ) :   0.9197 B( 34-C , 35-H ) :   0.9180 B( 34-C , 36-H ) :   0.9095
B( 34-C , 37-H ) :   0.9242

Dispersion correction           -0.025751577
FINAL SINGLE POINT ENERGY      -988.238613065639
Dispersion correction            ... done

DIPOLE MOMENT
-------------
                                X             Y             Z
Electronic contribution:     22.52314      21.77603     -20.91427
Nuclear contribution   :    -24.43835     -22.86226      21.94486
                        -----------------------------------------
Total Dipole Moment    :     -1.91521      -1.08623       1.03059
                        -----------------------------------------
Magnitude (a.u.)       :      2.43106
Magnitude (Debye)      :      6.17927

Rotational constants in cm-1:     0.013319     0.008326     0.006928
Rotational constants in MHz :   399.301510   249.608657   207.682621

                             ****ORCA TERMINATED NORMALLY****
TOTAL RUN TIME: 0 days 0 hours 9 minutes 50 seconds 236 msec
