                         Program Version 5.0.3 -  RELEASE  -
|  1> ! EnGrad PBEh-3c
|  2> %output
|  3> xyzfile=True
|  4> end
|  5> %scf
|  6> maxiter 250
|  7> end
|  8> %output
|  9> Print[P_Hirshfeld] = 1
| 10> end
| 11> % maxcore
| 12> 4000
| 13> *xyz 0 1
| 14> Pd   0.48208920   0.32644993  -0.37086064
| 15> O    1.98819514   1.31114633   0.37132101
| 16> C    1.59726563   2.53139638   0.29679358
| 17> O    0.44670959   2.79755219  -0.06028225
| 18> C    2.62243825   3.60981996   0.59176971
| 19> H    2.18141043   4.51483956   1.03128775
| 20> H    3.10784857   3.89457760  -0.35229985
| 21> H    3.40185972   3.22665841   1.24962572
| 22> N   -1.32700364  -0.64310633  -1.08867839
| 23> C   -1.15127095  -1.73332176  -2.07356342
| 24> H   -0.64716803  -1.37135430  -2.96213101
| 25> H   -2.11917331  -2.13278815  -2.37415874
| 26> H   -0.57510231  -2.55567342  -1.65926714
| 27> C   -2.10512600   0.43501457  -1.71045079
| 28> H   -2.28742482   1.23095367  -0.99245089
| 29> H   -3.08827627   0.06663893  -2.00249636
| 30> H   -1.60421423   0.85591919  -2.57606128
| 31> C   -1.63516493  -0.78466061   1.47610673
| 32> C   -1.27508109  -1.89986215   2.20703074
| 33> C   -1.00270585  -1.84028606   3.56512239
| 34> C   -1.18380138  -0.60169083   4.17989192
| 35> C   -1.47231729   0.57217020   3.47252980
| 36> C   -1.68791734   0.42847918   2.12081214
| 37> H   -1.04791511  -0.61662367   5.25926420
| 38> H   -1.54824674   1.51433475   3.98452469
| 39> H   -1.18687233  -2.88163730   1.72145319
| 40> H   -0.60735193  -2.73079837   4.08405509
| 41> H   -1.86421351   1.43305369   1.42912641
| 42> C   -2.10873868  -1.13992370   0.08012188
| 43> H   -3.14144478  -0.82163874  -0.03572973
| 44> H   -2.13615504  -2.23573259  -0.00979522
| 45> O    1.91900967  -0.79003011  -1.21895733
| 46> C    2.17670292  -0.49998029  -2.46093546
| 47> O    1.37316041  -0.10467397  -3.27753661
| 48> C    3.61862191  -0.78823016  -2.89583663
| 49> H    3.74999073  -1.86145384  -3.08359861
| 50> H    4.32209203  -0.50971110  -2.10919036
| 51> H    3.88334237  -0.24821396  -3.81005694
| 52> *
| 53>
| 54>                          ****END OF INPUT****

CARTESIAN COORDINATES (ANGSTROEM)
---------------------------------
  Pd     0.482089    0.326450   -0.370861
  O      1.988195    1.311146    0.371321
  C      1.597266    2.531396    0.296794
  O      0.446710    2.797552   -0.060282
  C      2.622438    3.609820    0.591770
  H      2.181410    4.514840    1.031288
  H      3.107849    3.894578   -0.352300
  H      3.401860    3.226658    1.249626
  N     -1.327004   -0.643106   -1.088678
  C     -1.151271   -1.733322   -2.073563
  H     -0.647168   -1.371354   -2.962131
  H     -2.119173   -2.132788   -2.374159
  H     -0.575102   -2.555673   -1.659267
  C     -2.105126    0.435015   -1.710451
  H     -2.287425    1.230954   -0.992451
  H     -3.088276    0.066639   -2.002496
  H     -1.604214    0.855919   -2.576061
  C     -1.635165   -0.784661    1.476107
  C     -1.275081   -1.899862    2.207031
  C     -1.002706   -1.840286    3.565122
  C     -1.183801   -0.601691    4.179892
  C     -1.472317    0.572170    3.472530
  C     -1.687917    0.428479    2.120812
  H     -1.047915   -0.616624    5.259264
  H     -1.548247    1.514335    3.984525
  H     -1.186872   -2.881637    1.721453
  H     -0.607352   -2.730798    4.084055
  H     -1.864214    1.433054    1.429126
  C     -2.108739   -1.139924    0.080122
  H     -3.141445   -0.821639   -0.035730
  H     -2.136155   -2.235733   -0.009795
  O      1.919010   -0.790030   -1.218957
  C      2.176703   -0.499980   -2.460935
  O      1.373160   -0.104674   -3.277537
  C      3.618622   -0.788230   -2.895837
  H      3.749991   -1.861454   -3.083599
  H      4.322092   -0.509711   -2.109190
  H      3.883342   -0.248214   -3.810057

 Total Charge           Charge          ....    0
 Multiplicity           Mult            ....    1
 Number of Electrons    NEL             ....  154
 Basis Dimension        Dim             ....  339

ORBITAL ENERGIES
----------------

  NO   OCC          E(Eh)            E(eV)
   0   2.0000     -19.497714      -530.5598
   1   2.0000     -19.474378      -529.9248
   2   2.0000     -19.468720      -529.7708
   3   2.0000     -19.432293      -528.7796
   4   2.0000     -14.720531      -400.5660
   5   2.0000     -10.557765      -287.2914
   6   2.0000     -10.531934      -286.5885
   7   2.0000     -10.505684      -285.8742
   8   2.0000     -10.483722      -285.2766
   9   2.0000     -10.483217      -285.2628
  10   2.0000     -10.479605      -285.1645
  11   2.0000     -10.474947      -285.0378
  12   2.0000     -10.469268      -284.8833
  13   2.0000     -10.467936      -284.8470
  14   2.0000     -10.466353      -284.8040
  15   2.0000     -10.465604      -284.7836
  16   2.0000     -10.434395      -283.9343
  17   2.0000     -10.413684      -283.3708
  18   2.0000      -3.663330       -99.6843
  19   2.0000      -2.315897       -63.0188
  20   2.0000      -2.303284       -62.6755
  21   2.0000      -2.274063       -61.8804
  22   2.0000      -1.186091       -32.2752
  23   2.0000      -1.147780       -31.2327
  24   2.0000      -1.077876       -29.3305
  25   2.0000      -1.075249       -29.2590
  26   2.0000      -1.052645       -28.6439
  27   2.0000      -0.983168       -26.7534
  28   2.0000      -0.886807       -24.1313
  29   2.0000      -0.857516       -23.3342
  30   2.0000      -0.822659       -22.3857
  31   2.0000      -0.815861       -22.2007
  32   2.0000      -0.802802       -21.8453
  33   2.0000      -0.788363       -21.4525
  34   2.0000      -0.721699       -19.6384
  35   2.0000      -0.703059       -19.1312
  36   2.0000      -0.678161       -18.4537
  37   2.0000      -0.612354       -16.6630
  38   2.0000      -0.602726       -16.4010
  39   2.0000      -0.583236       -15.8707
  40   2.0000      -0.573028       -15.5929
  41   2.0000      -0.572120       -15.5682
  42   2.0000      -0.558445       -15.1961
  43   2.0000      -0.536666       -14.6034
  44   2.0000      -0.533482       -14.5168
  45   2.0000      -0.528078       -14.3697
  46   2.0000      -0.525042       -14.2871
  47   2.0000      -0.515770       -14.0348
  48   2.0000      -0.505336       -13.7509
  49   2.0000      -0.500147       -13.6097
  50   2.0000      -0.492536       -13.4026
  51   2.0000      -0.490696       -13.3525
  52   2.0000      -0.487912       -13.2768
  53   2.0000      -0.481667       -13.1068
  54   2.0000      -0.458130       -12.4664
  55   2.0000      -0.450982       -12.2718
  56   2.0000      -0.448389       -12.2013
  57   2.0000      -0.444642       -12.0993
  58   2.0000      -0.438524       -11.9329
  59   2.0000      -0.433205       -11.7881
  60   2.0000      -0.427732       -11.6392
  61   2.0000      -0.416785       -11.3413
  62   2.0000      -0.415101       -11.2955
  63   2.0000      -0.407907       -11.0997
  64   2.0000      -0.397927       -10.8281
  65   2.0000      -0.377756       -10.2793
  66   2.0000      -0.368119       -10.0170
  67   2.0000      -0.354908        -9.6575
  68   2.0000      -0.347796        -9.4640
  69   2.0000      -0.345330        -9.3969
  70   2.0000      -0.324622        -8.8334
  71   2.0000      -0.316368        -8.6088
  72   2.0000      -0.313895        -8.5415
  73   2.0000      -0.305776        -8.3206
  74   2.0000      -0.295963        -8.0536
  75   2.0000      -0.288474        -7.8498
  76   2.0000      -0.279669        -7.6102
  77   0.0000      -0.073005        -1.9866
  78   0.0000      -0.007782        -0.2118
  79   0.0000      -0.000207        -0.0056
  80   0.0000       0.056392         1.5345
  81   0.0000       0.063134         1.7180

MULLIKEN ATOMIC CHARGES
-----------------------
   0 Pd:    0.564923
   1 O :   -0.497636
   2 C :    0.615446
   3 O :   -0.476283
   4 C :   -0.759371
   5 H :    0.244301
   6 H :    0.254494
   7 H :    0.249264
   8 N :   -0.475625
   9 C :   -0.548846
  10 H :    0.308175
  11 H :    0.218248
  12 H :    0.265037
  13 C :   -0.555106
  14 H :    0.264242
  15 H :    0.232271
  16 H :    0.301351
  17 C :    0.168748
  18 C :   -0.288255
  19 C :   -0.186572
  20 C :   -0.262245
  21 C :   -0.177340
  22 C :   -0.321051
  23 H :    0.226414
  24 H :    0.239660
  25 H :    0.220139
  26 H :    0.234760
  27 H :    0.229197
  28 C :   -0.339094
  29 H :    0.252095
  30 H :    0.255093
  31 O :   -0.531925
  32 C :    0.561871
  33 O :   -0.458865
  34 C :   -0.739457
  35 H :    0.232476
  36 H :    0.241334
  37 H :    0.238132
Sum of atomic charges:    0.0000000

LOEWDIN ATOMIC CHARGES
----------------------
   0 Pd:   -0.210286
   1 O :   -0.137574
   2 C :    0.162682
   3 O :   -0.226544
   4 C :   -0.380694
   5 H :    0.148301
   6 H :    0.160511
   7 H :    0.149711
   8 N :   -0.067575
   9 C :   -0.242389
  10 H :    0.168712
  11 H :    0.117301
  12 H :    0.147794
  13 C :   -0.235880
  14 H :    0.147962
  15 H :    0.123248
  16 H :    0.165009
  17 C :   -0.064976
  18 C :   -0.109230
  19 C :   -0.130603
  20 C :   -0.115344
  21 C :   -0.125742
  22 C :   -0.098964
  23 H :    0.138345
  24 H :    0.149885
  25 H :    0.138658
  26 H :    0.145742
  27 H :    0.156349
  28 C :   -0.099876
  29 H :    0.143759
  30 H :    0.146835
  31 O :   -0.180263
  32 C :    0.129706
  33 O :   -0.262897
  34 C :   -0.383903
  35 H :    0.146378
  36 H :    0.144029
  37 H :    0.141822

  Mayer bond orders larger than 0.100000
B(  0-Pd,  1-O ) :   0.6587 B(  0-Pd,  3-O ) :   0.2744 B(  0-Pd,  8-N ) :   0.4048
B(  0-Pd, 31-O ) :   0.6655 B(  1-O ,  2-C ) :   1.2955 B(  2-C ,  3-O ) :   1.7177
B(  2-C ,  4-C ) :   0.9422 B(  4-C ,  5-H ) :   0.9153 B(  4-C ,  6-H ) :   0.9064
B(  4-C ,  7-H ) :   0.9092 B(  8-N ,  9-C ) :   0.9179 B(  8-N , 13-C ) :   0.9216
B(  8-N , 28-C ) :   0.8783 B(  9-C , 10-H ) :   0.8692 B(  9-C , 11-H ) :   0.9037
B(  9-C , 12-H ) :   0.9058 B( 13-C , 14-H ) :   0.8980 B( 13-C , 15-H ) :   0.9009
B( 13-C , 16-H ) :   0.8882 B( 17-C , 18-C ) :   1.3889 B( 17-C , 22-C ) :   1.3375
B( 17-C , 28-C ) :   0.9286 B( 18-C , 19-C ) :   1.4330 B( 18-C , 25-H ) :   0.9159
B( 19-C , 20-C ) :   1.4248 B( 19-C , 26-H ) :   0.9138 B( 20-C , 21-C ) :   1.4060
B( 20-C , 23-H ) :   0.9169 B( 21-C , 22-C ) :   1.4265 B( 21-C , 24-H ) :   0.9142
B( 22-C , 27-H ) :   0.9089 B( 28-C , 29-H ) :   0.8968 B( 28-C , 30-H ) :   0.9156
B( 31-O , 32-C ) :   1.2596 B( 32-C , 33-O ) :   1.8726 B( 32-C , 34-C ) :   0.9239
B( 34-C , 35-H ) :   0.9165 B( 34-C , 36-H ) :   0.9124 B( 34-C , 37-H ) :   0.9196

Dispersion correction           -0.026147651
FINAL SINGLE POINT ENERGY      -988.507352425426
Dispersion correction            ... done

DIPOLE MOMENT
-------------
                                X             Y             Z
Electronic contribution:     20.63383      14.55249     -17.93638
Nuclear contribution   :    -22.31144     -15.32392      19.04555
                        -----------------------------------------
Total Dipole Moment    :     -1.67761      -0.77144       1.10917
                        -----------------------------------------
Magnitude (a.u.)       :      2.15401
Magnitude (Debye)      :      5.47506

Rotational constants in cm-1:     0.014086     0.008521     0.006796
Rotational constants in MHz :   422.289220   255.450108   203.752064

                             ****ORCA TERMINATED NORMALLY****
TOTAL RUN TIME: 0 days 0 hours 13 minutes 35 seconds 286 msec
