                         Program Version 5.0.3 -  RELEASE  -
|  1> ! EnGrad PBEh-3c
|  2> %output
|  3> xyzfile=True
|  4> end
|  5> %scf
|  6> maxiter 250
|  7> end
|  8> %output
|  9> Print[P_Hirshfeld] = 1
| 10> end
| 11> % maxcore
| 12> 4000
| 13> *xyz 0 1
| 14> Pd   0.48210752   0.32563301  -0.37788921
| 15> O    1.99102605   1.31591467   0.35853171
| 16> C    1.59943726   2.53286743   0.30028498
| 17> O    0.43790467   2.78145392  -0.04193799
| 18> C    2.61829513   3.59515984   0.58816231
| 19> H    2.18104646   4.49731433   1.02368191
| 20> H    3.10679724   3.88870145  -0.34976592
| 21> H    3.39736945   3.22113668   1.25017597
| 22> N   -1.32194234  -0.63293460  -1.08376625
| 23> C   -1.14840038  -1.73803778  -2.06617482
| 24> H   -0.64031004  -1.37428675  -2.96103768
| 25> H   -2.12725929  -2.13608028  -2.36883536
| 26> H   -0.56447326  -2.55798300  -1.64078540
| 27> C   -2.10846729   0.44285560  -1.71851994
| 28> H   -2.28703522   1.24100068  -0.99597823
| 29> H   -3.09202290   0.05676507  -2.01525661
| 30> H   -1.59490534   0.85679626  -2.58468370
| 31> C   -1.62705959  -0.84991191   1.45946129
| 32> C   -1.28610272  -1.90430866   2.21766176
| 33> C   -1.00885507  -1.80446844   3.54649964
| 34> C   -1.17847340  -0.58176694   4.19506746
| 35> C   -1.44266466   0.53829821   3.51776938
| 36> C   -1.66655922   0.40596139   2.10471542
| 37> H   -1.05600574  -0.58702503   5.23588552
| 38> H   -1.51803472   1.52162388   3.98005155
| 39> H   -1.20697917  -2.83245241   1.73401973
| 40> H   -0.65108915  -2.69896584   4.07582661
| 41> H   -1.84485156   1.35747320   1.42083081
| 42> C   -2.10928053  -1.12656750   0.06951975
| 43> H   -3.15030421  -0.81593599  -0.03295224
| 44> H   -2.14038646  -2.21832381   0.01785318
| 45> O    1.91315868  -0.79404499  -1.23687666
| 46> C    2.18087385  -0.51209045  -2.46549428
| 47> O    1.36503131  -0.08652596  -3.27456457
| 48> C    3.61239441  -0.77982255  -2.88886982
| 49> H    3.75174295  -1.84624382  -3.08731083
| 50> H    4.32439767  -0.50082072  -2.11096865
| 51> H    3.88343230  -0.24746349  -3.79923103
| 52> *
| 53>
| 54>                          ****END OF INPUT****

CARTESIAN COORDINATES (ANGSTROEM)
---------------------------------
  Pd     0.482108    0.325633   -0.377889
  O      1.991026    1.315915    0.358532
  C      1.599437    2.532867    0.300285
  O      0.437905    2.781454   -0.041938
  C      2.618295    3.595160    0.588162
  H      2.181046    4.497314    1.023682
  H      3.106797    3.888701   -0.349766
  H      3.397369    3.221137    1.250176
  N     -1.321942   -0.632935   -1.083766
  C     -1.148400   -1.738038   -2.066175
  H     -0.640310   -1.374287   -2.961038
  H     -2.127259   -2.136080   -2.368835
  H     -0.564473   -2.557983   -1.640785
  C     -2.108467    0.442856   -1.718520
  H     -2.287035    1.241001   -0.995978
  H     -3.092023    0.056765   -2.015257
  H     -1.594905    0.856796   -2.584684
  C     -1.627060   -0.849912    1.459461
  C     -1.286103   -1.904309    2.217662
  C     -1.008855   -1.804468    3.546500
  C     -1.178473   -0.581767    4.195067
  C     -1.442665    0.538298    3.517769
  C     -1.666559    0.405961    2.104715
  H     -1.056006   -0.587025    5.235886
  H     -1.518035    1.521624    3.980052
  H     -1.206979   -2.832452    1.734020
  H     -0.651089   -2.698966    4.075827
  H     -1.844852    1.357473    1.420831
  C     -2.109281   -1.126567    0.069520
  H     -3.150304   -0.815936   -0.032952
  H     -2.140386   -2.218324    0.017853
  O      1.913159   -0.794045   -1.236877
  C      2.180874   -0.512090   -2.465494
  O      1.365031   -0.086526   -3.274565
  C      3.612394   -0.779823   -2.888870
  H      3.751743   -1.846244   -3.087311
  H      4.324398   -0.500821   -2.110969
  H      3.883432   -0.247463   -3.799231

 Total Charge           Charge          ....    0
 Multiplicity           Mult            ....    1
 Number of Electrons    NEL             ....  154
 Basis Dimension        Dim             ....  339

ORBITAL ENERGIES
----------------

  NO   OCC          E(Eh)            E(eV)
   0   2.0000     -19.496844      -530.5361
   1   2.0000     -19.473291      -529.8952
   2   2.0000     -19.468577      -529.7669
   3   2.0000     -19.427648      -528.6532
   4   2.0000     -14.722784      -400.6273
   5   2.0000     -10.557067      -287.2724
   6   2.0000     -10.530016      -286.5363
   7   2.0000     -10.503236      -285.8076
   8   2.0000     -10.486705      -285.3577
   9   2.0000     -10.483368      -285.2669
  10   2.0000     -10.478098      -285.1235
  11   2.0000     -10.475509      -285.0531
  12   2.0000     -10.467568      -284.8370
  13   2.0000     -10.461549      -284.6732
  14   2.0000     -10.456773      -284.5432
  15   2.0000     -10.453103      -284.4434
  16   2.0000     -10.433903      -283.9209
  17   2.0000     -10.412587      -283.3409
  18   2.0000      -3.663700       -99.6944
  19   2.0000      -2.316444       -63.0337
  20   2.0000      -2.303401       -62.6787
  21   2.0000      -2.274340       -61.8879
  22   2.0000      -1.187619       -32.3167
  23   2.0000      -1.146354       -31.1939
  24   2.0000      -1.078019       -29.3344
  25   2.0000      -1.074293       -29.2330
  26   2.0000      -1.047884       -28.5144
  27   2.0000      -0.985643       -26.8207
  28   2.0000      -0.896131       -24.3850
  29   2.0000      -0.851288       -23.1647
  30   2.0000      -0.821187       -22.3456
  31   2.0000      -0.820749       -22.3337
  32   2.0000      -0.805473       -21.9180
  33   2.0000      -0.792536       -21.5660
  34   2.0000      -0.724915       -19.7259
  35   2.0000      -0.704141       -19.1607
  36   2.0000      -0.678623       -18.4663
  37   2.0000      -0.614580       -16.7236
  38   2.0000      -0.606136       -16.4938
  39   2.0000      -0.585221       -15.9247
  40   2.0000      -0.573838       -15.6149
  41   2.0000      -0.571473       -15.5506
  42   2.0000      -0.564476       -15.3602
  43   2.0000      -0.538125       -14.6431
  44   2.0000      -0.532342       -14.4858
  45   2.0000      -0.529543       -14.4096
  46   2.0000      -0.526411       -14.3244
  47   2.0000      -0.517558       -14.0835
  48   2.0000      -0.505646       -13.7593
  49   2.0000      -0.503992       -13.7143
  50   2.0000      -0.492221       -13.3940
  51   2.0000      -0.488802       -13.3010
  52   2.0000      -0.484684       -13.1889
  53   2.0000      -0.481374       -13.0989
  54   2.0000      -0.460109       -12.5202
  55   2.0000      -0.450588       -12.2611
  56   2.0000      -0.448761       -12.2114
  57   2.0000      -0.444703       -12.1010
  58   2.0000      -0.438774       -11.9396
  59   2.0000      -0.434592       -11.8258
  60   2.0000      -0.426627       -11.6091
  61   2.0000      -0.416388       -11.3305
  62   2.0000      -0.413608       -11.2549
  63   2.0000      -0.409204       -11.1350
  64   2.0000      -0.405651       -11.0383
  65   2.0000      -0.377905       -10.2833
  66   2.0000      -0.366328        -9.9683
  67   2.0000      -0.356125        -9.6907
  68   2.0000      -0.347953        -9.4683
  69   2.0000      -0.345037        -9.3889
  70   2.0000      -0.326756        -8.8915
  71   2.0000      -0.317331        -8.6350
  72   2.0000      -0.314202        -8.5499
  73   2.0000      -0.302079        -8.2200
  74   2.0000      -0.294597        -8.0164
  75   2.0000      -0.287475        -7.8226
  76   2.0000      -0.276861        -7.5338
  77   0.0000      -0.073144        -1.9903
  78   0.0000      -0.012155        -0.3307
  79   0.0000       0.008251         0.2245
  80   0.0000       0.056493         1.5372
  81   0.0000       0.063849         1.7374

MULLIKEN ATOMIC CHARGES
-----------------------
   0 Pd:    0.571096
   1 O :   -0.496754
   2 C :    0.619908
   3 O :   -0.480318
   4 C :   -0.764301
   5 H :    0.246145
   6 H :    0.256905
   7 H :    0.251415
   8 N :   -0.479238
   9 C :   -0.543919
  10 H :    0.307403
  11 H :    0.217349
  12 H :    0.264402
  13 C :   -0.550136
  14 H :    0.264150
  15 H :    0.231056
  16 H :    0.302391
  17 C :    0.153026
  18 C :   -0.271733
  19 C :   -0.201538
  20 C :   -0.231001
  21 C :   -0.186395
  22 C :   -0.331212
  23 H :    0.230138
  24 H :    0.233494
  25 H :    0.219412
  26 H :    0.227504
  27 H :    0.236344
  28 C :   -0.337395
  29 H :    0.255068
  30 H :    0.251086
  31 O :   -0.527263
  32 C :    0.563528
  33 O :   -0.476192
  34 C :   -0.742466
  35 H :    0.233339
  36 H :    0.243193
  37 H :    0.241509
Sum of atomic charges:   -0.0000000

LOEWDIN ATOMIC CHARGES
----------------------
   0 Pd:   -0.208392
   1 O :   -0.135814
   2 C :    0.160459
   3 O :   -0.227714
   4 C :   -0.379514
   5 H :    0.148840
   6 H :    0.162059
   7 H :    0.151481
   8 N :   -0.064795
   9 C :   -0.239604
  10 H :    0.169259
  11 H :    0.117807
  12 H :    0.148579
  13 C :   -0.232551
  14 H :    0.148687
  15 H :    0.124096
  16 H :    0.166316
  17 C :   -0.065313
  18 C :   -0.119585
  19 C :   -0.119385
  20 C :   -0.123311
  21 C :   -0.122059
  22 C :   -0.097392
  23 H :    0.139502
  24 H :    0.147838
  25 H :    0.137739
  26 H :    0.142955
  27 H :    0.156650
  28 C :   -0.105737
  29 H :    0.146118
  30 H :    0.146157
  31 O :   -0.173196
  32 C :    0.127770
  33 O :   -0.280836
  34 C :   -0.382128
  35 H :    0.147031
  36 H :    0.145298
  37 H :    0.142682

  Mayer bond orders larger than 0.100000
B(  0-Pd,  1-O ) :   0.6571 B(  0-Pd,  3-O ) :   0.2820 B(  0-Pd,  8-N ) :   0.4066
B(  0-Pd, 31-O ) :   0.6529 B(  1-O ,  2-C ) :   1.3010 B(  2-C ,  3-O ) :   1.7100
B(  2-C ,  4-C ) :   0.9467 B(  4-C ,  5-H ) :   0.9141 B(  4-C ,  6-H ) :   0.9050
B(  4-C ,  7-H ) :   0.9086 B(  8-N ,  9-C ) :   0.9128 B(  8-N , 13-C ) :   0.9170
B(  8-N , 28-C ) :   0.8828 B(  9-C , 10-H ) :   0.8681 B(  9-C , 11-H ) :   0.9040
B(  9-C , 12-H ) :   0.9057 B( 13-C , 14-H ) :   0.8978 B( 13-C , 15-H ) :   0.9014
B( 13-C , 16-H ) :   0.8873 B( 17-C , 18-C ) :   1.4023 B( 17-C , 22-C ) :   1.3617
B( 17-C , 28-C ) :   0.9309 B( 18-C , 19-C ) :   1.4631 B( 18-C , 25-H ) :   0.9130
B( 19-C , 20-C ) :   1.3965 B( 19-C , 22-C ) :   0.1073 B( 19-C , 26-H ) :   0.9172
B( 20-C , 21-C ) :   1.4493 B( 20-C , 23-H ) :   0.9150 B( 21-C , 22-C ) :   1.3911
B( 21-C , 24-H ) :   0.9173 B( 22-C , 27-H ) :   0.9083 B( 28-C , 29-H ) :   0.8960
B( 28-C , 30-H ) :   0.9164 B( 31-O , 32-C ) :   1.2794 B( 32-C , 33-O ) :   1.8506
B( 32-C , 34-C ) :   0.9292 B( 34-C , 35-H ) :   0.9154 B( 34-C , 36-H ) :   0.9120
B( 34-C , 37-H ) :   0.9184

Dispersion correction           -0.026204347
FINAL SINGLE POINT ENERGY      -988.508609242230
Dispersion correction            ... done

DIPOLE MOMENT
-------------
                                X             Y             Z
Electronic contribution:     20.66591      14.57888     -18.30861
Nuclear contribution   :    -22.30121     -15.31281      19.41712
                        -----------------------------------------
Total Dipole Moment    :     -1.63530      -0.73394       1.10851
                        -----------------------------------------
Magnitude (a.u.)       :      2.10752
Magnitude (Debye)      :      5.35690

Rotational constants in cm-1:     0.014143     0.008535     0.006801
Rotational constants in MHz :   423.991937   255.887622   203.897214

                             ****ORCA TERMINATED NORMALLY****
TOTAL RUN TIME: 0 days 0 hours 8 minutes 19 seconds 770 msec
