                         Program Version 5.0.3 -  RELEASE  -
|  1> ! EnGrad PBEh-3c
|  2> %output
|  3> xyzfile=True
|  4> end
|  5> %scf
|  6> maxiter 250
|  7> end
|  8> %output
|  9> Print[P_Hirshfeld] = 1
| 10> end
| 11> % maxcore
| 12> 4000
| 13> *xyz 0 1
| 14> Pd   0.49253326   0.33133901  -0.39610261
| 15> O    2.00882387   1.32925851   0.34898365
| 16> C    1.60162585   2.53750286   0.30217296
| 17> O    0.42284702   2.76172022  -0.02212443
| 18> C    2.61324523   3.59602092   0.58334525
| 19> H    2.16776874   4.48246771   1.01269143
| 20> H    3.09351462   3.90004333  -0.34706405
| 21> H    3.39428568   3.23711735   1.24716502
| 22> N   -1.31157050  -0.60929190  -1.08976394
| 23> C   -1.15604254  -1.71020641  -2.08440226
| 24> H   -0.65176731  -1.32767045  -2.97498499
| 25> H   -2.14844785  -2.10343865  -2.37968953
| 26> H   -0.55777751  -2.52876566  -1.66677189
| 27> C   -2.12080609   0.46862345  -1.70657385
| 28> H   -2.28595581   1.25960968  -0.96836221
| 29> H   -3.10349516   0.06390602  -2.00883323
| 30> H   -1.59946418   0.88120842  -2.57116291
| 31> C   -1.61411507  -0.88130856   1.43271712
| 32> C   -1.23932552  -1.92133995   2.22824063
| 33> C   -0.96943235  -1.77403298   3.53906197
| 34> C   -1.16513130  -0.61530550   4.21544325
| 35> C   -1.47260820   0.50406431   3.51594835
| 36> C   -1.67500399   0.39252869   2.05825180
| 37> H   -1.06771096  -0.55906597   5.23858117
| 38> H   -1.58309078   1.46330749   3.97405211
| 39> H   -1.14472010  -2.80067340   1.72406569
| 40> H   -0.64850433  -2.63649382   4.05852042
| 41> H   -1.87685438   1.32884205   1.47673790
| 42> C   -2.09384347  -1.13853022   0.05007859
| 43> H   -3.14733678  -0.84465925  -0.03405084
| 44> H   -2.10422730  -2.21178315   0.02618603
| 45> O    1.90179501  -0.81279377  -1.24609074
| 46> C    2.19582405  -0.53769985  -2.45977804
| 47> O    1.37089082  -0.04083505  -3.27443387
| 48> C    3.60732444  -0.81601682  -2.86652063
| 49> H    3.73137990  -1.87412674  -3.05614782
| 50> H    4.33119617  -0.53469091  -2.10431817
| 51> H    3.88007659  -0.30985802  -3.78173236
| 52> *
| 53>
| 54>                          ****END OF INPUT****

CARTESIAN COORDINATES (ANGSTROEM)
---------------------------------
  Pd     0.492533    0.331339   -0.396103
  O      2.008824    1.329259    0.348984
  C      1.601626    2.537503    0.302173
  O      0.422847    2.761720   -0.022124
  C      2.613245    3.596021    0.583345
  H      2.167769    4.482468    1.012691
  H      3.093515    3.900043   -0.347064
  H      3.394286    3.237117    1.247165
  N     -1.311570   -0.609292   -1.089764
  C     -1.156043   -1.710206   -2.084402
  H     -0.651767   -1.327670   -2.974985
  H     -2.148448   -2.103439   -2.379690
  H     -0.557778   -2.528766   -1.666772
  C     -2.120806    0.468623   -1.706574
  H     -2.285956    1.259610   -0.968362
  H     -3.103495    0.063906   -2.008833
  H     -1.599464    0.881208   -2.571163
  C     -1.614115   -0.881309    1.432717
  C     -1.239326   -1.921340    2.228241
  C     -0.969432   -1.774033    3.539062
  C     -1.165131   -0.615305    4.215443
  C     -1.472608    0.504064    3.515948
  C     -1.675004    0.392529    2.058252
  H     -1.067711   -0.559066    5.238581
  H     -1.583091    1.463307    3.974052
  H     -1.144720   -2.800673    1.724066
  H     -0.648504   -2.636494    4.058520
  H     -1.876854    1.328842    1.476738
  C     -2.093843   -1.138530    0.050079
  H     -3.147337   -0.844659   -0.034051
  H     -2.104227   -2.211783    0.026186
  O      1.901795   -0.812794   -1.246091
  C      2.195824   -0.537700   -2.459778
  O      1.370891   -0.040835   -3.274434
  C      3.607324   -0.816017   -2.866521
  H      3.731380   -1.874127   -3.056148
  H      4.331196   -0.534691   -2.104318
  H      3.880077   -0.309858   -3.781732

 Total Charge           Charge          ....    0
 Multiplicity           Mult            ....    1
 Number of Electrons    NEL             ....  154
 Basis Dimension        Dim             ....  339

ORBITAL ENERGIES
----------------

  NO   OCC          E(Eh)            E(eV)
   0   2.0000     -19.496585      -530.5290
   1   2.0000     -19.475980      -529.9684
   2   2.0000     -19.469902      -529.8030
   3   2.0000     -19.423117      -528.5299
   4   2.0000     -14.724033      -400.6613
   5   2.0000     -10.557660      -287.2885
   6   2.0000     -10.531330      -286.5721
   7   2.0000     -10.500369      -285.7296
   8   2.0000     -10.488672      -285.4113
   9   2.0000     -10.479276      -285.1556
  10   2.0000     -10.478524      -285.1351
  11   2.0000     -10.476027      -285.0672
  12   2.0000     -10.466828      -284.8169
  13   2.0000     -10.452236      -284.4198
  14   2.0000     -10.451491      -284.3995
  15   2.0000     -10.449729      -284.3516
  16   2.0000     -10.432237      -283.8756
  17   2.0000     -10.411890      -283.3219
  18   2.0000      -3.664246       -99.7092
  19   2.0000      -2.316770       -63.0425
  20   2.0000      -2.304260       -62.7021
  21   2.0000      -2.274486       -61.8919
  22   2.0000      -1.187887       -32.3240
  23   2.0000      -1.142635       -31.0927
  24   2.0000      -1.077748       -29.3270
  25   2.0000      -1.072948       -29.1964
  26   2.0000      -1.035108       -28.1667
  27   2.0000      -0.982882       -26.7456
  28   2.0000      -0.897341       -24.4179
  29   2.0000      -0.849616       -23.1192
  30   2.0000      -0.825393       -22.4601
  31   2.0000      -0.819783       -22.3074
  32   2.0000      -0.805931       -21.9305
  33   2.0000      -0.800272       -21.7765
  34   2.0000      -0.725686       -19.7469
  35   2.0000      -0.707995       -19.2655
  36   2.0000      -0.677846       -18.4451
  37   2.0000      -0.617042       -16.7906
  38   2.0000      -0.609098       -16.5744
  39   2.0000      -0.589858       -16.0509
  40   2.0000      -0.574118       -15.6225
  41   2.0000      -0.573145       -15.5961
  42   2.0000      -0.568234       -15.4624
  43   2.0000      -0.538625       -14.6567
  44   2.0000      -0.535684       -14.5767
  45   2.0000      -0.528716       -14.3871
  46   2.0000      -0.527082       -14.3426
  47   2.0000      -0.518647       -14.1131
  48   2.0000      -0.505944       -13.7674
  49   2.0000      -0.503319       -13.6960
  50   2.0000      -0.493109       -13.4182
  51   2.0000      -0.488711       -13.2985
  52   2.0000      -0.487437       -13.2638
  53   2.0000      -0.482103       -13.1187
  54   2.0000      -0.460085       -12.5196
  55   2.0000      -0.450952       -12.2710
  56   2.0000      -0.449206       -12.2235
  57   2.0000      -0.443504       -12.0683
  58   2.0000      -0.440059       -11.9746
  59   2.0000      -0.438374       -11.9288
  60   2.0000      -0.426647       -11.6097
  61   2.0000      -0.418040       -11.3754
  62   2.0000      -0.414413       -11.2768
  63   2.0000      -0.408951       -11.1281
  64   2.0000      -0.405906       -11.0453
  65   2.0000      -0.378209       -10.2916
  66   2.0000      -0.364700        -9.9240
  67   2.0000      -0.356314        -9.6958
  68   2.0000      -0.347589        -9.4584
  69   2.0000      -0.344942        -9.3864
  70   2.0000      -0.325583        -8.8596
  71   2.0000      -0.316866        -8.6224
  72   2.0000      -0.310625        -8.4525
  73   2.0000      -0.300162        -8.1678
  74   2.0000      -0.295007        -8.0276
  75   2.0000      -0.286100        -7.7852
  76   2.0000      -0.272443        -7.4136
  77   0.0000      -0.073050        -1.9878
  78   0.0000      -0.009881        -0.2689
  79   0.0000       0.004851         0.1320
  80   0.0000       0.056288         1.5317
  81   0.0000       0.065848         1.7918

MULLIKEN ATOMIC CHARGES
-----------------------
   0 Pd:    0.577797
   1 O :   -0.494016
   2 C :    0.623514
   3 O :   -0.487049
   4 C :   -0.767222
   5 H :    0.248294
   6 H :    0.259806
   7 H :    0.253614
   8 N :   -0.482458
   9 C :   -0.540510
  10 H :    0.306785
  11 H :    0.216274
  12 H :    0.263580
  13 C :   -0.543765
  14 H :    0.264842
  15 H :    0.229329
  16 H :    0.302249
  17 C :    0.097785
  18 C :   -0.235656
  19 C :   -0.205755
  20 C :   -0.202914
  21 C :   -0.215532
  22 C :   -0.321369
  23 H :    0.231908
  24 H :    0.232848
  25 H :    0.217910
  26 H :    0.221097
  27 H :    0.244070
  28 C :   -0.328685
  29 H :    0.255085
  30 H :    0.251395
  31 O :   -0.521300
  32 C :    0.569746
  33 O :   -0.508455
  34 C :   -0.744026
  35 H :    0.236690
  36 H :    0.246533
  37 H :    0.247562
Sum of atomic charges:   -0.0000000

LOEWDIN ATOMIC CHARGES
----------------------
   0 Pd:   -0.205929
   1 O :   -0.135752
   2 C :    0.163301
   3 O :   -0.230861
   4 C :   -0.379231
   5 H :    0.148923
   6 H :    0.163094
   7 H :    0.153166
   8 N :   -0.061847
   9 C :   -0.238039
  10 H :    0.169095
  11 H :    0.118455
  12 H :    0.148913
  13 C :   -0.229850
  14 H :    0.149941
  15 H :    0.125040
  16 H :    0.167024
  17 C :   -0.058550
  18 C :   -0.121634
  19 C :   -0.117152
  20 C :   -0.127884
  21 C :   -0.114946
  22 C :   -0.105975
  23 H :    0.140587
  24 H :    0.142428
  25 H :    0.138183
  26 H :    0.140022
  27 H :    0.156230
  28 C :   -0.111439
  29 H :    0.147183
  30 H :    0.146282
  31 O :   -0.164001
  32 C :    0.140658
  33 O :   -0.317935
  34 C :   -0.379298
  35 H :    0.148611
  36 H :    0.147982
  37 H :    0.145204

  Mayer bond orders larger than 0.100000
B(  0-Pd,  1-O ) :   0.6510 B(  0-Pd,  3-O ) :   0.2969 B(  0-Pd,  8-N ) :   0.4102
B(  0-Pd, 31-O ) :   0.6389 B(  0-Pd, 33-O ) :   0.1018 B(  1-O ,  2-C ) :   1.3126
B(  2-C ,  3-O ) :   1.6923 B(  2-C ,  4-C ) :   0.9514 B(  4-C ,  5-H ) :   0.9124
B(  4-C ,  6-H ) :   0.9036 B(  4-C ,  7-H ) :   0.9085 B(  8-N ,  9-C ) :   0.9102
B(  8-N , 13-C ) :   0.9134 B(  8-N , 28-C ) :   0.8862 B(  9-C , 10-H ) :   0.8671
B(  9-C , 11-H ) :   0.9042 B(  9-C , 12-H ) :   0.9056 B( 13-C , 14-H ) :   0.8977
B( 13-C , 15-H ) :   0.9021 B( 13-C , 16-H ) :   0.8869 B( 17-C , 18-C ) :   1.4163
B( 17-C , 22-C ) :   1.3855 B( 17-C , 28-C ) :   0.9407 B( 18-C , 19-C ) :   1.4642
B( 18-C , 25-H ) :   0.9117 B( 19-C , 20-C ) :   1.4027 B( 19-C , 22-C ) :   0.1006
B( 19-C , 26-H ) :   0.9196 B( 20-C , 21-C ) :   1.4562 B( 20-C , 23-H ) :   0.9142
B( 21-C , 22-C ) :   1.4011 B( 21-C , 24-H ) :   0.9156 B( 22-C , 27-H ) :   0.9084
B( 28-C , 29-H ) :   0.8960 B( 28-C , 30-H ) :   0.9149 B( 31-O , 32-C ) :   1.3019
B( 32-C , 33-O ) :   1.8050 B( 32-C , 34-C ) :   0.9396 B( 34-C , 35-H ) :   0.9123
B( 34-C , 36-H ) :   0.9107 B( 34-C , 37-H ) :   0.9166

Dispersion correction           -0.026246389
FINAL SINGLE POINT ENERGY      -988.503647964637
Dispersion correction            ... done

DIPOLE MOMENT
-------------
                                X             Y             Z
Electronic contribution:     21.22210      14.91276     -19.22231
Nuclear contribution   :    -22.80541     -15.64048      20.35104
                        -----------------------------------------
Total Dipole Moment    :     -1.58332      -0.72772       1.12874
                        -----------------------------------------
Magnitude (a.u.)       :      2.07618
Magnitude (Debye)      :      5.27722

Rotational constants in cm-1:     0.014130     0.008531     0.006829
Rotational constants in MHz :   423.610729   255.741388   204.734830

                             ****ORCA TERMINATED NORMALLY****
TOTAL RUN TIME: 0 days 0 hours 8 minutes 10 seconds 763 msec
