                         Program Version 5.0.3 -  RELEASE  -
|  1> ! EnGrad PBEh-3c
|  2> %output
|  3> xyzfile=True
|  4> end
|  5> %scf
|  6> maxiter 250
|  7> end
|  8> %output
|  9> Print[P_Hirshfeld] = 1
| 10> end
| 11> % maxcore
| 12> 4000
| 13> *xyz 0 1
| 14> Pd   0.49298845   0.33094481  -0.40848008
| 15> O    2.02251286   1.32421079   0.33417028
| 16> C    1.59180839   2.52903123   0.29874827
| 17> O    0.41465268   2.74686557   0.00101302
| 18> C    2.61342823   3.59146502   0.58153640
| 19> H    2.16230552   4.47294515   1.00829792
| 20> H    3.09098134   3.89233898  -0.34746877
| 21> H    3.39043819   3.23079860   1.24715142
| 22> N   -1.30928479  -0.60423830  -1.09488607
| 23> C   -1.15567115  -1.70689178  -2.08273302
| 24> H   -0.65181841  -1.32927561  -2.97053526
| 25> H   -2.14604453  -2.10259535  -2.37399309
| 26> H   -0.55562980  -2.52058985  -1.66068082
| 27> C   -2.12352289   0.47242114  -1.71048172
| 28> H   -2.29030330   1.26435136  -0.97402454
| 29> H   -3.10257320   0.06424520  -2.01648897
| 30> H   -1.59984491   0.88524147  -2.57199807
| 31> C   -1.61616572  -0.85839695   1.43739512
| 32> C   -1.24059961  -1.90302199   2.23096527
| 33> C   -0.97025816  -1.78314438   3.55321092
| 34> C   -1.16002886  -0.60252153   4.21250119
| 35> C   -1.46724957   0.51227510   3.47226462
| 36> C   -1.66444011   0.41028376   2.04448630
| 37> H   -1.06903849  -0.54167620   5.27559324
| 38> H   -1.56378793   1.47112454   3.96972838
| 39> H   -1.14413157  -2.83030758   1.71376523
| 40> H   -0.67008740  -2.62064726   4.06017655
| 41> H   -1.85949348   1.24967653   1.48653523
| 42> C   -2.09682546  -1.13788022   0.05161210
| 43> H   -3.14881113  -0.84187245  -0.03163856
| 44> H   -2.10377635  -2.21121274   0.03194509
| 45> O    1.89333782  -0.82644248  -1.24580226
| 46> C    2.17924602  -0.52632558  -2.47120314
| 47> O    1.38166516  -0.02315729  -3.26862250
| 48> C    3.61198666  -0.81630026  -2.86267568
| 49> H    3.73001193  -1.87420385  -3.05125962
| 50> H    4.33021590  -0.53318433  -2.09969387
| 51> H    3.88367208  -0.31111903  -3.77810670
| 52> *
| 53>
| 54>                          ****END OF INPUT****

CARTESIAN COORDINATES (ANGSTROEM)
---------------------------------
  Pd     0.492988    0.330945   -0.408480
  O      2.022513    1.324211    0.334170
  C      1.591808    2.529031    0.298748
  O      0.414653    2.746866    0.001013
  C      2.613428    3.591465    0.581536
  H      2.162306    4.472945    1.008298
  H      3.090981    3.892339   -0.347469
  H      3.390438    3.230799    1.247151
  N     -1.309285   -0.604238   -1.094886
  C     -1.155671   -1.706892   -2.082733
  H     -0.651818   -1.329276   -2.970535
  H     -2.146045   -2.102595   -2.373993
  H     -0.555630   -2.520590   -1.660681
  C     -2.123523    0.472421   -1.710482
  H     -2.290303    1.264351   -0.974025
  H     -3.102573    0.064245   -2.016489
  H     -1.599845    0.885241   -2.571998
  C     -1.616166   -0.858397    1.437395
  C     -1.240600   -1.903022    2.230965
  C     -0.970258   -1.783144    3.553211
  C     -1.160029   -0.602522    4.212501
  C     -1.467250    0.512275    3.472265
  C     -1.664440    0.410284    2.044486
  H     -1.069038   -0.541676    5.275593
  H     -1.563788    1.471125    3.969728
  H     -1.144132   -2.830308    1.713765
  H     -0.670087   -2.620647    4.060177
  H     -1.859493    1.249677    1.486535
  C     -2.096825   -1.137880    0.051612
  H     -3.148811   -0.841872   -0.031639
  H     -2.103776   -2.211213    0.031945
  O      1.893338   -0.826442   -1.245802
  C      2.179246   -0.526326   -2.471203
  O      1.381665   -0.023157   -3.268623
  C      3.611987   -0.816300   -2.862676
  H      3.730012   -1.874204   -3.051260
  H      4.330216   -0.533184   -2.099694
  H      3.883672   -0.311119   -3.778107

 Total Charge           Charge          ....    0
 Multiplicity           Mult            ....    1
 Number of Electrons    NEL             ....  154
 Basis Dimension        Dim             ....  339

ORBITAL ENERGIES
----------------

  NO   OCC          E(Eh)            E(eV)
   0   2.0000     -19.494360      -530.4685
   1   2.0000     -19.475353      -529.9513
   2   2.0000     -19.472265      -529.8673
   3   2.0000     -19.430309      -528.7256
   4   2.0000     -14.724427      -400.6720
   5   2.0000     -10.557247      -287.2773
   6   2.0000     -10.532975      -286.6168
   7   2.0000     -10.500963      -285.7457
   8   2.0000     -10.489356      -285.4299
   9   2.0000     -10.479305      -285.1564
  10   2.0000     -10.474294      -285.0200
  11   2.0000     -10.466345      -284.8037
  12   2.0000     -10.465951      -284.7930
  13   2.0000     -10.457251      -284.5563
  14   2.0000     -10.454229      -284.4740
  15   2.0000     -10.450125      -284.3623
  16   2.0000     -10.430545      -283.8296
  17   2.0000     -10.411573      -283.3133
  18   2.0000      -3.662894       -99.6724
  19   2.0000      -2.314929       -62.9924
  20   2.0000      -2.303446       -62.6800
  21   2.0000      -2.273150       -61.8556
  22   2.0000      -1.188344       -32.3365
  23   2.0000      -1.144572       -31.1454
  24   2.0000      -1.077345       -29.3160
  25   2.0000      -1.074885       -29.2491
  26   2.0000      -1.046295       -28.4711
  27   2.0000      -0.981538       -26.7090
  28   2.0000      -0.893364       -24.3097
  29   2.0000      -0.852631       -23.2013
  30   2.0000      -0.822611       -22.3844
  31   2.0000      -0.820628       -22.3304
  32   2.0000      -0.805409       -21.9163
  33   2.0000      -0.796993       -21.6873
  34   2.0000      -0.726319       -19.7641
  35   2.0000      -0.707540       -19.2532
  36   2.0000      -0.678048       -18.4506
  37   2.0000      -0.616348       -16.7717
  38   2.0000      -0.607098       -16.5200
  39   2.0000      -0.587764       -15.9939
  40   2.0000      -0.573881       -15.6161
  41   2.0000      -0.570891       -15.5347
  42   2.0000      -0.567996       -15.4560
  43   2.0000      -0.537932       -14.6379
  44   2.0000      -0.537186       -14.6176
  45   2.0000      -0.528954       -14.3936
  46   2.0000      -0.527524       -14.3547
  47   2.0000      -0.518041       -14.0966
  48   2.0000      -0.506490       -13.7823
  49   2.0000      -0.499693       -13.5973
  50   2.0000      -0.494653       -13.4602
  51   2.0000      -0.493175       -13.4200
  52   2.0000      -0.489378       -13.3166
  53   2.0000      -0.482603       -13.1323
  54   2.0000      -0.461100       -12.5472
  55   2.0000      -0.451196       -12.2777
  56   2.0000      -0.449287       -12.2257
  57   2.0000      -0.444114       -12.0850
  58   2.0000      -0.439406       -11.9568
  59   2.0000      -0.436504       -11.8779
  60   2.0000      -0.428026       -11.6472
  61   2.0000      -0.418578       -11.3901
  62   2.0000      -0.415785       -11.3141
  63   2.0000      -0.411090       -11.1863
  64   2.0000      -0.405998       -11.0478
  65   2.0000      -0.378393       -10.2966
  66   2.0000      -0.366958        -9.9854
  67   2.0000      -0.355742        -9.6802
  68   2.0000      -0.349378        -9.5071
  69   2.0000      -0.345693        -9.4068
  70   2.0000      -0.324584        -8.8324
  71   2.0000      -0.316631        -8.6160
  72   2.0000      -0.309589        -8.4243
  73   2.0000      -0.302436        -8.2297
  74   2.0000      -0.295789        -8.0488
  75   2.0000      -0.289456        -7.8765
  76   2.0000      -0.277035        -7.5385
  77   0.0000      -0.070849        -1.9279
  78   0.0000      -0.008174        -0.2224
  79   0.0000       0.005592         0.1522
  80   0.0000       0.058194         1.5835
  81   0.0000       0.066191         1.8012

MULLIKEN ATOMIC CHARGES
-----------------------
   0 Pd:    0.566398
   1 O :   -0.495638
   2 C :    0.620104
   3 O :   -0.479834
   4 C :   -0.765465
   5 H :    0.246159
   6 H :    0.258403
   7 H :    0.254062
   8 N :   -0.484823
   9 C :   -0.539924
  10 H :    0.303966
  11 H :    0.217120
  12 H :    0.265847
  13 C :   -0.543756
  14 H :    0.265467
  15 H :    0.229968
  16 H :    0.300960
  17 C :    0.102713
  18 C :   -0.264127
  19 C :   -0.189728
  20 C :   -0.218886
  21 C :   -0.221140
  22 C :   -0.288337
  23 H :    0.229473
  24 H :    0.228562
  25 H :    0.213468
  26 H :    0.227426
  27 H :    0.247623
  28 C :   -0.332614
  29 H :    0.253721
  30 H :    0.253320
  31 O :   -0.529060
  32 C :    0.565545
  33 O :   -0.481015
  34 C :   -0.743920
  35 H :    0.235834
  36 H :    0.248553
  37 H :    0.243574
Sum of atomic charges:    0.0000000

LOEWDIN ATOMIC CHARGES
----------------------
   0 Pd:   -0.214507
   1 O :   -0.141459
   2 C :    0.161703
   3 O :   -0.220702
   4 C :   -0.380447
   5 H :    0.147242
   6 H :    0.161602
   7 H :    0.153276
   8 N :   -0.062290
   9 C :   -0.237846
  10 H :    0.167146
  11 H :    0.118742
  12 H :    0.149927
  13 C :   -0.230044
  14 H :    0.149995
  15 H :    0.125363
  16 H :    0.166203
  17 C :   -0.056568
  18 C :   -0.117936
  19 C :   -0.121994
  20 C :   -0.124777
  21 C :   -0.113920
  22 C :   -0.108986
  23 H :    0.141129
  24 H :    0.141839
  25 H :    0.137321
  26 H :    0.139886
  27 H :    0.151567
  28 C :   -0.109538
  29 H :    0.146379
  30 H :    0.146615
  31 O :   -0.174418
  32 C :    0.138271
  33 O :   -0.285416
  34 C :   -0.381945
  35 H :    0.147386
  36 H :    0.148324
  37 H :    0.142875

  Mayer bond orders larger than 0.100000
B(  0-Pd,  1-O ) :   0.6513 B(  0-Pd,  3-O ) :   0.2954 B(  0-Pd,  8-N ) :   0.4091
B(  0-Pd, 31-O ) :   0.6569 B(  1-O ,  2-C ) :   1.3075 B(  2-C ,  3-O ) :   1.7016
B(  2-C ,  4-C ) :   0.9495 B(  4-C ,  5-H ) :   0.9129 B(  4-C ,  6-H ) :   0.9047
B(  4-C ,  7-H ) :   0.9090 B(  8-N ,  9-C ) :   0.9116 B(  8-N , 13-C ) :   0.9132
B(  8-N , 28-C ) :   0.8844 B(  9-C , 10-H ) :   0.8704 B(  9-C , 11-H ) :   0.9043
B(  9-C , 12-H ) :   0.9046 B( 13-C , 14-H ) :   0.8979 B( 13-C , 15-H ) :   0.9022
B( 13-C , 16-H ) :   0.8875 B( 17-C , 18-C ) :   1.4110 B( 17-C , 22-C ) :   1.3955
B( 17-C , 28-C ) :   0.9399 B( 18-C , 19-C ) :   1.4569 B( 18-C , 25-H ) :   0.9157
B( 19-C , 20-C ) :   1.4121 B( 19-C , 26-H ) :   0.9155 B( 20-C , 21-C ) :   1.4389
B( 20-C , 23-H ) :   0.9160 B( 21-C , 22-C ) :   1.4213 B( 21-C , 24-H ) :   0.9180
B( 22-C , 27-H ) :   0.9070 B( 28-C , 29-H ) :   0.8967 B( 28-C , 30-H ) :   0.9143
B( 31-O , 32-C ) :   1.2718 B( 32-C , 33-O ) :   1.8426 B( 32-C , 34-C ) :   0.9343
B( 34-C , 35-H ) :   0.9136 B( 34-C , 36-H ) :   0.9109 B( 34-C , 37-H ) :   0.9175

Dispersion correction           -0.026292762
FINAL SINGLE POINT ENERGY      -988.515959969421
Dispersion correction            ... done

DIPOLE MOMENT
-------------
                                X             Y             Z
Electronic contribution:     21.17714      14.87295     -19.97383
Nuclear contribution   :    -22.82035     -15.59710      20.98862
                        -----------------------------------------
Total Dipole Moment    :     -1.64321      -0.72415       1.01479
                        -----------------------------------------
Magnitude (a.u.)       :      2.06260
Magnitude (Debye)      :      5.24271

Rotational constants in cm-1:     0.014175     0.008544     0.006847
Rotational constants in MHz :   424.946426   256.146044   205.280643

                             ****ORCA TERMINATED NORMALLY****
TOTAL RUN TIME: 0 days 0 hours 15 minutes 44 seconds 995 msec
