                         Program Version 5.0.3 -  RELEASE  -
|  1> ! EnGrad PBEh-3c
|  2> %output
|  3> xyzfile=True
|  4> end
|  5> %scf
|  6> maxiter 250
|  7> end
|  8> %output
|  9> Print[P_Hirshfeld] = 1
| 10> end
| 11> % maxcore
| 12> 4000
| 13> *xyz 0 1
| 14> Pd   0.49695359   0.33071156  -0.41835439
| 15> O    2.03497927   1.31928014   0.32896841
| 16> C    1.58952408   2.52308571   0.29519624
| 17> O    0.40818973   2.74193271   0.00866484
| 18> C    2.61190475   3.59802699   0.58175738
| 19> H    2.15435503   4.48029377   1.00988805
| 20> H    3.08696837   3.89359168  -0.35040996
| 21> H    3.39145464   3.23400485   1.24605845
| 22> N   -1.31171741  -0.60469758  -1.10181481
| 23> C   -1.16015489  -1.69231614  -2.09261182
| 24> H   -0.66010806  -1.31574728  -2.97367917
| 25> H   -2.14233194  -2.09252606  -2.37769957
| 26> H   -0.56271572  -2.50402437  -1.68067713
| 27> C   -2.12534373   0.47419587  -1.70223325
| 28> H   -2.29530465   1.26196233  -0.96820298
| 29> H   -3.10234202   0.07664200  -2.00947873
| 30> H   -1.61169688   0.89439516  -2.56101283
| 31> C   -1.61878080  -0.80979037   1.45042294
| 32> C   -1.21824280  -1.89682297   2.21140616
| 33> C   -0.96235551  -1.80264193   3.56312703
| 34> C   -1.16282203  -0.59172258   4.20426872
| 35> C   -1.49254771   0.51777239   3.41525278
| 36> C   -1.67518228   0.43453219   2.05843387
| 37> H   -1.06724721  -0.54907744   5.31593647
| 38> H   -1.59376803   1.47003444   3.96832091
| 39> H   -1.10896576  -2.88241440   1.69659571
| 40> H   -0.63512492  -2.64521601   4.07788018
| 41> H   -1.87839945   1.27561006   1.49335534
| 42> C   -2.09216590  -1.14612477   0.06049256
| 43> H   -3.14216807  -0.85186709  -0.03385026
| 44> H   -2.08894322  -2.22921660   0.01091265
| 45> O    1.88812958  -0.83932122  -1.23701535
| 46> C    2.16308679  -0.50793189  -2.47730617
| 47> O    1.40566000  -0.01498041  -3.25885919
| 48> C    3.61801463  -0.83219218  -2.85913996
| 49> H    3.72136947  -1.89881698  -3.03404205
| 50> H    4.32926303  -0.55019421  -2.08986577
| 51> H    3.88667298  -0.32777353  -3.78226860
| 52> *
| 53>
| 54>                          ****END OF INPUT****

CARTESIAN COORDINATES (ANGSTROEM)
---------------------------------
  Pd     0.496954    0.330712   -0.418354
  O      2.034979    1.319280    0.328968
  C      1.589524    2.523086    0.295196
  O      0.408190    2.741933    0.008665
  C      2.611905    3.598027    0.581757
  H      2.154355    4.480294    1.009888
  H      3.086968    3.893592   -0.350410
  H      3.391455    3.234005    1.246058
  N     -1.311717   -0.604698   -1.101815
  C     -1.160155   -1.692316   -2.092612
  H     -0.660108   -1.315747   -2.973679
  H     -2.142332   -2.092526   -2.377700
  H     -0.562716   -2.504024   -1.680677
  C     -2.125344    0.474196   -1.702233
  H     -2.295305    1.261962   -0.968203
  H     -3.102342    0.076642   -2.009479
  H     -1.611697    0.894395   -2.561013
  C     -1.618781   -0.809790    1.450423
  C     -1.218243   -1.896823    2.211406
  C     -0.962356   -1.802642    3.563127
  C     -1.162822   -0.591723    4.204269
  C     -1.492548    0.517772    3.415253
  C     -1.675182    0.434532    2.058434
  H     -1.067247   -0.549077    5.315936
  H     -1.593768    1.470034    3.968321
  H     -1.108966   -2.882414    1.696596
  H     -0.635125   -2.645216    4.077880
  H     -1.878399    1.275610    1.493355
  C     -2.092166   -1.146125    0.060493
  H     -3.142168   -0.851867   -0.033850
  H     -2.088943   -2.229217    0.010913
  O      1.888130   -0.839321   -1.237015
  C      2.163087   -0.507932   -2.477306
  O      1.405660   -0.014980   -3.258859
  C      3.618015   -0.832192   -2.859140
  H      3.721369   -1.898817   -3.034042
  H      4.329263   -0.550194   -2.089866
  H      3.886673   -0.327774   -3.782269

 Total Charge           Charge          ....    0
 Multiplicity           Mult            ....    1
 Number of Electrons    NEL             ....  154
 Basis Dimension        Dim             ....  339

ORBITAL ENERGIES
----------------

  NO   OCC          E(Eh)            E(eV)
   0   2.0000     -19.493654      -530.4493
   1   2.0000     -19.474526      -529.9288
   2   2.0000     -19.473061      -529.8889
   3   2.0000     -19.439751      -528.9825
   4   2.0000     -14.722985      -400.6328
   5   2.0000     -10.557899      -287.2950
   6   2.0000     -10.534194      -286.6500
   7   2.0000     -10.502946      -285.7997
   8   2.0000     -10.487534      -285.3803
   9   2.0000     -10.477312      -285.1021
  10   2.0000     -10.476164      -285.0709
  11   2.0000     -10.466149      -284.7984
  12   2.0000     -10.464494      -284.7534
  13   2.0000     -10.463569      -284.7282
  14   2.0000     -10.460596      -284.6473
  15   2.0000     -10.456085      -284.5245
  16   2.0000     -10.430819      -283.8370
  17   2.0000     -10.411941      -283.3233
  18   2.0000      -3.661047       -99.6222
  19   2.0000      -2.312411       -62.9239
  20   2.0000      -2.302316       -62.6492
  21   2.0000      -2.271334       -61.8062
  22   2.0000      -1.185418       -32.2569
  23   2.0000      -1.155372       -31.4393
  24   2.0000      -1.076755       -29.3000
  25   2.0000      -1.074268       -29.2323
  26   2.0000      -1.057658       -28.7803
  27   2.0000      -0.980408       -26.6783
  28   2.0000      -0.886063       -24.1110
  29   2.0000      -0.857937       -23.3456
  30   2.0000      -0.822609       -22.3843
  31   2.0000      -0.819141       -22.2900
  32   2.0000      -0.801310       -21.8048
  33   2.0000      -0.790839       -21.5198
  34   2.0000      -0.723846       -19.6968
  35   2.0000      -0.701674       -19.0935
  36   2.0000      -0.678878       -18.4732
  37   2.0000      -0.612239       -16.6599
  38   2.0000      -0.603558       -16.4236
  39   2.0000      -0.584357       -15.9012
  40   2.0000      -0.573253       -15.5990
  41   2.0000      -0.570605       -15.5270
  42   2.0000      -0.563139       -15.3238
  43   2.0000      -0.535814       -14.5802
  44   2.0000      -0.534629       -14.5480
  45   2.0000      -0.528768       -14.3885
  46   2.0000      -0.526925       -14.3384
  47   2.0000      -0.515953       -14.0398
  48   2.0000      -0.509040       -13.8517
  49   2.0000      -0.500014       -13.6061
  50   2.0000      -0.496467       -13.5096
  51   2.0000      -0.495238       -13.4761
  52   2.0000      -0.487368       -13.2620
  53   2.0000      -0.482844       -13.1388
  54   2.0000      -0.460804       -12.5391
  55   2.0000      -0.451151       -12.2765
  56   2.0000      -0.449638       -12.2353
  57   2.0000      -0.445261       -12.1162
  58   2.0000      -0.438259       -11.9256
  59   2.0000      -0.433226       -11.7887
  60   2.0000      -0.430222       -11.7069
  61   2.0000      -0.418597       -11.3906
  62   2.0000      -0.414711       -11.2849
  63   2.0000      -0.407148       -11.0790
  64   2.0000      -0.405507       -11.0344
  65   2.0000      -0.379295       -10.3211
  66   2.0000      -0.370514       -10.0822
  67   2.0000      -0.354162        -9.6372
  68   2.0000      -0.350363        -9.5339
  69   2.0000      -0.345722        -9.4076
  70   2.0000      -0.323449        -8.8015
  71   2.0000      -0.316219        -8.6047
  72   2.0000      -0.309382        -8.4187
  73   2.0000      -0.305925        -8.3246
  74   2.0000      -0.294768        -8.0210
  75   2.0000      -0.292870        -7.9694
  76   2.0000      -0.281135        -7.6501
  77   0.0000      -0.068166        -1.8549
  78   0.0000      -0.007313        -0.1990
  79   0.0000       0.006151         0.1674
  80   0.0000       0.059036         1.6065
  81   0.0000       0.065725         1.7885

MULLIKEN ATOMIC CHARGES
-----------------------
   0 Pd:    0.552341
   1 O :   -0.496136
   2 C :    0.619654
   3 O :   -0.480555
   4 C :   -0.762307
   5 H :    0.244530
   6 H :    0.256633
   7 H :    0.253386
   8 N :   -0.483284
   9 C :   -0.542688
  10 H :    0.301342
  11 H :    0.218296
  12 H :    0.268556
  13 C :   -0.546706
  14 H :    0.266183
  15 H :    0.230812
  16 H :    0.298625
  17 C :    0.103072
  18 C :   -0.271685
  19 C :   -0.197853
  20 C :   -0.226620
  21 C :   -0.228186
  22 C :   -0.249422
  23 H :    0.227504
  24 H :    0.225221
  25 H :    0.213430
  26 H :    0.232288
  27 H :    0.249513
  28 C :   -0.339621
  29 H :    0.250535
  30 H :    0.255607
  31 O :   -0.538823
  32 C :    0.557854
  33 O :   -0.436909
  34 C :   -0.743440
  35 H :    0.233660
  36 H :    0.248564
  37 H :    0.236629
Sum of atomic charges:    0.0000000

LOEWDIN ATOMIC CHARGES
----------------------
   0 Pd:   -0.225327
   1 O :   -0.145664
   2 C :    0.165943
   3 O :   -0.221928
   4 C :   -0.381092
   5 H :    0.146551
   6 H :    0.160386
   7 H :    0.152923
   8 N :   -0.064119
   9 C :   -0.239521
  10 H :    0.165073
  11 H :    0.118623
  12 H :    0.150068
  13 C :   -0.232255
  14 H :    0.149456
  15 H :    0.124829
  16 H :    0.164248
  17 C :   -0.052735
  18 C :   -0.114271
  19 C :   -0.126074
  20 C :   -0.122904
  21 C :   -0.115365
  22 C :   -0.115011
  23 H :    0.142155
  24 H :    0.142169
  25 H :    0.138081
  26 H :    0.140155
  27 H :    0.154820
  28 C :   -0.104323
  29 H :    0.144087
  30 H :    0.146539
  31 O :   -0.187189
  32 C :    0.129465
  33 O :   -0.235235
  34 C :   -0.385728
  35 H :    0.145723
  36 H :    0.147635
  37 H :    0.139812

  Mayer bond orders larger than 0.100000
B(  0-Pd,  1-O ) :   0.6470 B(  0-Pd,  3-O ) :   0.2951 B(  0-Pd,  8-N ) :   0.4076
B(  0-Pd, 31-O ) :   0.6821 B(  1-O ,  2-C ) :   1.3082 B(  1-O ,  3-O ) :   0.1001
B(  2-C ,  3-O ) :   1.6985 B(  2-C ,  4-C ) :   0.9466 B(  4-C ,  5-H ) :   0.9138
B(  4-C ,  6-H ) :   0.9055 B(  4-C ,  7-H ) :   0.9094 B(  8-N ,  9-C ) :   0.9165
B(  8-N , 13-C ) :   0.9167 B(  8-N , 28-C ) :   0.8797 B(  9-C , 10-H ) :   0.8746
B(  9-C , 11-H ) :   0.9044 B(  9-C , 12-H ) :   0.9036 B( 13-C , 14-H ) :   0.8981
B( 13-C , 15-H ) :   0.9020 B( 13-C , 16-H ) :   0.8890 B( 17-C , 18-C ) :   1.4069
B( 17-C , 22-C ) :   1.3764 B( 17-C , 28-C ) :   0.9368 B( 18-C , 19-C ) :   1.4361
B( 18-C , 25-H ) :   0.9187 B( 19-C , 20-C ) :   1.4321 B( 19-C , 26-H ) :   0.9130
B( 20-C , 21-C ) :   1.4043 B( 20-C , 23-H ) :   0.9169 B( 21-C , 22-C ) :   1.4500
B( 21-C , 24-H ) :   0.9193 B( 22-C , 27-H ) :   0.9058 B( 28-C , 29-H ) :   0.8973
B( 28-C , 30-H ) :   0.9143 B( 31-O , 32-C ) :   1.2312 B( 32-C , 33-O ) :   1.9009
B( 32-C , 34-C ) :   0.9242 B( 34-C , 35-H ) :   0.9157 B( 34-C , 36-H ) :   0.9116
B( 34-C , 37-H ) :   0.9194

Dispersion correction           -0.026270696
FINAL SINGLE POINT ENERGY      -988.522559877522
Dispersion correction            ... done

DIPOLE MOMENT
-------------
                                X             Y             Z
Electronic contribution:     21.32159      14.82932     -20.60044
Nuclear contribution   :    -23.02234     -15.55625      21.50328
                        -----------------------------------------
Total Dipole Moment    :     -1.70075      -0.72694       0.90284
                        -----------------------------------------
Magnitude (a.u.)       :      2.05818
Magnitude (Debye)      :      5.23149

Rotational constants in cm-1:     0.014176     0.008544     0.006863
Rotational constants in MHz :   424.995583   256.148605   205.735720

                             ****ORCA TERMINATED NORMALLY****
TOTAL RUN TIME: 0 days 0 hours 15 minutes 46 seconds 737 msec
