                         Program Version 5.0.3 -  RELEASE  -
|  1> ! EnGrad PBEh-3c
|  2> %output
|  3> xyzfile=True
|  4> end
|  5> %scf
|  6> maxiter 250
|  7> end
|  8> %output
|  9> Print[P_Hirshfeld] = 1
| 10> end
| 11> % maxcore
| 12> 4000
| 13> *xyz 0 1
| 14> Pd   0.50485335   0.33597403  -0.42699714
| 15> O    2.04353272   1.31568713   0.31395817
| 16> C    1.59103157   2.51547361   0.29712284
| 17> O    0.39696513   2.72916351   0.02550492
| 18> C    2.60613850   3.59563108   0.57959122
| 19> H    2.14505604   4.47884027   1.00782844
| 20> H    3.08356866   3.89351703  -0.35416153
| 21> H    3.38969191   3.23462719   1.24557176
| 22> N   -1.31724272  -0.60010980  -1.10523840
| 23> C   -1.16254192  -1.68151822  -2.09814225
| 24> H   -0.66457847  -1.30206002  -2.97784294
| 25> H   -2.14323902  -2.08144234  -2.37781584
| 26> H   -0.56234084  -2.48975514  -1.68898614
| 27> C   -2.12841085   0.48072884  -1.69880204
| 28> H   -2.29928557   1.26724992  -0.96356564
| 29> H   -3.10259483   0.08282472  -2.00915132
| 30> H   -1.61660779   0.90459651  -2.55649968
| 31> C   -1.61320209  -0.80239071   1.44887422
| 32> C   -1.20347379  -1.90271045   2.19797470
| 33> C   -0.95921952  -1.78654922   3.55959994
| 34> C   -1.16200642  -0.58235300   4.20606289
| 35> C   -1.49641556   0.52025362   3.40899800
| 36> C   -1.67291930   0.41684149   2.06411572
| 37> H   -1.07092205  -0.53582818   5.32498214
| 38> H   -1.60716128   1.45572470   3.95574606
| 39> H   -1.08681276  -2.88911150   1.69526487
| 40> H   -0.62573305  -2.65434265   4.09418934
| 41> H   -1.89051459   1.27581236   1.49082333
| 42> C   -2.08616057  -1.14608731   0.06261444
| 43> H   -3.13894111  -0.85948002  -0.03481367
| 44> H   -2.07678445  -2.23656023   0.00578711
| 45> O    1.87864505  -0.85444969  -1.24213278
| 46> C    2.16574814  -0.50566856  -2.47148248
| 47> O    1.41267787   0.00883267  -3.25988326
| 48> C    3.61480292  -0.84356361  -2.85286080
| 49> H    3.71452908  -1.91542494  -3.01978717
| 50> H    4.32977487  -0.56138669  -2.08108924
| 51> H    3.88954044  -0.34513438  -3.77956356
| 52> *
| 53>
| 54>                          ****END OF INPUT****

CARTESIAN COORDINATES (ANGSTROEM)
---------------------------------
  Pd     0.504853    0.335974   -0.426997
  O      2.043533    1.315687    0.313958
  C      1.591032    2.515474    0.297123
  O      0.396965    2.729164    0.025505
  C      2.606139    3.595631    0.579591
  H      2.145056    4.478840    1.007828
  H      3.083569    3.893517   -0.354162
  H      3.389692    3.234627    1.245572
  N     -1.317243   -0.600110   -1.105238
  C     -1.162542   -1.681518   -2.098142
  H     -0.664578   -1.302060   -2.977843
  H     -2.143239   -2.081442   -2.377816
  H     -0.562341   -2.489755   -1.688986
  C     -2.128411    0.480729   -1.698802
  H     -2.299286    1.267250   -0.963566
  H     -3.102595    0.082825   -2.009151
  H     -1.616608    0.904597   -2.556500
  C     -1.613202   -0.802391    1.448874
  C     -1.203474   -1.902710    2.197975
  C     -0.959220   -1.786549    3.559600
  C     -1.162006   -0.582353    4.206063
  C     -1.496416    0.520254    3.408998
  C     -1.672919    0.416841    2.064116
  H     -1.070922   -0.535828    5.324982
  H     -1.607161    1.455725    3.955746
  H     -1.086813   -2.889111    1.695265
  H     -0.625733   -2.654343    4.094189
  H     -1.890515    1.275812    1.490823
  C     -2.086161   -1.146087    0.062614
  H     -3.138941   -0.859480   -0.034814
  H     -2.076784   -2.236560    0.005787
  O      1.878645   -0.854450   -1.242133
  C      2.165748   -0.505669   -2.471482
  O      1.412678    0.008833   -3.259883
  C      3.614803   -0.843564   -2.852861
  H      3.714529   -1.915425   -3.019787
  H      4.329775   -0.561387   -2.081089
  H      3.889540   -0.345134   -3.779564

 Total Charge           Charge          ....    0
 Multiplicity           Mult            ....    1
 Number of Electrons    NEL             ....  154
 Basis Dimension        Dim             ....  339

ORBITAL ENERGIES
----------------

  NO   OCC          E(Eh)            E(eV)
   0   2.0000     -19.496562      -530.5284
   1   2.0000     -19.476064      -529.9706
   2   2.0000     -19.475144      -529.9456
   3   2.0000     -19.438934      -528.9603
   4   2.0000     -14.721628      -400.5959
   5   2.0000     -10.560545      -287.3670
   6   2.0000     -10.535173      -286.6766
   7   2.0000     -10.503283      -285.8089
   8   2.0000     -10.486447      -285.3507
   9   2.0000     -10.476072      -285.0684
  10   2.0000     -10.474720      -285.0316
  11   2.0000     -10.466056      -284.7959
  12   2.0000     -10.464574      -284.7555
  13   2.0000     -10.461490      -284.6716
  14   2.0000     -10.458828      -284.5992
  15   2.0000     -10.458786      -284.5980
  16   2.0000     -10.433130      -283.8999
  17   2.0000     -10.413115      -283.3553
  18   2.0000      -3.661539       -99.6355
  19   2.0000      -2.312848       -62.9358
  20   2.0000      -2.303013       -62.6682
  21   2.0000      -2.271672       -61.8153
  22   2.0000      -1.186117       -32.2759
  23   2.0000      -1.151998       -31.3475
  24   2.0000      -1.076908       -29.3041
  25   2.0000      -1.074569       -29.2405
  26   2.0000      -1.056920       -28.7603
  27   2.0000      -0.981615       -26.7111
  28   2.0000      -0.886150       -24.1134
  29   2.0000      -0.856763       -23.3137
  30   2.0000      -0.822619       -22.3846
  31   2.0000      -0.820577       -22.3290
  32   2.0000      -0.801393       -21.8070
  33   2.0000      -0.790772       -21.5180
  34   2.0000      -0.722244       -19.6533
  35   2.0000      -0.700997       -19.0751
  36   2.0000      -0.677595       -18.4383
  37   2.0000      -0.612706       -16.6726
  38   2.0000      -0.604111       -16.4387
  39   2.0000      -0.585349       -15.9282
  40   2.0000      -0.572589       -15.5809
  41   2.0000      -0.570932       -15.5358
  42   2.0000      -0.561770       -15.2865
  43   2.0000      -0.537054       -14.6140
  44   2.0000      -0.533364       -14.5136
  45   2.0000      -0.528763       -14.3884
  46   2.0000      -0.524962       -14.2849
  47   2.0000      -0.516871       -14.0648
  48   2.0000      -0.508197       -13.8287
  49   2.0000      -0.498776       -13.5724
  50   2.0000      -0.495873       -13.4934
  51   2.0000      -0.494713       -13.4618
  52   2.0000      -0.487777       -13.2731
  53   2.0000      -0.482939       -13.1414
  54   2.0000      -0.460523       -12.5315
  55   2.0000      -0.451319       -12.2810
  56   2.0000      -0.449763       -12.2387
  57   2.0000      -0.445331       -12.1181
  58   2.0000      -0.438971       -11.9450
  59   2.0000      -0.433141       -11.7864
  60   2.0000      -0.429591       -11.6898
  61   2.0000      -0.418358       -11.3841
  62   2.0000      -0.415587       -11.3087
  63   2.0000      -0.407698       -11.0940
  64   2.0000      -0.401635       -10.9290
  65   2.0000      -0.378885       -10.3100
  66   2.0000      -0.370796       -10.0899
  67   2.0000      -0.354782        -9.6541
  68   2.0000      -0.350949        -9.5498
  69   2.0000      -0.346394        -9.4258
  70   2.0000      -0.323714        -8.8087
  71   2.0000      -0.317007        -8.6262
  72   2.0000      -0.308683        -8.3997
  73   2.0000      -0.306137        -8.3304
  74   2.0000      -0.295354        -8.0370
  75   2.0000      -0.293559        -7.9881
  76   2.0000      -0.280878        -7.6431
  77   0.0000      -0.067493        -1.8366
  78   0.0000      -0.005319        -0.1447
  79   0.0000       0.005956         0.1621
  80   0.0000       0.056920         1.5489
  81   0.0000       0.065505         1.7825

MULLIKEN ATOMIC CHARGES
-----------------------
   0 Pd:    0.552623
   1 O :   -0.494852
   2 C :    0.625269
   3 O :   -0.485460
   4 C :   -0.762640
   5 H :    0.245402
   6 H :    0.257459
   7 H :    0.253459
   8 N :   -0.480633
   9 C :   -0.542969
  10 H :    0.301166
  11 H :    0.218213
  12 H :    0.268729
  13 C :   -0.546882
  14 H :    0.266226
  15 H :    0.230071
  16 H :    0.298316
  17 C :    0.115539
  18 C :   -0.268372
  19 C :   -0.209399
  20 C :   -0.223478
  21 C :   -0.226031
  22 C :   -0.254281
  23 H :    0.227696
  24 H :    0.227916
  25 H :    0.217397
  26 H :    0.228030
  27 H :    0.246063
  28 C :   -0.342996
  29 H :    0.249617
  30 H :    0.254720
  31 O :   -0.537529
  32 C :    0.562498
  33 O :   -0.446492
  34 C :   -0.742243
  35 H :    0.233445
  36 H :    0.247201
  37 H :    0.237201
Sum of atomic charges:   -0.0000000

LOEWDIN ATOMIC CHARGES
----------------------
   0 Pd:   -0.226479
   1 O :   -0.142013
   2 C :    0.171387
   3 O :   -0.225746
   4 C :   -0.380369
   5 H :    0.147159
   6 H :    0.161132
   7 H :    0.153546
   8 N :   -0.065387
   9 C :   -0.239902
  10 H :    0.165096
  11 H :    0.118355
  12 H :    0.149940
  13 C :   -0.233099
  14 H :    0.149461
  15 H :    0.124287
  16 H :    0.164058
  17 C :   -0.053715
  18 C :   -0.115196
  19 C :   -0.125468
  20 C :   -0.124450
  21 C :   -0.116198
  22 C :   -0.115720
  23 H :    0.142702
  24 H :    0.142443
  25 H :    0.139779
  26 H :    0.139519
  27 H :    0.155616
  28 C :   -0.102867
  29 H :    0.143444
  30 H :    0.146453
  31 O :   -0.185084
  32 C :    0.134402
  33 O :   -0.245976
  34 C :   -0.384734
  35 H :    0.145877
  36 H :    0.147683
  37 H :    0.140065

  Mayer bond orders larger than 0.100000
B(  0-Pd,  1-O ) :   0.6443 B(  0-Pd,  3-O ) :   0.3058 B(  0-Pd,  8-N ) :   0.4072
B(  0-Pd, 31-O ) :   0.6769 B(  1-O ,  2-C ) :   1.3133 B(  1-O ,  3-O ) :   0.1005
B(  2-C ,  3-O ) :   1.6835 B(  2-C ,  4-C ) :   0.9471 B(  4-C ,  5-H ) :   0.9134
B(  4-C ,  6-H ) :   0.9047 B(  4-C ,  7-H ) :   0.9090 B(  8-N ,  9-C ) :   0.9176
B(  8-N , 13-C ) :   0.9182 B(  8-N , 28-C ) :   0.8795 B(  9-C , 10-H ) :   0.8749
B(  9-C , 11-H ) :   0.9045 B(  9-C , 12-H ) :   0.9035 B( 13-C , 14-H ) :   0.8983
B( 13-C , 15-H ) :   0.9022 B( 13-C , 16-H ) :   0.8891 B( 17-C , 18-C ) :   1.4013
B( 17-C , 22-C ) :   1.3768 B( 17-C , 28-C ) :   0.9330 B( 18-C , 19-C ) :   1.4337
B( 18-C , 25-H ) :   0.9175 B( 19-C , 20-C ) :   1.4324 B( 19-C , 26-H ) :   0.9151
B( 20-C , 21-C ) :   1.4037 B( 20-C , 23-H ) :   0.9167 B( 21-C , 22-C ) :   1.4490
B( 21-C , 24-H ) :   0.9179 B( 22-C , 27-H ) :   0.9082 B( 28-C , 29-H ) :   0.8973
B( 28-C , 30-H ) :   0.9153 B( 31-O , 32-C ) :   1.2373 B( 32-C , 33-O ) :   1.8869
B( 32-C , 34-C ) :   0.9251 B( 34-C , 35-H ) :   0.9155 B( 34-C , 36-H ) :   0.9117
B( 34-C , 37-H ) :   0.9192

Dispersion correction           -0.026268805
FINAL SINGLE POINT ENERGY      -988.525548556434
Dispersion correction            ... done

DIPOLE MOMENT
-------------
                                X             Y             Z
Electronic contribution:     21.78448      15.14722     -21.02060
Nuclear contribution   :    -23.44082     -15.84028      21.94926
                        -----------------------------------------
Total Dipole Moment    :     -1.65634      -0.69305       0.92867
                        -----------------------------------------
Magnitude (a.u.)       :      2.02144
Magnitude (Debye)      :      5.13808

Rotational constants in cm-1:     0.014203     0.008548     0.006875
Rotational constants in MHz :   425.798135   256.260111   206.112231

                             ****ORCA TERMINATED NORMALLY****
TOTAL RUN TIME: 0 days 0 hours 16 minutes 40 seconds 777 msec
