                         Program Version 5.0.3 -  RELEASE  -
|  1> ! EnGrad PBEh-3c
|  2> %output
|  3> xyzfile=True
|  4> end
|  5> %scf
|  6> maxiter 250
|  7> end
|  8> %output
|  9> Print[P_Hirshfeld] = 1
| 10> end
| 11> % maxcore
| 12> 4000
| 13> *xyz 0 1
| 14> Pd   0.52621287   0.34912844  -0.45845594
| 15> O    2.07295917   1.31264036   0.27001103
| 16> C    1.58931617   2.49923734   0.30051470
| 17> O    0.37471724   2.68297702   0.07847028
| 18> C    2.58796533   3.59337547   0.57371939
| 19> H    2.11508720   4.47492234   1.00028246
| 20> H    3.06817749   3.89705789  -0.36296742
| 21> H    3.38315592   3.24397298   1.24112396
| 22> N   -1.32643647  -0.57921665  -1.11025895
| 23> C   -1.17346097  -1.63855511  -2.12062268
| 24> H   -0.68208024  -1.24494186  -2.99913323
| 25> H   -2.15343421  -2.04114932  -2.38653917
| 26> H   -0.56162995  -2.44031199  -1.72782217
| 27> C   -2.14033810   0.50490105  -1.68160035
| 28> H   -2.31152514   1.28342994  -0.93897314
| 29> H   -3.10942822   0.10710973  -2.00213918
| 30> H   -1.63621844   0.94278601  -2.53653097
| 31> C   -1.58800942  -0.82442050   1.43066526
| 32> C   -1.14001539  -1.92131004   2.16754057
| 33> C   -0.92875909  -1.76725038   3.55029008
| 34> C   -1.16088544  -0.56320969   4.21969693
| 35> C   -1.52047442   0.50885905   3.41923590
| 36> C   -1.68387781   0.39679006   2.06250266
| 37> H   -1.08548655  -0.50035386   5.33557627
| 38> H   -1.67908751   1.41311471   3.91991635
| 39> H   -0.99677840  -2.89843508   1.68872555
| 40> H   -0.58513551  -2.65725010   4.12859345
| 41> H   -1.94455132   1.30099511   1.49427289
| 42> C   -2.06334745  -1.15349114   0.06103493
| 43> H   -3.12663090  -0.89310236  -0.03907439
| 44> H   -2.02653181  -2.25385831  -0.01429903
| 45> O    1.84666193  -0.90050916  -1.26025580
| 46> C    2.17579046  -0.50458591  -2.45999361
| 47> O    1.44655889   0.08417582  -3.24920433
| 48> C    3.60596515  -0.89047859  -2.82909696
| 49> H    3.68581449  -1.97562607  -2.96490647
| 50> H    4.33045416  -0.60962445  -2.05356356
| 51> H    3.89710905  -0.41694419  -3.76857465
| 52> *
| 53>
| 54>                          ****END OF INPUT****

CARTESIAN COORDINATES (ANGSTROEM)
---------------------------------
  Pd     0.526213    0.349128   -0.458456
  O      2.072959    1.312640    0.270011
  C      1.589316    2.499237    0.300515
  O      0.374717    2.682977    0.078470
  C      2.587965    3.593375    0.573719
  H      2.115087    4.474922    1.000282
  H      3.068177    3.897058   -0.362967
  H      3.383156    3.243973    1.241124
  N     -1.326436   -0.579217   -1.110259
  C     -1.173461   -1.638555   -2.120623
  H     -0.682080   -1.244942   -2.999133
  H     -2.153434   -2.041149   -2.386539
  H     -0.561630   -2.440312   -1.727822
  C     -2.140338    0.504901   -1.681600
  H     -2.311525    1.283430   -0.938973
  H     -3.109428    0.107110   -2.002139
  H     -1.636218    0.942786   -2.536531
  C     -1.588009   -0.824421    1.430665
  C     -1.140015   -1.921310    2.167541
  C     -0.928759   -1.767250    3.550290
  C     -1.160885   -0.563210    4.219697
  C     -1.520474    0.508859    3.419236
  C     -1.683878    0.396790    2.062503
  H     -1.085487   -0.500354    5.335576
  H     -1.679088    1.413115    3.919916
  H     -0.996778   -2.898435    1.688726
  H     -0.585136   -2.657250    4.128593
  H     -1.944551    1.300995    1.494273
  C     -2.063347   -1.153491    0.061035
  H     -3.126631   -0.893102   -0.039074
  H     -2.026532   -2.253858   -0.014299
  O      1.846662   -0.900509   -1.260256
  C      2.175790   -0.504586   -2.459994
  O      1.446559    0.084176   -3.249204
  C      3.605965   -0.890479   -2.829097
  H      3.685814   -1.975626   -2.964906
  H      4.330454   -0.609624   -2.053564
  H      3.897109   -0.416944   -3.768575

 Total Charge           Charge          ....    0
 Multiplicity           Mult            ....    1
 Number of Electrons    NEL             ....  154
 Basis Dimension        Dim             ....  339

ORBITAL ENERGIES
----------------

  NO   OCC          E(Eh)            E(eV)
   0   2.0000     -19.499570      -530.6103
   1   2.0000     -19.480805      -530.0997
   2   2.0000     -19.478269      -530.0307
   3   2.0000     -19.437903      -528.9322
   4   2.0000     -14.719007      -400.5246
   5   2.0000     -10.564671      -287.4793
   6   2.0000     -10.536839      -286.7220
   7   2.0000     -10.502343      -285.7833
   8   2.0000     -10.484644      -285.3017
   9   2.0000     -10.474876      -285.0359
  10   2.0000     -10.474154      -285.0162
  11   2.0000     -10.466110      -284.7973
  12   2.0000     -10.465633      -284.7843
  13   2.0000     -10.465104      -284.7700
  14   2.0000     -10.462890      -284.7097
  15   2.0000     -10.455586      -284.5109
  16   2.0000     -10.436817      -284.0002
  17   2.0000     -10.415664      -283.4246
  18   2.0000      -3.661322       -99.6296
  19   2.0000      -2.312228       -62.9189
  20   2.0000      -2.303575       -62.6835
  21   2.0000      -2.271021       -61.7976
  22   2.0000      -1.189581       -32.3701
  23   2.0000      -1.147439       -31.2234
  24   2.0000      -1.079271       -29.3685
  25   2.0000      -1.075415       -29.2635
  26   2.0000      -1.053881       -28.6776
  27   2.0000      -0.977226       -26.5917
  28   2.0000      -0.887592       -24.1526
  29   2.0000      -0.849432       -23.1142
  30   2.0000      -0.822885       -22.3918
  31   2.0000      -0.822157       -22.3720
  32   2.0000      -0.801195       -21.8016
  33   2.0000      -0.791807       -21.5462
  34   2.0000      -0.720635       -19.6095
  35   2.0000      -0.699514       -19.0347
  36   2.0000      -0.673465       -18.3259
  37   2.0000      -0.613563       -16.6959
  38   2.0000      -0.602798       -16.4030
  39   2.0000      -0.586977       -15.9725
  40   2.0000      -0.571929       -15.5630
  41   2.0000      -0.570456       -15.5229
  42   2.0000      -0.561418       -15.2770
  43   2.0000      -0.539910       -14.6917
  44   2.0000      -0.533743       -14.5239
  45   2.0000      -0.531499       -14.4628
  46   2.0000      -0.522854       -14.2276
  47   2.0000      -0.519044       -14.1239
  48   2.0000      -0.507270       -13.8035
  49   2.0000      -0.496181       -13.5018
  50   2.0000      -0.495154       -13.4738
  51   2.0000      -0.490048       -13.3349
  52   2.0000      -0.488620       -13.2960
  53   2.0000      -0.481295       -13.0967
  54   2.0000      -0.461523       -12.5587
  55   2.0000      -0.452454       -12.3119
  56   2.0000      -0.447535       -12.1780
  57   2.0000      -0.443419       -12.0660
  58   2.0000      -0.439452       -11.9581
  59   2.0000      -0.431476       -11.7411
  60   2.0000      -0.428825       -11.6689
  61   2.0000      -0.417864       -11.3707
  62   2.0000      -0.416549       -11.3349
  63   2.0000      -0.408522       -11.1164
  64   2.0000      -0.398023       -10.8308
  65   2.0000      -0.378669       -10.3041
  66   2.0000      -0.371010       -10.0957
  67   2.0000      -0.357478        -9.7275
  68   2.0000      -0.350763        -9.5448
  69   2.0000      -0.346793        -9.4367
  70   2.0000      -0.321800        -8.7566
  71   2.0000      -0.317542        -8.6408
  72   2.0000      -0.308450        -8.3934
  73   2.0000      -0.303830        -8.2676
  74   2.0000      -0.295792        -8.0489
  75   2.0000      -0.294985        -8.0270
  76   2.0000      -0.278825        -7.5872
  77   0.0000      -0.064160        -1.7459
  78   0.0000      -0.005939        -0.1616
  79   0.0000       0.005123         0.1394
  80   0.0000       0.053682         1.4608
  81   0.0000       0.066713         1.8153

MULLIKEN ATOMIC CHARGES
-----------------------
   0 Pd:    0.550360
   1 O :   -0.495477
   2 C :    0.636250
   3 O :   -0.487704
   4 C :   -0.764343
   5 H :    0.245735
   6 H :    0.258895
   7 H :    0.254483
   8 N :   -0.476748
   9 C :   -0.543235
  10 H :    0.298912
  11 H :    0.218256
  12 H :    0.270114
  13 C :   -0.546562
  14 H :    0.266018
  15 H :    0.228499
  16 H :    0.297026
  17 C :    0.117713
  18 C :   -0.252206
  19 C :   -0.234119
  20 C :   -0.212924
  21 C :   -0.214799
  22 C :   -0.261768
  23 H :    0.229238
  24 H :    0.232125
  25 H :    0.222978
  26 H :    0.220053
  27 H :    0.240420
  28 C :   -0.347059
  29 H :    0.248544
  30 H :    0.251490
  31 O :   -0.537036
  32 C :    0.572294
  33 O :   -0.462010
  34 C :   -0.740630
  35 H :    0.233183
  36 H :    0.246208
  37 H :    0.237823
Sum of atomic charges:   -0.0000000

LOEWDIN ATOMIC CHARGES
----------------------
   0 Pd:   -0.235413
   1 O :   -0.139939
   2 C :    0.178169
   3 O :   -0.221070
   4 C :   -0.379537
   5 H :    0.147372
   6 H :    0.162311
   7 H :    0.155270
   8 N :   -0.066588
   9 C :   -0.240177
  10 H :    0.164626
  11 H :    0.118028
  12 H :    0.149888
  13 C :   -0.234646
  14 H :    0.149106
  15 H :    0.123390
  16 H :    0.163422
  17 C :   -0.054383
  18 C :   -0.118548
  19 C :   -0.119739
  20 C :   -0.128741
  21 C :   -0.120234
  22 C :   -0.112081
  23 H :    0.144179
  24 H :    0.140426
  25 H :    0.143014
  26 H :    0.137013
  27 H :    0.156004
  28 C :   -0.102596
  29 H :    0.143011
  30 H :    0.146236
  31 O :   -0.182744
  32 C :    0.143722
  33 O :   -0.262503
  34 C :   -0.382200
  35 H :    0.146322
  36 H :    0.149078
  37 H :    0.140552

  Mayer bond orders larger than 0.100000
B(  0-Pd,  1-O ) :   0.6406 B(  0-Pd,  3-O ) :   0.3291 B(  0-Pd,  8-N ) :   0.4045
B(  0-Pd, 31-O ) :   0.6694 B(  0-Pd, 33-O ) :   0.1068 B(  1-O ,  2-C ) :   1.3181
B(  1-O ,  3-O ) :   0.1007 B(  2-C ,  3-O ) :   1.6613 B(  2-C ,  4-C ) :   0.9480
B(  4-C ,  5-H ) :   0.9128 B(  4-C ,  6-H ) :   0.9035 B(  4-C ,  7-H ) :   0.9083
B(  8-N ,  9-C ) :   0.9196 B(  8-N , 13-C ) :   0.9213 B(  8-N , 28-C ) :   0.8796
B(  9-C , 10-H ) :   0.8772 B(  9-C , 11-H ) :   0.9045 B(  9-C , 12-H ) :   0.9025
B( 13-C , 14-H ) :   0.8990 B( 13-C , 15-H ) :   0.9025 B( 13-C , 16-H ) :   0.8896
B( 17-C , 18-C ) :   1.3995 B( 17-C , 22-C ) :   1.3722 B( 17-C , 28-C ) :   0.9319
B( 18-C , 19-C ) :   1.4301 B( 18-C , 25-H ) :   0.9161 B( 19-C , 20-C ) :   1.4227
B( 19-C , 26-H ) :   0.9184 B( 20-C , 21-C ) :   1.4127 B( 20-C , 23-H ) :   0.9161
B( 21-C , 22-C ) :   1.4490 B( 21-C , 24-H ) :   0.9140 B( 22-C , 27-H ) :   0.9120
B( 28-C , 29-H ) :   0.8967 B( 28-C , 30-H ) :   0.9175 B( 31-O , 32-C ) :   1.2440
B( 32-C , 33-O ) :   1.8624 B( 32-C , 34-C ) :   0.9279 B( 34-C , 35-H ) :   0.9146
B( 34-C , 36-H ) :   0.9111 B( 34-C , 37-H ) :   0.9190

Dispersion correction           -0.026227050
FINAL SINGLE POINT ENERGY      -988.527674408611
Dispersion correction            ... done

DIPOLE MOMENT
-------------
                                X             Y             Z
Electronic contribution:     22.94238      15.97143     -22.66064
Nuclear contribution   :    -24.53461     -16.58113      23.60515
                        -----------------------------------------
Total Dipole Moment    :     -1.59223      -0.60970       0.94451
                        -----------------------------------------
Magnitude (a.u.)       :      1.94911
Magnitude (Debye)      :      4.95425

Rotational constants in cm-1:     0.014246     0.008539     0.006908
Rotational constants in MHz :   427.071748   256.001441   207.101852

                             ****ORCA TERMINATED NORMALLY****
TOTAL RUN TIME: 0 days 0 hours 12 minutes 36 seconds 831 msec
