                         Program Version 5.0.3 -  RELEASE  -
|  1> ! EnGrad PBEh-3c
|  2> %output
|  3> xyzfile=True
|  4> end
|  5> %scf
|  6> maxiter 250
|  7> end
|  8> %output
|  9> Print[P_Hirshfeld] = 1
| 10> end
| 11> % maxcore
| 12> 4000
| 13> *xyz 0 1
| 14> Pd   0.53078488   0.35392446  -0.46814474
| 15> O    2.08125337   1.31027861   0.24738046
| 16> C    1.58814999   2.48998263   0.30321400
| 17> O    0.37239475   2.66063306   0.10165547
| 18> C    2.58012403   3.59323048   0.57235784
| 19> H    2.10414439   4.47456685   0.99849585
| 20> H    3.06222901   3.89440326  -0.36622819
| 21> H    3.37743558   3.24470541   1.23794084
| 22> N   -1.32976822  -0.57171394  -1.10753249
| 23> C   -1.17568350  -1.62413497  -2.12603079
| 24> H   -0.68719260  -1.22749056  -3.00786658
| 25> H   -2.15514084  -2.03035879  -2.38922766
| 26> H   -0.56039621  -2.42594507  -1.73771529
| 27> C   -2.14337151   0.51159897  -1.67658579
| 28> H   -2.31772005   1.28744884  -0.93363670
| 29> H   -3.11113368   0.11696064  -2.00111445
| 30> H   -1.64290317   0.95603232  -2.53174542
| 31> C   -1.57482906  -0.82849212   1.42812592
| 32> C   -1.11933238  -1.92892986   2.17362750
| 33> C   -0.91943015  -1.77033272   3.55441512
| 34> C   -1.15920695  -0.57569696   4.22179902
| 35> C   -1.52148637   0.51451296   3.42877272
| 36> C   -1.69147491   0.39225233   2.06045988
| 37> H   -1.09101122  -0.48827520   5.32180029
| 38> H   -1.69869235   1.42365775   3.90862719
| 39> H   -0.97104406  -2.89830268   1.69234658
| 40> H   -0.57385496  -2.65789737   4.13901431
| 41> H   -1.96013510   1.30513976   1.48669202
| 42> C   -2.05831736  -1.16126073   0.05541921
| 43> H   -3.12051010  -0.90205708  -0.03998903
| 44> H   -2.01130745  -2.25421182  -0.02491990
| 45> O    1.83041959  -0.91691301  -1.27183067
| 46> C    2.18393826  -0.50508098  -2.45489827
| 47> O    1.46030424   0.11155111  -3.24122465
| 48> C    3.60334149  -0.90473246  -2.82408660
| 49> H    3.67623562  -1.99338864  -2.94538874
| 50> H    4.32546741  -0.62457521  -2.04406558
| 51> H    3.90095079  -0.43760020  -3.76481929
| 52> *
| 53>
| 54>                          ****END OF INPUT****

CARTESIAN COORDINATES (ANGSTROEM)
---------------------------------
  Pd     0.530785    0.353924   -0.468145
  O      2.081253    1.310279    0.247380
  C      1.588150    2.489983    0.303214
  O      0.372395    2.660633    0.101655
  C      2.580124    3.593230    0.572358
  H      2.104144    4.474567    0.998496
  H      3.062229    3.894403   -0.366228
  H      3.377436    3.244705    1.237941
  N     -1.329768   -0.571714   -1.107532
  C     -1.175684   -1.624135   -2.126031
  H     -0.687193   -1.227491   -3.007867
  H     -2.155141   -2.030359   -2.389228
  H     -0.560396   -2.425945   -1.737715
  C     -2.143372    0.511599   -1.676586
  H     -2.317720    1.287449   -0.933637
  H     -3.111134    0.116961   -2.001114
  H     -1.642903    0.956032   -2.531745
  C     -1.574829   -0.828492    1.428126
  C     -1.119332   -1.928930    2.173627
  C     -0.919430   -1.770333    3.554415
  C     -1.159207   -0.575697    4.221799
  C     -1.521486    0.514513    3.428773
  C     -1.691475    0.392252    2.060460
  H     -1.091011   -0.488275    5.321800
  H     -1.698692    1.423658    3.908627
  H     -0.971044   -2.898303    1.692347
  H     -0.573855   -2.657897    4.139014
  H     -1.960135    1.305140    1.486692
  C     -2.058317   -1.161261    0.055419
  H     -3.120510   -0.902057   -0.039989
  H     -2.011307   -2.254212   -0.024920
  O      1.830420   -0.916913   -1.271831
  C      2.183938   -0.505081   -2.454898
  O      1.460304    0.111551   -3.241225
  C      3.603341   -0.904732   -2.824087
  H      3.676236   -1.993389   -2.945389
  H      4.325467   -0.624575   -2.044066
  H      3.900951   -0.437600   -3.764819

 Total Charge           Charge          ....    0
 Multiplicity           Mult            ....    1
 Number of Electrons    NEL             ....  154
 Basis Dimension        Dim             ....  339

ORBITAL ENERGIES
----------------

  NO   OCC          E(Eh)            E(eV)
   0   2.0000     -19.500089      -530.6244
   1   2.0000     -19.482753      -530.1527
   2   2.0000     -19.477867      -530.0197
   3   2.0000     -19.435688      -528.8720
   4   2.0000     -14.718190      -400.5023
   5   2.0000     -10.565330      -287.4973
   6   2.0000     -10.536224      -286.7052
   7   2.0000     -10.501583      -285.7626
   8   2.0000     -10.484055      -285.2856
   9   2.0000     -10.475749      -285.0596
  10   2.0000     -10.473960      -285.0109
  11   2.0000     -10.466304      -284.8026
  12   2.0000     -10.464968      -284.7663
  13   2.0000     -10.464769      -284.7608
  14   2.0000     -10.464182      -284.7449
  15   2.0000     -10.457304      -284.5577
  16   2.0000     -10.437817      -284.0275
  17   2.0000     -10.416150      -283.4379
  18   2.0000      -3.661210       -99.6266
  19   2.0000      -2.312159       -62.9171
  20   2.0000      -2.303578       -62.6835
  21   2.0000      -2.270750       -61.7903
  22   2.0000      -1.193312       -32.4717
  23   2.0000      -1.145785       -31.1784
  24   2.0000      -1.081812       -29.4376
  25   2.0000      -1.076007       -29.2796
  26   2.0000      -1.050541       -28.5867
  27   2.0000      -0.974200       -26.5093
  28   2.0000      -0.885674       -24.1004
  29   2.0000      -0.848360       -23.0851
  30   2.0000      -0.823235       -22.4014
  31   2.0000      -0.821822       -22.3629
  32   2.0000      -0.800787       -21.7905
  33   2.0000      -0.793154       -21.5828
  34   2.0000      -0.719797       -19.5867
  35   2.0000      -0.699460       -19.0333
  36   2.0000      -0.672639       -18.3034
  37   2.0000      -0.614016       -16.7082
  38   2.0000      -0.601873       -16.3778
  39   2.0000      -0.587062       -15.9748
  40   2.0000      -0.572045       -15.5661
  41   2.0000      -0.570135       -15.5142
  42   2.0000      -0.561688       -15.2843
  43   2.0000      -0.541867       -14.7449
  44   2.0000      -0.535486       -14.5713
  45   2.0000      -0.531103       -14.4521
  46   2.0000      -0.523120       -14.2348
  47   2.0000      -0.520598       -14.1662
  48   2.0000      -0.506706       -13.7882
  49   2.0000      -0.495529       -13.4840
  50   2.0000      -0.494218       -13.4483
  51   2.0000      -0.489795       -13.3280
  52   2.0000      -0.487529       -13.2663
  53   2.0000      -0.480512       -13.0754
  54   2.0000      -0.461009       -12.5447
  55   2.0000      -0.453591       -12.3428
  56   2.0000      -0.446723       -12.1560
  57   2.0000      -0.442762       -12.0482
  58   2.0000      -0.439989       -11.9727
  59   2.0000      -0.432189       -11.7604
  60   2.0000      -0.429001       -11.6737
  61   2.0000      -0.417680       -11.3656
  62   2.0000      -0.417222       -11.3532
  63   2.0000      -0.409406       -11.1405
  64   2.0000      -0.396611       -10.7923
  65   2.0000      -0.378697       -10.3049
  66   2.0000      -0.370440       -10.0802
  67   2.0000      -0.358482        -9.7548
  68   2.0000      -0.350766        -9.5448
  69   2.0000      -0.346765        -9.4360
  70   2.0000      -0.321592        -8.7510
  71   2.0000      -0.317753        -8.6465
  72   2.0000      -0.307139        -8.3577
  73   2.0000      -0.303031        -8.2459
  74   2.0000      -0.295567        -8.0428
  75   2.0000      -0.294860        -8.0235
  76   2.0000      -0.276875        -7.5342
  77   0.0000      -0.062733        -1.7070
  78   0.0000      -0.005400        -0.1469
  79   0.0000       0.003841         0.1045
  80   0.0000       0.053543         1.4570
  81   0.0000       0.067480         1.8362

MULLIKEN ATOMIC CHARGES
-----------------------
   0 Pd:    0.551508
   1 O :   -0.496106
   2 C :    0.638256
   3 O :   -0.484655
   4 C :   -0.764954
   5 H :    0.245628
   6 H :    0.259241
   7 H :    0.254585
   8 N :   -0.475965
   9 C :   -0.544215
  10 H :    0.298423
  11 H :    0.218238
  12 H :    0.270458
  13 C :   -0.547491
  14 H :    0.265742
  15 H :    0.228488
  16 H :    0.296980
  17 C :    0.111972
  18 C :   -0.249536
  19 C :   -0.230939
  20 C :   -0.213422
  21 C :   -0.213000
  22 C :   -0.268054
  23 H :    0.229411
  24 H :    0.233069
  25 H :    0.223745
  26 H :    0.218911
  27 H :    0.239246
  28 C :   -0.343007
  29 H :    0.248743
  30 H :    0.252355
  31 O :   -0.536847
  32 C :    0.575128
  33 O :   -0.470134
  34 C :   -0.740198
  35 H :    0.233431
  36 H :    0.245962
  37 H :    0.239003
Sum of atomic charges:   -0.0000000

LOEWDIN ATOMIC CHARGES
----------------------
   0 Pd:   -0.238581
   1 O :   -0.138362
   2 C :    0.176559
   3 O :   -0.213692
   4 C :   -0.379518
   5 H :    0.147320
   6 H :    0.162599
   7 H :    0.155577
   8 N :   -0.066458
   9 C :   -0.239956
  10 H :    0.164698
  11 H :    0.117797
  12 H :    0.149864
  13 C :   -0.235367
  14 H :    0.148584
  15 H :    0.123158
  16 H :    0.163574
  17 C :   -0.053393
  18 C :   -0.117918
  19 C :   -0.120848
  20 C :   -0.128976
  21 C :   -0.119864
  22 C :   -0.111734
  23 H :    0.143438
  24 H :    0.140137
  25 H :    0.143060
  26 H :    0.137351
  27 H :    0.155466
  28 C :   -0.103455
  29 H :    0.143100
  30 H :    0.146310
  31 O :   -0.181732
  32 C :    0.145455
  33 O :   -0.271163
  34 C :   -0.380849
  35 H :    0.146738
  36 H :    0.149754
  37 H :    0.141329

  Mayer bond orders larger than 0.100000
B(  0-Pd,  1-O ) :   0.6406 B(  0-Pd,  3-O ) :   0.3380 B(  0-Pd,  8-N ) :   0.4028
B(  0-Pd, 31-O ) :   0.6634 B(  0-Pd, 33-O ) :   0.1113 B(  1-O ,  2-C ) :   1.3182
B(  1-O ,  3-O ) :   0.1003 B(  2-C ,  3-O ) :   1.6580 B(  2-C ,  4-C ) :   0.9480
B(  4-C ,  5-H ) :   0.9129 B(  4-C ,  6-H ) :   0.9034 B(  4-C ,  7-H ) :   0.9080
B(  8-N ,  9-C ) :   0.9196 B(  8-N , 13-C ) :   0.9225 B(  8-N , 28-C ) :   0.8807
B(  9-C , 10-H ) :   0.8781 B(  9-C , 11-H ) :   0.9042 B(  9-C , 12-H ) :   0.9022
B( 13-C , 14-H ) :   0.8992 B( 13-C , 15-H ) :   0.9025 B( 13-C , 16-H ) :   0.8897
B( 17-C , 18-C ) :   1.3976 B( 17-C , 22-C ) :   1.3740 B( 17-C , 28-C ) :   0.9347
B( 18-C , 19-C ) :   1.4311 B( 18-C , 25-H ) :   0.9155 B( 19-C , 20-C ) :   1.4223
B( 19-C , 26-H ) :   0.9192 B( 20-C , 21-C ) :   1.4142 B( 20-C , 23-H ) :   0.9161
B( 21-C , 22-C ) :   1.4461 B( 21-C , 24-H ) :   0.9135 B( 22-C , 27-H ) :   0.9122
B( 28-C , 29-H ) :   0.8973 B( 28-C , 30-H ) :   0.9168 B( 31-O , 32-C ) :   1.2503
B( 32-C , 33-O ) :   1.8499 B( 32-C , 34-C ) :   0.9304 B( 34-C , 35-H ) :   0.9142
B( 34-C , 36-H ) :   0.9107 B( 34-C , 37-H ) :   0.9189

Dispersion correction           -0.026168068
FINAL SINGLE POINT ENERGY      -988.530401763436
Dispersion correction            ... done

DIPOLE MOMENT
-------------
                                X             Y             Z
Electronic contribution:     23.18245      16.29334     -23.17555
Nuclear contribution   :    -24.75720     -16.87304      24.12805
                        -----------------------------------------
Total Dipole Moment    :     -1.57474      -0.57969       0.95250
                        -----------------------------------------
Magnitude (a.u.)       :      1.92954
Magnitude (Debye)      :      4.90450

Rotational constants in cm-1:     0.014266     0.008529     0.006916
Rotational constants in MHz :   427.685070   255.695176   207.350279

                             ****ORCA TERMINATED NORMALLY****
TOTAL RUN TIME: 0 days 0 hours 16 minutes 8 seconds 98 msec
