                         Program Version 5.0.3 -  RELEASE  -
|  1> ! EnGrad PBEh-3c
|  2> %output
|  3> xyzfile=True
|  4> end
|  5> %scf
|  6> maxiter 250
|  7> end
|  8> %output
|  9> Print[P_Hirshfeld] = 1
| 10> end
| 11> % maxcore
| 12> 4000
| 13> *xyz 0 1
| 14> Pd   0.53137878   0.35847622  -0.48159323
| 15> O    2.09339926   1.30736778   0.21021389
| 16> C    1.59286236   2.47715385   0.30934333
| 17> O    0.36671664   2.62411890   0.13824863
| 18> C    2.56802989   3.59084201   0.57014733
| 19> H    2.08935301   4.47060627   0.99503290
| 20> H    3.05236238   3.88652025  -0.36888023
| 21> H    3.36552289   3.24342701   1.23239518
| 22> N   -1.32970964  -0.55986116  -1.10207013
| 23> C   -1.17545383  -1.60597269  -2.13027543
| 24> H   -0.69235592  -1.20647652  -3.01890588
| 25> H   -2.15777077  -2.01868033  -2.39182844
| 26> H   -0.55557253  -2.40953182  -1.74409382
| 27> C   -2.14704662   0.52179967  -1.67281707
| 28> H   -2.32671567   1.29424896  -0.92942593
| 29> H   -3.11398900   0.12897385  -2.00343922
| 30> H   -1.64880006   0.97286945  -2.52824544
| 31> C   -1.55179829  -0.85145671   1.42782132
| 32> C   -1.09883348  -1.92940234   2.19473341
| 33> C   -0.90511193  -1.78735635   3.56485844
| 34> C   -1.15795486  -0.58864215   4.21844050
| 35> C   -1.51085479   0.50736301   3.44204988
| 36> C   -1.70027589   0.39141932   2.05667418
| 37> H   -1.09838387  -0.46915914   5.28990599
| 38> H   -1.71559840   1.46221298   3.89815054
| 39> H   -0.94502021  -2.88809645   1.70465568
| 40> H   -0.57231422  -2.64775993   4.14735094
| 41> H   -1.97413791   1.28801422   1.47452085
| 42> C   -2.05276539  -1.16910068   0.04416585
| 43> H   -3.11296457  -0.91111564  -0.03987957
| 44> H   -1.99407468  -2.24894984  -0.03731454
| 45> O    1.80425532  -0.93961653  -1.29266114
| 46> C    2.18863005  -0.50411085  -2.45792329
| 47> O    1.48665805   0.14520910  -3.21891134
| 48> C    3.60140841  -0.92139211  -2.81818821
| 49> H    3.66435777  -2.00959938  -2.92062576
| 50> H    4.31390548  -0.64112037  -2.03362184
| 51> H    3.90576364  -0.46188729  -3.75722051
| 52> *
| 53>
| 54>                          ****END OF INPUT****

CARTESIAN COORDINATES (ANGSTROEM)
---------------------------------
  Pd     0.531379    0.358476   -0.481593
  O      2.093399    1.307368    0.210214
  C      1.592862    2.477154    0.309343
  O      0.366717    2.624119    0.138249
  C      2.568030    3.590842    0.570147
  H      2.089353    4.470606    0.995033
  H      3.052362    3.886520   -0.368880
  H      3.365523    3.243427    1.232395
  N     -1.329710   -0.559861   -1.102070
  C     -1.175454   -1.605973   -2.130275
  H     -0.692356   -1.206477   -3.018906
  H     -2.157771   -2.018680   -2.391828
  H     -0.555573   -2.409532   -1.744094
  C     -2.147047    0.521800   -1.672817
  H     -2.326716    1.294249   -0.929426
  H     -3.113989    0.128974   -2.003439
  H     -1.648800    0.972869   -2.528245
  C     -1.551798   -0.851457    1.427821
  C     -1.098833   -1.929402    2.194733
  C     -0.905112   -1.787356    3.564858
  C     -1.157955   -0.588642    4.218440
  C     -1.510855    0.507363    3.442050
  C     -1.700276    0.391419    2.056674
  H     -1.098384   -0.469159    5.289906
  H     -1.715598    1.462213    3.898151
  H     -0.945020   -2.888096    1.704656
  H     -0.572314   -2.647760    4.147351
  H     -1.974138    1.288014    1.474521
  C     -2.052765   -1.169101    0.044166
  H     -3.112965   -0.911116   -0.039880
  H     -1.994075   -2.248950   -0.037315
  O      1.804255   -0.939617   -1.292661
  C      2.188630   -0.504111   -2.457923
  O      1.486658    0.145209   -3.218911
  C      3.601408   -0.921392   -2.818188
  H      3.664358   -2.009599   -2.920626
  H      4.313905   -0.641120   -2.033622
  H      3.905764   -0.461887   -3.757221

 Total Charge           Charge          ....    0
 Multiplicity           Mult            ....    1
 Number of Electrons    NEL             ....  154
 Basis Dimension        Dim             ....  339

ORBITAL ENERGIES
----------------

  NO   OCC          E(Eh)            E(eV)
   0   2.0000     -19.499996      -530.6219
   1   2.0000     -19.483535      -530.1739
   2   2.0000     -19.474026      -529.9152
   3   2.0000     -19.434799      -528.8478
   4   2.0000     -14.718135      -400.5008
   5   2.0000     -10.565721      -287.5079
   6   2.0000     -10.533366      -286.6275
   7   2.0000     -10.500093      -285.7221
   8   2.0000     -10.484317      -285.2928
   9   2.0000     -10.475766      -285.0601
  10   2.0000     -10.474997      -285.0392
  11   2.0000     -10.465864      -284.7906
  12   2.0000     -10.463043      -284.7139
  13   2.0000     -10.461277      -284.6658
  14   2.0000     -10.460465      -284.6437
  15   2.0000     -10.459890      -284.6281
  16   2.0000     -10.438673      -284.0507
  17   2.0000     -10.414760      -283.4000
  18   2.0000      -3.659894       -99.5908
  19   2.0000      -2.310850       -62.8814
  20   2.0000      -2.302306       -62.6489
  21   2.0000      -2.269278       -61.7502
  22   2.0000      -1.195460       -32.5301
  23   2.0000      -1.148321       -31.2474
  24   2.0000      -1.081585       -29.4314
  25   2.0000      -1.076733       -29.2994
  26   2.0000      -1.051010       -28.5994
  27   2.0000      -0.971138       -26.4260
  28   2.0000      -0.883523       -24.0419
  29   2.0000      -0.846904       -23.0454
  30   2.0000      -0.825909       -22.4741
  31   2.0000      -0.821233       -22.3469
  32   2.0000      -0.800531       -21.7836
  33   2.0000      -0.794303       -21.6141
  34   2.0000      -0.719898       -19.5894
  35   2.0000      -0.695950       -18.9378
  36   2.0000      -0.674067       -18.3423
  37   2.0000      -0.614618       -16.7246
  38   2.0000      -0.601651       -16.3717
  39   2.0000      -0.585054       -15.9201
  40   2.0000      -0.572190       -15.5701
  41   2.0000      -0.569671       -15.5015
  42   2.0000      -0.562215       -15.2986
  43   2.0000      -0.543169       -14.7804
  44   2.0000      -0.536831       -14.6079
  45   2.0000      -0.527409       -14.3515
  46   2.0000      -0.524071       -14.2607
  47   2.0000      -0.521968       -14.2035
  48   2.0000      -0.507419       -13.8076
  49   2.0000      -0.495784       -13.4910
  50   2.0000      -0.493740       -13.4353
  51   2.0000      -0.489171       -13.3110
  52   2.0000      -0.488836       -13.3019
  53   2.0000      -0.480158       -13.0658
  54   2.0000      -0.460557       -12.5324
  55   2.0000      -0.455182       -12.3861
  56   2.0000      -0.446147       -12.1403
  57   2.0000      -0.442397       -12.0382
  58   2.0000      -0.440272       -11.9804
  59   2.0000      -0.431965       -11.7544
  60   2.0000      -0.430242       -11.7075
  61   2.0000      -0.417182       -11.3521
  62   2.0000      -0.414119       -11.2688
  63   2.0000      -0.407176       -11.0798
  64   2.0000      -0.401721       -10.9314
  65   2.0000      -0.378735       -10.3059
  66   2.0000      -0.370423       -10.0797
  67   2.0000      -0.359398        -9.7797
  68   2.0000      -0.350658        -9.5419
  69   2.0000      -0.345980        -9.4146
  70   2.0000      -0.320207        -8.7133
  71   2.0000      -0.316994        -8.6259
  72   2.0000      -0.306732        -8.3466
  73   2.0000      -0.301889        -8.2148
  74   2.0000      -0.294849        -8.0233
  75   2.0000      -0.294262        -8.0073
  76   2.0000      -0.274978        -7.4825
  77   0.0000      -0.059368        -1.6155
  78   0.0000      -0.005069        -0.1379
  79   0.0000       0.005339         0.1453
  80   0.0000       0.052372         1.4251
  81   0.0000       0.069187         1.8827

MULLIKEN ATOMIC CHARGES
-----------------------
   0 Pd:    0.550392
   1 O :   -0.495646
   2 C :    0.642502
   3 O :   -0.488147
   4 C :   -0.766238
   5 H :    0.246809
   6 H :    0.260761
   7 H :    0.255521
   8 N :   -0.476934
   9 C :   -0.543966
  10 H :    0.296070
  11 H :    0.217845
  12 H :    0.272005
  13 C :   -0.547850
  14 H :    0.266059
  15 H :    0.228647
  16 H :    0.296372
  17 C :    0.098625
  18 C :   -0.252486
  19 C :   -0.222823
  20 C :   -0.214935
  21 C :   -0.213124
  22 C :   -0.267043
  23 H :    0.229317
  24 H :    0.228669
  25 H :    0.220294
  26 H :    0.222723
  27 H :    0.241781
  28 C :   -0.335438
  29 H :    0.249998
  30 H :    0.252972
  31 O :   -0.541745
  32 C :    0.571923
  33 O :   -0.460753
  34 C :   -0.741721
  35 H :    0.233939
  36 H :    0.247116
  37 H :    0.238506
Sum of atomic charges:   -0.0000000

LOEWDIN ATOMIC CHARGES
----------------------
   0 Pd:   -0.247369
   1 O :   -0.136023
   2 C :    0.177509
   3 O :   -0.212107
   4 C :   -0.378758
   5 H :    0.147969
   6 H :    0.163618
   7 H :    0.156611
   8 N :   -0.064656
   9 C :   -0.238523
  10 H :    0.163902
  11 H :    0.117539
  12 H :    0.150636
  13 C :   -0.235195
  14 H :    0.148262
  15 H :    0.123210
  16 H :    0.163666
  17 C :   -0.052170
  18 C :   -0.117477
  19 C :   -0.122467
  20 C :   -0.129067
  21 C :   -0.120789
  22 C :   -0.110209
  23 H :    0.141941
  24 H :    0.140433
  25 H :    0.141196
  26 H :    0.139412
  27 H :    0.154465
  28 C :   -0.105627
  29 H :    0.143710
  30 H :    0.146364
  31 O :   -0.187216
  32 C :    0.137649
  33 O :   -0.258290
  34 C :   -0.380879
  35 H :    0.146785
  36 H :    0.150802
  37 H :    0.141140

  Mayer bond orders larger than 0.100000
B(  0-Pd,  1-O ) :   0.6347 B(  0-Pd,  3-O ) :   0.3541 B(  0-Pd,  8-N ) :   0.4016
B(  0-Pd, 31-O ) :   0.6625 B(  0-Pd, 33-O ) :   0.1145 B(  1-O ,  2-C ) :   1.3259
B(  2-C ,  3-O ) :   1.6408 B(  2-C ,  4-C ) :   0.9508 B(  4-C ,  5-H ) :   0.9127
B(  4-C ,  6-H ) :   0.9026 B(  4-C ,  7-H ) :   0.9070 B(  8-N ,  9-C ) :   0.9187
B(  8-N , 13-C ) :   0.9225 B(  8-N , 28-C ) :   0.8828 B(  9-C , 10-H ) :   0.8805
B(  9-C , 11-H ) :   0.9038 B(  9-C , 12-H ) :   0.9010 B( 13-C , 14-H ) :   0.8992
B( 13-C , 15-H ) :   0.9024 B( 13-C , 16-H ) :   0.8901 B( 17-C , 18-C ) :   1.4037
B( 17-C , 22-C ) :   1.3771 B( 17-C , 28-C ) :   0.9404 B( 18-C , 19-C ) :   1.4354
B( 18-C , 25-H ) :   0.9166 B( 19-C , 20-C ) :   1.4181 B( 19-C , 26-H ) :   0.9187
B( 20-C , 21-C ) :   1.4197 B( 20-C , 23-H ) :   0.9164 B( 21-C , 22-C ) :   1.4392
B( 21-C , 24-H ) :   0.9156 B( 22-C , 27-H ) :   0.9095 B( 28-C , 29-H ) :   0.8979
B( 28-C , 30-H ) :   0.9156 B( 31-O , 32-C ) :   1.2446 B( 32-C , 33-O ) :   1.8619
B( 32-C , 34-C ) :   0.9317 B( 34-C , 35-H ) :   0.9142 B( 34-C , 36-H ) :   0.9103
B( 34-C , 37-H ) :   0.9192

Dispersion correction           -0.026123103
FINAL SINGLE POINT ENERGY      -988.536835300983
Dispersion correction            ... done

DIPOLE MOMENT
-------------
                                X             Y             Z
Electronic contribution:     23.19066      16.66178     -23.95735
Nuclear contribution   :    -24.74531     -17.18878      24.86134
                        -----------------------------------------
Total Dipole Moment    :     -1.55465      -0.52700       0.90399
                        -----------------------------------------
Magnitude (a.u.)       :      1.87400
Magnitude (Debye)      :      4.76333

Rotational constants in cm-1:     0.014315     0.008518     0.006930
Rotational constants in MHz :   429.154432   255.371600   207.754783

                             ****ORCA TERMINATED NORMALLY****
TOTAL RUN TIME: 0 days 0 hours 17 minutes 19 seconds 843 msec
