                         Program Version 5.0.3 -  RELEASE  -
|  1> ! EnGrad PBEh-3c
|  2> %output
|  3> xyzfile=True
|  4> end
|  5> %scf
|  6> maxiter 250
|  7> end
|  8> %output
|  9> Print[P_Hirshfeld] = 1
| 10> end
| 11> % maxcore
| 12> 4000
| 13> *xyz 0 1
| 14> Pd   0.52297825   0.35982572  -0.49051250
| 15> O    2.10758374   1.30388266   0.17223540
| 16> C    1.59303399   2.46536100   0.31322296
| 17> O    0.37026192   2.58512745   0.17364013
| 18> C    2.55677144   3.58963482   0.56943713
| 19> H    2.07648849   4.46773328   0.99304109
| 20> H    3.04043888   3.87531877  -0.36892037
| 21> H    3.35071327   3.24171870   1.22631053
| 22> N   -1.32281074  -0.54914940  -1.09964313
| 23> C   -1.17031125  -1.59340223  -2.13268542
| 24> H   -0.69598513  -1.19098003  -3.02716747
| 25> H   -2.15630707  -2.01108598  -2.39430351
| 26> H   -0.54982280  -2.39903528  -1.74540357
| 27> C   -2.14787586   0.53081834  -1.67175708
| 28> H   -2.33489474   1.30002453  -0.92857504
| 29> H   -3.11622390   0.14020954  -2.00699288
| 30> H   -1.65048287   0.98485547  -2.52679675
| 31> C   -1.53445842  -0.87425000   1.43762951
| 32> C   -1.08745199  -1.92636604   2.21983686
| 33> C   -0.89383759  -1.81387536   3.58104139
| 34> C   -1.15841071  -0.59554751   4.19689931
| 35> C   -1.50223178   0.51106598   3.45306435
| 36> C   -1.70774955   0.39483911   2.05566019
| 37> H   -1.10028554  -0.45901258   5.25138456
| 38> H   -1.71911723   1.50845852   3.88959866
| 39> H   -0.93014379  -2.87125135   1.72643672
| 40> H   -0.57372422  -2.64408399   4.15336580
| 41> H   -1.98437318   1.26308257   1.46357541
| 42> C   -2.04264281  -1.16922780   0.04320909
| 43> H   -3.10675165  -0.91580738  -0.03863081
| 44> H   -1.98309446  -2.24627255  -0.05554920
| 45> O    1.77604238  -0.95787685  -1.31270519
| 46> C    2.19290836  -0.51102964  -2.45860112
| 47> O    1.51206560   0.17542984  -3.19796850
| 48> C    3.60069181  -0.93327971  -2.81518604
| 49> H    3.65518795  -2.01753735  -2.90161466
| 50> H    4.29616790  -0.65206859  -2.02743417
| 51> H    3.90994732  -0.47746349  -3.75151341
| 52> *
| 53>
| 54>                          ****END OF INPUT****

CARTESIAN COORDINATES (ANGSTROEM)
---------------------------------
  Pd     0.522978    0.359826   -0.490513
  O      2.107584    1.303883    0.172235
  C      1.593034    2.465361    0.313223
  O      0.370262    2.585127    0.173640
  C      2.556771    3.589635    0.569437
  H      2.076488    4.467733    0.993041
  H      3.040439    3.875319   -0.368920
  H      3.350713    3.241719    1.226311
  N     -1.322811   -0.549149   -1.099643
  C     -1.170311   -1.593402   -2.132685
  H     -0.695985   -1.190980   -3.027167
  H     -2.156307   -2.011086   -2.394304
  H     -0.549823   -2.399035   -1.745404
  C     -2.147876    0.530818   -1.671757
  H     -2.334895    1.300025   -0.928575
  H     -3.116224    0.140210   -2.006993
  H     -1.650483    0.984855   -2.526797
  C     -1.534458   -0.874250    1.437630
  C     -1.087452   -1.926366    2.219837
  C     -0.893838   -1.813875    3.581041
  C     -1.158411   -0.595548    4.196899
  C     -1.502232    0.511066    3.453064
  C     -1.707750    0.394839    2.055660
  H     -1.100286   -0.459013    5.251385
  H     -1.719117    1.508459    3.889599
  H     -0.930144   -2.871251    1.726437
  H     -0.573724   -2.644084    4.153366
  H     -1.984373    1.263083    1.463575
  C     -2.042643   -1.169228    0.043209
  H     -3.106752   -0.915807   -0.038631
  H     -1.983094   -2.246273   -0.055549
  O      1.776042   -0.957877   -1.312705
  C      2.192908   -0.511030   -2.458601
  O      1.512066    0.175430   -3.197968
  C      3.600692   -0.933280   -2.815186
  H      3.655188   -2.017537   -2.901615
  H      4.296168   -0.652069   -2.027434
  H      3.909947   -0.477463   -3.751513

 Total Charge           Charge          ....    0
 Multiplicity           Mult            ....    1
 Number of Electrons    NEL             ....  154
 Basis Dimension        Dim             ....  339

ORBITAL ENERGIES
----------------

  NO   OCC          E(Eh)            E(eV)
   0   2.0000     -19.497115      -530.5435
   1   2.0000     -19.484981      -530.2133
   2   2.0000     -19.470494      -529.8191
   3   2.0000     -19.431526      -528.7587
   4   2.0000     -14.719423      -400.5359
   5   2.0000     -10.564621      -287.4779
   6   2.0000     -10.529896      -286.5330
   7   2.0000     -10.500722      -285.7392
   8   2.0000     -10.485192      -285.3166
   9   2.0000     -10.476191      -285.0717
  10   2.0000     -10.475698      -285.0582
  11   2.0000     -10.466814      -284.8165
  12   2.0000     -10.462992      -284.7125
  13   2.0000     -10.459380      -284.6142
  14   2.0000     -10.457897      -284.5738
  15   2.0000     -10.457191      -284.5546
  16   2.0000     -10.437825      -284.0277
  17   2.0000     -10.412354      -283.3346
  18   2.0000      -3.658649       -99.5569
  19   2.0000      -2.309610       -62.8477
  20   2.0000      -2.301012       -62.6137
  21   2.0000      -2.267950       -61.7141
  22   2.0000      -1.198454       -32.6116
  23   2.0000      -1.149078       -31.2680
  24   2.0000      -1.082579       -29.4585
  25   2.0000      -1.076457       -29.2919
  26   2.0000      -1.048879       -28.5415
  27   2.0000      -0.970624       -26.4120
  28   2.0000      -0.882185       -24.0055
  29   2.0000      -0.848238       -23.0817
  30   2.0000      -0.827090       -22.5063
  31   2.0000      -0.820982       -22.3400
  32   2.0000      -0.799597       -21.7581
  33   2.0000      -0.795726       -21.6528
  34   2.0000      -0.720529       -19.6066
  35   2.0000      -0.696671       -18.9574
  36   2.0000      -0.674695       -18.3594
  37   2.0000      -0.613738       -16.7007
  38   2.0000      -0.602617       -16.3980
  39   2.0000      -0.583133       -15.8678
  40   2.0000      -0.571947       -15.5635
  41   2.0000      -0.568974       -15.4826
  42   2.0000      -0.562212       -15.2986
  43   2.0000      -0.544338       -14.8122
  44   2.0000      -0.537648       -14.6301
  45   2.0000      -0.528473       -14.3805
  46   2.0000      -0.525135       -14.2896
  47   2.0000      -0.523409       -14.2427
  48   2.0000      -0.507184       -13.8012
  49   2.0000      -0.495618       -13.4865
  50   2.0000      -0.493634       -13.4325
  51   2.0000      -0.491649       -13.3785
  52   2.0000      -0.487704       -13.2711
  53   2.0000      -0.479478       -13.0473
  54   2.0000      -0.459584       -12.5059
  55   2.0000      -0.456653       -12.4262
  56   2.0000      -0.446206       -12.1419
  57   2.0000      -0.442738       -12.0475
  58   2.0000      -0.439709       -11.9651
  59   2.0000      -0.431666       -11.7462
  60   2.0000      -0.430877       -11.7248
  61   2.0000      -0.416840       -11.3428
  62   2.0000      -0.413976       -11.2649
  63   2.0000      -0.409621       -11.1463
  64   2.0000      -0.400933       -10.9099
  65   2.0000      -0.377987       -10.2855
  66   2.0000      -0.369452       -10.0533
  67   2.0000      -0.359744        -9.7891
  68   2.0000      -0.350980        -9.5506
  69   2.0000      -0.344776        -9.3818
  70   2.0000      -0.318838        -8.6760
  71   2.0000      -0.316124        -8.6022
  72   2.0000      -0.307395        -8.3646
  73   2.0000      -0.301677        -8.2091
  74   2.0000      -0.293667        -7.9911
  75   2.0000      -0.292566        -7.9611
  76   2.0000      -0.272173        -7.4062
  77   0.0000      -0.056639        -1.5412
  78   0.0000      -0.006635        -0.1805
  79   0.0000       0.007660         0.2085
  80   0.0000       0.053600         1.4585
  81   0.0000       0.070373         1.9149

MULLIKEN ATOMIC CHARGES
-----------------------
   0 Pd:    0.548128
   1 O :   -0.498664
   2 C :    0.642920
   3 O :   -0.482389
   4 C :   -0.767095
   5 H :    0.246269
   6 H :    0.262082
   7 H :    0.256854
   8 N :   -0.480306
   9 C :   -0.542951
  10 H :    0.294905
  11 H :    0.217334
  12 H :    0.273853
  13 C :   -0.548115
  14 H :    0.266243
  15 H :    0.229306
  16 H :    0.296628
  17 C :    0.096971
  18 C :   -0.265127
  19 C :   -0.200084
  20 C :   -0.231207
  21 C :   -0.204278
  22 C :   -0.268863
  23 H :    0.226975
  24 H :    0.225729
  25 H :    0.216750
  26 H :    0.228292
  27 H :    0.243919
  28 C :   -0.332023
  29 H :    0.250212
  30 H :    0.252197
  31 O :   -0.543728
  32 C :    0.568322
  33 O :   -0.458891
  34 C :   -0.742422
  35 H :    0.233805
  36 H :    0.249444
  37 H :    0.239010
Sum of atomic charges:   -0.0000000

LOEWDIN ATOMIC CHARGES
----------------------
   0 Pd:   -0.256125
   1 O :   -0.141032
   2 C :    0.173903
   3 O :   -0.198926
   4 C :   -0.378955
   5 H :    0.147667
   6 H :    0.164055
   7 H :    0.157276
   8 N :   -0.061825
   9 C :   -0.236933
  10 H :    0.163580
  11 H :    0.117339
  12 H :    0.151660
  13 C :   -0.234691
  14 H :    0.147978
  15 H :    0.123613
  16 H :    0.163958
  17 C :   -0.053567
  18 C :   -0.114756
  19 C :   -0.125217
  20 C :   -0.126287
  21 C :   -0.123646
  22 C :   -0.105858
  23 H :    0.139456
  24 H :    0.142264
  25 H :    0.138960
  26 H :    0.141903
  27 H :    0.152735
  28 C :   -0.105484
  29 H :    0.143946
  30 H :    0.146192
  31 O :   -0.189498
  32 C :    0.131423
  33 O :   -0.254609
  34 C :   -0.380559
  35 H :    0.146414
  36 H :    0.151909
  37 H :    0.141737

  Mayer bond orders larger than 0.100000
B(  0-Pd,  1-O ) :   0.6337 B(  0-Pd,  3-O ) :   0.3635 B(  0-Pd,  8-N ) :   0.4047
B(  0-Pd, 31-O ) :   0.6572 B(  0-Pd, 33-O ) :   0.1187 B(  1-O ,  2-C ) :   1.3229
B(  2-C ,  3-O ) :   1.6408 B(  2-C ,  4-C ) :   0.9527 B(  4-C ,  5-H ) :   0.9132
B(  4-C ,  6-H ) :   0.9023 B(  4-C ,  7-H ) :   0.9062 B(  8-N ,  9-C ) :   0.9170
B(  8-N , 13-C ) :   0.9213 B(  8-N , 28-C ) :   0.8807 B(  9-C , 10-H ) :   0.8816
B(  9-C , 11-H ) :   0.9035 B(  9-C , 12-H ) :   0.8997 B( 13-C , 14-H ) :   0.8992
B( 13-C , 15-H ) :   0.9022 B( 13-C , 16-H ) :   0.8899 B( 17-C , 18-C ) :   1.4114
B( 17-C , 22-C ) :   1.3759 B( 17-C , 28-C ) :   0.9443 B( 18-C , 19-C ) :   1.4368
B( 18-C , 25-H ) :   0.9176 B( 19-C , 20-C ) :   1.4156 B( 19-C , 22-C ) :   0.1003
B( 19-C , 26-H ) :   0.9171 B( 20-C , 21-C ) :   1.4244 B( 20-C , 23-H ) :   0.9174
B( 21-C , 22-C ) :   1.4328 B( 21-C , 24-H ) :   0.9175 B( 22-C , 27-H ) :   0.9069
B( 28-C , 29-H ) :   0.8980 B( 28-C , 30-H ) :   0.9152 B( 31-O , 32-C ) :   1.2478
B( 32-C , 33-O ) :   1.8627 B( 32-C , 34-C ) :   0.9346 B( 34-C , 35-H ) :   0.9143
B( 34-C , 36-H ) :   0.9093 B( 34-C , 37-H ) :   0.9198

Dispersion correction           -0.026128417
FINAL SINGLE POINT ENERGY      -988.535930052821
Dispersion correction            ... done

DIPOLE MOMENT
-------------
                                X             Y             Z
Electronic contribution:     22.65718      16.83218     -24.46776
Nuclear contribution   :    -24.24521     -17.32956      25.35544
                        -----------------------------------------
Total Dipole Moment    :     -1.58803      -0.49738       0.88768
                        -----------------------------------------
Magnitude (a.u.)       :      1.88606
Magnitude (Debye)      :      4.79397

Rotational constants in cm-1:     0.014378     0.008513     0.006945
Rotational constants in MHz :   431.037046   255.225936   208.197227

                             ****ORCA TERMINATED NORMALLY****
TOTAL RUN TIME: 0 days 0 hours 14 minutes 41 seconds 152 msec
