                         Program Version 5.0.3 -  RELEASE  -
|  1> ! EnGrad PBEh-3c
|  2> %output
|  3> xyzfile=True
|  4> end
|  5> %scf
|  6> maxiter 250
|  7> end
|  8> %output
|  9> Print[P_Hirshfeld] = 1
| 10> end
| 11> % maxcore
| 12> 4000
| 13> *xyz 0 1
| 14> Pd   0.50609579   0.44210400  -0.44186582
| 15> O    2.09665193   1.43928695   0.50054350
| 16> C    1.66239693   2.64823039   0.28903877
| 17> O    0.52790375   2.80670374  -0.11746928
| 18> C    2.58057028   3.80803626   0.56832765
| 19> H    2.01636809   4.61927541   1.02923948
| 20> H    2.97247644   4.17134912  -0.37998752
| 21> H    3.41765790   3.54441523   1.20411889
| 22> N   -1.28848051  -0.51137843  -1.13367451
| 23> C   -1.27528284  -1.30971217  -2.37096611
| 24> H   -0.92547196  -0.73136896  -3.21608377
| 25> H   -2.28766167  -1.63884477  -2.64233094
| 26> H   -0.65212009  -2.18398762  -2.27352715
| 27> C   -2.17555921   0.62230328  -1.44265023
| 28> H   -2.26288903   1.31055326  -0.62411554
| 29> H   -3.19358645   0.30092909  -1.69182803
| 30> H   -1.78280745   1.18200464  -2.28653987
| 31> C   -1.46777490  -0.98844426   1.33400715
| 32> C   -0.62522645  -1.85617641   2.07866630
| 33> C   -0.50504145  -1.76036100   3.44753500
| 34> C   -1.18678805  -0.77840375   4.12340470
| 35> C   -2.09710302   0.02424736   3.42202922
| 36> C   -2.06065074   0.04411270   2.06065698
| 37> H   -1.08981995  -0.68136919   5.19961107
| 38> H   -2.86532869   0.49224581   4.01120136
| 39> H   -0.13051436  -2.68481475   1.59300438
| 40> H    0.09657153  -2.47646333   3.99764887
| 41> H   -2.65236111   2.66519074   1.98863802
| 42> C   -1.87244966  -1.36006858  -0.05253632
| 43> H   -2.97088703  -1.33719337  -0.06504702
| 44> H   -1.63734072  -2.40981657  -0.22594451
| 45> O    1.84117024  -0.83912058  -1.12805609
| 46> C    2.26919777  -0.64794532  -2.35337416
| 47> O    1.69860179   0.02162545  -3.16774295
| 48> C    3.57134204  -1.35293991  -2.73712567
| 49> H    3.47073268  -2.43246042  -2.67536820
| 50> H    4.37110813  -1.06148854  -2.07064457
| 51> H    3.90668751  -1.10132457  -3.75036425
| 52> *
| 53>
| 54>                          ****END OF INPUT****

CARTESIAN COORDINATES (ANGSTROEM)
---------------------------------
  Pd     0.506096    0.442104   -0.441866
  O      2.096652    1.439287    0.500544
  C      1.662397    2.648230    0.289039
  O      0.527904    2.806704   -0.117469
  C      2.580570    3.808036    0.568328
  H      2.016368    4.619275    1.029239
  H      2.972476    4.171349   -0.379988
  H      3.417658    3.544415    1.204119
  N     -1.288481   -0.511378   -1.133675
  C     -1.275283   -1.309712   -2.370966
  H     -0.925472   -0.731369   -3.216084
  H     -2.287662   -1.638845   -2.642331
  H     -0.652120   -2.183988   -2.273527
  C     -2.175559    0.622303   -1.442650
  H     -2.262889    1.310553   -0.624116
  H     -3.193586    0.300929   -1.691828
  H     -1.782807    1.182005   -2.286540
  C     -1.467775   -0.988444    1.334007
  C     -0.625226   -1.856176    2.078666
  C     -0.505041   -1.760361    3.447535
  C     -1.186788   -0.778404    4.123405
  C     -2.097103    0.024247    3.422029
  C     -2.060651    0.044113    2.060657
  H     -1.089820   -0.681369    5.199611
  H     -2.865329    0.492246    4.011201
  H     -0.130514   -2.684815    1.593004
  H      0.096572   -2.476463    3.997649
  H     -2.652361    2.665191    1.988638
  C     -1.872450   -1.360069   -0.052536
  H     -2.970887   -1.337193   -0.065047
  H     -1.637341   -2.409817   -0.225945
  O      1.841170   -0.839121   -1.128056
  C      2.269198   -0.647945   -2.353374
  O      1.698602    0.021625   -3.167743
  C      3.571342   -1.352940   -2.737126
  H      3.470733   -2.432460   -2.675368
  H      4.371108   -1.061489   -2.070645
  H      3.906688   -1.101325   -3.750364

 Total Charge           Charge          ....    0
 Multiplicity           Mult            ....    1
 Number of Electrons    NEL             ....  154
 Basis Dimension        Dim             ....  339

ORBITAL ENERGIES
----------------

  NO   OCC          E(Eh)            E(eV)
   0   2.0000     -19.478815      -530.0455
   1   2.0000     -19.476533      -529.9834
   2   2.0000     -19.465729      -529.6894
   3   2.0000     -19.431968      -528.7707
   4   2.0000     -14.729611      -400.8131
   5   2.0000     -10.547642      -287.0159
   6   2.0000     -10.531878      -286.5870
   7   2.0000     -10.526092      -286.4295
   8   2.0000     -10.513613      -286.0899
   9   2.0000     -10.501544      -285.7615
  10   2.0000     -10.482785      -285.2511
  11   2.0000     -10.480535      -285.1899
  12   2.0000     -10.478945      -285.1466
  13   2.0000     -10.476573      -285.0820
  14   2.0000     -10.474346      -285.0214
  15   2.0000     -10.467634      -284.8388
  16   2.0000     -10.425829      -283.7012
  17   2.0000     -10.415349      -283.4160
  18   2.0000      -3.659641       -99.5839
  19   2.0000      -2.308446       -62.8160
  20   2.0000      -2.303144       -62.6717
  21   2.0000      -2.269076       -61.7447
  22   2.0000      -1.177049       -32.0291
  23   2.0000      -1.152199       -31.3529
  24   2.0000      -1.084241       -29.5037
  25   2.0000      -1.059708       -28.8361
  26   2.0000      -1.053167       -28.6581
  27   2.0000      -0.991416       -26.9778
  28   2.0000      -0.898333       -24.4449
  29   2.0000      -0.862022       -23.4568
  30   2.0000      -0.823093       -22.3975
  31   2.0000      -0.813455       -22.1352
  32   2.0000      -0.811589       -22.0845
  33   2.0000      -0.793973       -21.6051
  34   2.0000      -0.730386       -19.8748
  35   2.0000      -0.704299       -19.1649
  36   2.0000      -0.680111       -18.5067
  37   2.0000      -0.605430       -16.4746
  38   2.0000      -0.594202       -16.1691
  39   2.0000      -0.584884       -15.9155
  40   2.0000      -0.582721       -15.8566
  41   2.0000      -0.580782       -15.8039
  42   2.0000      -0.563824       -15.3424
  43   2.0000      -0.541342       -14.7307
  44   2.0000      -0.529373       -14.4050
  45   2.0000      -0.524596       -14.2750
  46   2.0000      -0.514736       -14.0067
  47   2.0000      -0.511140       -13.9088
  48   2.0000      -0.507149       -13.8002
  49   2.0000      -0.502583       -13.6760
  50   2.0000      -0.493898       -13.4396
  51   2.0000      -0.489138       -13.3101
  52   2.0000      -0.482744       -13.1361
  53   2.0000      -0.472990       -12.8707
  54   2.0000      -0.461589       -12.5605
  55   2.0000      -0.447082       -12.1657
  56   2.0000      -0.444086       -12.0842
  57   2.0000      -0.442690       -12.0462
  58   2.0000      -0.439931       -11.9711
  59   2.0000      -0.432914       -11.7802
  60   2.0000      -0.430639       -11.7183
  61   2.0000      -0.428443       -11.6585
  62   2.0000      -0.418213       -11.3801
  63   2.0000      -0.405914       -11.0455
  64   2.0000      -0.375847       -10.2273
  65   2.0000      -0.373986       -10.1767
  66   2.0000      -0.350027        -9.5247
  67   2.0000      -0.344510        -9.3746
  68   2.0000      -0.339375        -9.2349
  69   2.0000      -0.329676        -8.9709
  70   2.0000      -0.321753        -8.7553
  71   2.0000      -0.311973        -8.4892
  72   2.0000      -0.303314        -8.2536
  73   2.0000      -0.294831        -8.0228
  74   2.0000      -0.287506        -7.8234
  75   2.0000      -0.275008        -7.4833
  76   2.0000      -0.270285        -7.3548
  77   0.0000      -0.140919        -3.8346
  78   0.0000      -0.071600        -1.9483
  79   0.0000      -0.021044        -0.5726
  80   0.0000      -0.005079        -0.1382
  81   0.0000       0.068324         1.8592

MULLIKEN ATOMIC CHARGES
-----------------------
   0 Pd:    0.509125
   1 O :   -0.502108
   2 C :    0.625010
   3 O :   -0.465607
   4 C :   -0.761109
   5 H :    0.244271
   6 H :    0.253770
   7 H :    0.250435
   8 N :   -0.481576
   9 C :   -0.535882
  10 H :    0.297184
  11 H :    0.220590
  12 H :    0.266987
  13 C :   -0.566753
  14 H :    0.297664
  15 H :    0.232467
  16 H :    0.289790
  17 C :   -0.046654
  18 C :   -0.212416
  19 C :   -0.208156
  20 C :   -0.217156
  21 C :   -0.253332
  22 C :    0.014988
  23 H :    0.242131
  24 H :    0.256631
  25 H :    0.242212
  26 H :    0.239960
  27 H :    0.009283
  28 C :   -0.312305
  29 H :    0.255220
  30 H :    0.265504
  31 O :   -0.546593
  32 C :    0.560842
  33 O :   -0.438304
  34 C :   -0.742955
  35 H :    0.229307
  36 H :    0.246912
  37 H :    0.240624
Sum of atomic charges:   -0.0000000

LOEWDIN ATOMIC CHARGES
----------------------
   0 Pd:   -0.244004
   1 O :   -0.185958
   2 C :    0.157708
   3 O :   -0.193469
   4 C :   -0.380975
   5 H :    0.150223
   6 H :    0.159539
   7 H :    0.148627
   8 N :   -0.051160
   9 C :   -0.237853
  10 H :    0.162603
  11 H :    0.120358
  12 H :    0.146144
  13 C :   -0.241839
  14 H :    0.160620
  15 H :    0.125804
  16 H :    0.161365
  17 C :   -0.066213
  18 C :   -0.095524
  19 C :   -0.127722
  20 C :   -0.118077
  21 C :   -0.138901
  22 C :    0.019936
  23 H :    0.146309
  24 H :    0.154823
  25 H :    0.155667
  26 H :    0.147094
  27 H :    0.009524
  28 C :   -0.100824
  29 H :    0.146693
  30 H :    0.152773
  31 O :   -0.183654
  32 C :    0.128425
  33 O :   -0.237415
  34 C :   -0.383708
  35 H :    0.142108
  36 H :    0.148456
  37 H :    0.142496

  Mayer bond orders larger than 0.100000
B(  0-Pd,  1-O ) :   0.6338 B(  0-Pd,  3-O ) :   0.3183 B(  0-Pd,  8-N ) :   0.4063
B(  0-Pd, 31-O ) :   0.6892 B(  0-Pd, 33-O ) :   0.1006 B(  1-O ,  2-C ) :   1.3200
B(  2-C ,  3-O ) :   1.6884 B(  2-C ,  4-C ) :   0.9445 B(  4-C ,  5-H ) :   0.9138
B(  4-C ,  6-H ) :   0.9076 B(  4-C ,  7-H ) :   0.9109 B(  8-N ,  9-C ) :   0.9211
B(  8-N , 13-C ) :   0.9155 B(  8-N , 28-C ) :   0.8955 B(  9-C , 10-H ) :   0.8875
B(  9-C , 11-H ) :   0.9016 B(  9-C , 12-H ) :   0.9072 B( 13-C , 14-H ) :   0.8764
B( 13-C , 15-H ) :   0.9021 B( 13-C , 16-H ) :   0.8923 B( 17-C , 18-C ) :   1.3826
B( 17-C , 22-C ) :   1.4172 B( 17-C , 28-C ) :   0.9522 B( 18-C , 19-C ) :   1.4429
B( 18-C , 25-H ) :   0.9029 B( 19-C , 20-C ) :   1.4333 B( 19-C , 26-H ) :   0.9088
B( 20-C , 21-C ) :   1.3844 B( 20-C , 23-H ) :   0.9072 B( 21-C , 22-C ) :   1.4737
B( 21-C , 24-H ) :   0.9021 B( 22-C , 27-H ) :   0.7765 B( 28-C , 29-H ) :   0.8945
B( 28-C , 30-H ) :   0.9100 B( 31-O , 32-C ) :   1.2257 B( 32-C , 33-O ) :   1.9008
B( 32-C , 34-C ) :   0.9306 B( 34-C , 35-H ) :   0.9167 B( 34-C , 36-H ) :   0.9101
B( 34-C , 37-H ) :   0.9203

Dispersion correction           -0.025803811
FINAL SINGLE POINT ENERGY      -988.269164682177
Dispersion correction            ... done

DIPOLE MOMENT
-------------
                                X             Y             Z
Electronic contribution:     21.01730      20.38146     -21.79222
Nuclear contribution   :    -22.91542     -21.73542      22.82248
                        -----------------------------------------
Total Dipole Moment    :     -1.89811      -1.35396       1.03026
                        -----------------------------------------
Magnitude (a.u.)       :      2.54902
Magnitude (Debye)      :      6.47908

Rotational constants in cm-1:     0.013340     0.008346     0.006938
Rotational constants in MHz :   399.937208   250.215902   208.005492

                             ****ORCA TERMINATED NORMALLY****
TOTAL RUN TIME: 0 days 0 hours 20 minutes 43 seconds 727 msec
