                         Program Version 5.0.3 -  RELEASE  -
|  1> ! EnGrad PBEh-3c
|  2> %output
|  3> xyzfile=True
|  4> end
|  5> %scf
|  6> maxiter 250
|  7> end
|  8> %output
|  9> Print[P_Hirshfeld] = 1
| 10> end
| 11> % maxcore
| 12> 4000
| 13> *xyz 0 1
| 14> Pd   0.51060375   0.35555277  -0.48693919
| 15> O    2.11309814   1.30314656   0.15466877
| 16> C    1.60287287   2.45566275   0.31218064
| 17> O    0.36937295   2.56920573   0.18567980
| 18> C    2.55045376   3.58952488   0.57120233
| 19> H    2.07450898   4.46822908   0.99473283
| 20> H    3.03355422   3.86544250  -0.36660926
| 21> H    3.34172858   3.23857456   1.22504219
| 22> N   -1.31315211  -0.54591111  -1.10020051
| 23> C   -1.16194344  -1.59917948  -2.12918290
| 24> H   -0.69350939  -1.19584287  -3.02528495
| 25> H   -2.14694841  -2.01512968  -2.39345828
| 26> H   -0.54529517  -2.40536001  -1.73611186
| 27> C   -2.14370613   0.53022644  -1.67683091
| 28> H   -2.33662902   1.30085094  -0.93480411
| 29> H   -3.11409843   0.14268442  -2.01095141
| 30> H   -1.64364475   0.98153428  -2.53096977
| 31> C   -1.54069120  -0.86503218   1.45565030
| 32> C   -1.09808547  -1.92268984   2.24176323
| 33> C   -0.90184370  -1.82252535   3.59039275
| 34> C   -1.15629279  -0.60284362   4.17508010
| 35> C   -1.50289976   0.54291222   3.44107852
| 36> C   -1.70574779   0.39785666   2.05512682
| 37> H   -1.09175578  -0.46818186   5.22863479
| 38> H   -1.69277632   1.53675219   3.89022015
| 39> H   -0.94456307  -2.86430668   1.74608159
| 40> H   -0.57924043  -2.65916945   4.15892234
| 41> H   -1.98032236   1.23791405   1.45953966
| 42> C   -2.03663245  -1.16606867   0.05368006
| 43> H   -3.10204843  -0.90883065  -0.03475957
| 44> H   -1.99025740  -2.24284446  -0.07034653
| 45> O    1.76170753  -0.96191259  -1.31579874
| 46> C    2.18989079  -0.51908618  -2.45930705
| 47> O    1.52145219   0.18071992  -3.19266293
| 48> C    3.59920122  -0.92957343  -2.82103381
| 49> H    3.65780896  -2.00799096  -2.90510919
| 50> H    4.28183276  -0.64426638  -2.02899817
| 51> H    3.91054682  -0.46702756  -3.75235633
| 52> *
| 53>
| 54>                          ****END OF INPUT****

CARTESIAN COORDINATES (ANGSTROEM)
---------------------------------
  Pd     0.510604    0.355553   -0.486939
  O      2.113098    1.303147    0.154669
  C      1.602873    2.455663    0.312181
  O      0.369373    2.569206    0.185680
  C      2.550454    3.589525    0.571202
  H      2.074509    4.468229    0.994733
  H      3.033554    3.865442   -0.366609
  H      3.341729    3.238575    1.225042
  N     -1.313152   -0.545911   -1.100201
  C     -1.161943   -1.599179   -2.129183
  H     -0.693509   -1.195843   -3.025285
  H     -2.146948   -2.015130   -2.393458
  H     -0.545295   -2.405360   -1.736112
  C     -2.143706    0.530226   -1.676831
  H     -2.336629    1.300851   -0.934804
  H     -3.114098    0.142684   -2.010951
  H     -1.643645    0.981534   -2.530970
  C     -1.540691   -0.865032    1.455650
  C     -1.098085   -1.922690    2.241763
  C     -0.901844   -1.822525    3.590393
  C     -1.156293   -0.602844    4.175080
  C     -1.502900    0.542912    3.441079
  C     -1.705748    0.397857    2.055127
  H     -1.091756   -0.468182    5.228635
  H     -1.692776    1.536752    3.890220
  H     -0.944563   -2.864307    1.746082
  H     -0.579240   -2.659169    4.158922
  H     -1.980322    1.237914    1.459540
  C     -2.036632   -1.166069    0.053680
  H     -3.102048   -0.908831   -0.034760
  H     -1.990257   -2.242844   -0.070347
  O      1.761708   -0.961913   -1.315799
  C      2.189891   -0.519086   -2.459307
  O      1.521452    0.180720   -3.192663
  C      3.599201   -0.929573   -2.821034
  H      3.657809   -2.007991   -2.905109
  H      4.281833   -0.644266   -2.028998
  H      3.910547   -0.467028   -3.752356

 Total Charge           Charge          ....    0
 Multiplicity           Mult            ....    1
 Number of Electrons    NEL             ....  154
 Basis Dimension        Dim             ....  339

ORBITAL ENERGIES
----------------

  NO   OCC          E(Eh)            E(eV)
   0   2.0000     -19.496874      -530.5369
   1   2.0000     -19.482387      -530.1427
   2   2.0000     -19.469237      -529.7849
   3   2.0000     -19.429791      -528.7115
   4   2.0000     -14.721195      -400.5841
   5   2.0000     -10.563604      -287.4503
   6   2.0000     -10.528350      -286.4910
   7   2.0000     -10.502135      -285.7776
   8   2.0000     -10.485526      -285.3257
   9   2.0000     -10.476854      -285.0897
  10   2.0000     -10.474697      -285.0310
  11   2.0000     -10.465060      -284.7688
  12   2.0000     -10.462951      -284.7114
  13   2.0000     -10.458033      -284.5775
  14   2.0000     -10.457927      -284.5747
  15   2.0000     -10.455530      -284.5094
  16   2.0000     -10.436932      -284.0033
  17   2.0000     -10.410860      -283.2939
  18   2.0000      -3.658407       -99.5503
  19   2.0000      -2.309381       -62.8415
  20   2.0000      -2.300634       -62.6034
  21   2.0000      -2.267670       -61.7064
  22   2.0000      -1.197325       -32.5809
  23   2.0000      -1.148865       -31.2622
  24   2.0000      -1.080027       -29.3890
  25   2.0000      -1.074549       -29.2400
  26   2.0000      -1.047942       -28.5160
  27   2.0000      -0.972557       -26.4646
  28   2.0000      -0.880201       -23.9515
  29   2.0000      -0.852648       -23.2017
  30   2.0000      -0.828134       -22.5347
  31   2.0000      -0.820736       -22.3334
  32   2.0000      -0.798410       -21.7258
  33   2.0000      -0.796004       -21.6604
  34   2.0000      -0.720403       -19.6032
  35   2.0000      -0.697783       -18.9877
  36   2.0000      -0.676952       -18.4208
  37   2.0000      -0.613567       -16.6960
  38   2.0000      -0.603401       -16.4194
  39   2.0000      -0.582317       -15.8456
  40   2.0000      -0.571109       -15.5407
  41   2.0000      -0.567817       -15.4511
  42   2.0000      -0.561685       -15.2842
  43   2.0000      -0.543018       -14.7763
  44   2.0000      -0.536841       -14.6082
  45   2.0000      -0.530265       -14.4292
  46   2.0000      -0.525777       -14.3071
  47   2.0000      -0.523182       -14.2365
  48   2.0000      -0.507014       -13.7966
  49   2.0000      -0.498939       -13.5768
  50   2.0000      -0.494881       -13.4664
  51   2.0000      -0.491226       -13.3669
  52   2.0000      -0.486489       -13.2380
  53   2.0000      -0.479725       -13.0540
  54   2.0000      -0.457845       -12.4586
  55   2.0000      -0.456231       -12.4147
  56   2.0000      -0.447100       -12.1662
  57   2.0000      -0.442823       -12.0498
  58   2.0000      -0.439477       -11.9588
  59   2.0000      -0.432199       -11.7607
  60   2.0000      -0.431134       -11.7318
  61   2.0000      -0.416710       -11.3393
  62   2.0000      -0.413965       -11.2646
  63   2.0000      -0.410003       -11.1568
  64   2.0000      -0.402508       -10.9528
  65   2.0000      -0.377248       -10.2654
  66   2.0000      -0.368556       -10.0289
  67   2.0000      -0.358629        -9.7588
  68   2.0000      -0.351489        -9.5645
  69   2.0000      -0.343661        -9.3515
  70   2.0000      -0.318346        -8.6626
  71   2.0000      -0.316438        -8.6107
  72   2.0000      -0.306273        -8.3341
  73   2.0000      -0.302068        -8.2197
  74   2.0000      -0.293254        -7.9798
  75   2.0000      -0.292122        -7.9491
  76   2.0000      -0.271259        -7.3813
  77   0.0000      -0.055684        -1.5152
  78   0.0000      -0.003754        -0.1021
  79   0.0000       0.005900         0.1606
  80   0.0000       0.054233         1.4757
  81   0.0000       0.070865         1.9283

MULLIKEN ATOMIC CHARGES
-----------------------
   0 Pd:    0.547630
   1 O :   -0.492966
   2 C :    0.643977
   3 O :   -0.491750
   4 C :   -0.767392
   5 H :    0.248010
   6 H :    0.262590
   7 H :    0.256437
   8 N :   -0.484895
   9 C :   -0.542990
  10 H :    0.295058
  11 H :    0.218447
  12 H :    0.274989
  13 C :   -0.548056
  14 H :    0.267098
  15 H :    0.230111
  16 H :    0.297129
  17 C :    0.105783
  18 C :   -0.273915
  19 C :   -0.179072
  20 C :   -0.249010
  21 C :   -0.203074
  22 C :   -0.268617
  23 H :    0.224197
  24 H :    0.229165
  25 H :    0.216151
  26 H :    0.228995
  27 H :    0.243380
  28 C :   -0.333066
  29 H :    0.249157
  30 H :    0.252995
  31 O :   -0.546015
  32 C :    0.565614
  33 O :   -0.457274
  34 C :   -0.742036
  35 H :    0.233577
  36 H :    0.249745
  37 H :    0.239893
Sum of atomic charges:   -0.0000000

LOEWDIN ATOMIC CHARGES
----------------------
   0 Pd:   -0.259727
   1 O :   -0.136987
   2 C :    0.174094
   3 O :   -0.207635
   4 C :   -0.378787
   5 H :    0.148365
   6 H :    0.164326
   7 H :    0.157241
   8 N :   -0.059528
   9 C :   -0.236112
  10 H :    0.163684
  11 H :    0.117735
  12 H :    0.152410
  13 C :   -0.234563
  14 H :    0.148510
  15 H :    0.123897
  16 H :    0.164243
  17 C :   -0.055343
  18 C :   -0.110988
  19 C :   -0.130386
  20 C :   -0.121099
  21 C :   -0.123930
  22 C :   -0.104416
  23 H :    0.136867
  24 H :    0.144680
  25 H :    0.137862
  26 H :    0.143580
  27 H :    0.151250
  28 C :   -0.102633
  29 H :    0.143574
  30 H :    0.146090
  31 O :   -0.191624
  32 C :    0.128836
  33 O :   -0.253069
  34 C :   -0.380563
  35 H :    0.145731
  36 H :    0.152049
  37 H :    0.142367

  Mayer bond orders larger than 0.100000
B(  0-Pd,  1-O ) :   0.6216 B(  0-Pd,  3-O ) :   0.3756 B(  0-Pd,  8-N ) :   0.4135
B(  0-Pd, 31-O ) :   0.6536 B(  0-Pd, 33-O ) :   0.1193 B(  1-O ,  2-C ) :   1.3409
B(  2-C ,  3-O ) :   1.6192 B(  2-C ,  4-C ) :   0.9546 B(  4-C ,  5-H ) :   0.9133
B(  4-C ,  6-H ) :   0.9019 B(  4-C ,  7-H ) :   0.9059 B(  8-N ,  9-C ) :   0.9150
B(  8-N , 13-C ) :   0.9197 B(  8-N , 28-C ) :   0.8756 B(  9-C , 10-H ) :   0.8817
B(  9-C , 11-H ) :   0.9030 B(  9-C , 12-H ) :   0.8992 B( 13-C , 14-H ) :   0.8988
B( 13-C , 15-H ) :   0.9018 B( 13-C , 16-H ) :   0.8894 B( 17-C , 18-C ) :   1.4126
B( 17-C , 22-C ) :   1.3748 B( 17-C , 28-C ) :   0.9461 B( 18-C , 19-C ) :   1.4282
B( 18-C , 25-H ) :   0.9174 B( 19-C , 20-C ) :   1.4236 B( 19-C , 26-H ) :   0.9168
B( 20-C , 21-C ) :   1.4121 B( 20-C , 23-H ) :   0.9183 B( 21-C , 22-C ) :   1.4397
B( 21-C , 24-H ) :   0.9172 B( 22-C , 27-H ) :   0.9073 B( 28-C , 29-H ) :   0.8983
B( 28-C , 30-H ) :   0.9146 B( 31-O , 32-C ) :   1.2486 B( 32-C , 33-O ) :   1.8639
B( 32-C , 34-C ) :   0.9362 B( 34-C , 35-H ) :   0.9143 B( 34-C , 36-H ) :   0.9091
B( 34-C , 37-H ) :   0.9202

Dispersion correction           -0.026152464
FINAL SINGLE POINT ENERGY      -988.536012414828
Dispersion correction            ... done

DIPOLE MOMENT
-------------
                                X             Y             Z
Electronic contribution:     21.97818      16.59629     -24.28094
Nuclear contribution   :    -23.57755     -17.11506      25.17165
                        -----------------------------------------
Total Dipole Moment    :     -1.59937      -0.51877       0.89072
                        -----------------------------------------
Magnitude (a.u.)       :      1.90276
Magnitude (Debye)      :      4.83643

Rotational constants in cm-1:     0.014428     0.008521     0.006952
Rotational constants in MHz :   432.547574   255.462332   208.416550

                             ****ORCA TERMINATED NORMALLY****
TOTAL RUN TIME: 0 days 0 hours 11 minutes 19 seconds 323 msec
