                         Program Version 5.0.3 -  RELEASE  -
|  1> ! EnGrad PBEh-3c
|  2> %output
|  3> xyzfile=True
|  4> end
|  5> %scf
|  6> maxiter 250
|  7> end
|  8> %output
|  9> Print[P_Hirshfeld] = 1
| 10> end
| 11> % maxcore
| 12> 4000
| 13> *xyz 0 1
| 14> Pd   0.54932265   0.46445747  -0.41829607
| 15> O    2.08454337   1.40227142   0.47763968
| 16> C    1.62815650   2.65080906   0.29904502
| 17> O    0.51895958   2.80672980  -0.12215077
| 18> C    2.58797112   3.80398718   0.56771523
| 19> H    2.02208377   4.61514513   1.02699179
| 20> H    2.97885594   4.16648859  -0.37944398
| 21> H    3.42221540   3.53501078   1.20711491
| 22> N   -1.31504082  -0.51936209  -1.16503636
| 23> C   -1.26706720  -1.33441548  -2.37896033
| 24> H   -0.91120358  -0.74419918  -3.20371093
| 25> H   -2.28580957  -1.65197633  -2.62394293
| 26> H   -0.64379813  -2.19996708  -2.25326553
| 27> C   -2.18509460   0.63746903  -1.44426266
| 28> H   -2.26397897   1.31417079  -0.61855544
| 29> H   -3.18692705   0.28360682  -1.70298490
| 30> H   -1.77403961   1.16579688  -2.29781699
| 31> C   -1.46939900  -0.96055231   1.33470417
| 32> C   -0.65368134  -1.87632057   2.08810761
| 33> C   -0.49473011  -1.75211668   3.44633201
| 34> C   -1.20034681  -0.79657044   4.12355024
| 35> C   -2.07941501   0.05602679   3.43158431
| 36> C   -2.05108790   0.04189219   2.09765810
| 37> H   -1.09389322  -0.67864001   5.19972576
| 38> H   -2.82730229   0.54778159   4.00384157
| 39> H   -0.15782447  -2.69858904   1.58716380
| 40> H    0.07763339  -2.48532070   3.99958638
| 41> H   -2.63058793   2.62992854   1.95946890
| 42> C   -1.87982234  -1.35939717  -0.03771812
| 43> H   -2.97494079  -1.31585904  -0.07340517
| 44> H   -1.64571894  -2.40504988  -0.22334504
| 45> O    1.85984708  -0.86755241  -1.12441180
| 46> C    2.25545096  -0.63300638  -2.36625626
| 47> O    1.67681522   0.03637983  -3.18989652
| 48> C    3.58361922  -1.34127200  -2.72686630
| 49> H    3.47839914  -2.41919057  -2.68474577
| 50> H    4.37498731  -1.04882969  -2.06510532
| 51> H    3.89423455  -1.07352121  -3.74882354
| 52> *
| 53>
| 54>                          ****END OF INPUT****

CARTESIAN COORDINATES (ANGSTROEM)
---------------------------------
  Pd     0.549323    0.464457   -0.418296
  O      2.084543    1.402271    0.477640
  C      1.628157    2.650809    0.299045
  O      0.518960    2.806730   -0.122151
  C      2.587971    3.803987    0.567715
  H      2.022084    4.615145    1.026992
  H      2.978856    4.166489   -0.379444
  H      3.422215    3.535011    1.207115
  N     -1.315041   -0.519362   -1.165036
  C     -1.267067   -1.334415   -2.378960
  H     -0.911204   -0.744199   -3.203711
  H     -2.285810   -1.651976   -2.623943
  H     -0.643798   -2.199967   -2.253266
  C     -2.185095    0.637469   -1.444263
  H     -2.263979    1.314171   -0.618555
  H     -3.186927    0.283607   -1.702985
  H     -1.774040    1.165797   -2.297817
  C     -1.469399   -0.960552    1.334704
  C     -0.653681   -1.876321    2.088108
  C     -0.494730   -1.752117    3.446332
  C     -1.200347   -0.796570    4.123550
  C     -2.079415    0.056027    3.431584
  C     -2.051088    0.041892    2.097658
  H     -1.093893   -0.678640    5.199726
  H     -2.827302    0.547782    4.003842
  H     -0.157824   -2.698589    1.587164
  H      0.077633   -2.485321    3.999586
  H     -2.630588    2.629929    1.959469
  C     -1.879822   -1.359397   -0.037718
  H     -2.974941   -1.315859   -0.073405
  H     -1.645719   -2.405050   -0.223345
  O      1.859847   -0.867552   -1.124412
  C      2.255451   -0.633006   -2.366256
  O      1.676815    0.036380   -3.189897
  C      3.583619   -1.341272   -2.726866
  H      3.478399   -2.419191   -2.684746
  H      4.374987   -1.048830   -2.065105
  H      3.894235   -1.073521   -3.748824

 Total Charge           Charge          ....    0
 Multiplicity           Mult            ....    1
 Number of Electrons    NEL             ....  154
 Basis Dimension        Dim             ....  339

ORBITAL ENERGIES
----------------

  NO   OCC          E(Eh)            E(eV)
   0   2.0000     -19.487863      -530.2917
   1   2.0000     -19.483435      -530.1712
   2   2.0000     -19.475551      -529.9567
   3   2.0000     -19.436652      -528.8982
   4   2.0000     -14.717577      -400.4856
   5   2.0000     -10.560644      -287.3697
   6   2.0000     -10.534899      -286.6692
   7   2.0000     -10.525093      -286.4023
   8   2.0000     -10.511455      -286.0312
   9   2.0000     -10.502929      -285.7992
  10   2.0000     -10.482464      -285.2423
  11   2.0000     -10.478630      -285.1380
  12   2.0000     -10.476293      -285.0744
  13   2.0000     -10.474709      -285.0313
  14   2.0000     -10.474099      -285.0147
  15   2.0000     -10.467452      -284.8338
  16   2.0000     -10.434077      -283.9257
  17   2.0000     -10.413138      -283.3559
  18   2.0000      -3.656880       -99.5088
  19   2.0000      -2.306632       -62.7666
  20   2.0000      -2.299394       -62.5697
  21   2.0000      -2.266905       -61.6856
  22   2.0000      -1.192342       -32.4453
  23   2.0000      -1.143747       -31.1229
  24   2.0000      -1.072471       -29.1834
  25   2.0000      -1.065064       -28.9819
  26   2.0000      -1.050520       -28.5861
  27   2.0000      -0.994466       -27.0608
  28   2.0000      -0.897677       -24.4270
  29   2.0000      -0.867597       -23.6085
  30   2.0000      -0.820500       -22.3269
  31   2.0000      -0.817761       -22.2524
  32   2.0000      -0.809082       -22.0162
  33   2.0000      -0.788888       -21.4667
  34   2.0000      -0.723766       -19.6947
  35   2.0000      -0.706276       -19.2188
  36   2.0000      -0.678826       -18.4718
  37   2.0000      -0.605935       -16.4883
  38   2.0000      -0.599841       -16.3225
  39   2.0000      -0.583382       -15.8746
  40   2.0000      -0.578884       -15.7522
  41   2.0000      -0.575077       -15.6486
  42   2.0000      -0.560537       -15.2530
  43   2.0000      -0.540514       -14.7081
  44   2.0000      -0.536513       -14.5993
  45   2.0000      -0.530269       -14.4293
  46   2.0000      -0.524209       -14.2644
  47   2.0000      -0.514748       -14.0070
  48   2.0000      -0.504718       -13.7341
  49   2.0000      -0.500028       -13.6064
  50   2.0000      -0.490849       -13.3567
  51   2.0000      -0.487780       -13.2732
  52   2.0000      -0.480963       -13.0877
  53   2.0000      -0.471716       -12.8360
  54   2.0000      -0.463078       -12.6010
  55   2.0000      -0.451877       -12.2962
  56   2.0000      -0.450056       -12.2466
  57   2.0000      -0.444509       -12.0957
  58   2.0000      -0.439875       -11.9696
  59   2.0000      -0.438062       -11.9203
  60   2.0000      -0.436534       -11.8787
  61   2.0000      -0.426206       -11.5976
  62   2.0000      -0.417729       -11.3670
  63   2.0000      -0.401824       -10.9342
  64   2.0000      -0.376063       -10.2332
  65   2.0000      -0.369610       -10.0576
  66   2.0000      -0.352568        -9.5939
  67   2.0000      -0.349592        -9.5129
  68   2.0000      -0.342141        -9.3101
  69   2.0000      -0.332480        -9.0473
  70   2.0000      -0.322246        -8.7688
  71   2.0000      -0.311791        -8.4843
  72   2.0000      -0.304849        -8.2954
  73   2.0000      -0.293526        -7.9873
  74   2.0000      -0.290629        -7.9084
  75   2.0000      -0.276985        -7.5371
  76   2.0000      -0.269349        -7.3293
  77   0.0000      -0.133372        -3.6292
  78   0.0000      -0.066597        -1.8122
  79   0.0000      -0.024534        -0.6676
  80   0.0000      -0.001699        -0.0462
  81   0.0000       0.060145         1.6366

MULLIKEN ATOMIC CHARGES
-----------------------
   0 Pd:    0.498257
   1 O :   -0.522310
   2 C :    0.626534
   3 O :   -0.432484
   4 C :   -0.758951
   5 H :    0.244071
   6 H :    0.259045
   7 H :    0.254426
   8 N :   -0.470416
   9 C :   -0.526084
  10 H :    0.292727
  11 H :    0.212397
  12 H :    0.264464
  13 C :   -0.552172
  14 H :    0.293091
  15 H :    0.223992
  16 H :    0.281814
  17 C :   -0.028020
  18 C :   -0.239263
  19 C :   -0.185210
  20 C :   -0.239222
  21 C :   -0.239521
  22 C :    0.019824
  23 H :    0.243218
  24 H :    0.260177
  25 H :    0.250112
  26 H :    0.237536
  27 H :   -0.012075
  28 C :   -0.316977
  29 H :    0.250241
  30 H :    0.264109
  31 O :   -0.546664
  32 C :    0.562369
  33 O :   -0.441822
  34 C :   -0.739285
  35 H :    0.229860
  36 H :    0.248646
  37 H :    0.233563
Sum of atomic charges:   -0.0000000

LOEWDIN ATOMIC CHARGES
----------------------
   0 Pd:   -0.253603
   1 O :   -0.190914
   2 C :    0.179466
   3 O :   -0.155753
   4 C :   -0.381081
   5 H :    0.150397
   6 H :    0.161296
   7 H :    0.150899
   8 N :   -0.072079
   9 C :   -0.238391
  10 H :    0.160721
  11 H :    0.116295
  12 H :    0.146049
  13 C :   -0.240354
  14 H :    0.159840
  15 H :    0.121478
  16 H :    0.158457
  17 C :   -0.064364
  18 C :   -0.089388
  19 C :   -0.131188
  20 C :   -0.113590
  21 C :   -0.142808
  22 C :    0.028154
  23 H :    0.146529
  24 H :    0.157369
  25 H :    0.156470
  26 H :    0.148226
  27 H :   -0.011834
  28 C :   -0.098892
  29 H :    0.143752
  30 H :    0.151882
  31 O :   -0.196759
  32 C :    0.144459
  33 O :   -0.243533
  34 C :   -0.386322
  35 H :    0.141950
  36 H :    0.147637
  37 H :    0.139526

  Mayer bond orders larger than 0.100000
B(  0-Pd,  1-O ) :   0.6861 B(  0-Pd,  3-O ) :   0.3050 B(  0-Pd,  8-N ) :   0.3814
B(  0-Pd, 31-O ) :   0.6834 B(  1-O ,  2-C ) :   1.2417 B(  2-C ,  3-O ) :   1.7351
B(  2-C ,  4-C ) :   0.9447 B(  4-C ,  5-H ) :   0.9122 B(  4-C ,  6-H ) :   0.9054
B(  4-C ,  7-H ) :   0.9094 B(  8-N ,  9-C ) :   0.9281 B(  8-N , 13-C ) :   0.9205
B(  8-N , 28-C ) :   0.8955 B(  9-C , 10-H ) :   0.8890 B(  9-C , 11-H ) :   0.9044
B(  9-C , 12-H ) :   0.9081 B( 13-C , 14-H ) :   0.8786 B( 13-C , 15-H ) :   0.9049
B( 13-C , 16-H ) :   0.8960 B( 17-C , 18-C ) :   1.3781 B( 17-C , 22-C ) :   1.4142
B( 17-C , 28-C ) :   0.9496 B( 18-C , 19-C ) :   1.4397 B( 18-C , 25-H ) :   0.8995
B( 19-C , 20-C ) :   1.4360 B( 19-C , 26-H ) :   0.9111 B( 20-C , 21-C ) :   1.3709
B( 20-C , 23-H ) :   0.9061 B( 21-C , 22-C ) :   1.4938 B( 21-C , 24-H ) :   0.8999
B( 22-C , 27-H ) :   0.7687 B( 28-C , 29-H ) :   0.8958 B( 28-C , 30-H ) :   0.9112
B( 31-O , 32-C ) :   1.2260 B( 31-O , 33-O ) :   0.1013 B( 32-C , 33-O ) :   1.8974
B( 32-C , 34-C ) :   0.9250 B( 34-C , 35-H ) :   0.9173 B( 34-C , 36-H ) :   0.9101
B( 34-C , 37-H ) :   0.9221

Dispersion correction           -0.025738151
FINAL SINGLE POINT ENERGY      -988.275185750411
Dispersion correction            ... done

DIPOLE MOMENT
-------------
                                X             Y             Z
Electronic contribution:     23.55285      21.81439     -20.34503
Nuclear contribution   :    -25.28349     -22.96465      21.53128
                        -----------------------------------------
Total Dipole Moment    :     -1.73064      -1.15026       1.18625
                        -----------------------------------------
Magnitude (a.u.)       :      2.39278
Magnitude (Debye)      :      6.08195

Rotational constants in cm-1:     0.013320     0.008319     0.006922
Rotational constants in MHz :   399.313419   249.383629   207.514892

                             ****ORCA TERMINATED NORMALLY****
TOTAL RUN TIME: 0 days 0 hours 21 minutes 0 seconds 395 msec
