                         Program Version 5.0.3 -  RELEASE  -
|  1> ! EnGrad PBEh-3c
|  2> %output
|  3> xyzfile=True
|  4> end
|  5> %scf
|  6> maxiter 250
|  7> end
|  8> %output
|  9> Print[P_Hirshfeld] = 1
| 10> end
| 11> % maxcore
| 12> 4000
| 13> *xyz 0 1
| 14> Pd   0.62150113   0.49026007  -0.38296540
| 15> O    2.05552464   1.35102751   0.43690954
| 16> C    1.59716469   2.64711000   0.31805169
| 17> O    0.48327995   2.80637864  -0.13289575
| 18> C    2.59316949   3.78331273   0.57212373
| 19> H    2.03781533   4.60681909   1.02266531
| 20> H    2.99354138   4.15188784  -0.37978447
| 21> H    3.43084578   3.51212438   1.21301020
| 22> N   -1.35053034  -0.53186507  -1.19187585
| 23> C   -1.26196855  -1.38212103  -2.38283569
| 24> H   -0.87633684  -0.77769932  -3.18403577
| 25> H   -2.28237682  -1.69038350  -2.59073464
| 26> H   -0.62332071  -2.24076627  -2.20463989
| 27> C   -2.19896608   0.64511411  -1.46143155
| 28> H   -2.26675028   1.32211074  -0.60873865
| 29> H   -3.17846213   0.25073194  -1.73044650
| 30> H   -1.75636998   1.13287775  -2.32464371
| 31> C   -1.46582927  -0.92630693   1.34981451
| 32> C   -0.71643846  -1.90477241   2.09472434
| 33> C   -0.48835289  -1.74734439   3.44515364
| 34> C   -1.22541954  -0.81688252   4.13617080
| 35> C   -2.02852867   0.11052627   3.47659960
| 36> C   -2.02959767   0.05552190   2.13400351
| 37> H   -1.10179156  -0.67521691   5.19807393
| 38> H   -2.74243460   0.68383602   3.99685203
| 39> H   -0.22816486  -2.73079005   1.57759961
| 40> H    0.03473579  -2.50867540   4.00681494
| 41> H   -2.57732532   2.54982602   1.89135737
| 42> C   -1.89968692  -1.34039226  -0.02956054
| 43> H   -2.98816294  -1.26868039  -0.08593126
| 44> H   -1.66891104  -2.39542711  -0.21254572
| 45> O    1.89440339  -0.90730791  -1.13547719
| 46> C    2.22497810  -0.59829081  -2.40158904
| 47> O    1.64387362   0.04433635  -3.20511371
| 48> C    3.59282833  -1.30111292  -2.72547257
| 49> H    3.49716896  -2.38684344  -2.70748145
| 50> H    4.38911206  -1.01401008  -2.04780885
| 51> H    3.87056384  -1.00850349  -3.74160815
| 52> *
| 53>
| 54>                          ****END OF INPUT****

CARTESIAN COORDINATES (ANGSTROEM)
---------------------------------
  Pd     0.621501    0.490260   -0.382965
  O      2.055525    1.351028    0.436910
  C      1.597165    2.647110    0.318052
  O      0.483280    2.806379   -0.132896
  C      2.593169    3.783313    0.572124
  H      2.037815    4.606819    1.022665
  H      2.993541    4.151888   -0.379784
  H      3.430846    3.512124    1.213010
  N     -1.350530   -0.531865   -1.191876
  C     -1.261969   -1.382121   -2.382836
  H     -0.876337   -0.777699   -3.184036
  H     -2.282377   -1.690384   -2.590735
  H     -0.623321   -2.240766   -2.204640
  C     -2.198966    0.645114   -1.461432
  H     -2.266750    1.322111   -0.608739
  H     -3.178462    0.250732   -1.730446
  H     -1.756370    1.132878   -2.324644
  C     -1.465829   -0.926307    1.349815
  C     -0.716438   -1.904772    2.094724
  C     -0.488353   -1.747344    3.445154
  C     -1.225420   -0.816883    4.136171
  C     -2.028529    0.110526    3.476600
  C     -2.029598    0.055522    2.134004
  H     -1.101792   -0.675217    5.198074
  H     -2.742435    0.683836    3.996852
  H     -0.228165   -2.730790    1.577600
  H      0.034736   -2.508675    4.006815
  H     -2.577325    2.549826    1.891357
  C     -1.899687   -1.340392   -0.029561
  H     -2.988163   -1.268680   -0.085931
  H     -1.668911   -2.395427   -0.212546
  O      1.894403   -0.907308   -1.135477
  C      2.224978   -0.598291   -2.401589
  O      1.643874    0.044336   -3.205114
  C      3.592828   -1.301113   -2.725473
  H      3.497169   -2.386843   -2.707481
  H      4.389112   -1.014010   -2.047809
  H      3.870564   -1.008503   -3.741608

 Total Charge           Charge          ....    0
 Multiplicity           Mult            ....    1
 Number of Electrons    NEL             ....  154
 Basis Dimension        Dim             ....  339

ORBITAL ENERGIES
----------------

  NO   OCC          E(Eh)            E(eV)
   0   2.0000     -19.505161      -530.7624
   1   2.0000     -19.503033      -530.7045
   2   2.0000     -19.468386      -529.7617
   3   2.0000     -19.446561      -529.1678
   4   2.0000     -14.699704      -399.9993
   5   2.0000     -10.581588      -287.9396
   6   2.0000     -10.534963      -286.6709
   7   2.0000     -10.525092      -286.4023
   8   2.0000     -10.506558      -285.8980
   9   2.0000     -10.500714      -285.7389
  10   2.0000     -10.483792      -285.2785
  11   2.0000     -10.474263      -285.0192
  12   2.0000     -10.474232      -285.0183
  13   2.0000     -10.471999      -284.9576
  14   2.0000     -10.469735      -284.8960
  15   2.0000     -10.467921      -284.8466
  16   2.0000     -10.449340      -284.3410
  17   2.0000     -10.409181      -283.2482
  18   2.0000      -3.654855       -99.4537
  19   2.0000      -2.308657       -62.8218
  20   2.0000      -2.294642       -62.4404
  21   2.0000      -2.265689       -61.6525
  22   2.0000      -1.199249       -32.6332
  23   2.0000      -1.152389       -31.3581
  24   2.0000      -1.076617       -29.2962
  25   2.0000      -1.057800       -28.7842
  26   2.0000      -1.050177       -28.5768
  27   2.0000      -0.993575       -27.0365
  28   2.0000      -0.893502       -24.3134
  29   2.0000      -0.865547       -23.5527
  30   2.0000      -0.828956       -22.5570
  31   2.0000      -0.813392       -22.1335
  32   2.0000      -0.804231       -21.8842
  33   2.0000      -0.778921       -21.1955
  34   2.0000      -0.715076       -19.4582
  35   2.0000      -0.703494       -19.1431
  36   2.0000      -0.673937       -18.3388
  37   2.0000      -0.619224       -16.8499
  38   2.0000      -0.602403       -16.3922
  39   2.0000      -0.575924       -15.6717
  40   2.0000      -0.572686       -15.5836
  41   2.0000      -0.563383       -15.3304
  42   2.0000      -0.554997       -15.1022
  43   2.0000      -0.552016       -15.0211
  44   2.0000      -0.537090       -14.6150
  45   2.0000      -0.532367       -14.4864
  46   2.0000      -0.528681       -14.3862
  47   2.0000      -0.523227       -14.2377
  48   2.0000      -0.502101       -13.6629
  49   2.0000      -0.495425       -13.4812
  50   2.0000      -0.491493       -13.3742
  51   2.0000      -0.485857       -13.2208
  52   2.0000      -0.476572       -12.9682
  53   2.0000      -0.468496       -12.7484
  54   2.0000      -0.462973       -12.5981
  55   2.0000      -0.461796       -12.5661
  56   2.0000      -0.450307       -12.2535
  57   2.0000      -0.448540       -12.2054
  58   2.0000      -0.440612       -11.9897
  59   2.0000      -0.437476       -11.9043
  60   2.0000      -0.430031       -11.7017
  61   2.0000      -0.425546       -11.5797
  62   2.0000      -0.418634       -11.3916
  63   2.0000      -0.411257       -11.1909
  64   2.0000      -0.389024       -10.5859
  65   2.0000      -0.368579       -10.0295
  66   2.0000      -0.359791        -9.7904
  67   2.0000      -0.352712        -9.5978
  68   2.0000      -0.334052        -9.0900
  69   2.0000      -0.328105        -8.9282
  70   2.0000      -0.322308        -8.7704
  71   2.0000      -0.308015        -8.3815
  72   2.0000      -0.305074        -8.3015
  73   2.0000      -0.295824        -8.0498
  74   2.0000      -0.288489        -7.8502
  75   2.0000      -0.279394        -7.6027
  76   2.0000      -0.272648        -7.4191
  77   0.0000      -0.122168        -3.3244
  78   0.0000      -0.055988        -1.5235
  79   0.0000      -0.021640        -0.5888
  80   0.0000      -0.002558        -0.0696
  81   0.0000       0.036496         0.9931

MULLIKEN ATOMIC CHARGES
-----------------------
   0 Pd:    0.515736
   1 O :   -0.546517
   2 C :    0.634544
   3 O :   -0.424336
   4 C :   -0.757444
   5 H :    0.249720
   6 H :    0.266441
   7 H :    0.260441
   8 N :   -0.460991
   9 C :   -0.515290
  10 H :    0.283895
  11 H :    0.207022
  12 H :    0.259287
  13 C :   -0.533445
  14 H :    0.282384
  15 H :    0.214363
  16 H :    0.271099
  17 C :   -0.008380
  18 C :   -0.257936
  19 C :   -0.180447
  20 C :   -0.243975
  21 C :   -0.237100
  22 C :    0.020793
  23 H :    0.241240
  24 H :    0.261996
  25 H :    0.256382
  26 H :    0.232302
  27 H :   -0.023635
  28 C :   -0.317763
  29 H :    0.244125
  30 H :    0.257234
  31 O :   -0.554710
  32 C :    0.554503
  33 O :   -0.408366
  34 C :   -0.739551
  35 H :    0.228690
  36 H :    0.243942
  37 H :    0.223747
Sum of atomic charges:    0.0000000

LOEWDIN ATOMIC CHARGES
----------------------
   0 Pd:   -0.259162
   1 O :   -0.176225
   2 C :    0.221756
   3 O :   -0.147155
   4 C :   -0.378074
   5 H :    0.153404
   6 H :    0.166143
   7 H :    0.154941
   8 N :   -0.104334
   9 C :   -0.238757
  10 H :    0.158105
  11 H :    0.113564
  12 H :    0.146268
  13 C :   -0.240137
  14 H :    0.159577
  15 H :    0.116464
  16 H :    0.154296
  17 C :   -0.064468
  18 C :   -0.087415
  19 C :   -0.130946
  20 C :   -0.114368
  21 C :   -0.145643
  22 C :    0.031614
  23 H :    0.145597
  24 H :    0.157699
  25 H :    0.156889
  26 H :    0.148018
  27 H :   -0.022339
  28 C :   -0.099876
  29 H :    0.139076
  30 H :    0.148771
  31 O :   -0.224261
  32 C :    0.141099
  33 O :   -0.207170
  34 C :   -0.392805
  35 H :    0.141125
  36 H :    0.145821
  37 H :    0.132908

  Mayer bond orders larger than 0.100000
B(  0-Pd,  1-O ) :   0.7269 B(  0-Pd,  3-O ) :   0.3027 B(  0-Pd,  8-N ) :   0.3403
B(  0-Pd, 31-O ) :   0.6829 B(  1-O ,  2-C ) :   1.1767 B(  1-O ,  3-O ) :   0.1002
B(  2-C ,  3-O ) :   1.7399 B(  2-C ,  4-C ) :   0.9488 B(  4-C ,  5-H ) :   0.9076
B(  4-C ,  6-H ) :   0.9007 B(  4-C ,  7-H ) :   0.9058 B(  8-N ,  9-C ) :   0.9322
B(  8-N , 13-C ) :   0.9264 B(  8-N , 28-C ) :   0.9021 B(  9-C , 10-H ) :   0.8927
B(  9-C , 11-H ) :   0.9066 B(  9-C , 12-H ) :   0.9098 B( 13-C , 14-H ) :   0.8834
B( 13-C , 15-H ) :   0.9072 B( 13-C , 16-H ) :   0.9009 B( 17-C , 18-C ) :   1.3581
B( 17-C , 22-C ) :   1.4222 B( 17-C , 28-C ) :   0.9453 B( 18-C , 19-C ) :   1.4420
B( 18-C , 25-H ) :   0.8971 B( 19-C , 20-C ) :   1.4176 B( 19-C , 26-H ) :   0.9152
B( 20-C , 21-C ) :   1.3797 B( 20-C , 23-H ) :   0.9073 B( 21-C , 22-C ) :   1.4805
B( 21-C , 24-H ) :   0.9006 B( 22-C , 27-H ) :   0.7753 B( 28-C , 29-H ) :   0.8959
B( 28-C , 30-H ) :   0.9137 B( 31-O , 32-C ) :   1.2083 B( 31-O , 33-O ) :   0.1021
B( 32-C , 33-O ) :   1.9428 B( 32-C , 34-C ) :   0.9116 B( 34-C , 35-H ) :   0.9192
B( 34-C , 36-H ) :   0.9143 B( 34-C , 37-H ) :   0.9221

Dispersion correction           -0.025659475
FINAL SINGLE POINT ENERGY      -988.268935232294
Dispersion correction            ... done

DIPOLE MOMENT
-------------
                                X             Y             Z
Electronic contribution:     27.83635      23.68792     -18.27557
Nuclear contribution   :    -29.25852     -24.39610      19.59712
                        -----------------------------------------
Total Dipole Moment    :     -1.42217      -0.70818       1.32155
                        -----------------------------------------
Magnitude (a.u.)       :      2.06654
Magnitude (Debye)      :      5.25273

Rotational constants in cm-1:     0.013313     0.008282     0.006891
Rotational constants in MHz :   399.105877   248.279328   206.580881

                             ****ORCA TERMINATED NORMALLY****
TOTAL RUN TIME: 0 days 0 hours 18 minutes 35 seconds 410 msec
