                         Program Version 5.0.3 -  RELEASE  -
|  1> ! EnGrad PBEh-3c
|  2> %output
|  3> xyzfile=True
|  4> end
|  5> %scf
|  6> maxiter 250
|  7> end
|  8> %output
|  9> Print[P_Hirshfeld] = 1
| 10> end
| 11> % maxcore
| 12> 4000
| 13> *xyz 0 1
| 14> Pd   0.57009869   0.47188456  -0.40812640
| 15> O    2.07619054   1.38752124   0.46591581
| 16> C    1.61923574   2.64974431   0.30451595
| 17> O    0.50868947   2.80662872  -0.12524363
| 18> C    2.58946743   3.79803619   0.56898419
| 19> H    2.02661198   4.61274854   1.02574644
| 20> H    2.98308303   4.16228587  -0.37954199
| 21> H    3.42469959   3.52842310   1.20881183
| 22> N   -1.32525621  -0.52296098  -1.17276190
| 23> C   -1.26559959  -1.34814717  -2.38007582
| 24> H   -0.90116745  -0.75384195  -3.19804758
| 25> H   -2.28482148  -1.66303155  -2.61438417
| 26> H   -0.63790386  -2.21171082  -2.23926900
| 27> C   -2.18908740   0.63966961  -1.44920460
| 28> H   -2.26477667   1.31645625  -0.61572975
| 29> H   -3.18449048   0.27414403  -1.71088952
| 30> H   -1.76895354   1.15632136  -2.30553886
| 31> C   -1.46837148  -0.95069503   1.33905357
| 32> C   -0.67174551  -1.88451022   2.09001219
| 33> C   -0.49289448  -1.75074301   3.44599283
| 34> C   -1.20756381  -0.80241712   4.12718298
| 35> C   -2.06476775   0.07171406   3.44454163
| 36> C   -2.04490210   0.04581540   2.10811986
| 37> H   -1.09616670  -0.67765469   5.19925029
| 38> H   -2.80287376   0.58694384   4.00182968
| 39> H   -0.17807143  -2.70785786   1.58441082
| 40> H    0.06528564  -2.49204318   4.00166706
| 41> H   -2.61525669   2.60687163   1.93986350
| 42> C   -1.88554021  -1.35392675  -0.03537002
| 43> H   -2.97874669  -1.30227902  -0.07701071
| 44> H   -1.65239461  -2.40228003  -0.22023654
| 45> O    1.86979385  -0.87899574  -1.12759689
| 46> C    2.24667957  -0.62301376  -2.37642654
| 47> O    1.66733322   0.03867005  -3.19427668
| 48> C    3.58627000  -1.32971251  -2.72646512
| 49> H    3.48380190  -2.40987969  -2.69129007
| 50> H    4.37905301  -1.03880712  -2.06012666
| 51> H    3.88742111  -1.05480635  -3.74674664
| 52> *
| 53>
| 54>                          ****END OF INPUT****

CARTESIAN COORDINATES (ANGSTROEM)
---------------------------------
  Pd     0.570099    0.471885   -0.408126
  O      2.076191    1.387521    0.465916
  C      1.619236    2.649744    0.304516
  O      0.508689    2.806629   -0.125244
  C      2.589467    3.798036    0.568984
  H      2.026612    4.612749    1.025746
  H      2.983083    4.162286   -0.379542
  H      3.424700    3.528423    1.208812
  N     -1.325256   -0.522961   -1.172762
  C     -1.265600   -1.348147   -2.380076
  H     -0.901167   -0.753842   -3.198048
  H     -2.284821   -1.663032   -2.614384
  H     -0.637904   -2.211711   -2.239269
  C     -2.189087    0.639670   -1.449205
  H     -2.264777    1.316456   -0.615730
  H     -3.184490    0.274144   -1.710890
  H     -1.768954    1.156321   -2.305539
  C     -1.468371   -0.950695    1.339054
  C     -0.671746   -1.884510    2.090012
  C     -0.492894   -1.750743    3.445993
  C     -1.207564   -0.802417    4.127183
  C     -2.064768    0.071714    3.444542
  C     -2.044902    0.045815    2.108120
  H     -1.096167   -0.677655    5.199250
  H     -2.802874    0.586944    4.001830
  H     -0.178071   -2.707858    1.584411
  H      0.065286   -2.492043    4.001667
  H     -2.615257    2.606872    1.939863
  C     -1.885540   -1.353927   -0.035370
  H     -2.978747   -1.302279   -0.077011
  H     -1.652395   -2.402280   -0.220237
  O      1.869794   -0.878996   -1.127597
  C      2.246680   -0.623014   -2.376427
  O      1.667333    0.038670   -3.194277
  C      3.586270   -1.329713   -2.726465
  H      3.483802   -2.409880   -2.691290
  H      4.379053   -1.038807   -2.060127
  H      3.887421   -1.054806   -3.746747

 Total Charge           Charge          ....    0
 Multiplicity           Mult            ....    1
 Number of Electrons    NEL             ....  154
 Basis Dimension        Dim             ....  339

ORBITAL ENERGIES
----------------

  NO   OCC          E(Eh)            E(eV)
   0   2.0000     -19.493019      -530.4320
   1   2.0000     -19.489119      -530.3259
   2   2.0000     -19.473613      -529.9040
   3   2.0000     -19.439392      -528.9727
   4   2.0000     -14.712495      -400.3473
   5   2.0000     -10.566740      -287.5356
   6   2.0000     -10.534813      -286.6668
   7   2.0000     -10.525074      -286.4018
   8   2.0000     -10.510014      -285.9920
   9   2.0000     -10.502182      -285.7789
  10   2.0000     -10.482702      -285.2488
  11   2.0000     -10.477301      -285.1018
  12   2.0000     -10.475502      -285.0529
  13   2.0000     -10.473205      -284.9904
  14   2.0000     -10.473183      -284.9898
  15   2.0000     -10.467417      -284.8329
  16   2.0000     -10.438506      -284.0462
  17   2.0000     -10.411935      -283.3232
  18   2.0000      -3.656038       -99.4858
  19   2.0000      -2.306646       -62.7670
  20   2.0000      -2.297884       -62.5286
  21   2.0000      -2.266278       -61.6686
  22   2.0000      -1.194337       -32.4996
  23   2.0000      -1.145527       -31.1714
  24   2.0000      -1.069448       -29.1012
  25   2.0000      -1.066856       -29.0306
  26   2.0000      -1.051370       -28.6092
  27   2.0000      -0.994253       -27.0550
  28   2.0000      -0.896419       -24.3928
  29   2.0000      -0.867043       -23.5934
  30   2.0000      -0.821100       -22.3433
  31   2.0000      -0.818400       -22.2698
  32   2.0000      -0.807775       -21.9807
  33   2.0000      -0.786012       -21.3885
  34   2.0000      -0.720787       -19.6136
  35   2.0000      -0.705829       -19.2066
  36   2.0000      -0.677635       -18.4394
  37   2.0000      -0.607128       -16.5208
  38   2.0000      -0.602745       -16.4015
  39   2.0000      -0.581319       -15.8185
  40   2.0000      -0.577026       -15.7017
  41   2.0000      -0.571663       -15.5557
  42   2.0000      -0.558600       -15.2003
  43   2.0000      -0.541929       -14.7466
  44   2.0000      -0.537479       -14.6255
  45   2.0000      -0.530051       -14.4234
  46   2.0000      -0.527704       -14.3596
  47   2.0000      -0.517097       -14.0709
  48   2.0000      -0.503747       -13.7076
  49   2.0000      -0.498738       -13.5713
  50   2.0000      -0.490602       -13.3500
  51   2.0000      -0.487513       -13.2659
  52   2.0000      -0.479773       -13.0553
  53   2.0000      -0.470936       -12.8148
  54   2.0000      -0.462914       -12.5965
  55   2.0000      -0.454584       -12.3699
  56   2.0000      -0.450123       -12.2485
  57   2.0000      -0.444026       -12.0826
  58   2.0000      -0.441161       -12.0046
  59   2.0000      -0.438821       -11.9409
  60   2.0000      -0.434899       -11.8342
  61   2.0000      -0.425940       -11.5904
  62   2.0000      -0.416767       -11.3408
  63   2.0000      -0.403844       -10.9892
  64   2.0000      -0.378589       -10.3019
  65   2.0000      -0.368220       -10.0198
  66   2.0000      -0.354664        -9.6509
  67   2.0000      -0.351371        -9.5613
  68   2.0000      -0.341345        -9.2885
  69   2.0000      -0.331618        -9.0238
  70   2.0000      -0.322365        -8.7720
  71   2.0000      -0.311184        -8.4678
  72   2.0000      -0.305112        -8.3025
  73   2.0000      -0.293707        -7.9922
  74   2.0000      -0.291022        -7.9191
  75   2.0000      -0.278048        -7.5661
  76   2.0000      -0.270437        -7.3590
  77   0.0000      -0.130276        -3.5450
  78   0.0000      -0.063774        -1.7354
  79   0.0000      -0.023463        -0.6385
  80   0.0000      -0.001681        -0.0457
  81   0.0000       0.053894         1.4665

MULLIKEN ATOMIC CHARGES
-----------------------
   0 Pd:    0.500278
   1 O :   -0.528447
   2 C :    0.630265
   3 O :   -0.430289
   4 C :   -0.758607
   5 H :    0.245715
   6 H :    0.261235
   7 H :    0.256201
   8 N :   -0.466671
   9 C :   -0.522803
  10 H :    0.290123
  11 H :    0.210727
  12 H :    0.262930
  13 C :   -0.546423
  14 H :    0.289882
  15 H :    0.221080
  16 H :    0.278631
  17 C :   -0.020563
  18 C :   -0.247055
  19 C :   -0.181858
  20 C :   -0.242027
  21 C :   -0.238102
  22 C :    0.019173
  23 H :    0.242875
  24 H :    0.260446
  25 H :    0.252331
  26 H :    0.235729
  27 H :   -0.014995
  28 C :   -0.317650
  29 H :    0.248438
  30 H :    0.262155
  31 O :   -0.548662
  32 C :    0.560345
  33 O :   -0.432571
  34 C :   -0.739457
  35 H :    0.229533
  36 H :    0.247306
  37 H :    0.230783
Sum of atomic charges:   -0.0000000

LOEWDIN ATOMIC CHARGES
----------------------
   0 Pd:   -0.256166
   1 O :   -0.186696
   2 C :    0.192108
   3 O :   -0.153266
   4 C :   -0.380225
   5 H :    0.151278
   6 H :    0.162717
   7 H :    0.152082
   8 N :   -0.081001
   9 C :   -0.238392
  10 H :    0.159919
  11 H :    0.115399
  12 H :    0.146094
  13 C :   -0.240144
  14 H :    0.159733
  15 H :    0.119910
  16 H :    0.157188
  17 C :   -0.064416
  18 C :   -0.088877
  19 C :   -0.131173
  20 C :   -0.113833
  21 C :   -0.143827
  22 C :    0.029218
  23 H :    0.146268
  24 H :    0.157310
  25 H :    0.156615
  26 H :    0.148180
  27 H :   -0.014434
  28 C :   -0.099109
  29 H :    0.142345
  30 H :    0.150985
  31 O :   -0.203969
  32 C :    0.143172
  33 O :   -0.233342
  34 C :   -0.388098
  35 H :    0.141719
  36 H :    0.147104
  37 H :    0.137624

  Mayer bond orders larger than 0.100000
B(  0-Pd,  1-O ) :   0.6994 B(  0-Pd,  3-O ) :   0.3047 B(  0-Pd,  8-N ) :   0.3700
B(  0-Pd, 31-O ) :   0.6834 B(  1-O ,  2-C ) :   1.2220 B(  2-C ,  3-O ) :   1.7363
B(  2-C ,  4-C ) :   0.9461 B(  4-C ,  5-H ) :   0.9109 B(  4-C ,  6-H ) :   0.9041
B(  4-C ,  7-H ) :   0.9084 B(  8-N ,  9-C ) :   0.9295 B(  8-N , 13-C ) :   0.9224
B(  8-N , 28-C ) :   0.8975 B(  9-C , 10-H ) :   0.8901 B(  9-C , 11-H ) :   0.9050
B(  9-C , 12-H ) :   0.9086 B( 13-C , 14-H ) :   0.8802 B( 13-C , 15-H ) :   0.9056
B( 13-C , 16-H ) :   0.8975 B( 17-C , 18-C ) :   1.3731 B( 17-C , 22-C ) :   1.4169
B( 17-C , 28-C ) :   0.9479 B( 18-C , 19-C ) :   1.4409 B( 18-C , 25-H ) :   0.8985
B( 19-C , 20-C ) :   1.4308 B( 19-C , 26-H ) :   0.9125 B( 20-C , 21-C ) :   1.3746
B( 20-C , 23-H ) :   0.9062 B( 21-C , 22-C ) :   1.4896 B( 21-C , 24-H ) :   0.9004
B( 22-C , 27-H ) :   0.7711 B( 28-C , 29-H ) :   0.8959 B( 28-C , 30-H ) :   0.9120
B( 31-O , 32-C ) :   1.2214 B( 31-O , 33-O ) :   0.1016 B( 32-C , 33-O ) :   1.9103
B( 32-C , 34-C ) :   0.9210 B( 34-C , 35-H ) :   0.9179 B( 34-C , 36-H ) :   0.9114
B( 34-C , 37-H ) :   0.9222

Dispersion correction           -0.025718216
FINAL SINGLE POINT ENERGY      -988.277721091662
Dispersion correction            ... done

DIPOLE MOMENT
-------------
                                X             Y             Z
Electronic contribution:     24.78641      22.35541     -19.74977
Nuclear contribution   :    -26.42767     -23.37668      20.97455
                        -----------------------------------------
Total Dipole Moment    :     -1.64126      -1.02127       1.22478
                        -----------------------------------------
Magnitude (a.u.)       :      2.28841
Magnitude (Debye)      :      5.81667

Rotational constants in cm-1:     0.013320     0.008308     0.006913
Rotational constants in MHz :   399.324136   249.078263   207.260282

                             ****ORCA TERMINATED NORMALLY****
TOTAL RUN TIME: 0 days 0 hours 20 minutes 39 seconds 753 msec
