                         Program Version 5.0.3 -  RELEASE  -
|  1> ! EnGrad PBEh-3c
|  2> %output
|  3> xyzfile=True
|  4> end
|  5> %scf
|  6> maxiter 250
|  7> end
|  8> %output
|  9> Print[P_Hirshfeld] = 1
| 10> end
| 11> % maxcore
| 12> 4000
| 13> *xyz 0 1
| 14> Pd   0.55431895   0.46624356  -0.41585043
| 15> O    2.08253465   1.39872424   0.47482028
| 16> C    1.62601120   2.65055301   0.30036069
| 17> O    0.51648979   2.80670549  -0.12289456
| 18> C    2.58833096   3.80255607   0.56802039
| 19> H    2.02317273   4.61456878   1.02669230
| 20> H    2.97987249   4.16547790  -0.37946755
| 21> H    3.42281281   3.53342655   1.20752299
| 22> N   -1.31749746  -0.52022756  -1.16689423
| 23> C   -1.26671426  -1.33771773  -2.37922859
| 24> H   -0.90879005  -0.74651811  -3.20234898
| 25> H   -2.28557195  -1.65463493  -2.62164421
| 26> H   -0.64238065  -2.20279126  -2.24989959
| 27> C   -2.18605481   0.63799823  -1.44545111
| 28> H   -2.26417080   1.31472041  -0.61787591
| 29> H   -3.18634109   0.28133118  -1.70488583
| 30> H   -1.77281649   1.16351817  -2.29967398
| 31> C   -1.46915190  -0.95818180   1.33575013
| 32> C   -0.65802548  -1.87829005   2.08856563
| 33> C   -0.49428867  -1.75178633   3.44625044
| 34> C   -1.20208238  -0.79797647   4.12442386
| 35> C   -2.07589258   0.05979933   3.43470034
| 36> C   -2.04960032   0.04283566   2.10017398
| 37> H   -1.09443995  -0.67840306   5.19961142
| 38> H   -2.82142763   0.55719947   4.00335774
| 39> H   -0.16269353  -2.70081804   1.58650175
| 40> H    0.07466396  -2.48693735   4.00008675
| 41> H   -2.62690102   2.62438373   1.95475412
| 42> C   -1.88119739  -1.35808163  -0.03715344
| 43> H   -2.97585605  -1.31259326  -0.07427224
| 44> H   -1.64732433  -2.40438377  -0.22259750
| 45> O    1.86223912  -0.87030434  -1.12517776
| 46> C    2.25334158  -0.63060332  -2.36870204
| 47> O    1.67453495   0.03693059  -3.19094988
| 48> C    3.58425669  -1.33849213  -2.72676982
| 49> H    3.47969842  -2.41695146  -2.68631957
| 50> H    4.37596505  -1.04641943  -2.06390804
| 51> H    3.89259603  -1.06902059  -3.74832408
| 52> *
| 53>
| 54>                          ****END OF INPUT****

CARTESIAN COORDINATES (ANGSTROEM)
---------------------------------
  Pd     0.554319    0.466244   -0.415850
  O      2.082535    1.398724    0.474820
  C      1.626011    2.650553    0.300361
  O      0.516490    2.806705   -0.122895
  C      2.588331    3.802556    0.568020
  H      2.023173    4.614569    1.026692
  H      2.979872    4.165478   -0.379468
  H      3.422813    3.533427    1.207523
  N     -1.317497   -0.520228   -1.166894
  C     -1.266714   -1.337718   -2.379229
  H     -0.908790   -0.746518   -3.202349
  H     -2.285572   -1.654635   -2.621644
  H     -0.642381   -2.202791   -2.249900
  C     -2.186055    0.637998   -1.445451
  H     -2.264171    1.314720   -0.617876
  H     -3.186341    0.281331   -1.704886
  H     -1.772816    1.163518   -2.299674
  C     -1.469152   -0.958182    1.335750
  C     -0.658025   -1.878290    2.088566
  C     -0.494289   -1.751786    3.446250
  C     -1.202082   -0.797976    4.124424
  C     -2.075893    0.059799    3.434700
  C     -2.049600    0.042836    2.100174
  H     -1.094440   -0.678403    5.199611
  H     -2.821428    0.557199    4.003358
  H     -0.162694   -2.700818    1.586502
  H      0.074664   -2.486937    4.000087
  H     -2.626901    2.624384    1.954754
  C     -1.881197   -1.358082   -0.037153
  H     -2.975856   -1.312593   -0.074272
  H     -1.647324   -2.404384   -0.222597
  O      1.862239   -0.870304   -1.125178
  C      2.253342   -0.630603   -2.368702
  O      1.674535    0.036931   -3.190950
  C      3.584257   -1.338492   -2.726770
  H      3.479698   -2.416951   -2.686320
  H      4.375965   -1.046419   -2.063908
  H      3.892596   -1.069021   -3.748324

 Total Charge           Charge          ....    0
 Multiplicity           Mult            ....    1
 Number of Electrons    NEL             ....  154
 Basis Dimension        Dim             ....  339

ORBITAL ENERGIES
----------------

  NO   OCC          E(Eh)            E(eV)
   0   2.0000     -19.489118      -530.3259
   1   2.0000     -19.484804      -530.2085
   2   2.0000     -19.475094      -529.9443
   3   2.0000     -19.437302      -528.9159
   4   2.0000     -14.716359      -400.4525
   5   2.0000     -10.562114      -287.4097
   6   2.0000     -10.534870      -286.6684
   7   2.0000     -10.525087      -286.4022
   8   2.0000     -10.511106      -286.0217
   9   2.0000     -10.502741      -285.7941
  10   2.0000     -10.482510      -285.2436
  11   2.0000     -10.478305      -285.1292
  12   2.0000     -10.476088      -285.0688
  13   2.0000     -10.474342      -285.0213
  14   2.0000     -10.473855      -285.0081
  15   2.0000     -10.467430      -284.8333
  16   2.0000     -10.435144      -283.9547
  17   2.0000     -10.412844      -283.3479
  18   2.0000      -3.656660       -99.5028
  19   2.0000      -2.306596       -62.7657
  20   2.0000      -2.299023       -62.5596
  21   2.0000      -2.266735       -61.6810
  22   2.0000      -1.192823       -32.4584
  23   2.0000      -1.144127       -31.1333
  24   2.0000      -1.071540       -29.1581
  25   2.0000      -1.065678       -28.9986
  26   2.0000      -1.050791       -28.5935
  27   2.0000      -0.994417       -27.0595
  28   2.0000      -0.897370       -24.4187
  29   2.0000      -0.867466       -23.6049
  30   2.0000      -0.820045       -22.3146
  31   2.0000      -0.818517       -22.2730
  32   2.0000      -0.808774       -22.0079
  33   2.0000      -0.788196       -21.4479
  34   2.0000      -0.723023       -19.6744
  35   2.0000      -0.706187       -19.2163
  36   2.0000      -0.678554       -18.4644
  37   2.0000      -0.605987       -16.4897
  38   2.0000      -0.600719       -16.3464
  39   2.0000      -0.582916       -15.8620
  40   2.0000      -0.578428       -15.7398
  41   2.0000      -0.574256       -15.6263
  42   2.0000      -0.560072       -15.2403
  43   2.0000      -0.540282       -14.7018
  44   2.0000      -0.537310       -14.6209
  45   2.0000      -0.530198       -14.4274
  46   2.0000      -0.525068       -14.2878
  47   2.0000      -0.515308       -14.0222
  48   2.0000      -0.504469       -13.7273
  49   2.0000      -0.499722       -13.5981
  50   2.0000      -0.490745       -13.3539
  51   2.0000      -0.487749       -13.2723
  52   2.0000      -0.480685       -13.0801
  53   2.0000      -0.471541       -12.8313
  54   2.0000      -0.463042       -12.6000
  55   2.0000      -0.452405       -12.3106
  56   2.0000      -0.450196       -12.2505
  57   2.0000      -0.444351       -12.0914
  58   2.0000      -0.439919       -11.9708
  59   2.0000      -0.438546       -11.9334
  60   2.0000      -0.436162       -11.8686
  61   2.0000      -0.426131       -11.5956
  62   2.0000      -0.417487       -11.3604
  63   2.0000      -0.402150       -10.9430
  64   2.0000      -0.376582       -10.2473
  65   2.0000      -0.369263       -10.0481
  66   2.0000      -0.353013        -9.6060
  67   2.0000      -0.350068        -9.5258
  68   2.0000      -0.342112        -9.3093
  69   2.0000      -0.332289        -9.0421
  70   2.0000      -0.322284        -8.7698
  71   2.0000      -0.311686        -8.4814
  72   2.0000      -0.304936        -8.2977
  73   2.0000      -0.293518        -7.9870
  74   2.0000      -0.290815        -7.9135
  75   2.0000      -0.277261        -7.5446
  76   2.0000      -0.269621        -7.3367
  77   0.0000      -0.132638        -3.6093
  78   0.0000      -0.065935        -1.7942
  79   0.0000      -0.024259        -0.6601
  80   0.0000      -0.001675        -0.0456
  81   0.0000       0.058705         1.5974

MULLIKEN ATOMIC CHARGES
-----------------------
   0 Pd:    0.498520
   1 O :   -0.523719
   2 C :    0.627527
   3 O :   -0.431967
   4 C :   -0.758875
   5 H :    0.244468
   6 H :    0.259576
   7 H :    0.254856
   8 N :   -0.469435
   9 C :   -0.525281
  10 H :    0.292097
  11 H :    0.211987
  12 H :    0.264091
  13 C :   -0.550762
  14 H :    0.292309
  15 H :    0.223282
  16 H :    0.281042
  17 C :   -0.026084
  18 C :   -0.241322
  19 C :   -0.184262
  20 C :   -0.240011
  21 C :   -0.239116
  22 C :    0.019577
  23 H :    0.243160
  24 H :    0.260224
  25 H :    0.250665
  26 H :    0.237096
  27 H :   -0.012741
  28 C :   -0.317169
  29 H :    0.249805
  30 H :    0.263639
  31 O :   -0.547117
  32 C :    0.561896
  33 O :   -0.439627
  34 C :   -0.739332
  35 H :    0.229782
  36 H :    0.248325
  37 H :    0.232898
Sum of atomic charges:   -0.0000000

LOEWDIN ATOMIC CHARGES
----------------------
   0 Pd:   -0.254279
   1 O :   -0.189902
   2 C :    0.182533
   3 O :   -0.155155
   4 C :   -0.380876
   5 H :    0.150610
   6 H :    0.161639
   7 H :    0.151185
   8 N :   -0.074196
   9 C :   -0.238384
  10 H :    0.160525
  11 H :    0.116072
  12 H :    0.146058
  13 C :   -0.240293
  14 H :    0.159812
  15 H :    0.121092
  16 H :    0.158146
  17 C :   -0.064379
  18 C :   -0.089270
  19 C :   -0.131191
  20 C :   -0.113651
  21 C :   -0.143070
  22 C :    0.028413
  23 H :    0.146468
  24 H :    0.157345
  25 H :    0.156506
  26 H :    0.148217
  27 H :   -0.012424
  28 C :   -0.098938
  29 H :    0.143410
  30 H :    0.151667
  31 O :   -0.198438
  32 C :    0.144123
  33 O :   -0.241104
  34 C :   -0.386742
  35 H :    0.141895
  36 H :    0.147508
  37 H :    0.139069

  Mayer bond orders larger than 0.100000
B(  0-Pd,  1-O ) :   0.6894 B(  0-Pd,  3-O ) :   0.3049 B(  0-Pd,  8-N ) :   0.3786
B(  0-Pd, 31-O ) :   0.6834 B(  1-O ,  2-C ) :   1.2368 B(  2-C ,  3-O ) :   1.7354
B(  2-C ,  4-C ) :   0.9450 B(  4-C ,  5-H ) :   0.9119 B(  4-C ,  6-H ) :   0.9051
B(  4-C ,  7-H ) :   0.9092 B(  8-N ,  9-C ) :   0.9285 B(  8-N , 13-C ) :   0.9210
B(  8-N , 28-C ) :   0.8960 B(  9-C , 10-H ) :   0.8893 B(  9-C , 11-H ) :   0.9046
B(  9-C , 12-H ) :   0.9082 B( 13-C , 14-H ) :   0.8790 B( 13-C , 15-H ) :   0.9051
B( 13-C , 16-H ) :   0.8963 B( 17-C , 18-C ) :   1.3770 B( 17-C , 22-C ) :   1.4149
B( 17-C , 28-C ) :   0.9491 B( 18-C , 19-C ) :   1.4400 B( 18-C , 25-H ) :   0.8992
B( 19-C , 20-C ) :   1.4348 B( 19-C , 26-H ) :   0.9114 B( 20-C , 21-C ) :   1.3719
B( 20-C , 23-H ) :   0.9061 B( 21-C , 22-C ) :   1.4927 B( 21-C , 24-H ) :   0.9000
B( 22-C , 27-H ) :   0.7693 B( 28-C , 29-H ) :   0.8958 B( 28-C , 30-H ) :   0.9114
B( 31-O , 32-C ) :   1.2249 B( 31-O , 33-O ) :   0.1013 B( 32-C , 33-O ) :   1.9005
B( 32-C , 34-C ) :   0.9240 B( 34-C , 35-H ) :   0.9174 B( 34-C , 36-H ) :   0.9104
B( 34-C , 37-H ) :   0.9222

Dispersion correction           -0.025733555
FINAL SINGLE POINT ENERGY      -988.276097037539
Dispersion correction            ... done

DIPOLE MOMENT
-------------
                                X             Y             Z
Electronic contribution:     23.84956      21.94464     -20.20190
Nuclear contribution   :    -25.55864     -23.06373      21.39740
                        -----------------------------------------
Total Dipole Moment    :     -1.70909      -1.11909       1.19549
                        -----------------------------------------
Magnitude (a.u.)       :      2.36697
Magnitude (Debye)      :      6.01636

Rotational constants in cm-1:     0.013320     0.008316     0.006920
Rotational constants in MHz :   399.321192   249.311132   207.454719

                             ****ORCA TERMINATED NORMALLY****
TOTAL RUN TIME: 0 days 0 hours 20 minutes 57 seconds 73 msec
