                         Program Version 5.0.3 -  RELEASE  -
|  1> ! EnGrad PBEh-3c
|  2> %output
|  3> xyzfile=True
|  4> end
|  5> %scf
|  6> maxiter 250
|  7> end
|  8> %output
|  9> Print[P_Hirshfeld] = 1
| 10> end
| 11> % maxcore
| 12> 4000
| 13> *xyz 0 1
| 14> Pd   0.56473358   0.46996662  -0.41075257
| 15> O    2.07834754   1.39133026   0.46894333
| 16> C    1.62153939   2.65001927   0.30310316
| 17> O    0.51134158   2.80665482  -0.12444495
| 18> C    2.58908103   3.79957295   0.56865650
| 19> H    2.02544263   4.61336742   1.02606804
| 20> H    2.98199145   4.16337116  -0.37951668
| 21> H    3.42405808   3.53012427   1.20837362
| 22> N   -1.32261824  -0.52203162  -1.17076689
| 23> C   -1.26597858  -1.34460116  -2.37978776
| 24> H   -0.90375913  -0.75135184  -3.19951006
| 25> H   -2.28507664  -1.66017670  -2.61685259
| 26> H   -0.63942597  -2.20867817  -2.24288340
| 27> C   -2.18805632   0.63910134  -1.44792841
| 28> H   -2.26457067   1.31586606  -0.61645944
| 29> H   -3.18511969   0.27658766  -1.70884827
| 30> H   -1.77026694   1.15876827  -2.30354480
| 31> C   -1.46863682  -0.95324053   1.33793040
| 32> C   -0.66708070  -1.88239537   2.08952036
| 33> C   -0.49336850  -1.75109774   3.44608042
| 34> C   -1.20570012  -0.80090730   4.12624488
| 35> C   -2.06855020   0.06766305   3.44119559
| 36> C   -2.04649949   0.04480229   2.10541826
| 37> H   -1.09557960  -0.67790914   5.19937307
| 38> H   -2.80918207   0.57683076   4.00234922
| 39> H   -0.17284294  -2.70546432   1.58512174
| 40> H    0.06847427  -2.49030719   4.00112976
| 41> H   -2.61921576   2.61282574   1.94492631
| 42> C   -1.88406365  -1.35533941  -0.03597638
| 43> H   -2.97776387  -1.30578586  -0.07607963
| 44> H   -1.65067071  -2.40299531  -0.22103926
| 45> O    1.86722524  -0.87604066  -1.12677438
| 46> C    2.24894465  -0.62559421  -2.37380021
| 47> O    1.66978181   0.03807864  -3.19314556
| 48> C    3.58558547  -1.33269758  -2.72656872
| 49> H    3.48240671  -2.41228409  -2.68960010
| 50> H    4.37800311  -1.04139531  -2.06141233
| 51> H    3.88918058  -1.05963919  -3.74728297
| 52> *
| 53>
| 54>                          ****END OF INPUT****

CARTESIAN COORDINATES (ANGSTROEM)
---------------------------------
  Pd     0.564734    0.469967   -0.410753
  O      2.078348    1.391330    0.468943
  C      1.621539    2.650019    0.303103
  O      0.511342    2.806655   -0.124445
  C      2.589081    3.799573    0.568657
  H      2.025443    4.613367    1.026068
  H      2.981991    4.163371   -0.379517
  H      3.424058    3.530124    1.208374
  N     -1.322618   -0.522032   -1.170767
  C     -1.265979   -1.344601   -2.379788
  H     -0.903759   -0.751352   -3.199510
  H     -2.285077   -1.660177   -2.616853
  H     -0.639426   -2.208678   -2.242883
  C     -2.188056    0.639101   -1.447928
  H     -2.264571    1.315866   -0.616459
  H     -3.185120    0.276588   -1.708848
  H     -1.770267    1.158768   -2.303545
  C     -1.468637   -0.953241    1.337930
  C     -0.667081   -1.882395    2.089520
  C     -0.493368   -1.751098    3.446080
  C     -1.205700   -0.800907    4.126245
  C     -2.068550    0.067663    3.441196
  C     -2.046499    0.044802    2.105418
  H     -1.095580   -0.677909    5.199373
  H     -2.809182    0.576831    4.002349
  H     -0.172843   -2.705464    1.585122
  H      0.068474   -2.490307    4.001130
  H     -2.619216    2.612826    1.944926
  C     -1.884064   -1.355339   -0.035976
  H     -2.977764   -1.305786   -0.076080
  H     -1.650671   -2.402995   -0.221039
  O      1.867225   -0.876041   -1.126774
  C      2.248945   -0.625594   -2.373800
  O      1.669782    0.038079   -3.193146
  C      3.585585   -1.332698   -2.726569
  H      3.482407   -2.412284   -2.689600
  H      4.378003   -1.041395   -2.061412
  H      3.889181   -1.059639   -3.747283

 Total Charge           Charge          ....    0
 Multiplicity           Mult            ....    1
 Number of Electrons    NEL             ....  154
 Basis Dimension        Dim             ....  339

ORBITAL ENERGIES
----------------

  NO   OCC          E(Eh)            E(eV)
   0   2.0000     -19.491703      -530.3962
   1   2.0000     -19.487654      -530.2860
   2   2.0000     -19.474124      -529.9178
   3   2.0000     -19.438675      -528.9532
   4   2.0000     -14.713812      -400.3832
   5   2.0000     -10.565170      -287.4929
   6   2.0000     -10.534827      -286.6672
   7   2.0000     -10.525078      -286.4019
   8   2.0000     -10.510384      -286.0021
   9   2.0000     -10.502366      -285.7839
  10   2.0000     -10.482629      -285.2468
  11   2.0000     -10.477638      -285.1110
  12   2.0000     -10.475691      -285.0580
  13   2.0000     -10.473587      -285.0008
  14   2.0000     -10.473395      -284.9956
  15   2.0000     -10.467412      -284.8328
  16   2.0000     -10.437365      -284.0151
  17   2.0000     -10.412241      -283.3315
  18   2.0000      -3.656237       -99.4913
  19   2.0000      -2.306601       -62.7658
  20   2.0000      -2.298265       -62.5390
  21   2.0000      -2.266420       -61.6724
  22   2.0000      -1.193823       -32.4856
  23   2.0000      -1.145016       -31.1575
  24   2.0000      -1.069854       -29.1122
  25   2.0000      -1.066746       -29.0276
  26   2.0000      -1.051221       -28.6052
  27   2.0000      -0.994311       -27.0566
  28   2.0000      -0.896739       -24.4015
  29   2.0000      -0.867188       -23.5974
  30   2.0000      -0.820299       -22.3215
  31   2.0000      -0.818886       -22.2830
  32   2.0000      -0.808119       -21.9900
  33   2.0000      -0.786754       -21.4087
  34   2.0000      -0.721526       -19.6337
  35   2.0000      -0.705965       -19.2103
  36   2.0000      -0.677958       -18.4482
  37   2.0000      -0.606515       -16.5041
  38   2.0000      -0.602248       -16.3880
  39   2.0000      -0.581877       -15.8337
  40   2.0000      -0.577497       -15.7145
  41   2.0000      -0.572544       -15.5797
  42   2.0000      -0.559100       -15.2139
  43   2.0000      -0.540992       -14.7211
  44   2.0000      -0.537793       -14.6341
  45   2.0000      -0.530078       -14.4242
  46   2.0000      -0.526832       -14.3358
  47   2.0000      -0.516485       -14.0543
  48   2.0000      -0.503981       -13.7140
  49   2.0000      -0.499075       -13.5805
  50   2.0000      -0.490619       -13.3504
  51   2.0000      -0.487618       -13.2688
  52   2.0000      -0.480088       -13.0639
  53   2.0000      -0.471151       -12.8207
  54   2.0000      -0.462960       -12.5978
  55   2.0000      -0.453802       -12.3486
  56   2.0000      -0.450190       -12.2503
  57   2.0000      -0.444083       -12.0841
  58   2.0000      -0.440637       -11.9903
  59   2.0000      -0.438879       -11.9425
  60   2.0000      -0.435342       -11.8463
  61   2.0000      -0.425998       -11.5920
  62   2.0000      -0.417000       -11.3471
  63   2.0000      -0.403163       -10.9706
  64   2.0000      -0.377842       -10.2816
  65   2.0000      -0.368560       -10.0290
  66   2.0000      -0.354057        -9.6344
  67   2.0000      -0.350970        -9.5504
  68   2.0000      -0.341721        -9.2987
  69   2.0000      -0.331857        -9.0303
  70   2.0000      -0.322343        -8.7714
  71   2.0000      -0.311382        -8.4731
  72   2.0000      -0.305067        -8.3013
  73   2.0000      -0.293599        -7.9892
  74   2.0000      -0.291024        -7.9192
  75   2.0000      -0.277795        -7.5592
  76   2.0000      -0.270167        -7.3516
  77   0.0000      -0.131086        -3.5670
  78   0.0000      -0.064520        -1.7557
  79   0.0000      -0.023721        -0.6455
  80   0.0000      -0.001665        -0.0453
  81   0.0000       0.055570         1.5121

MULLIKEN ATOMIC CHARGES
-----------------------
   0 Pd:    0.499522
   1 O :   -0.526792
   2 C :    0.629403
   3 O :   -0.430868
   4 C :   -0.758703
   5 H :    0.245292
   6 H :    0.260674
   7 H :    0.255746
   8 N :   -0.467554
   9 C :   -0.523636
  10 H :    0.290791
  11 H :    0.211149
  12 H :    0.263322
  13 C :   -0.547879
  14 H :    0.290700
  15 H :    0.221821
  16 H :    0.279446
  17 C :   -0.022338
  18 C :   -0.245241
  19 C :   -0.182569
  20 C :   -0.241425
  21 C :   -0.238401
  22 C :    0.019248
  23 H :    0.242988
  24 H :    0.260356
  25 H :    0.251783
  26 H :    0.236187
  27 H :   -0.014205
  28 C :   -0.317509
  29 H :    0.248900
  30 H :    0.262660
  31 O :   -0.548118
  32 C :    0.560882
  33 O :   -0.434991
  34 C :   -0.739419
  35 H :    0.229618
  36 H :    0.247653
  37 H :    0.231505
Sum of atomic charges:   -0.0000000

LOEWDIN ATOMIC CHARGES
----------------------
   0 Pd:   -0.255569
   1 O :   -0.187787
   2 C :    0.188872
   3 O :   -0.153909
   4 C :   -0.380447
   5 H :    0.151052
   6 H :    0.162352
   7 H :    0.151778
   8 N :   -0.078668
   9 C :   -0.238384
  10 H :    0.160122
  11 H :    0.115622
  12 H :    0.146081
  13 C :   -0.240187
  14 H :    0.159758
  15 H :    0.120305
  16 H :    0.157510
  17 C :   -0.064405
  18 C :   -0.089014
  19 C :   -0.131183
  20 C :   -0.113773
  21 C :   -0.143581
  22 C :    0.028947
  23 H :    0.146337
  24 H :    0.157314
  25 H :    0.156579
  26 H :    0.148194
  27 H :   -0.013726
  28 C :   -0.099047
  29 H :    0.142704
  30 H :    0.151217
  31 O :   -0.202050
  32 C :    0.143477
  33 O :   -0.235997
  34 C :   -0.387632
  35 H :    0.141780
  36 H :    0.147241
  37 H :    0.138116

  Mayer bond orders larger than 0.100000
B(  0-Pd,  1-O ) :   0.6961 B(  0-Pd,  3-O ) :   0.3048 B(  0-Pd,  8-N ) :   0.3729
B(  0-Pd, 31-O ) :   0.6834 B(  1-O ,  2-C ) :   1.2270 B(  2-C ,  3-O ) :   1.7360
B(  2-C ,  4-C ) :   0.9457 B(  4-C ,  5-H ) :   0.9112 B(  4-C ,  6-H ) :   0.9044
B(  4-C ,  7-H ) :   0.9086 B(  8-N ,  9-C ) :   0.9292 B(  8-N , 13-C ) :   0.9219
B(  8-N , 28-C ) :   0.8970 B(  9-C , 10-H ) :   0.8899 B(  9-C , 11-H ) :   0.9049
B(  9-C , 12-H ) :   0.9085 B( 13-C , 14-H ) :   0.8798 B( 13-C , 15-H ) :   0.9055
B( 13-C , 16-H ) :   0.8971 B( 17-C , 18-C ) :   1.3745 B( 17-C , 22-C ) :   1.4163
B( 17-C , 28-C ) :   0.9483 B( 18-C , 19-C ) :   1.4406 B( 18-C , 25-H ) :   0.8988
B( 19-C , 20-C ) :   1.4322 B( 19-C , 26-H ) :   0.9122 B( 20-C , 21-C ) :   1.3737
B( 20-C , 23-H ) :   0.9062 B( 21-C , 22-C ) :   1.4906 B( 21-C , 24-H ) :   0.9003
B( 22-C , 27-H ) :   0.7705 B( 28-C , 29-H ) :   0.8959 B( 28-C , 30-H ) :   0.9118
B( 31-O , 32-C ) :   1.2227 B( 31-O , 33-O ) :   0.1015 B( 32-C , 33-O ) :   1.9070
B( 32-C , 34-C ) :   0.9221 B( 34-C , 35-H ) :   0.9177 B( 34-C , 36-H ) :   0.9111
B( 34-C , 37-H ) :   0.9222

Dispersion correction           -0.025723575
FINAL SINGLE POINT ENERGY      -988.277385289601
Dispersion correction            ... done

DIPOLE MOMENT
-------------
                                X             Y             Z
Electronic contribution:     24.46792      22.21585     -19.90351
Nuclear contribution   :    -26.13220     -23.27028      21.11832
                        -----------------------------------------
Total Dipole Moment    :     -1.66428      -1.05443       1.21481
                        -----------------------------------------
Magnitude (a.u.)       :      2.31461
Magnitude (Debye)      :      5.88327

Rotational constants in cm-1:     0.013320     0.008311     0.006916
Rotational constants in MHz :   399.326819   249.158101   207.327139

                             ****ORCA TERMINATED NORMALLY****
TOTAL RUN TIME: 0 days 0 hours 21 minutes 39 seconds 733 msec
