                         Program Version 5.0.3 -  RELEASE  -
|  1> ! EnGrad PBEh-3c
|  2> %output
|  3> xyzfile=True
|  4> end
|  5> %scf
|  6> maxiter 250
|  7> end
|  8> %output
|  9> Print[P_Hirshfeld] = 1
| 10> end
| 11> % maxcore
| 12> 4000
| 13> *xyz 0 1
| 14> Pd   0.68460189   0.49812446  -0.35546158
| 15> O    2.02266923   1.32546335   0.39763068
| 16> C    1.57119442   2.62465784   0.33035901
| 17> O    0.45045058   2.80318971  -0.13720077
| 18> C    2.59469897   3.75230633   0.57898895
| 19> H    2.06094333   4.59584779   1.01784946
| 20> H    3.01137074   4.12714956  -0.37750763
| 21> H    3.43998033   3.47980998   1.21999692
| 22> N   -1.37590632  -0.54578607  -1.19894646
| 23> C   -1.25757739  -1.43907233  -2.37246595
| 24> H   -0.83067771  -0.82914231  -3.16225585
| 25> H   -2.27970165  -1.74931957  -2.55491560
| 26> H   -0.59972619  -2.29382679  -2.13840539
| 27> C   -2.20925193   0.63984002  -1.48617869
| 28> H   -2.27069854   1.32590885  -0.60872304
| 29> H   -3.17356211   0.21272641  -1.76906384
| 30> H   -1.73509589   1.09176320  -2.36086485
| 31> C   -1.46580793  -0.90175434   1.36828893
| 32> C   -0.79054289  -1.93262858   2.10078113
| 33> C   -0.49959939  -1.75312323   3.44583625
| 34> C   -1.24584562  -0.83013904   4.15780552
| 35> C   -1.95848648   0.17257372   3.52385548
| 36> C   -1.99943318   0.09156656   2.16784702
| 37> H   -1.10935962  -0.67321476   5.20096481
| 38> H   -2.62814676   0.86968112   3.99639561
| 39> H   -0.33003517  -2.77385577   1.56940688
| 40> H   -0.02395106  -2.54222496   4.01773863
| 41> H   -2.50288958   2.44539688   1.80024054
| 42> C   -1.92521427  -1.30818680  -0.02973328
| 43> H   -3.01001482  -1.20672548  -0.09593759
| 44> H   -1.70612080  -2.37978589  -0.19432159
| 45> O    1.92947911  -0.93420533  -1.16393018
| 46> C    2.21674388  -0.58667410  -2.41342574
| 47> O    1.58607578   0.06517544  -3.23566522
| 48> C    3.59642499  -1.23825235  -2.73277369
| 49> H    3.52305354  -2.33744939  -2.74030593
| 50> H    4.40388775  -0.96369331  -2.02825229
| 51> H    3.84639781  -0.91903188  -3.73483369
| 52> *
| 53>
| 54>                          ****END OF INPUT****

CARTESIAN COORDINATES (ANGSTROEM)
---------------------------------
  Pd     0.684602    0.498124   -0.355462
  O      2.022669    1.325463    0.397631
  C      1.571194    2.624658    0.330359
  O      0.450451    2.803190   -0.137201
  C      2.594699    3.752306    0.578989
  H      2.060943    4.595848    1.017849
  H      3.011371    4.127150   -0.377508
  H      3.439980    3.479810    1.219997
  N     -1.375906   -0.545786   -1.198946
  C     -1.257577   -1.439072   -2.372466
  H     -0.830678   -0.829142   -3.162256
  H     -2.279702   -1.749320   -2.554916
  H     -0.599726   -2.293827   -2.138405
  C     -2.209252    0.639840   -1.486179
  H     -2.270699    1.325909   -0.608723
  H     -3.173562    0.212726   -1.769064
  H     -1.735096    1.091763   -2.360865
  C     -1.465808   -0.901754    1.368289
  C     -0.790543   -1.932629    2.100781
  C     -0.499599   -1.753123    3.445836
  C     -1.245846   -0.830139    4.157806
  C     -1.958486    0.172574    3.523855
  C     -1.999433    0.091567    2.167847
  H     -1.109360   -0.673215    5.200965
  H     -2.628147    0.869681    3.996396
  H     -0.330035   -2.773856    1.569407
  H     -0.023951   -2.542225    4.017739
  H     -2.502890    2.445397    1.800241
  C     -1.925214   -1.308187   -0.029733
  H     -3.010015   -1.206725   -0.095938
  H     -1.706121   -2.379786   -0.194322
  O      1.929479   -0.934205   -1.163930
  C      2.216744   -0.586674   -2.413426
  O      1.586076    0.065175   -3.235665
  C      3.596425   -1.238252   -2.732774
  H      3.523054   -2.337449   -2.740306
  H      4.403888   -0.963693   -2.028252
  H      3.846398   -0.919032   -3.734834

 Total Charge           Charge          ....    0
 Multiplicity           Mult            ....    1
 Number of Electrons    NEL             ....  154
 Basis Dimension        Dim             ....  339

ORBITAL ENERGIES
----------------

  NO   OCC          E(Eh)            E(eV)
   0   2.0000     -19.523346      -531.2573
   1   2.0000     -19.514642      -531.0204
   2   2.0000     -19.468872      -529.7749
   3   2.0000     -19.442967      -529.0700
   4   2.0000     -14.686958      -399.6524
   5   2.0000     -10.595830      -288.3272
   6   2.0000     -10.536548      -286.7141
   7   2.0000     -10.526438      -286.4389
   8   2.0000     -10.502551      -285.7889
   9   2.0000     -10.499882      -285.7163
  10   2.0000     -10.485212      -285.3171
  11   2.0000     -10.474460      -285.0246
  12   2.0000     -10.473197      -284.9902
  13   2.0000     -10.472875      -284.9814
  14   2.0000     -10.470679      -284.9217
  15   2.0000     -10.468256      -284.8557
  16   2.0000     -10.459940      -284.6294
  17   2.0000     -10.409621      -283.2602
  18   2.0000      -3.660881       -99.6176
  19   2.0000      -2.321030       -63.1584
  20   2.0000      -2.297593       -62.5207
  21   2.0000      -2.272035       -61.8252
  22   2.0000      -1.208569       -32.8868
  23   2.0000      -1.133257       -30.8375
  24   2.0000      -1.098716       -29.8976
  25   2.0000      -1.049678       -28.5632
  26   2.0000      -1.048472       -28.5304
  27   2.0000      -0.990945       -26.9650
  28   2.0000      -0.889344       -24.2003
  29   2.0000      -0.861524       -23.4433
  30   2.0000      -0.834523       -22.7085
  31   2.0000      -0.806140       -21.9362
  32   2.0000      -0.799530       -21.7563
  33   2.0000      -0.777872       -21.1670
  34   2.0000      -0.709850       -19.3160
  35   2.0000      -0.698776       -19.0147
  36   2.0000      -0.669130       -18.2080
  37   2.0000      -0.640665       -17.4334
  38   2.0000      -0.598799       -16.2941
  39   2.0000      -0.575488       -15.6598
  40   2.0000      -0.569140       -15.4871
  41   2.0000      -0.568373       -15.4662
  42   2.0000      -0.554391       -15.0858
  43   2.0000      -0.551292       -15.0014
  44   2.0000      -0.546183       -14.8624
  45   2.0000      -0.534639       -14.5483
  46   2.0000      -0.528321       -14.3763
  47   2.0000      -0.521778       -14.1983
  48   2.0000      -0.496453       -13.5092
  49   2.0000      -0.491745       -13.3810
  50   2.0000      -0.486432       -13.2365
  51   2.0000      -0.480928       -13.0867
  52   2.0000      -0.471892       -12.8408
  53   2.0000      -0.469607       -12.7787
  54   2.0000      -0.464963       -12.6523
  55   2.0000      -0.460459       -12.5297
  56   2.0000      -0.459298       -12.4981
  57   2.0000      -0.443386       -12.0652
  58   2.0000      -0.438883       -11.9426
  59   2.0000      -0.436893       -11.8885
  60   2.0000      -0.431510       -11.7420
  61   2.0000      -0.425728       -11.5847
  62   2.0000      -0.423012       -11.5107
  63   2.0000      -0.412312       -11.2196
  64   2.0000      -0.398442       -10.8422
  65   2.0000      -0.377843       -10.2816
  66   2.0000      -0.360830        -9.8187
  67   2.0000      -0.351286        -9.5590
  68   2.0000      -0.329732        -8.9725
  69   2.0000      -0.322981        -8.7888
  70   2.0000      -0.319874        -8.7042
  71   2.0000      -0.308939        -8.4067
  72   2.0000      -0.306620        -8.3436
  73   2.0000      -0.296814        -8.0767
  74   2.0000      -0.285300        -7.7634
  75   2.0000      -0.281674        -7.6648
  76   2.0000      -0.279981        -7.6187
  77   0.0000      -0.109648        -2.9837
  78   0.0000      -0.052445        -1.4271
  79   0.0000      -0.019701        -0.5361
  80   0.0000      -0.006213        -0.1691
  81   0.0000       0.019702         0.5361

MULLIKEN ATOMIC CHARGES
-----------------------
   0 Pd:    0.572799
   1 O :   -0.560369
   2 C :    0.632448
   3 O :   -0.423833
   4 C :   -0.758544
   5 H :    0.254419
   6 H :    0.270326
   7 H :    0.261716
   8 N :   -0.456712
   9 C :   -0.510626
  10 H :    0.282746
  11 H :    0.204647
  12 H :    0.252370
  13 C :   -0.520888
  14 H :    0.271527
  15 H :    0.208186
  16 H :    0.266137
  17 C :   -0.005444
  18 C :   -0.259310
  19 C :   -0.191910
  20 C :   -0.236795
  21 C :   -0.240531
  22 C :    0.018067
  23 H :    0.239818
  24 H :    0.262860
  25 H :    0.256012
  26 H :    0.230285
  27 H :   -0.020712
  28 C :   -0.312802
  29 H :    0.239403
  30 H :    0.248993
  31 O :   -0.547382
  32 C :    0.565565
  33 O :   -0.450431
  34 C :   -0.734012
  35 H :    0.227576
  36 H :    0.237665
  37 H :    0.226735
Sum of atomic charges:   -0.0000000

LOEWDIN ATOMIC CHARGES
----------------------
   0 Pd:   -0.229074
   1 O :   -0.147882
   2 C :    0.237648
   3 O :   -0.148938
   4 C :   -0.377165
   5 H :    0.154665
   6 H :    0.169067
   7 H :    0.156315
   8 N :   -0.128884
   9 C :   -0.239338
  10 H :    0.159991
  11 H :    0.112805
  12 H :    0.145791
  13 C :   -0.240539
  14 H :    0.159059
  15 H :    0.113947
  16 H :    0.152958
  17 C :   -0.064359
  18 C :   -0.090013
  19 C :   -0.129013
  20 C :   -0.117642
  21 C :   -0.147164
  22 C :    0.024728
  23 H :    0.145008
  24 H :    0.159991
  25 H :    0.155940
  26 H :    0.147143
  27 H :   -0.018177
  28 C :   -0.104346
  29 H :    0.135652
  30 H :    0.145136
  31 O :   -0.223222
  32 C :    0.155535
  33 O :   -0.255942
  34 C :   -0.390069
  35 H :    0.142107
  36 H :    0.145418
  37 H :    0.132861

  Mayer bond orders larger than 0.100000
B(  0-Pd,  1-O ) :   0.7424 B(  0-Pd,  3-O ) :   0.3073 B(  0-Pd,  8-N ) :   0.3092
B(  0-Pd, 31-O ) :   0.6480 B(  1-O ,  2-C ) :   1.1606 B(  1-O ,  3-O ) :   0.1026
B(  2-C ,  3-O ) :   1.7316 B(  2-C ,  4-C ) :   0.9488 B(  4-C ,  5-H ) :   0.9047
B(  4-C ,  6-H ) :   0.8978 B(  4-C ,  7-H ) :   0.9042 B(  8-N ,  9-C ) :   0.9298
B(  8-N , 13-C ) :   0.9291 B(  8-N , 28-C ) :   0.9118 B(  9-C , 10-H ) :   0.8906
B(  9-C , 11-H ) :   0.9071 B(  9-C , 12-H ) :   0.9119 B( 13-C , 14-H ) :   0.8874
B( 13-C , 15-H ) :   0.9082 B( 13-C , 16-H ) :   0.9034 B( 17-C , 18-C ) :   1.3520
B( 17-C , 22-C ) :   1.4183 B( 17-C , 28-C ) :   0.9405 B( 18-C , 19-C ) :   1.4355
B( 18-C , 25-H ) :   0.8978 B( 19-C , 20-C ) :   1.4077 B( 19-C , 26-H ) :   0.9169
B( 20-C , 21-C ) :   1.3827 B( 20-C , 23-H ) :   0.9088 B( 21-C , 22-C ) :   1.4654
B( 21-C , 24-H ) :   0.9009 B( 22-C , 27-H ) :   0.7902 B( 28-C , 29-H ) :   0.8949
B( 28-C , 30-H ) :   0.9159 B( 31-O , 32-C ) :   1.2474 B( 31-O , 33-O ) :   0.1060
B( 32-C , 33-O ) :   1.8861 B( 32-C , 34-C ) :   0.9148 B( 34-C , 35-H ) :   0.9189
B( 34-C , 36-H ) :   0.9170 B( 34-C , 37-H ) :   0.9190

Dispersion correction           -0.025614051
FINAL SINGLE POINT ENERGY      -988.253491020020
Dispersion correction            ... done

DIPOLE MOMENT
-------------
                                X             Y             Z
Electronic contribution:     31.62231      24.39254     -16.49197
Nuclear contribution   :    -32.76009     -24.83513      18.07942
                        -----------------------------------------
Total Dipole Moment    :     -1.13777      -0.44259       1.58745
                        -----------------------------------------
Magnitude (a.u.)       :      2.00260
Magnitude (Debye)      :      5.09021

Rotational constants in cm-1:     0.013330     0.008253     0.006858
Rotational constants in MHz :   399.626263   247.407862   205.582680

                             ****ORCA TERMINATED NORMALLY****
TOTAL RUN TIME: 0 days 0 hours 20 minutes 36 seconds 836 msec
