                         Program Version 5.0.3 -  RELEASE  -
|  1> ! EnGrad PBEh-3c
|  2> %output
|  3> xyzfile=True
|  4> end
|  5> %scf
|  6> maxiter 250
|  7> end
|  8> %output
|  9> Print[P_Hirshfeld] = 1
| 10> end
| 11> % maxcore
| 12> 4000
| 13> *xyz 0 1
| 14> Pd   0.60327139   0.47901940  -0.39297645
| 15> O    2.06044689   1.37015397   0.44601622
| 16> C    1.60535342   2.64186554   0.31186595
| 17> O    0.49176504   2.80554078  -0.12854596
| 18> C    2.59088720   3.78437667   0.57197840
| 19> H    2.03685615   4.60773484   1.02342575
| 20> H    2.99143693   4.15172587  -0.37887077
| 21> H    3.42917711   3.51394816   1.21211053
| 22> N   -1.33975042  -0.52966871  -1.17982666
| 23> C   -1.26327759  -1.37497377  -2.37743379
| 24> H   -0.88026336  -0.77636158  -3.18753278
| 25> H   -2.28334857  -1.68883625  -2.59693976
| 26> H   -0.62666244  -2.23605356  -2.20929358
| 27> C   -2.19487074   0.63933883  -1.46022593
| 28> H   -2.26654079   1.31909483  -0.61397218
| 29> H   -3.18140391   0.25605619  -1.72820765
| 30> H   -1.75895940   1.13722606  -2.32197327
| 31> C   -1.46772733  -0.93668765   1.34769071
| 32> C   -0.70677396  -1.89854541   2.09314071
| 33> C   -0.49537174  -1.75174894   3.44600191
| 34> C   -1.21860695  -0.81030534   4.13639167
| 35> C   -2.03316457   0.10139197   3.46777085
| 36> C   -2.03136761   0.05983707   2.12548919
| 37> H   -1.10000990  -0.67639989   5.19988482
| 38> H   -2.75097898   0.67098253   4.00043513
| 39> H   -0.22338045  -2.72745226   1.58006939
| 40> H    0.03875940  -2.50699883   4.00646953
| 41> H   -2.58181674   2.55899714   1.89840964
| 42> C   -1.89729363  -1.34017978  -0.03396922
| 43> H   -2.98813259  -1.27393782  -0.08246399
| 44> H   -1.66849799  -2.39553345  -0.21244950
| 45> O    1.88723994  -0.89474068  -1.13872002
| 46> C    2.23859206  -0.61308134  -2.38653987
| 47> O    1.64287021   0.04679029  -3.20681569
| 48> C    3.58907039  -1.30233332  -2.72856363
| 49> H    3.49547472  -2.38822464  -2.70590209
| 50> H    4.38632505  -1.01641401  -2.05075133
| 51> H    3.87542586  -1.01443376  -3.74328051
| 52> *
| 53>
| 54>                          ****END OF INPUT****

CARTESIAN COORDINATES (ANGSTROEM)
---------------------------------
  Pd     0.603271    0.479019   -0.392976
  O      2.060447    1.370154    0.446016
  C      1.605353    2.641866    0.311866
  O      0.491765    2.805541   -0.128546
  C      2.590887    3.784377    0.571978
  H      2.036856    4.607735    1.023426
  H      2.991437    4.151726   -0.378871
  H      3.429177    3.513948    1.212111
  N     -1.339750   -0.529669   -1.179827
  C     -1.263278   -1.374974   -2.377434
  H     -0.880263   -0.776362   -3.187533
  H     -2.283349   -1.688836   -2.596940
  H     -0.626662   -2.236054   -2.209294
  C     -2.194871    0.639339   -1.460226
  H     -2.266541    1.319095   -0.613972
  H     -3.181404    0.256056   -1.728208
  H     -1.758959    1.137226   -2.321973
  C     -1.467727   -0.936688    1.347691
  C     -0.706774   -1.898545    2.093141
  C     -0.495372   -1.751749    3.446002
  C     -1.218607   -0.810305    4.136392
  C     -2.033165    0.101392    3.467771
  C     -2.031368    0.059837    2.125489
  H     -1.100010   -0.676400    5.199885
  H     -2.750979    0.670983    4.000435
  H     -0.223380   -2.727452    1.580069
  H      0.038759   -2.506999    4.006470
  H     -2.581817    2.558997    1.898410
  C     -1.897294   -1.340180   -0.033969
  H     -2.988133   -1.273938   -0.082464
  H     -1.668498   -2.395533   -0.212450
  O      1.887240   -0.894741   -1.138720
  C      2.238592   -0.613081   -2.386540
  O      1.642870    0.046790   -3.206816
  C      3.589070   -1.302333   -2.728564
  H      3.495475   -2.388225   -2.705902
  H      4.386325   -1.016414   -2.050751
  H      3.875426   -1.014434   -3.743281

 Total Charge           Charge          ....    0
 Multiplicity           Mult            ....    1
 Number of Electrons    NEL             ....  154
 Basis Dimension        Dim             ....  339

ORBITAL ENERGIES
----------------

  NO   OCC          E(Eh)            E(eV)
   0   2.0000     -19.502030      -530.6772
   1   2.0000     -19.496458      -530.5256
   2   2.0000     -19.472668      -529.8782
   3   2.0000     -19.439820      -528.9844
   4   2.0000     -14.705461      -400.1559
   5   2.0000     -10.575205      -287.7660
   6   2.0000     -10.535111      -286.6749
   7   2.0000     -10.525515      -286.4138
   8   2.0000     -10.507836      -285.9328
   9   2.0000     -10.501308      -285.7551
  10   2.0000     -10.483058      -285.2585
  11   2.0000     -10.476006      -285.0666
  12   2.0000     -10.474297      -285.0201
  13   2.0000     -10.472500      -284.9712
  14   2.0000     -10.471720      -284.9500
  15   2.0000     -10.467994      -284.8486
  16   2.0000     -10.444642      -284.2131
  17   2.0000     -10.411143      -283.3016
  18   2.0000      -3.656935       -99.5103
  19   2.0000      -2.309453       -62.8434
  20   2.0000      -2.297551       -62.5196
  21   2.0000      -2.267375       -61.6984
  22   2.0000      -1.198346       -32.6087
  23   2.0000      -1.141427       -31.0598
  24   2.0000      -1.077045       -29.3079
  25   2.0000      -1.062906       -28.9232
  26   2.0000      -1.050778       -28.5931
  27   2.0000      -0.993489       -27.0342
  28   2.0000      -0.894308       -24.3354
  29   2.0000      -0.865568       -23.5533
  30   2.0000      -0.824907       -22.4469
  31   2.0000      -0.814964       -22.1763
  32   2.0000      -0.805734       -21.9251
  33   2.0000      -0.783890       -21.3307
  34   2.0000      -0.716849       -19.5065
  35   2.0000      -0.704220       -19.1628
  36   2.0000      -0.675935       -18.3931
  37   2.0000      -0.614597       -16.7240
  38   2.0000      -0.602635       -16.3985
  39   2.0000      -0.579871       -15.7791
  40   2.0000      -0.574540       -15.6340
  41   2.0000      -0.566597       -15.4179
  42   2.0000      -0.555833       -15.1250
  43   2.0000      -0.549175       -14.9438
  44   2.0000      -0.535098       -14.5608
  45   2.0000      -0.533614       -14.5204
  46   2.0000      -0.528539       -14.3823
  47   2.0000      -0.521371       -14.1872
  48   2.0000      -0.501234       -13.6393
  49   2.0000      -0.496924       -13.5220
  50   2.0000      -0.489343       -13.3157
  51   2.0000      -0.485696       -13.2165
  52   2.0000      -0.477223       -12.9859
  53   2.0000      -0.469666       -12.7803
  54   2.0000      -0.462163       -12.5761
  55   2.0000      -0.458954       -12.4888
  56   2.0000      -0.448622       -12.2076
  57   2.0000      -0.446613       -12.1530
  58   2.0000      -0.441407       -12.0113
  59   2.0000      -0.437401       -11.9023
  60   2.0000      -0.431955       -11.7541
  61   2.0000      -0.425690       -11.5836
  62   2.0000      -0.416427       -11.3316
  63   2.0000      -0.408838       -11.1251
  64   2.0000      -0.383510       -10.4358
  65   2.0000      -0.367188        -9.9917
  66   2.0000      -0.358728        -9.7615
  67   2.0000      -0.353305        -9.6139
  68   2.0000      -0.338300        -9.2056
  69   2.0000      -0.329929        -8.9778
  70   2.0000      -0.323124        -8.7926
  71   2.0000      -0.310972        -8.4620
  72   2.0000      -0.305870        -8.3231
  73   2.0000      -0.294977        -8.0267
  74   2.0000      -0.290100        -7.8940
  75   2.0000      -0.279149        -7.5960
  76   2.0000      -0.273867        -7.4523
  77   0.0000      -0.124688        -3.3929
  78   0.0000      -0.061150        -1.6640
  79   0.0000      -0.021690        -0.5902
  80   0.0000      -0.002395        -0.0652
  81   0.0000       0.044853         1.2205

MULLIKEN ATOMIC CHARGES
-----------------------
   0 Pd:    0.515278
   1 O :   -0.535559
   2 C :    0.634396
   3 O :   -0.429145
   4 C :   -0.758948
   5 H :    0.248229
   6 H :    0.263929
   7 H :    0.257745
   8 N :   -0.461951
   9 C :   -0.518819
  10 H :    0.287895
  11 H :    0.208715
  12 H :    0.259883
  13 C :   -0.538273
  14 H :    0.284329
  15 H :    0.217153
  16 H :    0.274882
  17 C :   -0.013550
  18 C :   -0.254171
  19 C :   -0.182235
  20 C :   -0.241476
  21 C :   -0.238568
  22 C :    0.017864
  23 H :    0.242066
  24 H :    0.260734
  25 H :    0.254134
  26 H :    0.233118
  27 H :   -0.015488
  28 C :   -0.317326
  29 H :    0.245964
  30 H :    0.258472
  31 O :   -0.546965
  32 C :    0.562885
  33 O :   -0.440496
  34 C :   -0.738236
  35 H :    0.228953
  36 H :    0.244416
  37 H :    0.230168
Sum of atomic charges:   -0.0000000

LOEWDIN ATOMIC CHARGES
----------------------
   0 Pd:   -0.251218
   1 O :   -0.173704
   2 C :    0.205834
   3 O :   -0.152201
   4 C :   -0.379427
   5 H :    0.152214
   6 H :    0.164575
   7 H :    0.153265
   8 N :   -0.093986
   9 C :   -0.238330
  10 H :    0.159886
  11 H :    0.114460
  12 H :    0.146031
  13 C :   -0.239907
  14 H :    0.159536
  15 H :    0.117991
  16 H :    0.155845
  17 C :   -0.064355
  18 C :   -0.089476
  19 C :   -0.130439
  20 C :   -0.114984
  21 C :   -0.145244
  22 C :    0.028115
  23 H :    0.145871
  24 H :    0.157399
  25 H :    0.156422
  26 H :    0.147850
  27 H :   -0.014239
  28 C :   -0.100746
  29 H :    0.140371
  30 H :    0.149316
  31 O :   -0.207273
  32 C :    0.146538
  33 O :   -0.242542
  34 C :   -0.388432
  35 H :    0.141886
  36 H :    0.146664
  37 H :    0.136436

  Mayer bond orders larger than 0.100000
B(  0-Pd,  1-O ) :   0.7135 B(  0-Pd,  3-O ) :   0.3068 B(  0-Pd,  8-N ) :   0.3540
B(  0-Pd, 31-O ) :   0.6727 B(  1-O ,  2-C ) :   1.2035 B(  2-C ,  3-O ) :   1.7339
B(  2-C ,  4-C ) :   0.9472 B(  4-C ,  5-H ) :   0.9091 B(  4-C ,  6-H ) :   0.9024
B(  4-C ,  7-H ) :   0.9072 B(  8-N ,  9-C ) :   0.9298 B(  8-N , 13-C ) :   0.9246
B(  8-N , 28-C ) :   0.9016 B(  9-C , 10-H ) :   0.8904 B(  9-C , 11-H ) :   0.9055
B(  9-C , 12-H ) :   0.9096 B( 13-C , 14-H ) :   0.8826 B( 13-C , 15-H ) :   0.9064
B( 13-C , 16-H ) :   0.8993 B( 17-C , 18-C ) :   1.3681 B( 17-C , 22-C ) :   1.4174
B( 17-C , 28-C ) :   0.9452 B( 18-C , 19-C ) :   1.4404 B( 18-C , 25-H ) :   0.8980
B( 19-C , 20-C ) :   1.4235 B( 19-C , 26-H ) :   0.9146 B( 20-C , 21-C ) :   1.3792
B( 20-C , 23-H ) :   0.9069 B( 21-C , 22-C ) :   1.4833 B( 21-C , 24-H ) :   0.9010
B( 22-C , 27-H ) :   0.7780 B( 28-C , 29-H ) :   0.8958 B( 28-C , 30-H ) :   0.9133
B( 31-O , 32-C ) :   1.2322 B( 31-O , 33-O ) :   0.1030 B( 32-C , 33-O ) :   1.9003
B( 32-C , 34-C ) :   0.9194 B( 34-C , 35-H ) :   0.9181 B( 34-C , 36-H ) :   0.9130
B( 34-C , 37-H ) :   0.9212

Dispersion correction           -0.025694890
FINAL SINGLE POINT ENERGY      -988.281905001247
Dispersion correction            ... done

DIPOLE MOMENT
-------------
                                X             Y             Z
Electronic contribution:     26.76523      22.92036     -18.80868
Nuclear contribution   :    -28.26307     -23.77338      20.14131
                        -----------------------------------------
Total Dipole Moment    :     -1.49785      -0.85303       1.33262
                        -----------------------------------------
Magnitude (a.u.)       :      2.17878
Magnitude (Debye)      :      5.53801

Rotational constants in cm-1:     0.013331     0.008294     0.006898
Rotational constants in MHz :   399.644115   248.640748   206.810264

                             ****ORCA TERMINATED NORMALLY****
TOTAL RUN TIME: 0 days 0 hours 22 minutes 13 seconds 587 msec
