                         Program Version 5.0.4 -  RELEASE  -
|  1> %pal nprocs 8 end
|  2>
|  3>  *xyzfile 1 1 IEIP_ts_guess.xyz
|  4>
|  5>
|  6>                          ****END OF INPUT****
|  1>
|  2>
|  3>   ! PBEh-3c OptTS Freq pal8
|  4>
|  5>   %geom
|  6>    calc_hess true
|  7>    recalc_hess 20
|  8>    maxiter 600
|  9>   end
| 10>
| 11>
| 12>                          ****END OF INPUT****
 Total Charge           Charge          ....    1
 Multiplicity           Mult            ....    1
 Number of Electrons    NEL             ....  164
Dispersion correction           -0.030282043
FINAL SINGLE POINT ENERGY     -1288.381580544338
Dispersion correction            ... done
Dispersion correction in the Hessian             ... done   (      1.3 sec)
Dispersion correction           -0.030420353
FINAL SINGLE POINT ENERGY     -1288.392258814469
Dispersion correction            ... done
Dispersion correction           -0.030415212
FINAL SINGLE POINT ENERGY     -1288.394623382660
FINAL SINGLE POINT ENERGY     -1288.396301473706
FINAL SINGLE POINT ENERGY     -1288.397656013670
FINAL SINGLE POINT ENERGY     -1288.398593504986
FINAL SINGLE POINT ENERGY     -1288.399139437298
FINAL SINGLE POINT ENERGY     -1288.399419365311
FINAL SINGLE POINT ENERGY     -1288.399610582480
FINAL SINGLE POINT ENERGY     -1288.399762825136
FINAL SINGLE POINT ENERGY     -1288.402323366869
FINAL SINGLE POINT ENERGY     -1288.402398961870
FINAL SINGLE POINT ENERGY     -1288.402368475056
FINAL SINGLE POINT ENERGY     -1288.402368915804
FINAL SINGLE POINT ENERGY     -1288.402422313657
FINAL SINGLE POINT ENERGY     -1288.402445052850
FINAL SINGLE POINT ENERGY     -1288.402431495389
Dispersion correction           -0.030837303
FINAL SINGLE POINT ENERGY     -1288.402439720056
Dispersion correction            ... done
                    ***********************HURRAY********************
Dispersion correction           -0.030837207
FINAL SINGLE POINT ENERGY     -1288.402436997333
Dispersion correction in the Hessian             ... done   (      1.5 sec)

VIBRATIONAL FREQUENCIES
-----------------------

Scaling factor for frequencies =  1.000000000  (already applied!)

   0:         0.00 cm**-1
   1:         0.00 cm**-1
   2:         0.00 cm**-1
   3:         0.00 cm**-1
   4:         0.00 cm**-1
   5:         0.00 cm**-1
   6:       -37.28 cm**-1 ***imaginary mode***
   7:        33.74 cm**-1
   8:        40.60 cm**-1
   9:        43.22 cm**-1
  10:        55.71 cm**-1
  11:        58.90 cm**-1
  12:        65.81 cm**-1
  13:        87.02 cm**-1
  14:       103.52 cm**-1
  15:       116.75 cm**-1
  16:       131.16 cm**-1
  17:       151.48 cm**-1
  18:       187.84 cm**-1
  19:       209.02 cm**-1
  20:       227.78 cm**-1
  21:       236.25 cm**-1
  22:       262.56 cm**-1
  23:       281.08 cm**-1
  24:       296.44 cm**-1
  25:       318.70 cm**-1
  26:       358.07 cm**-1
  27:       377.53 cm**-1
  28:       385.04 cm**-1
  29:       393.12 cm**-1
  30:       432.45 cm**-1
  31:       446.66 cm**-1
  32:       518.64 cm**-1
  33:       569.00 cm**-1
  34:       570.73 cm**-1
  35:       586.92 cm**-1
  36:       603.09 cm**-1
  37:       604.19 cm**-1
  38:       616.83 cm**-1
  39:       642.60 cm**-1
  40:       661.50 cm**-1
  41:       708.57 cm**-1
  42:       775.11 cm**-1
  43:       799.18 cm**-1
  44:       806.41 cm**-1
  45:       853.73 cm**-1
  46:       858.04 cm**-1
  47:       888.63 cm**-1
  48:       906.48 cm**-1
  49:       925.56 cm**-1
  50:       936.76 cm**-1
  51:       952.64 cm**-1
  52:       967.57 cm**-1
  53:       969.17 cm**-1
  54:       981.56 cm**-1
  55:       986.40 cm**-1
  56:       995.16 cm**-1
  57:       998.95 cm**-1
  58:      1002.86 cm**-1
  59:      1024.49 cm**-1
  60:      1033.51 cm**-1
  61:      1049.33 cm**-1
  62:      1064.45 cm**-1
  63:      1074.39 cm**-1
  64:      1104.58 cm**-1
  65:      1105.74 cm**-1
  66:      1116.37 cm**-1
  67:      1136.15 cm**-1
  68:      1149.94 cm**-1
  69:      1166.05 cm**-1
  70:      1168.71 cm**-1
  71:      1196.15 cm**-1
  72:      1231.63 cm**-1
  73:      1246.79 cm**-1
  74:      1323.59 cm**-1
  75:      1326.24 cm**-1
  76:      1379.94 cm**-1
  77:      1391.07 cm**-1
  78:      1398.10 cm**-1
  79:      1423.85 cm**-1
  80:      1436.16 cm**-1
  81:      1443.29 cm**-1
  82:      1459.61 cm**-1
  83:      1463.53 cm**-1
  84:      1467.48 cm**-1
  85:      1481.17 cm**-1
  86:      1497.58 cm**-1
  87:      1520.15 cm**-1
  88:      1531.22 cm**-1
  89:      1532.86 cm**-1
  90:      1533.84 cm**-1
  91:      1534.02 cm**-1
  92:      1542.65 cm**-1
  93:      1559.02 cm**-1
  94:      1559.27 cm**-1
  95:      1604.58 cm**-1
  96:      1776.91 cm**-1
  97:      1831.09 cm**-1
  98:      2956.21 cm**-1
  99:      3120.80 cm**-1
 100:      3128.85 cm**-1
 101:      3135.02 cm**-1
 102:      3159.29 cm**-1
 103:      3204.06 cm**-1
 104:      3211.59 cm**-1
 105:      3215.45 cm**-1
 106:      3219.05 cm**-1
 107:      3225.76 cm**-1
 108:      3246.21 cm**-1
 109:      3253.62 cm**-1
 110:      3313.35 cm**-1
 111:      3323.90 cm**-1
 112:      3326.69 cm**-1
 113:      3335.00 cm**-1
 114:      3336.86 cm**-1
 115:      3338.36 cm**-1
 116:      3345.13 cm**-1

IR SPECTRUM
-----------

 Mode   freq       eps      Int      T**2         TX        TY        TZ
       cm**-1   L/(mol*cm) km/mol    a.u.
----------------------------------------------------------------------------
  7:     33.74   0.000010    0.05  0.000092  ( 0.003078  0.002112 -0.008814)
  8:     40.60   0.000007    0.04  0.000057  ( 0.000082 -0.002369 -0.007164)
  9:     43.22   0.000274    1.38  0.001976  ( 0.041714 -0.005519  0.014333)
 10:     55.71   0.000019    0.09  0.000104  ( 0.005893 -0.008320 -0.000211)
 11:     58.90   0.000018    0.09  0.000094  (-0.004141  0.000911  0.008700)
 12:     65.81   0.000264    1.33  0.001252  (-0.025958  0.021589 -0.010568)
 13:     87.02   0.000199    1.01  0.000714  ( 0.017949  0.019789 -0.000384)
 14:    103.52   0.000379    1.92  0.001144  ( 0.032488  0.009286  0.001516)
 15:    116.75   0.000254    1.28  0.000678  ( 0.019990  0.012006 -0.011599)
 16:    131.16   0.000655    3.31  0.001559  (-0.009344 -0.003304 -0.038223)
 17:    151.48   0.001019    5.15  0.002100  ( 0.023989  0.013906  0.036484)
 18:    187.84   0.002813   14.21  0.004673  ( 0.010243  0.062886  0.024765)
 19:    209.02   0.000145    0.73  0.000217  (-0.010846  0.009356  0.003428)
 20:    227.78   0.000695    3.51  0.000953  ( 0.009730 -0.003703  0.029054)
 21:    236.25   0.000502    2.54  0.000663  ( 0.002996  0.005160 -0.025056)
 22:    262.56   0.000178    0.90  0.000212  ( 0.006472  0.008887 -0.009547)
 23:    281.08   0.000727    3.67  0.000807  (-0.006706  0.000374  0.027603)
 24:    296.44   0.001958    9.90  0.002062  (-0.011471  0.033207  0.028763)
 25:    318.70   0.000048    0.24  0.000047  ( 0.003680  0.000203 -0.005739)
 26:    358.07   0.000890    4.50  0.000776  ( 0.000964 -0.027800 -0.001365)
 27:    377.53   0.000397    2.01  0.000328  (-0.009713 -0.005645 -0.014215)
 28:    385.04   0.000171    0.87  0.000139  (-0.011247  0.003094  0.001667)
 29:    393.12   0.000821    4.15  0.000651  (-0.019322  0.014991 -0.007305)
 30:    432.45   0.000367    1.85  0.000265  (-0.004131  0.008042  0.013528)
 31:    446.66   0.001325    6.69  0.000925  ( 0.027863  0.008763 -0.008505)
 32:    518.64   0.001252    6.32  0.000753  ( 0.005083  0.024926 -0.010293)
 33:    569.00   0.001249    6.31  0.000685  (-0.009307  0.006472  0.023588)
 34:    570.73   0.000238    1.20  0.000130  ( 0.001706 -0.011251  0.000884)
 35:    586.92   0.000188    0.95  0.000100  ( 0.009763  0.001739 -0.001243)
 36:    603.09   0.000183    0.92  0.000095  ( 0.003364  0.007715  0.004864)
 37:    604.19   0.000524    2.65  0.000271  (-0.001944  0.000015 -0.016333)
 38:    616.83   0.000327    1.65  0.000166  (-0.005746 -0.009062  0.007098)
 39:    642.60   0.000948    4.79  0.000461  ( 0.014954  0.000671  0.015376)
 40:    661.50   0.000480    2.43  0.000226  (-0.009399 -0.001534 -0.011649)
 41:    708.57   0.008685   43.89  0.003825  ( 0.004835 -0.040138 -0.046802)
 42:    775.11   0.000379    1.91  0.000153  (-0.000293 -0.004264  0.011588)
 43:    799.18   0.014076   71.13  0.005496  ( 0.008222  0.058803 -0.044395)
 44:    806.41   0.002588   13.08  0.001002  ( 0.006211 -0.011223  0.028934)
 45:    853.73   0.000699    3.53  0.000256  (-0.005698  0.005118  0.014035)
 46:    858.04   0.001056    5.34  0.000384  ( 0.002147  0.011386  0.015804)
 47:    888.63   0.002188   11.06  0.000768  ( 0.001796  0.020434  0.018644)
 48:    906.48   0.002280   11.52  0.000785  (-0.017139  0.019793 -0.009971)
 49:    925.56   0.008943   45.20  0.003015  ( 0.012498 -0.052699  0.009056)
 50:    936.76   0.004535   22.92  0.001511  (-0.014649  0.031933 -0.016626)
 51:    952.64   0.000482    2.44  0.000158  ( 0.001054 -0.005627 -0.011192)
 52:    967.57   0.005479   27.69  0.001767  ( 0.007486  0.010763 -0.039939)
 53:    969.17   0.002221   11.23  0.000715  (-0.004596 -0.005212  0.025825)
 54:    981.56   0.001501    7.59  0.000477  ( 0.000106 -0.021109  0.005626)
 55:    986.40   0.000256    1.29  0.000081  ( 0.002290 -0.008690 -0.000535)
 56:    995.16   0.000222    1.12  0.000069  ( 0.004844  0.006771  0.000427)
 57:    998.95   0.002030   10.26  0.000634  (-0.011098  0.022603 -0.000087)
 58:   1002.86   0.000351    1.77  0.000109  (-0.002628 -0.006901  0.007392)
 59:   1024.49   0.012876   65.07  0.003922  (-0.018596  0.017441 -0.057201)
 60:   1033.51   0.001690    8.54  0.000510  ( 0.018959 -0.003086 -0.011884)
 61:   1049.33   0.011853   59.90  0.003525  ( 0.011481  0.004758 -0.058055)
 62:   1064.45   0.003256   16.46  0.000955  (-0.011401 -0.009544 -0.027084)
 63:   1074.39   0.003739   18.89  0.001086  ( 0.008393  0.031102  0.006938)
 64:   1104.58   0.001666    8.42  0.000471  (-0.014656  0.002741 -0.015759)
 65:   1105.74   0.000164    0.83  0.000046  (-0.006314  0.001366 -0.002133)
 66:   1116.37   0.000075    0.38  0.000021  ( 0.004287  0.001599 -0.000325)
 67:   1136.15   0.002197   11.10  0.000603  (-0.012109 -0.003857  0.021022)
 68:   1149.94   0.000585    2.96  0.000159  (-0.000925  0.001824 -0.012432)
 69:   1166.05   0.004676   23.63  0.001251  (-0.034173  0.008463 -0.003480)
 70:   1168.71   0.000153    0.77  0.000041  ( 0.003298 -0.005260  0.001495)
 71:   1196.15   0.000968    4.89  0.000253  ( 0.011898 -0.010534 -0.000355)
 72:   1231.63   0.003491   17.64  0.000884  ( 0.027339 -0.000877  0.011674)
 73:   1246.79   0.002586   13.07  0.000647  ( 0.011473 -0.013961 -0.017909)
 74:   1323.59   0.000044    0.22  0.000010  ( 0.002114 -0.000761 -0.002332)
 75:   1326.24   0.013329   67.36  0.003136  ( 0.035655 -0.014479 -0.040685)
 76:   1379.94   0.004605   23.27  0.001041  (-0.013703  0.021925  0.019308)
 77:   1391.07   0.080174  405.17  0.017986  (-0.027821 -0.121414 -0.049703)
 78:   1398.10   0.007140   36.08  0.001594  ( 0.022674  0.031991 -0.007493)
 79:   1423.85   0.003009   15.20  0.000659  (-0.011793 -0.021953  0.006195)
 80:   1436.16   0.000272    1.38  0.000059  ( 0.003631  0.003538  0.005782)
 81:   1443.29   0.003342   16.89  0.000723  (-0.022822 -0.014174 -0.000974)
 82:   1459.61   0.000812    4.11  0.000174  ( 0.007987  0.000620 -0.010465)
 83:   1463.53   0.006463   32.66  0.001378  (-0.000193  0.036786  0.004979)
 84:   1467.48   0.032109  162.27  0.006828  ( 0.014353  0.064108  0.050123)
 85:   1481.17   0.004602   23.26  0.000970  (-0.024903  0.002671 -0.018503)
 86:   1497.58   0.001473    7.45  0.000307  ( 0.012675  0.005266 -0.010893)
 87:   1520.15   0.003341   16.89  0.000686  (-0.013234  0.000480  0.022596)
 88:   1531.22   0.000591    2.99  0.000120  (-0.003008  0.004374  0.009604)
 89:   1532.86   0.002426   12.26  0.000494  (-0.021990  0.003173 -0.000499)
 90:   1533.84   0.002147   10.85  0.000437  (-0.000175  0.006124  0.019980)
 91:   1534.02   0.007047   35.61  0.001434  (-0.022042  0.028892  0.010627)
 92:   1542.65   0.001473    7.44  0.000298  (-0.004055 -0.010585  0.013019)
 93:   1559.02   0.002790   14.10  0.000559  (-0.009094  0.010663  0.019030)
 94:   1559.27   0.002609   13.19  0.000522  ( 0.014953  0.011012  0.013317)
 95:   1604.58   0.000242    1.22  0.000047  ( 0.000370 -0.004661  0.005013)
 96:   1776.91   0.006324   31.96  0.001111  (-0.025065 -0.000412  0.021960)
 97:   1831.09   0.059349  299.92  0.010114  ( 0.055353  0.064053 -0.054293)
 98:   2956.21   0.093223  471.11  0.009841  (-0.012371 -0.070695 -0.068484)
 99:   3120.80   0.000984    4.97  0.000098  (-0.002465  0.004875 -0.008277)
100:   3128.85   0.001377    6.96  0.000137  ( 0.004480  0.010710 -0.001614)
101:   3135.02   0.000133    0.67  0.000013  (-0.002194  0.000676  0.002816)
102:   3159.29   0.000212    1.07  0.000021  ( 0.001455 -0.000583  0.004295)
103:   3204.06   0.000902    4.56  0.000088  ( 0.003751  0.007751  0.003701)
104:   3211.59   0.000457    2.31  0.000044  (-0.006281  0.002223  0.000048)
105:   3215.45   0.001437    7.26  0.000139  (-0.007311 -0.000269 -0.009270)
106:   3219.05   0.001045    5.28  0.000101  (-0.001029 -0.003953  0.009201)
107:   3225.76   0.002301   11.63  0.000223  (-0.011784  0.008980 -0.001773)
108:   3246.21   0.000075    0.38  0.000007  ( 0.001930  0.000182 -0.001866)
109:   3253.62   0.000390    1.97  0.000037  (-0.003557 -0.004976 -0.000109)
110:   3313.35   0.000939    4.75  0.000088  (-0.002155 -0.003868 -0.008298)
111:   3323.90   0.000113    0.57  0.000011  (-0.001271 -0.000731 -0.002913)
112:   3326.69   0.000145    0.73  0.000014  ( 0.002066  0.002251 -0.002065)
113:   3335.00   0.002835   14.33  0.000265  ( 0.011063  0.002430 -0.011703)
114:   3336.86   0.002675   13.52  0.000250  ( 0.006834  0.005653  0.013095)
115:   3338.36   0.002393   12.09  0.000224  (-0.011292  0.004334  0.008800)
116:   3345.13   0.001012    5.12  0.000094  (-0.006321  0.003180 -0.006662)

--------------------------
THERMOCHEMISTRY AT 298.15K
--------------------------

Temperature         ... 298.15 K
Pressure            ... 1.00 atm
Total Mass          ... 469.60 AMU

Throughout the following assumptions are being made:
  (1) The electronic state is orbitally nondegenerate
  (2) There are no thermally accessible electronically excited states
  (3) Hindered rotations indicated by low frequency modes are not
      treated as such but are treated as vibrations and this may
      cause some error
  (4) All equations used are the standard statistical mechanics
      equations for an ideal gas
  (5) All vibrations are strictly harmonic

freq.      33.74  E(vib)   ...       0.55
freq.      40.60  E(vib)   ...       0.54
freq.      43.22  E(vib)   ...       0.53
freq.      55.71  E(vib)   ...       0.52
freq.      58.90  E(vib)   ...       0.51
freq.      65.81  E(vib)   ...       0.50
freq.      87.02  E(vib)   ...       0.48
freq.     103.52  E(vib)   ...       0.46
freq.     116.75  E(vib)   ...       0.44
freq.     131.16  E(vib)   ...       0.42
freq.     151.48  E(vib)   ...       0.40
freq.     187.84  E(vib)   ...       0.36
freq.     209.02  E(vib)   ...       0.34
freq.     227.78  E(vib)   ...       0.33
freq.     236.25  E(vib)   ...       0.32
freq.     262.56  E(vib)   ...       0.29
freq.     281.08  E(vib)   ...       0.28
freq.     296.44  E(vib)   ...       0.27
freq.     318.70  E(vib)   ...       0.25
freq.     358.07  E(vib)   ...       0.22
freq.     377.53  E(vib)   ...       0.21
freq.     385.04  E(vib)   ...       0.20
freq.     393.12  E(vib)   ...       0.20
freq.     432.45  E(vib)   ...       0.18
freq.     446.66  E(vib)   ...       0.17
freq.     518.64  E(vib)   ...       0.13
freq.     569.00  E(vib)   ...       0.11
freq.     570.73  E(vib)   ...       0.11
freq.     586.92  E(vib)   ...       0.10
freq.     603.09  E(vib)   ...       0.10
freq.     604.19  E(vib)   ...       0.10
freq.     616.83  E(vib)   ...       0.09
freq.     642.60  E(vib)   ...       0.09
freq.     661.50  E(vib)   ...       0.08
freq.     708.57  E(vib)   ...       0.07
freq.     775.11  E(vib)   ...       0.05
freq.     799.18  E(vib)   ...       0.05
freq.     806.41  E(vib)   ...       0.05
freq.     853.73  E(vib)   ...       0.04
freq.     858.04  E(vib)   ...       0.04
freq.     888.63  E(vib)   ...       0.04
freq.     906.48  E(vib)   ...       0.03
freq.     925.56  E(vib)   ...       0.03
freq.     936.76  E(vib)   ...       0.03
freq.     952.64  E(vib)   ...       0.03
freq.     967.57  E(vib)   ...       0.03
freq.     969.17  E(vib)   ...       0.03
freq.     981.56  E(vib)   ...       0.02
freq.     986.40  E(vib)   ...       0.02
freq.     995.16  E(vib)   ...       0.02
freq.     998.95  E(vib)   ...       0.02
freq.    1002.86  E(vib)   ...       0.02
freq.    1024.49  E(vib)   ...       0.02
freq.    1033.51  E(vib)   ...       0.02
freq.    1049.33  E(vib)   ...       0.02
freq.    1064.45  E(vib)   ...       0.02
freq.    1074.39  E(vib)   ...       0.02
freq.    1104.58  E(vib)   ...       0.02
freq.    1105.74  E(vib)   ...       0.02
freq.    1116.37  E(vib)   ...       0.01
freq.    1136.15  E(vib)   ...       0.01
freq.    1149.94  E(vib)   ...       0.01
freq.    1166.05  E(vib)   ...       0.01
freq.    1168.71  E(vib)   ...       0.01
freq.    1196.15  E(vib)   ...       0.01
freq.    1231.63  E(vib)   ...       0.01
freq.    1246.79  E(vib)   ...       0.01
freq.    1323.59  E(vib)   ...       0.01
freq.    1326.24  E(vib)   ...       0.01
freq.    1379.94  E(vib)   ...       0.01
freq.    1391.07  E(vib)   ...       0.00
freq.    1398.10  E(vib)   ...       0.00
freq.    1423.85  E(vib)   ...       0.00
freq.    1436.16  E(vib)   ...       0.00
freq.    1443.29  E(vib)   ...       0.00
freq.    1459.61  E(vib)   ...       0.00
freq.    1463.53  E(vib)   ...       0.00
freq.    1467.48  E(vib)   ...       0.00
freq.    1481.17  E(vib)   ...       0.00
freq.    1497.58  E(vib)   ...       0.00
freq.    1520.15  E(vib)   ...       0.00
freq.    1531.22  E(vib)   ...       0.00
freq.    1532.86  E(vib)   ...       0.00
freq.    1533.84  E(vib)   ...       0.00
freq.    1534.02  E(vib)   ...       0.00
freq.    1542.65  E(vib)   ...       0.00
freq.    1559.02  E(vib)   ...       0.00
freq.    1559.27  E(vib)   ...       0.00
freq.    1604.58  E(vib)   ...       0.00
freq.    1776.91  E(vib)   ...       0.00
freq.    1831.09  E(vib)   ...       0.00
freq.    2956.21  E(vib)   ...       0.00
freq.    3120.80  E(vib)   ...       0.00
freq.    3128.85  E(vib)   ...       0.00
freq.    3135.02  E(vib)   ...       0.00
freq.    3159.29  E(vib)   ...       0.00
freq.    3204.06  E(vib)   ...       0.00
freq.    3211.59  E(vib)   ...       0.00
freq.    3215.45  E(vib)   ...       0.00
freq.    3219.05  E(vib)   ...       0.00
freq.    3225.76  E(vib)   ...       0.00
freq.    3246.21  E(vib)   ...       0.00
freq.    3253.62  E(vib)   ...       0.00
freq.    3313.35  E(vib)   ...       0.00
freq.    3323.90  E(vib)   ...       0.00
freq.    3326.69  E(vib)   ...       0.00
freq.    3335.00  E(vib)   ...       0.00
freq.    3336.86  E(vib)   ...       0.00
freq.    3338.36  E(vib)   ...       0.00
freq.    3345.13  E(vib)   ...       0.00

------------
INNER ENERGY
------------

The inner energy is: U= E(el) + E(ZPE) + E(vib) + E(rot) + E(trans)
    E(el)   - is the total energy from the electronic structure calculation
              = E(kin-el) + E(nuc-el) + E(el-el) + E(nuc-nuc)
    E(ZPE)  - the the zero temperature vibrational energy from the frequency calculation
    E(vib)  - the the finite temperature correction to E(ZPE) due to population
              of excited vibrational states
    E(rot)  - is the rotational thermal energy
    E(trans)- is the translational thermal energy

Summary of contributions to the inner energy U:
Electronic energy                ...  -1288.40243700 Eh
Zero point energy                ...      0.32183094 Eh     201.95 kcal/mol
Thermal vibrational correction   ...      0.01722744 Eh      10.81 kcal/mol
Thermal rotational correction    ...      0.00141627 Eh       0.89 kcal/mol
Thermal translational correction ...      0.00141627 Eh       0.89 kcal/mol
-----------------------------------------------------------------------
Total thermal energy                  -1288.06054607 Eh

Summary of corrections to the electronic energy:
(perhaps to be used in another calculation)
Total thermal correction                  0.02005998 Eh      12.59 kcal/mol
Non-thermal (ZPE) correction              0.32183094 Eh     201.95 kcal/mol
-----------------------------------------------------------------------
Total correction                          0.34189092 Eh     214.54 kcal/mol

--------
ENTHALPY

|  1>
|  2>
|  3>   ! PBEh-3c IRC pal8
|  4>   %irc
|  5>     maxiter 600
|  6>     inithess read
|  7>     hess_filename "reaction-4-ieip_optts_Compound_1.hess"
|  8>   end
|  9>
| 10>
| 11>                          ****END OF INPUT****

CARTESIAN COORDINATES (ANGSTROEM)
---------------------------------
  Ir     0.576666   -0.669062    0.395658
  C      0.023745   -2.758558    0.322578
  C      0.117909   -2.271319    1.679406
  C      2.192028   -2.078574    0.704354
  C      1.281832   -2.613536   -0.283929
  C      1.489386   -1.912099    1.909284
  N     -1.049844    0.245448   -0.579833
  C     -2.315958    0.603993    0.076347
  C     -3.150181    1.599999   -0.711196
  H     -3.989208    1.918622   -0.094388
  H     -3.576868    1.170730   -1.619414
  H     -2.587058    2.496231   -0.973712
  C     -3.102243   -0.665002    0.382619
  H     -2.013587    1.064883    1.017819
  H     -4.013510   -0.406153    0.919451
  H     -3.391909   -1.184387   -0.531945
  H     -2.542878   -1.353643    1.014082
  C     -0.819806    0.458382   -1.813775
  C      0.527403    0.149724   -2.259609
  H     -1.566327    0.858653   -2.493613
  C      1.671287    0.497423   -1.551291
  C      2.836399   -0.045599   -2.167336
  S      0.877769   -0.798402   -3.635905
  C      2.559340   -0.759471   -3.288117
  H      1.722492    1.321044   -0.818920
  H      3.838736    0.141558   -1.811193
  H      3.254761   -1.250275   -3.951880
  H     -0.871436   -3.130860   -0.154550
  H     -0.664908   -2.283467    2.423842
  H      1.886817   -1.499943    2.825511
  O      1.749175    2.422351    0.652619
  O      0.408957    0.924287    1.632894
  C      1.023406    2.075331    1.562003
  C      0.757900    2.951749    2.760622
  H     -0.301635    2.973812    3.011740
  H      1.110681    3.963099    2.579828
  H      1.282091    2.554843    3.631262
  H      3.234921   -1.848633    0.543524
  H      1.533024   -2.863986   -1.304095

 Multiplicity           Mult            ....    1
 Number of Electrons    NEL             ....  164
 Basis Dimension        Dim             ....  358

ORBITAL ENERGIES
----------------

  NO   OCC          E(Eh)            E(eV)
   0   2.0000     -89.770730     -2442.7858
   1   2.0000     -19.608896      -533.5852
   2   2.0000     -19.564206      -532.3691
   3   2.0000     -14.847969      -404.0338
   4   2.0000     -10.668595      -290.3072
   5   2.0000     -10.660822      -290.0957
   6   2.0000     -10.645623      -289.6821
   7   2.0000     -10.641519      -289.5705
   8   2.0000     -10.638175      -289.4794
   9   2.0000     -10.636257      -289.4273
  10   2.0000     -10.635421      -289.4045
  11   2.0000     -10.633464      -289.3513
  12   2.0000     -10.617807      -288.9252
  13   2.0000     -10.617714      -288.9227
  14   2.0000     -10.599605      -288.4299
  15   2.0000     -10.592479      -288.2360
  16   2.0000     -10.559093      -287.3275
  17   2.0000     -10.554725      -287.2087
  18   2.0000     -10.522030      -286.3190
  19   2.0000      -8.409956      -228.8465
  20   2.0000      -6.300101      -171.4345
  21   2.0000      -6.296396      -171.3336
  22   2.0000      -6.294599      -171.2847
  23   2.0000      -4.032695      -109.7352
  24   2.0000      -2.351912       -63.9988
  25   2.0000      -2.317691       -63.0676
  26   2.0000      -2.316614       -63.0383
  27   2.0000      -1.282007       -34.8852
  28   2.0000      -1.220846       -33.2209
  29   2.0000      -1.188481       -32.3402
  30   2.0000      -1.176186       -32.0056
  31   2.0000      -1.137009       -30.9396
  32   2.0000      -1.032123       -28.0855
  33   2.0000      -0.991949       -26.9923
  34   2.0000      -0.981896       -26.7188
  35   2.0000      -0.974971       -26.5303
  36   2.0000      -0.969218       -26.3738
  37   2.0000      -0.912060       -24.8184
  38   2.0000      -0.906523       -24.6677
  39   2.0000      -0.879968       -23.9452
  40   2.0000      -0.802492       -21.8369
  41   2.0000      -0.793090       -21.5811
  42   2.0000      -0.791220       -21.5302
  43   2.0000      -0.787446       -21.4275
  44   2.0000      -0.776681       -21.1346
  45   2.0000      -0.759005       -20.6536
  46   2.0000      -0.738589       -20.0980
  47   2.0000      -0.726993       -19.7825
  48   2.0000      -0.698241       -19.0001
  49   2.0000      -0.671794       -18.2804
  50   2.0000      -0.655136       -17.8272
  51   2.0000      -0.651813       -17.7367
  52   2.0000      -0.647665       -17.6239
  53   2.0000      -0.642269       -17.4770
  54   2.0000      -0.629829       -17.1385
  55   2.0000      -0.620811       -16.8931
  56   2.0000      -0.618041       -16.8177
  57   2.0000      -0.613124       -16.6840
  58   2.0000      -0.612144       -16.6573
  59   2.0000      -0.611234       -16.6325
  60   2.0000      -0.602435       -16.3931
  61   2.0000      -0.593741       -16.1565
  62   2.0000      -0.590740       -16.0749
  63   2.0000      -0.581334       -15.8189
  64   2.0000      -0.567749       -15.4492
  65   2.0000      -0.556268       -15.1368
  66   2.0000      -0.551075       -14.9955
  67   2.0000      -0.545804       -14.8521
  68   2.0000      -0.541395       -14.7321
  69   2.0000      -0.534887       -14.5550
  70   2.0000      -0.524998       -14.2859
  71   2.0000      -0.524249       -14.2655
  72   2.0000      -0.517531       -14.0827
  73   2.0000      -0.506454       -13.7813
  74   2.0000      -0.487901       -13.2765
  75   2.0000      -0.478700       -13.0261
  76   2.0000      -0.471016       -12.8170
  77   2.0000      -0.446350       -12.1458
  78   2.0000      -0.432745       -11.7756
  79   2.0000      -0.423969       -11.5368
  80   2.0000      -0.417146       -11.3511
  81   2.0000      -0.408030       -11.1030
  82   0.0000      -0.203762        -5.5447
  83   0.0000      -0.170206        -4.6315
  84   0.0000      -0.144567        -3.9339
  85   0.0000      -0.113882        -3.0989
  86   0.0000      -0.081538        -2.2188

MULLIKEN ATOMIC CHARGES
-----------------------
   0 Ir:    0.612792
   1 C :   -0.205231
   2 C :   -0.298645
   3 C :   -0.226962
   4 C :   -0.247822
   5 C :   -0.159177
   6 N :   -0.412052
   7 C :   -0.114151
   8 C :   -0.699371
   9 H :    0.276400
  10 H :    0.226187
  11 H :    0.258227
  12 C :   -0.643320
  13 H :    0.291063
  14 H :    0.266968
  15 H :    0.230370
  16 H :    0.235172
  17 C :    0.062379
  18 C :   -0.227325
  19 H :    0.298175
  20 C :   -0.382727
  21 C :   -0.131996
  22 S :    0.300895
  23 C :   -0.431489
  24 H :    0.460934
  25 H :    0.279454
  26 H :    0.302018
  27 H :    0.293463
  28 H :    0.296030
  29 H :    0.308788
  30 O :   -0.450892
  31 O :   -0.564996
  32 C :    0.587929
  33 C :   -0.743085
  34 H :    0.241695
  35 H :    0.265794
  36 H :    0.254445
  37 H :    0.296802
  38 H :    0.293260
Sum of atomic charges:    1.0000000

LOEWDIN ATOMIC CHARGES
----------------------
   0 Ir:   -0.213090
   1 C :   -0.035883
   2 C :   -0.050728
   3 C :   -0.044681
   4 C :   -0.061081
   5 C :   -0.024629
   6 N :    0.004385
   7 C :   -0.068969
   8 C :   -0.365457
   9 H :    0.159249
  10 H :    0.134262
  11 H :    0.145879
  12 C :   -0.342778
  13 H :    0.162179
  14 H :    0.154100
  15 H :    0.137051
  16 H :    0.135633
  17 C :    0.030856
  18 C :   -0.176214
  19 H :    0.165747
  20 C :   -0.151432
  21 C :   -0.136204
  22 S :    0.469313
  23 C :   -0.263191
  24 H :    0.238012
  25 H :    0.167824
  26 H :    0.170244
  27 H :    0.186443
  28 H :    0.187694
  29 H :    0.195175
  30 O :   -0.261942
  31 O :   -0.234179
  32 C :    0.131943
  33 C :   -0.380954
  34 H :    0.148726
  35 H :    0.155830
  36 H :    0.158761
  37 H :    0.188306
  38 H :    0.183801

  Mayer bond orders larger than 0.100000
B(  0-Ir,  1-C ) :   0.4095 B(  0-Ir,  2-C ) :   0.5585 B(  0-Ir,  3-C ) :   0.4711
B(  0-Ir,  4-C ) :   0.4429 B(  0-Ir,  5-C ) :   0.4057 B(  0-Ir,  6-N ) :   0.4518
B(  0-Ir, 20-C ) :   0.1949 B(  0-Ir, 31-O ) :   0.6255 B(  1-C ,  2-C ) :   1.1132
B(  1-C ,  4-C ) :   1.2614 B(  1-C , 27-H ) :   0.9027 B(  2-C ,  5-C ) :   1.1269
B(  2-C , 28-H ) :   0.9059 B(  3-C ,  4-C ) :   1.0973 B(  3-C ,  5-C ) :   1.2345
B(  3-C , 37-H ) :   0.9018 B(  4-C , 38-H ) :   0.8971 B(  5-C , 29-H ) :   0.8973
B(  6-N ,  7-C ) :   0.8885 B(  6-N , 17-C ) :   1.7228 B(  7-C ,  8-C ) :   0.9928
B(  7-C , 12-C ) :   0.9688 B(  7-C , 13-H ) :   0.8628 B(  8-C ,  9-H ) :   0.9024
B(  8-C , 10-H ) :   0.9117 B(  8-C , 11-H ) :   0.9084 B( 12-C , 14-H ) :   0.9058
B( 12-C , 15-H ) :   0.9149 B( 12-C , 16-H ) :   0.9093 B( 17-C , 18-C ) :   1.0181
B( 17-C , 19-H ) :   0.8715 B( 18-C , 20-C ) :   1.3194 B( 18-C , 22-S ) :   1.2310
B( 20-C , 21-C ) :   1.2466 B( 20-C , 24-H ) :   0.6518 B( 21-C , 23-C ) :   1.5539
B( 21-C , 25-H ) :   0.8985 B( 22-S , 23-C ) :   1.1983 B( 23-C , 26-H ) :   0.8906
B( 24-H , 30-O ) :   0.1341 B( 30-O , 32-C ) :   1.8525 B( 31-O , 32-C ) :   1.1843
B( 32-C , 33-C ) :   0.9402 B( 33-C , 34-H ) :   0.9123 B( 33-C , 35-H ) :   0.9082
B( 33-C , 36-H ) :   0.9058

Dispersion correction           -0.030837207
FINAL SINGLE POINT ENERGY     -1288.402436839112
Dispersion correction            ... done

DIPOLE MOMENT
-------------
                                X             Y             Z
Electronic contribution:     32.98971     -61.55780      65.50191
Nuclear contribution   :    -33.85821      59.95010     -66.19245
                        -----------------------------------------
Total Dipole Moment    :     -0.86850      -1.60770      -0.69053
                        -----------------------------------------
Magnitude (a.u.)       :      1.95341
Magnitude (Debye)      :      4.96518

Rotational constants in cm-1:     0.011047     0.008956     0.008223
Rotational constants in MHz :   331.175346   268.503384   246.532363

                      ***********************HURRAY********************
                             ****ORCA TERMINATED NORMALLY****
TOTAL RUN TIME: 0 days 4 hours 8 minutes 45 seconds 423 msec
