                         Program Version 5.0.3 -  RELEASE  -
|  1> ! EnGrad PBEh-3c
|  2> %output
|  3> xyzfile=True
|  4> end
|  5> %scf
|  6> maxiter 250
|  7> end
|  8> %output
|  9> Print[P_Hirshfeld] = 1
| 10> end
| 11> % maxcore
| 12> 4000
| 13> %pal nprocs 4
| 14> end
| 15> *xyz 1 1
| 16> Ir   0.56842000  -0.80088000   0.38327000
| 17> C    0.30054000  -2.89533000   0.67739000
| 18> C   -0.15899000  -2.31980000   1.92187000
| 19> C    2.06517000  -1.76715000   1.64206000
| 20> C    1.69506000  -2.61519000   0.56375000
| 21> C    0.90684000  -1.62792000   2.49108000
| 22> N   -1.20025000  -0.24940000  -0.60787000
| 23> C   -2.51762000  -0.32121000   0.03539000
| 24> C   -2.58972000   0.64033000   1.21562000
| 25> H   -3.55302000   0.53477000   1.71353000
| 26> H   -2.49733000   1.67426000   0.88261000
| 27> H   -1.81483000   0.44958000   1.95592000
| 28> C   -3.68686000  -0.10246000  -0.91261000
| 29> H   -2.58904000  -1.34270000   0.42097000
| 30> H   -4.61409000  -0.29122000  -0.37402000
| 31> H   -3.73979000   0.92402000  -1.27963000
| 32> H   -3.66954000  -0.78061000  -1.76663000
| 33> C   -1.04392000   0.16657000  -1.81532000
| 34> C    0.28892000   0.13229000  -2.31313000
| 35> H   -1.88069000   0.50156000  -2.41855000
| 36> C    1.26199000  -0.34582000  -1.45786000
| 37> C    2.52154000  -0.38425000  -2.10940000
| 38> S    0.88420000   0.51605000  -3.87698000
| 39> C    2.45369000   0.05489000  -3.40896000
| 40> H    2.25778000   1.43351000  -0.77785000
| 41> H    3.44399000  -0.72791000  -1.66171000
| 42> H    3.26615000   0.11838000  -4.11713000
| 43> H   -0.26767000  -3.54413000   0.02747000
| 44> H   -1.15853000  -2.38900000   2.32366000
| 45> H    0.86434000  -1.04029000   3.39674000
| 46> O    2.22291000   2.25931000  -0.25816000
| 47> O    0.62512000   1.25078000   0.94669000
| 48> C    1.31866000   2.22999000   0.67217000
| 49> C    1.17490000   3.50922000   1.42513000
| 50> H    0.97687000   4.33102000   0.73720000
| 51> H    2.10923000   3.74491000   1.93619000
| 52> H    0.37444000   3.44205000   2.15451000
| 53> H    3.05863000  -1.40716000   1.86168000
| 54> H    2.34248000  -2.96102000  -0.22909000
| 55> *
| 56>
| 57>                          ****END OF INPUT****

CARTESIAN COORDINATES (ANGSTROEM)
---------------------------------
  Ir     0.568420   -0.800880    0.383270
  C      0.300540   -2.895330    0.677390
  C     -0.158990   -2.319800    1.921870
  C      2.065170   -1.767150    1.642060
  C      1.695060   -2.615190    0.563750
  C      0.906840   -1.627920    2.491080
  N     -1.200250   -0.249400   -0.607870
  C     -2.517620   -0.321210    0.035390
  C     -2.589720    0.640330    1.215620
  H     -3.553020    0.534770    1.713530
  H     -2.497330    1.674260    0.882610
  H     -1.814830    0.449580    1.955920
  C     -3.686860   -0.102460   -0.912610
  H     -2.589040   -1.342700    0.420970
  H     -4.614090   -0.291220   -0.374020
  H     -3.739790    0.924020   -1.279630
  H     -3.669540   -0.780610   -1.766630
  C     -1.043920    0.166570   -1.815320
  C      0.288920    0.132290   -2.313130
  H     -1.880690    0.501560   -2.418550
  C      1.261990   -0.345820   -1.457860
  C      2.521540   -0.384250   -2.109400
  S      0.884200    0.516050   -3.876980
  C      2.453690    0.054890   -3.408960
  H      2.257780    1.433510   -0.777850
  H      3.443990   -0.727910   -1.661710
  H      3.266150    0.118380   -4.117130
  H     -0.267670   -3.544130    0.027470
  H     -1.158530   -2.389000    2.323660
  H      0.864340   -1.040290    3.396740
  O      2.222910    2.259310   -0.258160
  O      0.625120    1.250780    0.946690
  C      1.318660    2.229990    0.672170
  C      1.174900    3.509220    1.425130
  H      0.976870    4.331020    0.737200
  H      2.109230    3.744910    1.936190
  H      0.374440    3.442050    2.154510
  H      3.058630   -1.407160    1.861680
  H      2.342480   -2.961020   -0.229090

 Total Charge           Charge          ....    1
 Multiplicity           Mult            ....    1
 Number of Electrons    NEL             ....  164
 Basis Dimension        Dim             ....  358

ORBITAL ENERGIES
----------------

  NO   OCC          E(Eh)            E(eV)
   0   2.0000     -89.743450     -2442.0434
   1   2.0000     -19.686553      -535.6983
   2   2.0000     -19.666948      -535.1649
   3   2.0000     -14.812599      -403.0713
   4   2.0000     -10.741441      -292.2895
   5   2.0000     -10.638509      -289.4886
   6   2.0000     -10.617544      -288.9181
   7   2.0000     -10.613160      -288.7988
   8   2.0000     -10.610277      -288.7203
   9   2.0000     -10.608022      -288.6590
  10   2.0000     -10.605768      -288.5976
  11   2.0000     -10.604232      -288.5558
  12   2.0000     -10.603299      -288.5304
  13   2.0000     -10.592687      -288.2417
  14   2.0000     -10.583710      -287.9974
  15   2.0000     -10.573997      -287.7331
  16   2.0000     -10.569030      -287.5979
  17   2.0000     -10.544663      -286.9349
  18   2.0000     -10.540943      -286.8336
  19   2.0000      -8.382768      -228.1067
  20   2.0000      -6.272766      -170.6906
  21   2.0000      -6.269420      -170.5996
  22   2.0000      -6.267431      -170.5455
  23   2.0000      -4.008750      -109.0836
  24   2.0000      -2.324359       -63.2490
  25   2.0000      -2.296755       -62.4979
  26   2.0000      -2.292228       -62.3747
  27   2.0000      -1.382387       -37.6167
  28   2.0000      -1.288351       -35.0578
  29   2.0000      -1.188265       -32.3343
  30   2.0000      -1.149355       -31.2755
  31   2.0000      -1.110273       -30.2121
  32   2.0000      -1.013330       -27.5741
  33   2.0000      -0.982215       -26.7274
  34   2.0000      -0.964998       -26.2589
  35   2.0000      -0.953478       -25.9454
  36   2.0000      -0.949963       -25.8498
  37   2.0000      -0.942654       -25.6509
  38   2.0000      -0.892826       -24.2950
  39   2.0000      -0.854646       -23.2561
  40   2.0000      -0.839236       -22.8368
  41   2.0000      -0.784865       -21.3573
  42   2.0000      -0.770871       -20.9765
  43   2.0000      -0.769796       -20.9472
  44   2.0000      -0.765371       -20.8268
  45   2.0000      -0.760039       -20.6817
  46   2.0000      -0.751694       -20.4546
  47   2.0000      -0.716578       -19.4991
  48   2.0000      -0.700705       -19.0672
  49   2.0000      -0.691235       -18.8095
  50   2.0000      -0.684566       -18.6280
  51   2.0000      -0.676876       -18.4187
  52   2.0000      -0.652056       -17.7433
  53   2.0000      -0.633527       -17.2391
  54   2.0000      -0.621506       -16.9120
  55   2.0000      -0.618509       -16.8305
  56   2.0000      -0.610788       -16.6204
  57   2.0000      -0.602581       -16.3971
  58   2.0000      -0.596427       -16.2296
  59   2.0000      -0.588703       -16.0194
  60   2.0000      -0.588155       -16.0045
  61   2.0000      -0.586809       -15.9679
  62   2.0000      -0.583923       -15.8894
  63   2.0000      -0.577578       -15.7167
  64   2.0000      -0.570887       -15.5346
  65   2.0000      -0.562341       -15.3021
  66   2.0000      -0.552401       -15.0316
  67   2.0000      -0.547498       -14.8982
  68   2.0000      -0.543679       -14.7943
  69   2.0000      -0.537144       -14.6164
  70   2.0000      -0.533803       -14.5255
  71   2.0000      -0.530547       -14.4369
  72   2.0000      -0.512743       -13.9524
  73   2.0000      -0.504858       -13.7379
  74   2.0000      -0.499720       -13.5981
  75   2.0000      -0.481859       -13.1120
  76   2.0000      -0.471058       -12.8182
  77   2.0000      -0.451426       -12.2839
  78   2.0000      -0.437635       -11.9087
  79   2.0000      -0.411743       -11.2041
  80   2.0000      -0.405481       -11.0337
  81   2.0000      -0.380162       -10.3447
  82   0.0000      -0.171444        -4.6652
  83   0.0000      -0.141446        -3.8489
  84   0.0000      -0.110772        -3.0142
  85   0.0000      -0.103710        -2.8221
  86   0.0000      -0.074883        -2.0377

MULLIKEN ATOMIC CHARGES
-----------------------
   0 Ir:    0.558449
   1 C :   -0.298386
   2 C :   -0.223013
   3 C :   -0.286798
   4 C :   -0.201849
   5 C :   -0.168523
   6 N :   -0.467500
   7 C :   -0.085971
   8 C :   -0.645873
   9 H :    0.249293
  10 H :    0.230123
  11 H :    0.255636
  12 C :   -0.700256
  13 H :    0.241213
  14 H :    0.270107
  15 H :    0.229847
  16 H :    0.246479
  17 C :    0.064966
  18 C :   -0.226368
  19 H :    0.281795
  20 C :   -0.214976
  21 C :   -0.250783
  22 S :    0.312214
  23 C :   -0.409519
  24 H :    0.523944
  25 H :    0.259621
  26 H :    0.293922
  27 H :    0.282893
  28 H :    0.275556
  29 H :    0.281763
  30 O :   -0.542004
  31 O :   -0.438880
  32 C :    0.628942
  33 C :   -0.742586
  34 H :    0.286190
  35 H :    0.287161
  36 H :    0.277163
  37 H :    0.274903
  38 H :    0.291104
Sum of atomic charges:    1.0000000

LOEWDIN ATOMIC CHARGES
----------------------
   0 Ir:   -0.280422
   1 C :   -0.076771
   2 C :   -0.084943
   3 C :   -0.107948
   4 C :   -0.031636
   5 C :   -0.047356
   6 N :   -0.033827
   7 C :   -0.063593
   8 C :   -0.347005
   9 H :    0.144344
  10 H :    0.137583
  11 H :    0.144618
  12 C :   -0.366112
  13 H :    0.135888
  14 H :    0.155224
  15 H :    0.135934
  16 H :    0.139644
  17 C :    0.033767
  18 C :   -0.251374
  19 H :    0.156846
  20 C :   -0.107720
  21 C :   -0.200113
  22 S :    0.458564
  23 C :   -0.249431
  24 H :    0.358572
  25 H :    0.155799
  26 H :    0.166563
  27 H :    0.181699
  28 H :    0.175420
  29 H :    0.178595
  30 O :   -0.215087
  31 O :   -0.112823
  32 C :    0.207640
  33 C :   -0.368569
  34 H :    0.175768
  35 H :    0.177619
  36 H :    0.163630
  37 H :    0.177049
  38 H :    0.183963

  Mayer bond orders larger than 0.100000
B(  0-Ir,  1-C ) :   0.5339 B(  0-Ir,  2-C ) :   0.2979 B(  0-Ir,  3-C ) :   0.4838
B(  0-Ir,  4-C ) :   0.4152 B(  0-Ir,  5-C ) :   0.3035 B(  0-Ir,  6-N ) :   0.4735
B(  0-Ir, 20-C ) :   0.7001 B(  0-Ir, 31-O ) :   0.3995 B(  1-C ,  2-C ) :   1.1150
B(  1-C ,  4-C ) :   1.1719 B(  1-C , 27-H ) :   0.9129 B(  2-C ,  5-C ) :   1.3418
B(  2-C , 28-H ) :   0.9101 B(  3-C ,  4-C ) :   1.1974 B(  3-C ,  5-C ) :   1.1117
B(  3-C , 37-H ) :   0.9157 B(  4-C , 38-H ) :   0.9015 B(  5-C , 29-H ) :   0.9082
B(  6-N ,  7-C ) :   0.9141 B(  6-N , 17-C ) :   1.6071 B(  7-C ,  8-C ) :   0.9761
B(  7-C , 12-C ) :   0.9941 B(  7-C , 13-H ) :   0.8849 B(  8-C ,  9-H ) :   0.9080
B(  8-C , 10-H ) :   0.9156 B(  8-C , 11-H ) :   0.8994 B( 12-C , 14-H ) :   0.9051
B( 12-C , 15-H ) :   0.9114 B( 12-C , 16-H ) :   0.9128 B( 17-C , 18-C ) :   1.1504
B( 17-C , 19-H ) :   0.8758 B( 18-C , 20-C ) :   1.3525 B( 18-C , 22-S ) :   1.1430
B( 20-C , 21-C ) :   1.3174 B( 21-C , 23-C ) :   1.4671 B( 21-C , 25-H ) :   0.9053
B( 22-S , 23-C ) :   1.2741 B( 23-C , 26-H ) :   0.8936 B( 24-H , 30-O ) :   0.6346
B( 30-O , 32-C ) :   1.2932 B( 31-O , 32-C ) :   1.6143 B( 32-C , 33-C ) :   0.9554
B( 33-C , 34-H ) :   0.8873 B( 33-C , 35-H ) :   0.8849 B( 33-C , 36-H ) :   0.9059

Dispersion correction           -0.030500006
FINAL SINGLE POINT ENERGY     -1288.443094115356
Dispersion correction            ... done

DIPOLE MOMENT
-------------
                                X             Y             Z
Electronic contribution:     33.31542     -79.61622      69.80422
Nuclear contribution   :    -33.52038      80.17283     -69.36629
                        -----------------------------------------
Total Dipole Moment    :     -0.20496       0.55661       0.43792
                        -----------------------------------------
Magnitude (a.u.)       :      0.73729
Magnitude (Debye)      :      1.87405

Rotational constants in cm-1:     0.010853     0.008559     0.008012
Rotational constants in MHz :   325.374390   256.598730   240.199178

                             ****ORCA TERMINATED NORMALLY****
TOTAL RUN TIME: 0 days 0 hours 4 minutes 43 seconds 512 msec
