                         Program Version 5.0.3 -  RELEASE  -
|  1> ! EnGrad PBEh-3c
|  2> %output
|  3> xyzfile=True
|  4> end
|  5> %scf
|  6> maxiter 250
|  7> end
|  8> %output
|  9> Print[P_Hirshfeld] = 1
| 10> end
| 11> % maxcore
| 12> 4000
| 13> %pal nprocs 4
| 14> end
| 15> *xyz 1 1
| 16> Ir   0.42775000  -0.66288000   1.12667000
| 17> C    0.11656000  -2.53642000   2.13726000
| 18> C    1.42343000  -2.04478000   2.46843000
| 19> C    1.31798000  -2.37167000   0.17606000
| 20> C    0.05481000  -2.74967000   0.74025000
| 21> C    2.15344000  -1.96168000   1.25419000
| 22> N   -0.82601000   0.10228000  -0.35707000
| 23> C   -2.26896000   0.27663000  -0.01032000
| 24> C   -2.71332000   1.72021000  -0.19588000
| 25> H   -3.73982000   1.83283000   0.15143000
| 26> H   -2.68938000   2.03315000  -1.24081000
| 27> H   -2.09511000   2.40877000   0.37855000
| 28> C   -3.14440000  -0.70623000  -0.77791000
| 29> H   -2.35715000   0.03871000   1.04729000
| 30> H   -4.16081000  -0.66499000  -0.38849000
| 31> H   -3.20222000  -0.48166000  -1.84364000
| 32> H   -2.79200000  -1.73187000  -0.66588000
| 33> C   -0.50771000   0.29551000  -1.58302000
| 34> C    0.77965000   0.19398000  -2.21900000
| 35> H   -1.32103000   0.54031000  -2.26655000
| 36> C    2.06614000   0.39977000  -1.77236000
| 37> C    3.02696000   0.21182000  -2.78373000
| 38> S    0.77693000  -0.19861000  -3.90554000
| 39> C    2.46872000  -0.12867000  -3.98443000
| 40> H    2.31603000   0.73932000  -0.78027000
| 41> H    4.08899000   0.34019000  -2.63884000
| 42> H    2.97990000  -0.33812000  -4.91130000
| 43> H   -0.69134000  -2.70067000   2.83617000
| 44> H    1.79243000  -1.81938000   3.45724000
| 45> H    3.16456000  -1.59159000   1.15608000
| 46> O    1.27529000   1.26690000   1.19797000
| 47> O   -0.44848000   0.81143000   2.36590000
| 48> C    0.39525000   1.67983000   2.00857000
| 49> C    0.37338000   3.07522000   2.51660000
| 50> H    0.66772000   3.77637000   1.73831000
| 51> H    1.09417000   3.17203000   3.33072000
| 52> H   -0.60800000   3.33605000   2.90443000
| 53> H    1.60480000  -2.43844000  -0.86230000
| 54> H   -0.79913000  -3.12398000   0.19523000
| 55> *
| 56>
| 57>                          ****END OF INPUT****

CARTESIAN COORDINATES (ANGSTROEM)
---------------------------------
  Ir     0.427750   -0.662880    1.126670
  C      0.116560   -2.536420    2.137260
  C      1.423430   -2.044780    2.468430
  C      1.317980   -2.371670    0.176060
  C      0.054810   -2.749670    0.740250
  C      2.153440   -1.961680    1.254190
  N     -0.826010    0.102280   -0.357070
  C     -2.268960    0.276630   -0.010320
  C     -2.713320    1.720210   -0.195880
  H     -3.739820    1.832830    0.151430
  H     -2.689380    2.033150   -1.240810
  H     -2.095110    2.408770    0.378550
  C     -3.144400   -0.706230   -0.777910
  H     -2.357150    0.038710    1.047290
  H     -4.160810   -0.664990   -0.388490
  H     -3.202220   -0.481660   -1.843640
  H     -2.792000   -1.731870   -0.665880
  C     -0.507710    0.295510   -1.583020
  C      0.779650    0.193980   -2.219000
  H     -1.321030    0.540310   -2.266550
  C      2.066140    0.399770   -1.772360
  C      3.026960    0.211820   -2.783730
  S      0.776930   -0.198610   -3.905540
  C      2.468720   -0.128670   -3.984430
  H      2.316030    0.739320   -0.780270
  H      4.088990    0.340190   -2.638840
  H      2.979900   -0.338120   -4.911300
  H     -0.691340   -2.700670    2.836170
  H      1.792430   -1.819380    3.457240
  H      3.164560   -1.591590    1.156080
  O      1.275290    1.266900    1.197970
  O     -0.448480    0.811430    2.365900
  C      0.395250    1.679830    2.008570
  C      0.373380    3.075220    2.516600
  H      0.667720    3.776370    1.738310
  H      1.094170    3.172030    3.330720
  H     -0.608000    3.336050    2.904430
  H      1.604800   -2.438440   -0.862300
  H     -0.799130   -3.123980    0.195230

 Total Charge           Charge          ....    1
 Multiplicity           Mult            ....    1
 Number of Electrons    NEL             ....  164
 Basis Dimension        Dim             ....  358

ORBITAL ENERGIES
----------------

  NO   OCC          E(Eh)            E(eV)
   0   2.0000     -89.746425     -2442.1244
   1   2.0000     -19.641318      -534.4674
   2   2.0000     -19.640675      -534.4499
   3   2.0000     -14.827165      -403.4677
   4   2.0000     -10.706853      -291.3483
   5   2.0000     -10.654614      -289.9268
   6   2.0000     -10.633859      -289.3620
   7   2.0000     -10.630706      -289.2762
   8   2.0000     -10.627392      -289.1860
   9   2.0000     -10.620094      -288.9874
  10   2.0000     -10.617908      -288.9280
  11   2.0000     -10.611604      -288.7564
  12   2.0000     -10.608703      -288.6775
  13   2.0000     -10.601548      -288.4828
  14   2.0000     -10.583762      -287.9988
  15   2.0000     -10.571981      -287.6782
  16   2.0000     -10.558175      -287.3026
  17   2.0000     -10.550682      -287.0987
  18   2.0000     -10.546170      -286.9759
  19   2.0000      -8.386120      -228.1979
  20   2.0000      -6.276198      -170.7840
  21   2.0000      -6.272657      -170.6877
  22   2.0000      -6.270756      -170.6360
  23   2.0000      -4.029290      -109.6425
  24   2.0000      -2.349622       -63.9365
  25   2.0000      -2.313931       -62.9653
  26   2.0000      -2.311428       -62.8971
  27   2.0000      -1.351698       -36.7816
  28   2.0000      -1.226508       -33.3750
  29   2.0000      -1.195074       -32.5196
  30   2.0000      -1.168001       -31.7829
  31   2.0000      -1.117187       -30.4002
  32   2.0000      -1.010593       -27.4996
  33   2.0000      -0.980296       -26.6752
  34   2.0000      -0.973990       -26.5036
  35   2.0000      -0.960590       -26.1390
  36   2.0000      -0.958313       -26.0770
  37   2.0000      -0.952250       -25.9120
  38   2.0000      -0.895082       -24.3564
  39   2.0000      -0.865472       -23.5507
  40   2.0000      -0.793057       -21.5802
  41   2.0000      -0.782611       -21.2959
  42   2.0000      -0.782359       -21.2891
  43   2.0000      -0.769019       -20.9261
  44   2.0000      -0.768334       -20.9074
  45   2.0000      -0.752531       -20.4774
  46   2.0000      -0.736731       -20.0475
  47   2.0000      -0.716378       -19.4936
  48   2.0000      -0.694660       -18.9026
  49   2.0000      -0.686801       -18.6888
  50   2.0000      -0.684058       -18.6142
  51   2.0000      -0.668401       -18.1881
  52   2.0000      -0.647613       -17.6224
  53   2.0000      -0.635267       -17.2865
  54   2.0000      -0.634055       -17.2535
  55   2.0000      -0.629518       -17.1301
  56   2.0000      -0.622075       -16.9275
  57   2.0000      -0.607924       -16.5425
  58   2.0000      -0.603162       -16.4129
  59   2.0000      -0.602358       -16.3910
  60   2.0000      -0.591374       -16.0921
  61   2.0000      -0.584097       -15.8941
  62   2.0000      -0.579596       -15.7716
  63   2.0000      -0.575304       -15.6548
  64   2.0000      -0.570759       -15.5312
  65   2.0000      -0.564818       -15.3695
  66   2.0000      -0.560439       -15.2503
  67   2.0000      -0.542927       -14.7738
  68   2.0000      -0.537514       -14.6265
  69   2.0000      -0.535419       -14.5695
  70   2.0000      -0.530652       -14.4398
  71   2.0000      -0.522141       -14.2082
  72   2.0000      -0.516508       -14.0549
  73   2.0000      -0.508809       -13.8454
  74   2.0000      -0.502088       -13.6625
  75   2.0000      -0.482058       -13.1175
  76   2.0000      -0.476521       -12.9668
  77   2.0000      -0.462742       -12.5918
  78   2.0000      -0.437286       -11.8992
  79   2.0000      -0.428432       -11.6582
  80   2.0000      -0.419130       -11.4051
  81   2.0000      -0.398445       -10.8422
  82   0.0000      -0.173525        -4.7218
  83   0.0000      -0.165386        -4.5004
  84   0.0000      -0.136498        -3.7143
  85   0.0000      -0.088978        -2.4212
  86   0.0000      -0.083180        -2.2634

MULLIKEN ATOMIC CHARGES
-----------------------
   0 Ir:    0.577299
   1 C :   -0.229157
   2 C :   -0.255967
   3 C :   -0.266716
   4 C :   -0.203009
   5 C :   -0.192930
   6 N :   -0.455119
   7 C :   -0.165630
   8 C :   -0.631371
   9 H :    0.257183
  10 H :    0.221500
  11 H :    0.245436
  12 C :   -0.639028
  13 H :    0.283641
  14 H :    0.262717
  15 H :    0.223772
  16 H :    0.234204
  17 C :    0.073543
  18 C :   -0.232923
  19 H :    0.266868
  20 C :   -0.215610
  21 C :   -0.146082
  22 S :    0.296841
  23 C :   -0.418852
  24 H :    0.305691
  25 H :    0.266835
  26 H :    0.295950
  27 H :    0.299654
  28 H :    0.293746
  29 H :    0.296724
  30 O :   -0.493023
  31 O :   -0.478670
  32 C :    0.679094
  33 C :   -0.776251
  34 H :    0.276903
  35 H :    0.285353
  36 H :    0.276002
  37 H :    0.295406
  38 H :    0.285972
Sum of atomic charges:    1.0000000

LOEWDIN ATOMIC CHARGES
----------------------
   0 Ir:   -0.197582
   1 C :   -0.031219
   2 C :   -0.086041
   3 C :   -0.080385
   4 C :   -0.051997
   5 C :   -0.013560
   6 N :   -0.035096
   7 C :   -0.070174
   8 C :   -0.349483
   9 H :    0.151086
  10 H :    0.132471
  11 H :    0.139152
  12 C :   -0.351651
  13 H :    0.155786
  14 H :    0.152929
  15 H :    0.132414
  16 H :    0.133460
  17 C :    0.035592
  18 C :   -0.233617
  19 H :    0.151597
  20 C :   -0.119549
  21 C :   -0.166350
  22 S :    0.451646
  23 C :   -0.255476
  24 H :    0.177793
  25 H :    0.159268
  26 H :    0.167965
  27 H :    0.189315
  28 H :    0.187122
  29 H :    0.188384
  30 O :   -0.184702
  31 O :   -0.173776
  32 C :    0.185539
  33 C :   -0.373299
  34 H :    0.169030
  35 H :    0.178968
  36 H :    0.166403
  37 H :    0.186210
  38 H :    0.181827

  Mayer bond orders larger than 0.100000
B(  0-Ir,  1-C ) :   0.4695 B(  0-Ir,  2-C ) :   0.4543 B(  0-Ir,  3-C ) :   0.5034
B(  0-Ir,  4-C ) :   0.4603 B(  0-Ir,  5-C ) :   0.4316 B(  0-Ir,  6-N ) :   0.4740
B(  0-Ir, 30-O ) :   0.5276 B(  0-Ir, 31-O ) :   0.5100 B(  1-C ,  2-C ) :   1.1412
B(  1-C ,  4-C ) :   1.2027 B(  1-C , 27-H ) :   0.9008 B(  2-C ,  5-C ) :   1.1915
B(  2-C , 28-H ) :   0.9077 B(  3-C ,  4-C ) :   1.1069 B(  3-C ,  5-C ) :   1.1785
B(  3-C , 37-H ) :   0.9025 B(  4-C , 38-H ) :   0.9054 B(  5-C , 29-H ) :   0.9013
B(  6-N ,  7-C ) :   0.8743 B(  6-N , 17-C ) :   1.6633 B(  7-C ,  8-C ) :   0.9834
B(  7-C , 12-C ) :   0.9775 B(  7-C , 13-H ) :   0.8815 B(  8-C ,  9-H ) :   0.9076
B(  8-C , 10-H ) :   0.9158 B(  8-C , 11-H ) :   0.9143 B( 12-C , 14-H ) :   0.9066
B( 12-C , 15-H ) :   0.9158 B( 12-C , 16-H ) :   0.9163 B( 17-C , 18-C ) :   1.0903
B( 17-C , 19-H ) :   0.8808 B( 18-C , 20-C ) :   1.4247 B( 18-C , 22-S ) :   1.1664
B( 20-C , 21-C ) :   1.3281 B( 20-C , 24-H ) :   0.8719 B( 21-C , 23-C ) :   1.4811
B( 21-C , 25-H ) :   0.9026 B( 22-S , 23-C ) :   1.2615 B( 23-C , 26-H ) :   0.8925
B( 30-O , 32-C ) :   1.3934 B( 31-O , 32-C ) :   1.4262 B( 32-C , 33-C ) :   0.9693
B( 33-C , 34-H ) :   0.8974 B( 33-C , 35-H ) :   0.8870 B( 33-C , 36-H ) :   0.9001

Dispersion correction           -0.029905721
FINAL SINGLE POINT ENERGY     -1288.434573760017
Dispersion correction            ... done

DIPOLE MOMENT
-------------
                                X             Y             Z
Electronic contribution:     23.00646     -59.98782     132.36285
Nuclear contribution   :    -23.02298      59.70799    -132.79628
                        -----------------------------------------
Total Dipole Moment    :     -0.01652      -0.27983      -0.43344
                        -----------------------------------------
Magnitude (a.u.)       :      0.51618
Magnitude (Debye)      :      1.31203

Rotational constants in cm-1:     0.011932     0.007644     0.006765
Rotational constants in MHz :   357.711755   229.158772   202.805081

                             ****ORCA TERMINATED NORMALLY****
TOTAL RUN TIME: 0 days 0 hours 5 minutes 13 seconds 635 msec
