                         Program Version 5.0.3 -  RELEASE  -
|  1> ! EnGrad PBEh-3c
|  2> %output
|  3> xyzfile=True
|  4> end
|  5> %scf
|  6> maxiter 250
|  7> end
|  8> %output
|  9> Print[P_Hirshfeld] = 1
| 10> end
| 11> % maxcore
| 12> 4000
| 13> *xyz 0 1
| 14> Lu   0.19219060   0.24297425  -0.14337510
| 15> C    0.34967855   0.99802407   2.38784689
| 16> C    1.32697548  -0.00328560   2.20105477
| 17> C    2.27730776   0.44955336   1.26739431
| 18> C    1.93650582   1.77955452   0.94627952
| 19> C    0.70909122   2.08641531   1.57668133
| 20> H    2.49430201   2.43395520   0.29058557
| 21> H    0.21770892   3.04814894   1.57862827
| 22> H   -0.47078133   0.97680192   3.09041741
| 23> H    1.37577825  -0.94437978   2.73067742
| 24> H    3.16486702  -0.07842119   0.95194541
| 25> C    1.02655791  -0.05907806  -2.57396952
| 26> C   -0.29153851  -0.56375514  -2.56466002
| 27> C    1.00995766  -1.93295405  -1.29905271
| 28> C    1.82277004  -0.87499468  -1.74629661
| 29> H    1.35908216   0.82435586  -3.10031580
| 30> C   -0.27650805  -1.77541454  -1.85939338
| 31> H   -1.10943038  -0.21717809  -3.17750280
| 32> H    2.87866782  -0.75704011  -1.55504702
| 33> H    1.35377131  -2.76895408  -0.70549210
| 34> H   -1.11414901  -2.45660979  -1.79467659
| 35> C   -2.48372685  -1.62529377   1.38244592
| 36> H   -2.56635432  -1.39315815   2.42557032
| 37> H   -3.05050692  -2.49902259   1.06680466
| 38> H   -2.68369040  -0.77669849   0.73896433
| 39> C   -1.90080349   1.72962802  -0.69589213
| 40> H   -1.00645294  -1.83392971   1.15058628
| 41> H   -1.45972382   2.52418845  -1.30739764
| 42> H   -2.46558208   2.25045013   0.08095970
| 43> H   -2.61597445   1.21612016  -1.34376999
| 44> *
| 45>
| 46>                          ****END OF INPUT****

CARTESIAN COORDINATES (ANGSTROEM)
---------------------------------
  Lu     0.192191    0.242974   -0.143375
  C      0.349679    0.998024    2.387847
  C      1.326975   -0.003286    2.201055
  C      2.277308    0.449553    1.267394
  C      1.936506    1.779555    0.946280
  C      0.709091    2.086415    1.576681
  H      2.494302    2.433955    0.290586
  H      0.217709    3.048149    1.578628
  H     -0.470781    0.976802    3.090417
  H      1.375778   -0.944380    2.730677
  H      3.164867   -0.078421    0.951945
  C      1.026558   -0.059078   -2.573970
  C     -0.291539   -0.563755   -2.564660
  C      1.009958   -1.932954   -1.299053
  C      1.822770   -0.874995   -1.746297
  H      1.359082    0.824356   -3.100316
  C     -0.276508   -1.775415   -1.859393
  H     -1.109430   -0.217178   -3.177503
  H      2.878668   -0.757040   -1.555047
  H      1.353771   -2.768954   -0.705492
  H     -1.114149   -2.456610   -1.794677
  C     -2.483727   -1.625294    1.382446
  H     -2.566354   -1.393158    2.425570
  H     -3.050507   -2.499023    1.066805
  H     -2.683690   -0.776698    0.738964
  C     -1.900803    1.729628   -0.695892
  H     -1.006453   -1.833930    1.150586
  H     -1.459724    2.524188   -1.307398
  H     -2.465582    2.250450    0.080960
  H     -2.615974    1.216120   -1.343770

 Total Charge           Charge          ....    0
 Multiplicity           Mult            ....    1
 Number of Electrons    NEL             ....  132
 Basis Dimension        Dim             ....  295

ORBITAL ENERGIES
----------------

  NO   OCC          E(Eh)            E(eV)
   0   2.0000     -19.255186      -523.9603
   1   2.0000     -12.627820      -343.6204
   2   2.0000     -12.625045      -343.5450
   3   2.0000     -12.624811      -343.5386
   4   2.0000     -10.481468      -285.2152
   5   2.0000     -10.448865      -284.3281
   6   2.0000     -10.447705      -284.2965
   7   2.0000     -10.447582      -284.2932
   8   2.0000     -10.447308      -284.2857
   9   2.0000     -10.447077      -284.2794
  10   2.0000     -10.446681      -284.2686
  11   2.0000     -10.445952      -284.2488
  12   2.0000     -10.445231      -284.2292
  13   2.0000     -10.444120      -284.1989
  14   2.0000     -10.440939      -284.1124
  15   2.0000     -10.357811      -281.8504
  16   2.0000      -5.896837      -160.4611
  17   2.0000      -5.896442      -160.4503
  18   2.0000      -5.896039      -160.4394
  19   2.0000      -5.894427      -160.3955
  20   2.0000      -5.894281      -160.3915
  21   2.0000      -2.438493       -66.3548
  22   2.0000      -1.277069       -34.7508
  23   2.0000      -1.276292       -34.7297
  24   2.0000      -1.263943       -34.3936
  25   2.0000      -0.983251       -26.7556
  26   2.0000      -0.973626       -26.4937
  27   2.0000      -0.797975       -21.7140
  28   2.0000      -0.795565       -21.6484
  29   2.0000      -0.793949       -21.6045
  30   2.0000      -0.792037       -21.5524
  31   2.0000      -0.785969       -21.3873
  32   2.0000      -0.684942       -18.6382
  33   2.0000      -0.617209       -16.7951
  34   2.0000      -0.613415       -16.6919
  35   2.0000      -0.611388       -16.6367
  36   2.0000      -0.609914       -16.5966
  37   2.0000      -0.598364       -16.2823
  38   2.0000      -0.593453       -16.1487
  39   2.0000      -0.564570       -15.3627
  40   2.0000      -0.563255       -15.3269
  41   2.0000      -0.562798       -15.3145
  42   2.0000      -0.561725       -15.2853
  43   2.0000      -0.561601       -15.2819
  44   2.0000      -0.559806       -15.2331
  45   2.0000      -0.558594       -15.2001
  46   2.0000      -0.489687       -13.3251
  47   2.0000      -0.483228       -13.1493
  48   2.0000      -0.469087       -12.7645
  49   2.0000      -0.456496       -12.4219
  50   2.0000      -0.454133       -12.3576
  51   2.0000      -0.451010       -12.2726
  52   2.0000      -0.449514       -12.2319
  53   2.0000      -0.434865       -11.8333
  54   2.0000      -0.434002       -11.8098
  55   2.0000      -0.433273       -11.7900
  56   2.0000      -0.432255       -11.7622
  57   2.0000      -0.430701       -11.7200
  58   2.0000      -0.403414       -10.9775
  59   2.0000      -0.382412       -10.4060
  60   2.0000      -0.378319       -10.2946
  61   2.0000      -0.291646        -7.9361
  62   2.0000      -0.286772        -7.8034
  63   2.0000      -0.275901        -7.5077
  64   2.0000      -0.275214        -7.4890
  65   2.0000      -0.230906        -6.2833
  66   0.0000      -0.032332        -0.8798
  67   0.0000       0.002899         0.0789
  68   0.0000       0.030066         0.8181
  69   0.0000       0.051497         1.4013
  70   0.0000       0.057519         1.5652

MULLIKEN ATOMIC CHARGES
-----------------------
   0 Lu:    0.773805
   1 C :   -0.253533
   2 C :   -0.277339
   3 C :   -0.332878
   4 C :   -0.248069
   5 C :   -0.304782
   6 H :    0.243714
   7 H :    0.242248
   8 H :    0.235381
   9 H :    0.238145
  10 H :    0.240396
  11 C :   -0.248984
  12 C :   -0.324217
  13 C :   -0.322132
  14 C :   -0.311091
  15 H :    0.243027
  16 C :   -0.213575
  17 H :    0.236690
  18 H :    0.239922
  19 H :    0.238632
  20 H :    0.235588
  21 C :   -0.813570
  22 H :    0.260223
  23 H :    0.252647
  24 H :    0.294190
  25 C :   -1.011728
  26 H :    0.099162
  27 H :    0.196516
  28 H :    0.198356
  29 H :    0.193255
Sum of atomic charges:    0.0000000

LOEWDIN ATOMIC CHARGES
----------------------
   0 Lu:   -0.043320
   1 C :   -0.131099
   2 C :   -0.142737
   3 C :   -0.143029
   4 C :   -0.139078
   5 C :   -0.123805
   6 H :    0.156878
   7 H :    0.160750
   8 H :    0.155496
   9 H :    0.152701
  10 H :    0.156468
  11 C :   -0.136780
  12 C :   -0.130504
  13 C :   -0.152729
  14 C :   -0.141503
  15 H :    0.156211
  16 C :   -0.128558
  17 H :    0.158813
  18 H :    0.155721
  19 H :    0.153677
  20 H :    0.153156
  21 C :   -0.425016
  22 H :    0.144324
  23 H :    0.144623
  24 H :    0.166243
  25 C :   -0.657963
  26 H :    0.122567
  27 H :    0.124945
  28 H :    0.117339
  29 H :    0.116210

  Mayer bond orders larger than 0.100000
B(  0-Lu,  1-C ) :   0.2469 B(  0-Lu,  2-C ) :   0.2689 B(  0-Lu,  3-C ) :   0.2886
B(  0-Lu,  4-C ) :   0.2817 B(  0-Lu,  5-C ) :   0.2480 B(  0-Lu, 11-C ) :   0.2732
B(  0-Lu, 12-C ) :   0.2385 B(  0-Lu, 13-C ) :   0.2791 B(  0-Lu, 14-C ) :   0.2832
B(  0-Lu, 16-C ) :   0.2420 B(  0-Lu, 21-C ) :   0.1067 B(  0-Lu, 25-C ) :   0.8089
B(  1-C ,  2-C ) :   1.2850 B(  1-C ,  5-C ) :   1.3080 B(  1-C ,  8-H ) :   0.9215
B(  2-C ,  3-C ) :   1.2835 B(  2-C ,  9-H ) :   0.9172 B(  3-C ,  4-C ) :   1.2652
B(  3-C , 10-H ) :   0.9165 B(  4-C ,  5-C ) :   1.2818 B(  4-C ,  6-H ) :   0.9110
B(  5-C ,  7-H ) :   0.9234 B( 11-C , 12-C ) :   1.2826 B( 11-C , 14-C ) :   1.2827
B( 11-C , 15-H ) :   0.9120 B( 12-C , 16-C ) :   1.3128 B( 12-C , 17-H ) :   0.9266
B( 13-C , 14-C ) :   1.2738 B( 13-C , 16-C ) :   1.2820 B( 13-C , 19-H ) :   0.9165
B( 14-C , 18-H ) :   0.9154 B( 16-C , 20-H ) :   0.9186 B( 21-C , 22-H ) :   0.9009
B( 21-C , 23-H ) :   0.9076 B( 21-C , 24-H ) :   0.8681 B( 21-C , 26-H ) :   0.8916
B( 25-C , 27-H ) :   0.9095 B( 25-C , 28-H ) :   0.9237 B( 25-C , 29-H ) :   0.9194

Dispersion correction           -0.017571484
FINAL SINGLE POINT ENERGY     -1702.323078918470
Dispersion correction            ... done

DIPOLE MOMENT
-------------
                                X             Y             Z
Electronic contribution:      2.75140      10.96123      -5.37903
Nuclear contribution   :     -2.46946     -11.80472       5.86695
                        -----------------------------------------
Total Dipole Moment    :      0.28194      -0.84349       0.48792
                        -----------------------------------------
Magnitude (a.u.)       :      1.01441
Magnitude (Debye)      :      2.57843

Rotational constants in cm-1:     0.027642     0.019619     0.016858
Rotational constants in MHz :   828.677027   588.171711   505.384955

                             ****ORCA TERMINATED NORMALLY****
TOTAL RUN TIME: 0 days 0 hours 9 minutes 10 seconds 893 msec
