                         Program Version 5.0.3 -  RELEASE  -
|  1> ! EnGrad PBEh-3c
|  2> %output
|  3> xyzfile=True
|  4> end
|  5> %scf
|  6> maxiter 250
|  7> end
|  8> %output
|  9> Print[P_Hirshfeld] = 1
| 10> end
| 11> % maxcore
| 12> 4000
| 13> *xyz 0 1
| 14> Lu   0.10078034   0.35824465  -0.19857945
| 15> C    0.37069475   0.98819719   2.38692398
| 16> C    1.32697032  -0.02643466   2.16558079
| 17> C    2.28141070   0.45682137   1.25574021
| 18> C    1.92794340   1.78048682   0.92089542
| 19> C    0.73638521   2.10103201   1.61006794
| 20> H    2.49446855   2.44313411   0.28118050
| 21> H    0.21334880   3.04638869   1.57801373
| 22> H   -0.44387777   0.94383182   3.09471852
| 23> H    1.36213861  -0.98567501   2.66805648
| 24> H    3.17690390  -0.06216373   0.94731247
| 25> C    1.02226044  -0.03924110  -2.56452695
| 26> C   -0.27630025  -0.58964444  -2.60218139
| 27> C    1.01924587  -1.91336123  -1.27673096
| 28> C    1.82107902  -0.85454868  -1.73456566
| 29> H    1.35702748   0.83881562  -3.09956656
| 30> C   -0.26764443  -1.76397386  -1.82871948
| 31> H   -1.11287882  -0.21077469  -3.17086452
| 32> H    2.87757712  -0.73766925  -1.54922426
| 33> H    1.35700938  -2.75603473  -0.68346393
| 34> H   -1.07854471  -2.47215034  -1.73076880
| 35> C   -2.45446534  -1.58343730   1.35126700
| 36> H   -2.51187680  -1.41020479   2.43154393
| 37> H   -2.85367789  -2.56677978   1.08562134
| 38> H   -2.95487577  -0.77919237   0.79476631
| 39> C   -1.80521095   1.68281872  -0.70945106
| 40> H   -1.37679892  -1.64375414   1.08350454
| 41> H   -1.43868135   2.52165401  -1.32856106
| 42> H   -2.36231543   2.14827184   0.11971314
| 43> H   -2.55033327   1.16974383  -1.33850793
| 44> *
| 45>
| 46>                          ****END OF INPUT****

CARTESIAN COORDINATES (ANGSTROEM)
---------------------------------
  Lu     0.100780    0.358245   -0.198579
  C      0.370695    0.988197    2.386924
  C      1.326970   -0.026435    2.165581
  C      2.281411    0.456821    1.255740
  C      1.927943    1.780487    0.920895
  C      0.736385    2.101032    1.610068
  H      2.494469    2.443134    0.281180
  H      0.213349    3.046389    1.578014
  H     -0.443878    0.943832    3.094719
  H      1.362139   -0.985675    2.668056
  H      3.176904   -0.062164    0.947312
  C      1.022260   -0.039241   -2.564527
  C     -0.276300   -0.589644   -2.602181
  C      1.019246   -1.913361   -1.276731
  C      1.821079   -0.854549   -1.734566
  H      1.357027    0.838816   -3.099567
  C     -0.267644   -1.763974   -1.828719
  H     -1.112879   -0.210775   -3.170865
  H      2.877577   -0.737669   -1.549224
  H      1.357009   -2.756035   -0.683464
  H     -1.078545   -2.472150   -1.730769
  C     -2.454465   -1.583437    1.351267
  H     -2.511877   -1.410205    2.431544
  H     -2.853678   -2.566780    1.085621
  H     -2.954876   -0.779192    0.794766
  C     -1.805211    1.682819   -0.709451
  H     -1.376799   -1.643754    1.083505
  H     -1.438681    2.521654   -1.328561
  H     -2.362315    2.148272    0.119713
  H     -2.550333    1.169744   -1.338508

 Total Charge           Charge          ....    0
 Multiplicity           Mult            ....    1
 Number of Electrons    NEL             ....  132
 Basis Dimension        Dim             ....  295

ORBITAL ENERGIES
----------------

  NO   OCC          E(Eh)            E(eV)
   0   2.0000     -19.253329      -523.9097
   1   2.0000     -12.625938      -343.5692
   2   2.0000     -12.623374      -343.4995
   3   2.0000     -12.622736      -343.4821
   4   2.0000     -10.446093      -284.2526
   5   2.0000     -10.445342      -284.2322
   6   2.0000     -10.445235      -284.2293
   7   2.0000     -10.444965      -284.2219
   8   2.0000     -10.444585      -284.2116
   9   2.0000     -10.444137      -284.1994
  10   2.0000     -10.444025      -284.1964
  11   2.0000     -10.443843      -284.1914
  12   2.0000     -10.443206      -284.1741
  13   2.0000     -10.442916      -284.1662
  14   2.0000     -10.441282      -284.1217
  15   2.0000     -10.364030      -282.0196
  16   2.0000      -5.894990      -160.4108
  17   2.0000      -5.894700      -160.4029
  18   2.0000      -5.894031      -160.3847
  19   2.0000      -5.892562      -160.3448
  20   2.0000      -5.892357      -160.3392
  21   2.0000      -2.436858       -66.3103
  22   2.0000      -1.275236       -34.7009
  23   2.0000      -1.274065       -34.6691
  24   2.0000      -1.262894       -34.3651
  25   2.0000      -0.979677       -26.6584
  26   2.0000      -0.971673       -26.4406
  27   2.0000      -0.796069       -21.6621
  28   2.0000      -0.793943       -21.6043
  29   2.0000      -0.792427       -21.5630
  30   2.0000      -0.791343       -21.5335
  31   2.0000      -0.790272       -21.5044
  32   2.0000      -0.698517       -19.0076
  33   2.0000      -0.614071       -16.7097
  34   2.0000      -0.611797       -16.6478
  35   2.0000      -0.609629       -16.5888
  36   2.0000      -0.608217       -16.5504
  37   2.0000      -0.595993       -16.2178
  38   2.0000      -0.591134       -16.0856
  39   2.0000      -0.562885       -15.3169
  40   2.0000      -0.561370       -15.2757
  41   2.0000      -0.561183       -15.2706
  42   2.0000      -0.560149       -15.2424
  43   2.0000      -0.559518       -15.2253
  44   2.0000      -0.558188       -15.1891
  45   2.0000      -0.556557       -15.1447
  46   2.0000      -0.473319       -12.8797
  47   2.0000      -0.469204       -12.7677
  48   2.0000      -0.467642       -12.7252
  49   2.0000      -0.457248       -12.4423
  50   2.0000      -0.452967       -12.3259
  51   2.0000      -0.450575       -12.2608
  52   2.0000      -0.449377       -12.2282
  53   2.0000      -0.449160       -12.2223
  54   2.0000      -0.433276       -11.7900
  55   2.0000      -0.432462       -11.7679
  56   2.0000      -0.431757       -11.7487
  57   2.0000      -0.429721       -11.6933
  58   2.0000      -0.428577       -11.6622
  59   2.0000      -0.393410       -10.7052
  60   2.0000      -0.392511       -10.6808
  61   2.0000      -0.291024        -7.9192
  62   2.0000      -0.284101        -7.7308
  63   2.0000      -0.277898        -7.5620
  64   2.0000      -0.264855        -7.2071
  65   2.0000      -0.257371        -7.0034
  66   0.0000      -0.021091        -0.5739
  67   0.0000       0.009429         0.2566
  68   0.0000       0.042821         1.1652
  69   0.0000       0.053543         1.4570
  70   0.0000       0.055782         1.5179

MULLIKEN ATOMIC CHARGES
-----------------------
   0 Lu:    0.862786
   1 C :   -0.283925
   2 C :   -0.284127
   3 C :   -0.278837
   4 C :   -0.312215
   5 C :   -0.279322
   6 H :    0.243188
   7 H :    0.249103
   8 H :    0.234533
   9 H :    0.233134
  10 H :    0.232243
  11 C :   -0.306687
  12 C :   -0.279261
  13 C :   -0.291376
  14 C :   -0.287198
  15 H :    0.243962
  16 C :   -0.270503
  17 H :    0.244689
  18 H :    0.234160
  19 H :    0.232124
  20 H :    0.233320
  21 C :   -0.910674
  22 H :    0.245091
  23 H :    0.245105
  24 H :    0.269663
  25 C :   -1.066189
  26 H :    0.206332
  27 H :    0.212521
  28 H :    0.216713
  29 H :    0.211649
Sum of atomic charges:   -0.0000000

LOEWDIN ATOMIC CHARGES
----------------------
   0 Lu:    0.034414
   1 C :   -0.142828
   2 C :   -0.149965
   3 C :   -0.134206
   4 C :   -0.153188
   5 C :   -0.133507
   6 H :    0.156707
   7 H :    0.160362
   8 H :    0.153394
   9 H :    0.150630
  10 H :    0.151817
  11 C :   -0.149414
  12 C :   -0.132505
  13 C :   -0.149378
  14 C :   -0.138872
  15 H :    0.157042
  16 C :   -0.144145
  17 H :    0.158897
  18 H :    0.152484
  19 H :    0.150993
  20 H :    0.151446
  21 C :   -0.486876
  22 H :    0.140965
  23 H :    0.139895
  24 H :    0.159793
  25 C :   -0.648795
  26 H :    0.140287
  27 H :    0.140907
  28 H :    0.131922
  29 H :    0.131723

  Mayer bond orders larger than 0.100000
B(  0-Lu,  1-C ) :   0.2468 B(  0-Lu,  2-C ) :   0.2508 B(  0-Lu,  3-C ) :   0.2498
B(  0-Lu,  4-C ) :   0.2894 B(  0-Lu,  5-C ) :   0.2438 B(  0-Lu, 11-C ) :   0.2867
B(  0-Lu, 12-C ) :   0.2337 B(  0-Lu, 13-C ) :   0.2525 B(  0-Lu, 14-C ) :   0.2595
B(  0-Lu, 16-C ) :   0.2485 B(  0-Lu, 25-C ) :   0.8271 B(  1-C ,  2-C ) :   1.2825
B(  1-C ,  5-C ) :   1.3155 B(  1-C ,  8-H ) :   0.9205 B(  2-C ,  3-C ) :   1.3118
B(  2-C ,  9-H ) :   0.9188 B(  3-C ,  4-C ) :   1.2816 B(  3-C , 10-H ) :   0.9208
B(  4-C ,  5-C ) :   1.2743 B(  4-C ,  6-H ) :   0.9131 B(  5-C ,  7-H ) :   0.9124
B( 11-C , 12-C ) :   1.2854 B( 11-C , 14-C ) :   1.2807 B( 11-C , 15-H ) :   0.9120
B( 12-C , 16-C ) :   1.3139 B( 12-C , 17-H ) :   0.9154 B( 13-C , 14-C ) :   1.3007
B( 13-C , 16-C ) :   1.2870 B( 13-C , 19-H ) :   0.9199 B( 14-C , 18-H ) :   0.9189
B( 16-C , 20-H ) :   0.9198 B( 21-C , 22-H ) :   0.9171 B( 21-C , 23-H ) :   0.9177
B( 21-C , 24-H ) :   0.8993 B( 21-C , 26-H ) :   0.8919 B( 25-C , 27-H ) :   0.8961
B( 25-C , 28-H ) :   0.9102 B( 25-C , 29-H ) :   0.9075

Dispersion correction           -0.017220274
FINAL SINGLE POINT ENERGY     -1702.389254033631
Dispersion correction            ... done

DIPOLE MOMENT
-------------
                                X             Y             Z
Electronic contribution:     -2.08859      16.76664      -8.13987
Nuclear contribution   :      2.27637     -17.39681       8.50140
                        -----------------------------------------
Total Dipole Moment    :      0.18778      -0.63017       0.36153
                        -----------------------------------------
Magnitude (a.u.)       :      0.75039
Magnitude (Debye)      :      1.90733

Rotational constants in cm-1:     0.027707     0.019651     0.017007
Rotational constants in MHz :   830.643852   589.127986   509.843589

                             ****ORCA TERMINATED NORMALLY****
TOTAL RUN TIME: 0 days 0 hours 8 minutes 55 seconds 785 msec
