                         Program Version 5.0.3 -  RELEASE  -
|  1> ! EnGrad PBEh-3c
|  2> %output
|  3> xyzfile=True
|  4> end
|  5> %scf
|  6> maxiter 250
|  7> end
|  8> %output
|  9> Print[P_Hirshfeld] = 1
| 10> end
| 11> % maxcore
| 12> 4000
| 13> *xyz 0 1
| 14> Lu   0.12511868   0.29724403  -0.16770495
| 15> C    0.37314209   0.99107184   2.38938806
| 16> C    1.32104610  -0.02585785   2.20622706
| 17> C    2.29244148   0.46540108   1.28909307
| 18> C    1.92195181   1.77705932   0.92280636
| 19> C    0.73011454   2.10850770   1.59858308
| 20> H    2.49392575   2.43680938   0.29310160
| 21> H    0.21319148   3.04235865   1.57182888
| 22> H   -0.46327618   0.97189143   3.09462908
| 23> H    1.37529729  -0.95153267   2.72345930
| 24> H    3.16774022  -0.07707293   0.95150308
| 25> C    1.02551217  -0.03711422  -2.55693064
| 26> C   -0.27907553  -0.58468486  -2.60455421
| 27> C    1.01367381  -1.95602576  -1.29273729
| 28> C    1.82340211  -0.87418879  -1.76326016
| 29> H    1.35640500   0.82460857  -3.10172981
| 30> C   -0.27153235  -1.77112038  -1.84283110
| 31> H   -1.11201029  -0.21206334  -3.16701438
| 32> H    2.88002171  -0.75534329  -1.55530552
| 33> H    1.35347417  -2.76940195  -0.70233856
| 34> H   -1.10326449  -2.46496216  -1.79024696
| 35> C   -2.30595425  -1.63909954   1.32331304
| 36> H   -2.56747686  -1.39600920   2.44722984
| 37> H   -3.02070507  -2.51571131   1.07858816
| 38> H   -2.73398539  -0.77672532   0.75058402
| 39> C   -1.84501667   1.69270614  -0.68751973
| 40> H   -1.23142803  -1.77235713   1.15979580
| 41> H   -1.45836377   2.52628763  -1.31298700
| 42> H   -2.46490429   2.24163461   0.08597468
| 43> H   -2.61555321   1.21344094  -1.34447999
| 44> *
| 45>
| 46>                          ****END OF INPUT****

CARTESIAN COORDINATES (ANGSTROEM)
---------------------------------
  Lu     0.125119    0.297244   -0.167705
  C      0.373142    0.991072    2.389388
  C      1.321046   -0.025858    2.206227
  C      2.292441    0.465401    1.289093
  C      1.921952    1.777059    0.922806
  C      0.730115    2.108508    1.598583
  H      2.493926    2.436809    0.293102
  H      0.213191    3.042359    1.571829
  H     -0.463276    0.971891    3.094629
  H      1.375297   -0.951533    2.723459
  H      3.167740   -0.077073    0.951503
  C      1.025512   -0.037114   -2.556931
  C     -0.279076   -0.584685   -2.604554
  C      1.013674   -1.956026   -1.292737
  C      1.823402   -0.874189   -1.763260
  H      1.356405    0.824609   -3.101730
  C     -0.271532   -1.771120   -1.842831
  H     -1.112010   -0.212063   -3.167014
  H      2.880022   -0.755343   -1.555306
  H      1.353474   -2.769402   -0.702339
  H     -1.103264   -2.464962   -1.790247
  C     -2.305954   -1.639100    1.323313
  H     -2.567477   -1.396009    2.447230
  H     -3.020705   -2.515711    1.078588
  H     -2.733985   -0.776725    0.750584
  C     -1.845017    1.692706   -0.687520
  H     -1.231428   -1.772357    1.159796
  H     -1.458364    2.526288   -1.312987
  H     -2.464904    2.241635    0.085975
  H     -2.615553    1.213441   -1.344480

 Total Charge           Charge          ....    0
 Multiplicity           Mult            ....    1
 Number of Electrons    NEL             ....  132
 Basis Dimension        Dim             ....  295

ORBITAL ENERGIES
----------------

  NO   OCC          E(Eh)            E(eV)
   0   2.0000     -19.259029      -524.0648
   1   2.0000     -12.631699      -343.7260
   2   2.0000     -12.628999      -343.6525
   3   2.0000     -12.628544      -343.6402
   4   2.0000     -10.458767      -284.5975
   5   2.0000     -10.449440      -284.3437
   6   2.0000     -10.448987      -284.3314
   7   2.0000     -10.448146      -284.3085
   8   2.0000     -10.447904      -284.3019
   9   2.0000     -10.447281      -284.2850
  10   2.0000     -10.447204      -284.2829
  11   2.0000     -10.445982      -284.2496
  12   2.0000     -10.444682      -284.2143
  13   2.0000     -10.443376      -284.1787
  14   2.0000     -10.442255      -284.1482
  15   2.0000     -10.369115      -282.1580
  16   2.0000      -5.900744      -160.5674
  17   2.0000      -5.900401      -160.5581
  18   2.0000      -5.899859      -160.5433
  19   2.0000      -5.898291      -160.5007
  20   2.0000      -5.898111      -160.4958
  21   2.0000      -2.442292       -66.4581
  22   2.0000      -1.280396       -34.8413
  23   2.0000      -1.278908       -34.8009
  24   2.0000      -1.267287       -34.4846
  25   2.0000      -0.979367       -26.6499
  26   2.0000      -0.971070       -26.4242
  27   2.0000      -0.796927       -21.6855
  28   2.0000      -0.795802       -21.6549
  29   2.0000      -0.792795       -21.5731
  30   2.0000      -0.789811       -21.4918
  31   2.0000      -0.783859       -21.3299
  32   2.0000      -0.689239       -18.7551
  33   2.0000      -0.617619       -16.8063
  34   2.0000      -0.614320       -16.7165
  35   2.0000      -0.612385       -16.6638
  36   2.0000      -0.610674       -16.6173
  37   2.0000      -0.598122       -16.2757
  38   2.0000      -0.592798       -16.1308
  39   2.0000      -0.568532       -15.4705
  40   2.0000      -0.567055       -15.4304
  41   2.0000      -0.566843       -15.4246
  42   2.0000      -0.565811       -15.3965
  43   2.0000      -0.565319       -15.3831
  44   2.0000      -0.563728       -15.3398
  45   2.0000      -0.562293       -15.3008
  46   2.0000      -0.493119       -13.4184
  47   2.0000      -0.464132       -12.6297
  48   2.0000      -0.457584       -12.4515
  49   2.0000      -0.456807       -12.4304
  50   2.0000      -0.452063       -12.3013
  51   2.0000      -0.448774       -12.2118
  52   2.0000      -0.448470       -12.2035
  53   2.0000      -0.438140       -11.9224
  54   2.0000      -0.435175       -11.8417
  55   2.0000      -0.432810       -11.7774
  56   2.0000      -0.432050       -11.7567
  57   2.0000      -0.430814       -11.7230
  58   2.0000      -0.429258       -11.6807
  59   2.0000      -0.381399       -10.3784
  60   2.0000      -0.376249       -10.2383
  61   2.0000      -0.288799        -7.8586
  62   2.0000      -0.288459        -7.8494
  63   2.0000      -0.281118        -7.6496
  64   2.0000      -0.266286        -7.2460
  65   2.0000      -0.254834        -6.9344
  66   0.0000      -0.023271        -0.6332
  67   0.0000       0.005629         0.1532
  68   0.0000       0.042265         1.1501
  69   0.0000       0.053781         1.4634
  70   0.0000       0.055063         1.4983

MULLIKEN ATOMIC CHARGES
-----------------------
   0 Lu:    0.843274
   1 C :   -0.278570
   2 C :   -0.300799
   3 C :   -0.266636
   4 C :   -0.323894
   5 C :   -0.262793
   6 H :    0.243996
   7 H :    0.249730
   8 H :    0.236149
   9 H :    0.236945
  10 H :    0.235322
  11 C :   -0.318078
  12 C :   -0.261326
  13 C :   -0.299123
  14 C :   -0.276708
  15 H :    0.244729
  16 C :   -0.278609
  17 H :    0.246253
  18 H :    0.235844
  19 H :    0.237153
  20 H :    0.235382
  21 C :   -0.913771
  22 H :    0.229335
  23 H :    0.239459
  24 H :    0.278537
  25 C :   -1.040014
  26 H :    0.223301
  27 H :    0.203933
  28 H :    0.201399
  29 H :    0.199580
Sum of atomic charges:   -0.0000000

LOEWDIN ATOMIC CHARGES
----------------------
   0 Lu:    0.030631
   1 C :   -0.136906
   2 C :   -0.152712
   3 C :   -0.134298
   4 C :   -0.150567
   5 C :   -0.129367
   6 H :    0.156915
   7 H :    0.161239
   8 H :    0.154493
   9 H :    0.152208
  10 H :    0.152397
  11 C :   -0.148687
  12 C :   -0.130427
  13 C :   -0.154002
  14 C :   -0.135429
  15 H :    0.157505
  16 C :   -0.139827
  17 H :    0.159454
  18 H :    0.152557
  19 H :    0.152213
  20 H :    0.152885
  21 C :   -0.497081
  22 H :    0.139902
  23 H :    0.143681
  24 H :    0.165835
  25 C :   -0.647513
  26 H :    0.147478
  27 H :    0.132081
  28 H :    0.122777
  29 H :    0.122563

  Mayer bond orders larger than 0.100000
B(  0-Lu,  1-C ) :   0.2494 B(  0-Lu,  2-C ) :   0.2624 B(  0-Lu,  3-C ) :   0.2620
B(  0-Lu,  4-C ) :   0.2893 B(  0-Lu,  5-C ) :   0.2444 B(  0-Lu, 11-C ) :   0.2854
B(  0-Lu, 12-C ) :   0.2349 B(  0-Lu, 13-C ) :   0.2648 B(  0-Lu, 14-C ) :   0.2653
B(  0-Lu, 16-C ) :   0.2509 B(  0-Lu, 25-C ) :   0.8119 B(  1-C ,  2-C ) :   1.2860
B(  1-C ,  5-C ) :   1.3114 B(  1-C ,  8-H ) :   0.9193 B(  2-C ,  3-C ) :   1.2928
B(  2-C ,  9-H ) :   0.9203 B(  3-C ,  4-C ) :   1.2836 B(  3-C , 10-H ) :   0.9158
B(  4-C ,  5-C ) :   1.2752 B(  4-C ,  6-H ) :   0.9151 B(  5-C ,  7-H ) :   0.9150
B( 11-C , 12-C ) :   1.2786 B( 11-C , 14-C ) :   1.2882 B( 11-C , 15-H ) :   0.9155
B( 12-C , 16-C ) :   1.3173 B( 12-C , 17-H ) :   0.9158 B( 13-C , 14-C ) :   1.2866
B( 13-C , 16-C ) :   1.2839 B( 13-C , 19-H ) :   0.9183 B( 14-C , 18-H ) :   0.9161
B( 16-C , 20-H ) :   0.9204 B( 21-C , 22-H ) :   0.9222 B( 21-C , 23-H ) :   0.9190
B( 21-C , 24-H ) :   0.8801 B( 21-C , 26-H ) :   0.8891 B( 25-C , 27-H ) :   0.8987
B( 25-C , 28-H ) :   0.9191 B( 25-C , 29-H ) :   0.9125

Dispersion correction           -0.017152883
FINAL SINGLE POINT ENERGY     -1702.371668473244
Dispersion correction            ... done

DIPOLE MOMENT
-------------
                                X             Y             Z
Electronic contribution:     -0.96552      13.88542      -6.65991
Nuclear contribution   :      1.23350     -14.56949       7.01925
                        -----------------------------------------
Total Dipole Moment    :      0.26798      -0.68407       0.35934
                        -----------------------------------------
Magnitude (a.u.)       :      0.81786
Magnitude (Debye)      :      2.07882

Rotational constants in cm-1:     0.028064     0.019459     0.017040
Rotational constants in MHz :   841.343608   583.372169   510.860371

                             ****ORCA TERMINATED NORMALLY****
TOTAL RUN TIME: 0 days 0 hours 9 minutes 16 seconds 815 msec
