                         Program Version 5.0.3 -  RELEASE  -
|  1> ! EnGrad PBEh-3c
|  2> %output
|  3> xyzfile=True
|  4> end
|  5> %scf
|  6> maxiter 250
|  7> end
|  8> %output
|  9> Print[P_Hirshfeld] = 1
| 10> end
| 11> % maxcore
| 12> 4000
| 13> *xyz 0 1
| 14> Lu   0.06737455   0.34364263  -0.18763960
| 15> C    0.37410606   0.99563171   2.39672382
| 16> C    1.32816660  -0.02536859   2.19006356
| 17> C    2.29694273   0.47024248   1.30707527
| 18> C    1.91387140   1.77230482   0.90708162
| 19> C    0.74756013   2.10800070   1.61911807
| 20> H    2.49494020   2.44039452   0.29153579
| 21> H    0.20576689   3.04547751   1.56591903
| 22> H   -0.45214918   0.96701173   3.08992485
| 23> H    1.37364675  -0.96960598   2.72387972
| 24> H    3.16806261  -0.07360625   0.95220556
| 25> C    1.01765308  -0.02667936  -2.54534868
| 26> C   -0.26225503  -0.60458715  -2.62636675
| 27> C    1.01919829  -1.94253721  -1.30292318
| 28> C    1.82248808  -0.88649620  -1.76335220
| 29> H    1.35697180   0.83111445  -3.10491178
| 30> C   -0.27355512  -1.76723628  -1.83234281
| 31> H   -1.11737175  -0.20568924  -3.16198801
| 32> H    2.87837661  -0.75311378  -1.55639314
| 33> H    1.35704139  -2.78106700  -0.69193045
| 34> H   -1.09424662  -2.46841931  -1.78307310
| 35> C   -2.25411617  -1.63895852   1.31775406
| 36> H   -2.54781850  -1.40736835   2.41783626
| 37> H   -2.96301541  -2.50601082   1.08933117
| 38> H   -2.75600640  -0.78938656   0.76556591
| 39> C   -1.81727773   1.67287631  -0.68008263
| 40> H   -1.38713268  -1.73870804   1.16632003
| 41> H   -1.45791516   2.52237151  -1.31457538
| 42> H   -2.44818285   2.22136871   0.08005267
| 43> H   -2.60296763   1.21420600  -1.33714643
| 44> *
| 45>
| 46>                          ****END OF INPUT****

CARTESIAN COORDINATES (ANGSTROEM)
---------------------------------
  Lu     0.067375    0.343643   -0.187640
  C      0.374106    0.995632    2.396724
  C      1.328167   -0.025369    2.190064
  C      2.296943    0.470242    1.307075
  C      1.913871    1.772305    0.907082
  C      0.747560    2.108001    1.619118
  H      2.494940    2.440395    0.291536
  H      0.205767    3.045478    1.565919
  H     -0.452149    0.967012    3.089925
  H      1.373647   -0.969606    2.723880
  H      3.168063   -0.073606    0.952206
  C      1.017653   -0.026679   -2.545349
  C     -0.262255   -0.604587   -2.626367
  C      1.019198   -1.942537   -1.302923
  C      1.822488   -0.886496   -1.763352
  H      1.356972    0.831114   -3.104912
  C     -0.273555   -1.767236   -1.832343
  H     -1.117372   -0.205689   -3.161988
  H      2.878377   -0.753114   -1.556393
  H      1.357041   -2.781067   -0.691930
  H     -1.094247   -2.468419   -1.783073
  C     -2.254116   -1.638959    1.317754
  H     -2.547818   -1.407368    2.417836
  H     -2.963015   -2.506011    1.089331
  H     -2.756006   -0.789387    0.765566
  C     -1.817278    1.672876   -0.680083
  H     -1.387133   -1.738708    1.166320
  H     -1.457915    2.522372   -1.314575
  H     -2.448183    2.221369    0.080053
  H     -2.602968    1.214206   -1.337146

 Total Charge           Charge          ....    0
 Multiplicity           Mult            ....    1
 Number of Electrons    NEL             ....  132
 Basis Dimension        Dim             ....  295

ORBITAL ENERGIES
----------------

  NO   OCC          E(Eh)            E(eV)
   0   2.0000     -19.259320      -524.0727
   1   2.0000     -12.631837      -343.7298
   2   2.0000     -12.629401      -343.6635
   3   2.0000     -12.628869      -343.6490
   4   2.0000     -10.447005      -284.2775
   5   2.0000     -10.446630      -284.2672
   6   2.0000     -10.445860      -284.2463
   7   2.0000     -10.445838      -284.2457
   8   2.0000     -10.444072      -284.1976
   9   2.0000     -10.443610      -284.1851
  10   2.0000     -10.442822      -284.1636
  11   2.0000     -10.442375      -284.1515
  12   2.0000     -10.442135      -284.1449
  13   2.0000     -10.441726      -284.1338
  14   2.0000     -10.435948      -283.9766
  15   2.0000     -10.372322      -282.2452
  16   2.0000      -5.900946      -160.5729
  17   2.0000      -5.900672      -160.5654
  18   2.0000      -5.900087      -160.5495
  19   2.0000      -5.898698      -160.5117
  20   2.0000      -5.898479      -160.5058
  21   2.0000      -2.442662       -66.4682
  22   2.0000      -1.280504       -34.8443
  23   2.0000      -1.278317       -34.7848
  24   2.0000      -1.268440       -34.5160
  25   2.0000      -0.979185       -26.6450
  26   2.0000      -0.972041       -26.4506
  27   2.0000      -0.812022       -22.0962
  28   2.0000      -0.793100       -21.5813
  29   2.0000      -0.792174       -21.5562
  30   2.0000      -0.791580       -21.5400
  31   2.0000      -0.788888       -21.4667
  32   2.0000      -0.698850       -19.0167
  33   2.0000      -0.613154       -16.6848
  34   2.0000      -0.610375       -16.6091
  35   2.0000      -0.608377       -16.5548
  36   2.0000      -0.608041       -16.5456
  37   2.0000      -0.594808       -16.1856
  38   2.0000      -0.590303       -16.0630
  39   2.0000      -0.568741       -15.4762
  40   2.0000      -0.567259       -15.4359
  41   2.0000      -0.567128       -15.4323
  42   2.0000      -0.566169       -15.4062
  43   2.0000      -0.565565       -15.3898
  44   2.0000      -0.564260       -15.3543
  45   2.0000      -0.562718       -15.3123
  46   2.0000      -0.532815       -14.4986
  47   2.0000      -0.464317       -12.6347
  48   2.0000      -0.451901       -12.2968
  49   2.0000      -0.451189       -12.2775
  50   2.0000      -0.450258       -12.2522
  51   2.0000      -0.446802       -12.1581
  52   2.0000      -0.444721       -12.1015
  53   2.0000      -0.437164       -11.8958
  54   2.0000      -0.434700       -11.8288
  55   2.0000      -0.431327       -11.7370
  56   2.0000      -0.430890       -11.7251
  57   2.0000      -0.427989       -11.6462
  58   2.0000      -0.427619       -11.6361
  59   2.0000      -0.386630       -10.5207
  60   2.0000      -0.382541       -10.4095
  61   2.0000      -0.288532        -7.8514
  62   2.0000      -0.285261        -7.7623
  63   2.0000      -0.279973        -7.6185
  64   2.0000      -0.270286        -7.3548
  65   2.0000      -0.262466        -7.1421
  66   0.0000      -0.021846        -0.5944
  67   0.0000       0.010415         0.2834
  68   0.0000       0.044614         1.2140
  69   0.0000       0.052348         1.4245
  70   0.0000       0.056261         1.5309

MULLIKEN ATOMIC CHARGES
-----------------------
   0 Lu:    0.900763
   1 C :   -0.293073
   2 C :   -0.322243
   3 C :   -0.212719
   4 C :   -0.381773
   5 C :   -0.238809
   6 H :    0.242215
   7 H :    0.250635
   8 H :    0.236527
   9 H :    0.232188
  10 H :    0.231578
  11 C :   -0.376671
  12 C :   -0.217916
  13 C :   -0.281628
  14 C :   -0.246602
  15 H :    0.243578
  16 C :   -0.324621
  17 H :    0.248459
  18 H :    0.232736
  19 H :    0.232673
  20 H :    0.233969
  21 C :   -0.970844
  22 H :    0.231221
  23 H :    0.241439
  24 H :    0.266145
  25 C :   -1.080953
  26 H :    0.284329
  27 H :    0.212538
  28 H :    0.215428
  29 H :    0.211431
Sum of atomic charges:   -0.0000000

LOEWDIN ATOMIC CHARGES
----------------------
   0 Lu:    0.070818
   1 C :   -0.147666
   2 C :   -0.157122
   3 C :   -0.128031
   4 C :   -0.164539
   5 C :   -0.129891
   6 H :    0.156771
   7 H :    0.160478
   8 H :    0.153424
   9 H :    0.151217
  10 H :    0.149985
  11 C :   -0.161523
  12 C :   -0.127369
  13 C :   -0.149693
  14 C :   -0.134643
  15 H :    0.157771
  16 C :   -0.155184
  17 H :    0.158879
  18 H :    0.150894
  19 H :    0.151217
  20 H :    0.152726
  21 C :   -0.501602
  22 H :    0.143292
  23 H :    0.146114
  24 H :    0.167673
  25 C :   -0.643358
  26 H :    0.126839
  27 H :    0.140830
  28 H :    0.130816
  29 H :    0.130876

  Mayer bond orders larger than 0.100000
B(  0-Lu,  1-C ) :   0.2489 B(  0-Lu,  2-C ) :   0.2511 B(  0-Lu,  3-C ) :   0.2327
B(  0-Lu,  4-C ) :   0.2960 B(  0-Lu,  5-C ) :   0.2369 B(  0-Lu, 11-C ) :   0.2961
B(  0-Lu, 12-C ) :   0.2262 B(  0-Lu, 13-C ) :   0.2429 B(  0-Lu, 14-C ) :   0.2433
B(  0-Lu, 16-C ) :   0.2570 B(  0-Lu, 25-C ) :   0.8123 B(  1-C ,  2-C ) :   1.2742
B(  1-C ,  5-C ) :   1.3217 B(  1-C ,  8-H ) :   0.9189 B(  2-C ,  3-C ) :   1.3217
B(  2-C ,  9-H ) :   0.9212 B(  3-C ,  4-C ) :   1.2801 B(  3-C , 10-H ) :   0.9156
B(  4-C ,  5-C ) :   1.2697 B(  4-C ,  6-H ) :   0.9178 B(  5-C ,  7-H ) :   0.9092
B( 11-C , 12-C ) :   1.2825 B( 11-C , 14-C ) :   1.2734 B( 11-C , 15-H ) :   0.9169
B( 12-C , 16-C ) :   1.3151 B( 12-C , 17-H ) :   0.9089 B( 13-C , 14-C ) :   1.3204
B( 13-C , 16-C ) :   1.2776 B( 13-C , 19-H ) :   0.9181 B( 14-C , 18-H ) :   0.9168
B( 16-C , 20-H ) :   0.9222 B( 21-C , 22-H ) :   0.9285 B( 21-C , 23-H ) :   0.9248
B( 21-C , 24-H ) :   0.8948 B( 21-C , 26-H ) :   0.8649 B( 25-C , 27-H ) :   0.8917
B( 25-C , 28-H ) :   0.9122 B( 25-C , 29-H ) :   0.9060

Dispersion correction           -0.017168036
FINAL SINGLE POINT ENERGY     -1702.334208277977
Dispersion correction            ... done

DIPOLE MOMENT
-------------
                                X             Y             Z
Electronic contribution:     -4.15809      16.30912      -7.69839
Nuclear contribution   :      4.24146     -16.88844       8.01249
                        -----------------------------------------
Total Dipole Moment    :      0.08337      -0.57932       0.31410
                        -----------------------------------------
Magnitude (a.u.)       :      0.66425
Magnitude (Debye)      :      1.68839

Rotational constants in cm-1:     0.028096     0.019376     0.017069
Rotational constants in MHz :   842.292904   580.891566   511.705011

                             ****ORCA TERMINATED NORMALLY****
TOTAL RUN TIME: 0 days 0 hours 8 minutes 40 seconds 435 msec
