                         Program Version 5.0.3 -  RELEASE  -
|  1> ! EnGrad PBEh-3c
|  2> %output
|  3> xyzfile=True
|  4> end
|  5> %scf
|  6> maxiter 250
|  7> end
|  8> %output
|  9> Print[P_Hirshfeld] = 1
| 10> end
| 11> % maxcore
| 12> 4000
| 13> *xyz 0 1
| 14> Lu   0.06832111   0.34757633  -0.18940716
| 15> C    0.36792687   1.00041885   2.39962503
| 16> C    1.33436885  -0.01932788   2.18334663
| 17> C    2.29643330   0.46604530   1.30311829
| 18> C    1.91886739   1.77043946   0.91067599
| 19> C    0.74576076   2.10167514   1.62300716
| 20> H    2.49641141   2.44214726   0.29031229
| 21> H    0.20522996   3.04684729   1.56706848
| 22> H   -0.44679610   0.96595512   3.08993295
| 23> H    1.37340433  -0.97515865   2.72338188
| 24> H    3.16708596  -0.07112503   0.95301024
| 25> C    1.01661433  -0.03186197  -2.54801222
| 26> C   -0.26274833  -0.60653885  -2.62263758
| 27> C    1.02376805  -1.93229298  -1.30635581
| 28> C    1.82412268  -0.89001323  -1.75660736
| 29> H    1.35793424   0.83406679  -3.10648360
| 30> C   -0.27653171  -1.76742589  -1.83559362
| 31> H   -1.11717203  -0.20670590  -3.16242776
| 32> H    2.87670701  -0.75262279  -1.55706486
| 33> H    1.35825483  -2.78300794  -0.68928838
| 34> H   -1.09150916  -2.46992281  -1.78185837
| 35> C   -2.42329325  -1.61423499   1.36216224
| 36> H   -2.52971850  -1.41608010   2.38618346
| 37> H   -2.93120486  -2.49531427   1.09161755
| 38> H   -2.75783923  -0.80411750   0.77510905
| 39> C   -1.83160557   1.68252754  -0.68217299
| 40> H   -1.28902134  -1.74321566   1.14146178
| 41> H   -1.45818280   2.51725398  -1.31190246
| 42> H   -2.43635665   2.21063115   0.07259405
| 43> H   -2.59232925   1.21535628  -1.33168645
| 44> *
| 45>
| 46>                          ****END OF INPUT****

CARTESIAN COORDINATES (ANGSTROEM)
---------------------------------
  Lu     0.068321    0.347576   -0.189407
  C      0.367927    1.000419    2.399625
  C      1.334369   -0.019328    2.183347
  C      2.296433    0.466045    1.303118
  C      1.918867    1.770439    0.910676
  C      0.745761    2.101675    1.623007
  H      2.496411    2.442147    0.290312
  H      0.205230    3.046847    1.567068
  H     -0.446796    0.965955    3.089933
  H      1.373404   -0.975159    2.723382
  H      3.167086   -0.071125    0.953010
  C      1.016614   -0.031862   -2.548012
  C     -0.262748   -0.606539   -2.622638
  C      1.023768   -1.932293   -1.306356
  C      1.824123   -0.890013   -1.756607
  H      1.357934    0.834067   -3.106484
  C     -0.276532   -1.767426   -1.835594
  H     -1.117172   -0.206706   -3.162428
  H      2.876707   -0.752623   -1.557065
  H      1.358255   -2.783008   -0.689288
  H     -1.091509   -2.469923   -1.781858
  C     -2.423293   -1.614235    1.362162
  H     -2.529718   -1.416080    2.386183
  H     -2.931205   -2.495314    1.091618
  H     -2.757839   -0.804118    0.775109
  C     -1.831606    1.682528   -0.682173
  H     -1.289021   -1.743216    1.141462
  H     -1.458183    2.517254   -1.311902
  H     -2.436357    2.210631    0.072594
  H     -2.592329    1.215356   -1.331686

 Total Charge           Charge          ....    0
 Multiplicity           Mult            ....    1
 Number of Electrons    NEL             ....  132
 Basis Dimension        Dim             ....  295

ORBITAL ENERGIES
----------------

  NO   OCC          E(Eh)            E(eV)
   0   2.0000     -19.259008      -524.0643
   1   2.0000     -12.631473      -343.7199
   2   2.0000     -12.629092      -343.6551
   3   2.0000     -12.628614      -343.6421
   4   2.0000     -10.446453      -284.2624
   5   2.0000     -10.446268      -284.2574
   6   2.0000     -10.445684      -284.2415
   7   2.0000     -10.444686      -284.2143
   8   2.0000     -10.443379      -284.1788
   9   2.0000     -10.443277      -284.1760
  10   2.0000     -10.442521      -284.1554
  11   2.0000     -10.442220      -284.1473
  12   2.0000     -10.442103      -284.1441
  13   2.0000     -10.441604      -284.1305
  14   2.0000     -10.436021      -283.9786
  15   2.0000     -10.366828      -282.0957
  16   2.0000      -5.900597      -160.5634
  17   2.0000      -5.900331      -160.5562
  18   2.0000      -5.899781      -160.5412
  19   2.0000      -5.898434      -160.5046
  20   2.0000      -5.898211      -160.4985
  21   2.0000      -2.442321       -66.4589
  22   2.0000      -1.279876       -34.8272
  23   2.0000      -1.278047       -34.7774
  24   2.0000      -1.268063       -34.5058
  25   2.0000      -0.980054       -26.6686
  26   2.0000      -0.972878       -26.4734
  27   2.0000      -0.804275       -21.8854
  28   2.0000      -0.795114       -21.6361
  29   2.0000      -0.791712       -21.5436
  30   2.0000      -0.789788       -21.4912
  31   2.0000      -0.789291       -21.4777
  32   2.0000      -0.702896       -19.1268
  33   2.0000      -0.612881       -16.6773
  34   2.0000      -0.610457       -16.6114
  35   2.0000      -0.608117       -16.5477
  36   2.0000      -0.607249       -16.5241
  37   2.0000      -0.593896       -16.1607
  38   2.0000      -0.590100       -16.0574
  39   2.0000      -0.568349       -15.4656
  40   2.0000      -0.566923       -15.4268
  41   2.0000      -0.566739       -15.4217
  42   2.0000      -0.565831       -15.3970
  43   2.0000      -0.565268       -15.3817
  44   2.0000      -0.564043       -15.3484
  45   2.0000      -0.562481       -15.3059
  46   2.0000      -0.481826       -13.1111
  47   2.0000      -0.479981       -13.0609
  48   2.0000      -0.467645       -12.7253
  49   2.0000      -0.456479       -12.4214
  50   2.0000      -0.452418       -12.3109
  51   2.0000      -0.449746       -12.2382
  52   2.0000      -0.447935       -12.1889
  53   2.0000      -0.447472       -12.1763
  54   2.0000      -0.435621       -11.8539
  55   2.0000      -0.431217       -11.7340
  56   2.0000      -0.429908       -11.6984
  57   2.0000      -0.427934       -11.6447
  58   2.0000      -0.426777       -11.6132
  59   2.0000      -0.390131       -10.6160
  60   2.0000      -0.389170       -10.5899
  61   2.0000      -0.290534        -7.9058
  62   2.0000      -0.283112        -7.7039
  63   2.0000      -0.277263        -7.5447
  64   2.0000      -0.267302        -7.2737
  65   2.0000      -0.264586        -7.1997
  66   0.0000      -0.022770        -0.6196
  67   0.0000       0.009964         0.2711
  68   0.0000       0.043671         1.1883
  69   0.0000       0.053667         1.4603
  70   0.0000       0.056269         1.5312

MULLIKEN ATOMIC CHARGES
-----------------------
   0 Lu:    0.887952
   1 C :   -0.290000
   2 C :   -0.320492
   3 C :   -0.213863
   4 C :   -0.377560
   5 C :   -0.244077
   6 H :    0.242020
   7 H :    0.249774
   8 H :    0.235705
   9 H :    0.230246
  10 H :    0.232427
  11 C :   -0.374198
  12 C :   -0.222763
  13 C :   -0.281331
  14 C :   -0.247533
  15 H :    0.243010
  16 C :   -0.319125
  17 H :    0.248001
  18 H :    0.233275
  19 H :    0.230992
  20 H :    0.233127
  21 C :   -0.924609
  22 H :    0.257154
  23 H :    0.255915
  24 H :    0.279400
  25 C :   -1.085219
  26 H :    0.191795
  27 H :    0.213125
  28 H :    0.222052
  29 H :    0.214801
Sum of atomic charges:   -0.0000000

LOEWDIN ATOMIC CHARGES
----------------------
   0 Lu:    0.060860
   1 C :   -0.148993
   2 C :   -0.155484
   3 C :   -0.128068
   4 C :   -0.165740
   5 C :   -0.128923
   6 H :    0.156823
   7 H :    0.160164
   8 H :    0.153044
   9 H :    0.150492
  10 H :    0.150524
  11 C :   -0.162543
  12 C :   -0.126704
  13 C :   -0.147805
  14 C :   -0.135586
  15 H :    0.157621
  16 C :   -0.156451
  17 H :    0.158715
  18 H :    0.151369
  19 H :    0.150735
  20 H :    0.152315
  21 C :   -0.483266
  22 H :    0.141176
  23 H :    0.141052
  24 H :    0.158115
  25 C :   -0.650139
  26 H :    0.141911
  27 H :    0.141296
  28 H :    0.131933
  29 H :    0.131557

  Mayer bond orders larger than 0.100000
B(  0-Lu,  1-C ) :   0.2478 B(  0-Lu,  2-C ) :   0.2508 B(  0-Lu,  3-C ) :   0.2308
B(  0-Lu,  4-C ) :   0.2984 B(  0-Lu,  5-C ) :   0.2369 B(  0-Lu, 11-C ) :   0.2983
B(  0-Lu, 12-C ) :   0.2253 B(  0-Lu, 13-C ) :   0.2412 B(  0-Lu, 14-C ) :   0.2419
B(  0-Lu, 16-C ) :   0.2571 B(  0-Lu, 25-C ) :   0.8196 B(  1-C ,  2-C ) :   1.2690
B(  1-C ,  5-C ) :   1.3273 B(  1-C ,  8-H ) :   0.9201 B(  2-C ,  3-C ) :   1.3292
B(  2-C ,  9-H ) :   0.9207 B(  3-C ,  4-C ) :   1.2765 B(  3-C , 10-H ) :   0.9162
B(  4-C ,  5-C ) :   1.2693 B(  4-C ,  6-H ) :   0.9171 B(  5-C ,  7-H ) :   0.9093
B( 11-C , 12-C ) :   1.2855 B( 11-C , 14-C ) :   1.2675 B( 11-C , 15-H ) :   0.9159
B( 12-C , 16-C ) :   1.3178 B( 12-C , 17-H ) :   0.9093 B( 13-C , 14-C ) :   1.3290
B( 13-C , 16-C ) :   1.2736 B( 13-C , 19-H ) :   0.9181 B( 14-C , 18-H ) :   0.9172
B( 16-C , 20-H ) :   0.9227 B( 21-C , 22-H ) :   0.9112 B( 21-C , 23-H ) :   0.9139
B( 21-C , 24-H ) :   0.8875 B( 21-C , 26-H ) :   0.9040 B( 25-C , 27-H ) :   0.8934
B( 25-C , 28-H ) :   0.9112 B( 25-C , 29-H ) :   0.9062

Dispersion correction           -0.017130540
FINAL SINGLE POINT ENERGY     -1702.380832060667
Dispersion correction            ... done

DIPOLE MOMENT
-------------
                                X             Y             Z
Electronic contribution:     -3.86205      16.43416      -7.82217
Nuclear contribution   :      3.96271     -17.03999       8.15443
                        -----------------------------------------
Total Dipole Moment    :      0.10067      -0.60583       0.33226
                        -----------------------------------------
Magnitude (a.u.)       :      0.69826
Magnitude (Debye)      :      1.77483

Rotational constants in cm-1:     0.027595     0.019411     0.016859
Rotational constants in MHz :   827.263067   581.917035   505.405128

                             ****ORCA TERMINATED NORMALLY****
TOTAL RUN TIME: 0 days 0 hours 8 minutes 21 seconds 777 msec
