                         Program Version 5.0.3 -  RELEASE  -
|  1> ! EnGrad PBEh-3c
|  2> %output
|  3> xyzfile=True
|  4> end
|  5> %scf
|  6> maxiter 250
|  7> end
|  8> %output
|  9> Print[P_Hirshfeld] = 1
| 10> end
| 11> % maxcore
| 12> 4000
| 13> *xyz 0 1
| 14> Lu   0.05987570   0.35667778  -0.19326230
| 15> C    0.37371576   0.99856263   2.39707590
| 16> C    1.33113985  -0.02617447   2.18806293
| 17> C    2.30008239   0.46778014   1.29992490
| 18> C    1.91902007   1.76964797   0.90892595
| 19> C    0.74482216   2.10811829   1.62569984
| 20> H    2.49642371   2.44276979   0.28999285
| 21> H    0.20615291   3.04407878   1.56662366
| 22> H   -0.44709221   0.96438270   3.09228667
| 23> H    1.37288703  -0.97417500   2.71869003
| 24> H    3.16701908  -0.06997563   0.95359669
| 25> C    1.01929691  -0.02974925  -2.54730954
| 26> C   -0.26639691  -0.60756162  -2.62815009
| 27> C    1.02517360  -1.94177607  -1.29957114
| 28> C    1.82587944  -0.88459663  -1.75837788
| 29> H    1.35738838   0.83421570  -3.10612923
| 30> C   -0.27548717  -1.76566505  -1.83446487
| 31> H   -1.11555799  -0.20693446  -3.16047231
| 32> H    2.87622529  -0.75234076  -1.55692641
| 33> H    1.35687710  -2.77878004  -0.69112570
| 34> H   -1.08978203  -2.47184030  -1.77909075
| 35> C   -2.42087442  -1.60972761   1.35895021
| 36> H   -2.52621431  -1.41645025   2.39148494
| 37> H   -2.92142525  -2.50380349   1.09122903
| 38> H   -2.77171288  -0.80068910   0.77527623
| 39> C   -1.82843576   1.68158637  -0.68388572
| 40> H   -1.30880247  -1.73520794   1.13873805
| 41> H   -1.45772463   2.51466569  -1.31131873
| 42> H   -2.43023109   2.20420662   0.07249381
| 43> H   -2.58718403   1.21433995  -1.32953487
| 44> *
| 45>
| 46>                          ****END OF INPUT****

CARTESIAN COORDINATES (ANGSTROEM)
---------------------------------
  Lu     0.059876    0.356678   -0.193262
  C      0.373716    0.998563    2.397076
  C      1.331140   -0.026174    2.188063
  C      2.300082    0.467780    1.299925
  C      1.919020    1.769648    0.908926
  C      0.744822    2.108118    1.625700
  H      2.496424    2.442770    0.289993
  H      0.206153    3.044079    1.566624
  H     -0.447092    0.964383    3.092287
  H      1.372887   -0.974175    2.718690
  H      3.167019   -0.069976    0.953597
  C      1.019297   -0.029749   -2.547310
  C     -0.266397   -0.607562   -2.628150
  C      1.025174   -1.941776   -1.299571
  C      1.825879   -0.884597   -1.758378
  H      1.357388    0.834216   -3.106129
  C     -0.275487   -1.765665   -1.834465
  H     -1.115558   -0.206934   -3.160472
  H      2.876225   -0.752341   -1.556926
  H      1.356877   -2.778780   -0.691126
  H     -1.089782   -2.471840   -1.779091
  C     -2.420874   -1.609728    1.358950
  H     -2.526214   -1.416450    2.391485
  H     -2.921425   -2.503803    1.091229
  H     -2.771713   -0.800689    0.775276
  C     -1.828436    1.681586   -0.683886
  H     -1.308802   -1.735208    1.138738
  H     -1.457725    2.514666   -1.311319
  H     -2.430231    2.204207    0.072494
  H     -2.587184    1.214340   -1.329535

 Total Charge           Charge          ....    0
 Multiplicity           Mult            ....    1
 Number of Electrons    NEL             ....  132
 Basis Dimension        Dim             ....  295

ORBITAL ENERGIES
----------------

  NO   OCC          E(Eh)            E(eV)
   0   2.0000     -19.258800      -524.0586
   1   2.0000     -12.631276      -343.7145
   2   2.0000     -12.628892      -343.6496
   3   2.0000     -12.628381      -343.6357
   4   2.0000     -10.446297      -284.2582
   5   2.0000     -10.446082      -284.2523
   6   2.0000     -10.445618      -284.2397
   7   2.0000     -10.445292      -284.2308
   8   2.0000     -10.444083      -284.1979
   9   2.0000     -10.443477      -284.1815
  10   2.0000     -10.442748      -284.1616
  11   2.0000     -10.442429      -284.1530
  12   2.0000     -10.442204      -284.1468
  13   2.0000     -10.441716      -284.1335
  14   2.0000     -10.435159      -283.9551
  15   2.0000     -10.366127      -282.0767
  16   2.0000      -5.900399      -160.5580
  17   2.0000      -5.900134      -160.5508
  18   2.0000      -5.899565      -160.5353
  19   2.0000      -5.898217      -160.4986
  20   2.0000      -5.897989      -160.4924
  21   2.0000      -2.442126       -66.4536
  22   2.0000      -1.279735       -34.8233
  23   2.0000      -1.277649       -34.7666
  24   2.0000      -1.267914       -34.5017
  25   2.0000      -0.977398       -26.5963
  26   2.0000      -0.970393       -26.4057
  27   2.0000      -0.804127       -21.8814
  28   2.0000      -0.793825       -21.6011
  29   2.0000      -0.790294       -21.5050
  30   2.0000      -0.789737       -21.4898
  31   2.0000      -0.789267       -21.4770
  32   2.0000      -0.705196       -19.1894
  33   2.0000      -0.613457       -16.6930
  34   2.0000      -0.610395       -16.6097
  35   2.0000      -0.608258       -16.5515
  36   2.0000      -0.608032       -16.5454
  37   2.0000      -0.594429       -16.1752
  38   2.0000      -0.590351       -16.0643
  39   2.0000      -0.568156       -15.4603
  40   2.0000      -0.566709       -15.4209
  41   2.0000      -0.566571       -15.4172
  42   2.0000      -0.565679       -15.3929
  43   2.0000      -0.565053       -15.3759
  44   2.0000      -0.563827       -15.3425
  45   2.0000      -0.562284       -15.3005
  46   2.0000      -0.480529       -13.0759
  47   2.0000      -0.477236       -12.9863
  48   2.0000      -0.468101       -12.7377
  49   2.0000      -0.457122       -12.4389
  50   2.0000      -0.451837       -12.2951
  51   2.0000      -0.448970       -12.2171
  52   2.0000      -0.448532       -12.2052
  53   2.0000      -0.447960       -12.1896
  54   2.0000      -0.434504       -11.8234
  55   2.0000      -0.430869       -11.7245
  56   2.0000      -0.430628       -11.7180
  57   2.0000      -0.428128       -11.6499
  58   2.0000      -0.427311       -11.6277
  59   2.0000      -0.392383       -10.6773
  60   2.0000      -0.391162       -10.6441
  61   2.0000      -0.289493        -7.8775
  62   2.0000      -0.282788        -7.6950
  63   2.0000      -0.277514        -7.5515
  64   2.0000      -0.268336        -7.3018
  65   2.0000      -0.262935        -7.1548
  66   0.0000      -0.022633        -0.6159
  67   0.0000       0.010577         0.2878
  68   0.0000       0.043696         1.1890
  69   0.0000       0.053103         1.4450
  70   0.0000       0.057097         1.5537

MULLIKEN ATOMIC CHARGES
-----------------------
   0 Lu:    0.895555
   1 C :   -0.294058
   2 C :   -0.318397
   3 C :   -0.213349
   4 C :   -0.381864
   5 C :   -0.241862
   6 H :    0.241729
   7 H :    0.250776
   8 H :    0.234917
   9 H :    0.230920
  10 H :    0.231896
  11 C :   -0.377415
  12 C :   -0.220050
  13 C :   -0.279275
  14 C :   -0.247476
  15 H :    0.243243
  16 C :   -0.324772
  17 H :    0.248855
  18 H :    0.232800
  19 H :    0.232119
  20 H :    0.232396
  21 C :   -0.928027
  22 H :    0.255128
  23 H :    0.254289
  24 H :    0.277693
  25 C :   -1.091991
  26 H :    0.198983
  27 H :    0.215369
  28 H :    0.224479
  29 H :    0.217389
Sum of atomic charges:   -0.0000000

LOEWDIN ATOMIC CHARGES
----------------------
   0 Lu:    0.066774
   1 C :   -0.147777
   2 C :   -0.157130
   3 C :   -0.127520
   4 C :   -0.165284
   5 C :   -0.132110
   6 H :    0.156427
   7 H :    0.160256
   8 H :    0.152549
   9 H :    0.150505
  10 H :    0.149799
  11 C :   -0.162799
  12 C :   -0.128987
  13 C :   -0.149720
  14 C :   -0.134187
  15 H :    0.157491
  16 C :   -0.155094
  17 H :    0.158675
  18 H :    0.150656
  19 H :    0.150676
  20 H :    0.151572
  21 C :   -0.486192
  22 H :    0.141362
  23 H :    0.141134
  24 H :    0.158057
  25 C :   -0.650481
  26 H :    0.142107
  27 H :    0.142849
  28 H :    0.133310
  29 H :    0.133080

  Mayer bond orders larger than 0.100000
B(  0-Lu,  1-C ) :   0.2465 B(  0-Lu,  2-C ) :   0.2492 B(  0-Lu,  3-C ) :   0.2288
B(  0-Lu,  4-C ) :   0.2971 B(  0-Lu,  5-C ) :   0.2378 B(  0-Lu, 11-C ) :   0.2981
B(  0-Lu, 12-C ) :   0.2258 B(  0-Lu, 13-C ) :   0.2400 B(  0-Lu, 14-C ) :   0.2400
B(  0-Lu, 16-C ) :   0.2557 B(  0-Lu, 25-C ) :   0.8209 B(  1-C ,  2-C ) :   1.2738
B(  1-C ,  5-C ) :   1.3261 B(  1-C ,  8-H ) :   0.9198 B(  2-C ,  3-C ) :   1.3242
B(  2-C ,  9-H ) :   0.9212 B(  3-C ,  4-C ) :   1.2838 B(  3-C , 10-H ) :   0.9165
B(  4-C ,  5-C ) :   1.2648 B(  4-C ,  6-H ) :   0.9173 B(  5-C ,  7-H ) :   0.9087
B( 11-C , 12-C ) :   1.2790 B( 11-C , 14-C ) :   1.2740 B( 11-C , 15-H ) :   0.9161
B( 12-C , 16-C ) :   1.3191 B( 12-C , 17-H ) :   0.9087 B( 13-C , 14-C ) :   1.3251
B( 13-C , 16-C ) :   1.2760 B( 13-C , 19-H ) :   0.9186 B( 14-C , 18-H ) :   0.9176
B( 16-C , 20-H ) :   0.9228 B( 21-C , 22-H ) :   0.9128 B( 21-C , 23-H ) :   0.9150
B( 21-C , 24-H ) :   0.8892 B( 21-C , 26-H ) :   0.9015 B( 25-C , 27-H ) :   0.8922
B( 25-C , 28-H ) :   0.9102 B( 25-C , 29-H ) :   0.9051

Dispersion correction           -0.017132624
FINAL SINGLE POINT ENERGY     -1702.384169118340
Dispersion correction            ... done

DIPOLE MOMENT
-------------
                                X             Y             Z
Electronic contribution:     -4.31543      16.89818      -8.01516
Nuclear contribution   :      4.39856     -17.48676       8.33934
                        -----------------------------------------
Total Dipole Moment    :      0.08313      -0.58858       0.32418
                        -----------------------------------------
Magnitude (a.u.)       :      0.67708
Magnitude (Debye)      :      1.72099

Rotational constants in cm-1:     0.027536     0.019383     0.016856
Rotational constants in MHz :   825.497047   581.081863   505.323881

                             ****ORCA TERMINATED NORMALLY****
TOTAL RUN TIME: 0 days 0 hours 8 minutes 16 seconds 30 msec
