                         Program Version 5.0.3 -  RELEASE  -
|  1> ! EnGrad PBEh-3c
|  2> %output
|  3> xyzfile=True
|  4> end
|  5> %scf
|  6> maxiter 250
|  7> end
|  8> %output
|  9> Print[P_Hirshfeld] = 1
| 10> end
| 11> % maxcore
| 12> 4000
| 13> *xyz 0 1
| 14> Lu   0.03495391   0.38994142  -0.20764207
| 15> C    0.38428066   0.99262854   2.39670742
| 16> C    1.33164485  -0.03425208   2.18650222
| 17> C    2.29723543   0.46862743   1.29452440
| 18> C    1.91876133   1.77118298   0.90729467
| 19> C    0.75129453   2.11633913   1.63156962
| 20> H    2.49695656   2.44525387   0.28800948
| 21> H    0.20603529   3.04073665   1.56636142
| 22> H   -0.44130343   0.95733121   3.09779415
| 23> H    1.36995665  -0.97969800   2.70249959
| 24> H    3.17222519  -0.06675452   0.95341033
| 25> C    1.02139357  -0.02804954  -2.54851723
| 26> C   -0.26523657  -0.61197015  -2.63699520
| 27> C    1.02809224  -1.94415067  -1.29172640
| 28> C    1.82193963  -0.87746655  -1.75525060
| 29> H    1.35649986   0.83695083  -3.10544962
| 30> C   -0.26856435  -1.76426695  -1.82978865
| 31> H   -1.11538194  -0.20612192  -3.15797039
| 32> H    2.87824390  -0.74899464  -1.55594307
| 33> H    1.35581497  -2.77255233  -0.68952188
| 34> H   -1.08134534  -2.47895509  -1.76614516
| 35> C   -2.41465793  -1.59454262   1.35056208
| 36> H   -2.51127562  -1.41782564   2.41465213
| 37> H   -2.87791618  -2.54222983   1.08910131
| 38> H   -2.84407041  -0.78195605   0.77484511
| 39> C   -1.81788749   1.68030984  -0.69283611
| 40> H   -1.38944561  -1.69479077   1.12253529
| 41> H   -1.45417069   2.50532148  -1.31040409
| 42> H   -2.40254728   2.17606744   0.07560145
| 43> H   -2.56502965   1.20673820  -1.32254755
| 44> *
| 45>
| 46>                          ****END OF INPUT****

CARTESIAN COORDINATES (ANGSTROEM)
---------------------------------
  Lu     0.034954    0.389941   -0.207642
  C      0.384281    0.992629    2.396707
  C      1.331645   -0.034252    2.186502
  C      2.297235    0.468627    1.294524
  C      1.918761    1.771183    0.907295
  C      0.751295    2.116339    1.631570
  H      2.496957    2.445254    0.288009
  H      0.206035    3.040737    1.566361
  H     -0.441303    0.957331    3.097794
  H      1.369957   -0.979698    2.702500
  H      3.172225   -0.066755    0.953410
  C      1.021394   -0.028050   -2.548517
  C     -0.265237   -0.611970   -2.636995
  C      1.028092   -1.944151   -1.291726
  C      1.821940   -0.877467   -1.755251
  H      1.356500    0.836951   -3.105450
  C     -0.268564   -1.764267   -1.829789
  H     -1.115382   -0.206122   -3.157970
  H      2.878244   -0.748995   -1.555943
  H      1.355815   -2.772552   -0.689522
  H     -1.081345   -2.478955   -1.766145
  C     -2.414658   -1.594543    1.350562
  H     -2.511276   -1.417826    2.414652
  H     -2.877916   -2.542230    1.089101
  H     -2.844070   -0.781956    0.774845
  C     -1.817887    1.680310   -0.692836
  H     -1.389446   -1.694791    1.122535
  H     -1.454171    2.505321   -1.310404
  H     -2.402547    2.176067    0.075601
  H     -2.565030    1.206738   -1.322548

 Total Charge           Charge          ....    0
 Multiplicity           Mult            ....    1
 Number of Electrons    NEL             ....  132
 Basis Dimension        Dim             ....  295

ORBITAL ENERGIES
----------------

  NO   OCC          E(Eh)            E(eV)
   0   2.0000     -19.258465      -524.0495
   1   2.0000     -12.630945      -343.7055
   2   2.0000     -12.628581      -343.6412
   3   2.0000     -12.627994      -343.6252
   4   2.0000     -10.445172      -284.2276
   5   2.0000     -10.444869      -284.2193
   6   2.0000     -10.444258      -284.2027
   7   2.0000     -10.444211      -284.2014
   8   2.0000     -10.443728      -284.1883
   9   2.0000     -10.443348      -284.1779
  10   2.0000     -10.442101      -284.1440
  11   2.0000     -10.441889      -284.1383
  12   2.0000     -10.441489      -284.1274
  13   2.0000     -10.441213      -284.1199
  14   2.0000     -10.433878      -283.9203
  15   2.0000     -10.363045      -281.9928
  16   2.0000      -5.900071      -160.5491
  17   2.0000      -5.899814      -160.5421
  18   2.0000      -5.899205      -160.5255
  19   2.0000      -5.897871      -160.4892
  20   2.0000      -5.897626      -160.4826
  21   2.0000      -2.441890       -66.4472
  22   2.0000      -1.279637       -34.8207
  23   2.0000      -1.277007       -34.7491
  24   2.0000      -1.268128       -34.5075
  25   2.0000      -0.975591       -26.5472
  26   2.0000      -0.968991       -26.3676
  27   2.0000      -0.804070       -21.8798
  28   2.0000      -0.791704       -21.5434
  29   2.0000      -0.790080       -21.4992
  30   2.0000      -0.789304       -21.4780
  31   2.0000      -0.787429       -21.4270
  32   2.0000      -0.713340       -19.4110
  33   2.0000      -0.612251       -16.6602
  34   2.0000      -0.609902       -16.5963
  35   2.0000      -0.607875       -16.5411
  36   2.0000      -0.607478       -16.5303
  37   2.0000      -0.593787       -16.1578
  38   2.0000      -0.589164       -16.0320
  39   2.0000      -0.567855       -15.4521
  40   2.0000      -0.566391       -15.4123
  41   2.0000      -0.566298       -15.4098
  42   2.0000      -0.565421       -15.3859
  43   2.0000      -0.564701       -15.3663
  44   2.0000      -0.563503       -15.3337
  45   2.0000      -0.561946       -15.2913
  46   2.0000      -0.478688       -13.0258
  47   2.0000      -0.472688       -12.8625
  48   2.0000      -0.467984       -12.7345
  49   2.0000      -0.458101       -12.4656
  50   2.0000      -0.451630       -12.2895
  51   2.0000      -0.450481       -12.2582
  52   2.0000      -0.448470       -12.2035
  53   2.0000      -0.445657       -12.1269
  54   2.0000      -0.433078       -11.7846
  55   2.0000      -0.430068       -11.7027
  56   2.0000      -0.429370       -11.6838
  57   2.0000      -0.426874       -11.6158
  58   2.0000      -0.426252       -11.5989
  59   2.0000      -0.401234       -10.9181
  60   2.0000      -0.399276       -10.8649
  61   2.0000      -0.288702        -7.8560
  62   2.0000      -0.281932        -7.6717
  63   2.0000      -0.277841        -7.5604
  64   2.0000      -0.271260        -7.3814
  65   2.0000      -0.259444        -7.0598
  66   0.0000      -0.022377        -0.6089
  67   0.0000       0.012880         0.3505
  68   0.0000       0.043370         1.1801
  69   0.0000       0.051288         1.3956
  70   0.0000       0.056096         1.5264

MULLIKEN ATOMIC CHARGES
-----------------------
   0 Lu:    0.917228
   1 C :   -0.306523
   2 C :   -0.306709
   3 C :   -0.215237
   4 C :   -0.386484
   5 C :   -0.241438
   6 H :    0.241285
   7 H :    0.251376
   8 H :    0.233407
   9 H :    0.230593
  10 H :    0.229308
  11 C :   -0.381328
  12 C :   -0.219488
  13 C :   -0.268464
  14 C :   -0.250344
  15 H :    0.243607
  16 C :   -0.335796
  17 H :    0.248859
  18 H :    0.230556
  19 H :    0.231474
  20 H :    0.230817
  21 C :   -0.936433
  22 H :    0.247514
  23 H :    0.246969
  24 H :    0.267650
  25 C :   -1.112394
  26 H :    0.227217
  27 H :    0.223397
  28 H :    0.232913
  29 H :    0.226469
Sum of atomic charges:   -0.0000000

LOEWDIN ATOMIC CHARGES
----------------------
   0 Lu:    0.087916
   1 C :   -0.149976
   2 C :   -0.157936
   3 C :   -0.128161
   4 C :   -0.166520
   5 C :   -0.137686
   6 H :    0.156026
   7 H :    0.159920
   8 H :    0.151418
   9 H :    0.150023
  10 H :    0.148544
  11 C :   -0.164850
  12 C :   -0.133442
  13 C :   -0.150869
  14 C :   -0.134198
  15 H :    0.157377
  16 C :   -0.156539
  17 H :    0.158308
  18 H :    0.149568
  19 H :    0.149976
  20 H :    0.150348
  21 C :   -0.494552
  22 H :    0.141868
  23 H :    0.141325
  24 H :    0.159005
  25 C :   -0.652143
  26 H :    0.140148
  27 H :    0.148238
  28 H :    0.138311
  29 H :    0.138554

  Mayer bond orders larger than 0.100000
B(  0-Lu,  1-C ) :   0.2462 B(  0-Lu,  2-C ) :   0.2396 B(  0-Lu,  3-C ) :   0.2212
B(  0-Lu,  4-C ) :   0.2948 B(  0-Lu,  5-C ) :   0.2392 B(  0-Lu, 11-C ) :   0.2978
B(  0-Lu, 12-C ) :   0.2264 B(  0-Lu, 13-C ) :   0.2310 B(  0-Lu, 14-C ) :   0.2338
B(  0-Lu, 16-C ) :   0.2538 B(  0-Lu, 25-C ) :   0.8295 B(  1-C ,  2-C ) :   1.2804
B(  1-C ,  5-C ) :   1.3221 B(  1-C ,  8-H ) :   0.9195 B(  2-C ,  3-C ) :   1.3276
B(  2-C ,  9-H ) :   0.9215 B(  3-C ,  4-C ) :   1.2899 B(  3-C , 10-H ) :   0.9181
B(  4-C ,  5-C ) :   1.2624 B(  4-C ,  6-H ) :   0.9170 B(  5-C ,  7-H ) :   0.9069
B( 11-C , 12-C ) :   1.2744 B( 11-C , 14-C ) :   1.2793 B( 11-C , 15-H ) :   0.9153
B( 12-C , 16-C ) :   1.3184 B( 12-C , 17-H ) :   0.9073 B( 13-C , 14-C ) :   1.3278
B( 13-C , 16-C ) :   1.2810 B( 13-C , 19-H ) :   0.9195 B( 14-C , 18-H ) :   0.9187
B( 16-C , 20-H ) :   0.9227 B( 21-C , 22-H ) :   0.9186 B( 21-C , 23-H ) :   0.9201
B( 21-C , 24-H ) :   0.8985 B( 21-C , 26-H ) :   0.8881 B( 25-C , 27-H ) :   0.8884
B( 25-C , 28-H ) :   0.9063 B( 25-C , 29-H ) :   0.9015

Dispersion correction           -0.017143971
FINAL SINGLE POINT ENERGY     -1702.384957075131
Dispersion correction            ... done

DIPOLE MOMENT
-------------
                                X             Y             Z
Electronic contribution:     -5.64970      18.57294      -8.72585
Nuclear contribution   :      5.67897     -19.10189       9.02539
                        -----------------------------------------
Total Dipole Moment    :      0.02927      -0.52895       0.29954
                        -----------------------------------------
Magnitude (a.u.)       :      0.60857
Magnitude (Debye)      :      1.54687

Rotational constants in cm-1:     0.027433     0.019328     0.016869
Rotational constants in MHz :   822.426121   579.442203   505.727027

                             ****ORCA TERMINATED NORMALLY****
TOTAL RUN TIME: 0 days 0 hours 8 minutes 15 seconds 142 msec
