                         Program Version 5.0.3 -  RELEASE  -
|  1> ! EnGrad PBEh-3c
|  2> %output
|  3> xyzfile=True
|  4> end
|  5> %scf
|  6> maxiter 250
|  7> end
|  8> %output
|  9> Print[P_Hirshfeld] = 1
| 10> end
| 11> % maxcore
| 12> 4000
| 13> *xyz 0 1
| 14> Lu   0.04644228   0.38440723  -0.20546095
| 15> C    0.38388676   0.99216188   2.39399608
| 16> C    1.32849879  -0.03515643   2.18867794
| 17> C    2.29835228   0.46566414   1.28441803
| 18> C    1.92133897   1.77360646   0.91017482
| 19> C    0.74659118   2.11513447   1.62790639
| 20> H    2.49628572   2.44432848   0.28733769
| 21> H    0.20769228   3.04048286   1.56807869
| 22> H   -0.44282060   0.95568719   3.09868484
| 23> H    1.36929507  -0.97819380   2.69727730
| 24> H    3.17156874  -0.06532713   0.95368311
| 25> C    1.02294771  -0.02974220  -2.55263984
| 26> C   -0.27046352  -0.60686001  -2.63160839
| 27> C    1.02589455  -1.94578249  -1.28641690
| 28> C    1.82637890  -0.87010424  -1.75237041
| 29> H    1.35635223   0.83629074  -3.10386994
| 30> C   -0.26937321  -1.76536191  -1.83136750
| 31> H   -1.11375885  -0.20753162  -3.15926028
| 32> H    2.87630584  -0.74831424  -1.55546355
| 33> H    1.35524625  -2.76832646  -0.69079272
| 34> H   -1.08064562  -2.47790200  -1.76189326
| 35> C   -2.42105850  -1.59259732   1.34919826
| 36> H   -2.51213125  -1.41499085   2.42438270
| 37> H   -2.87829159  -2.55046384   1.08662577
| 38> H   -2.85846720  -0.77626594   0.77351512
| 39> C   -1.81878230   1.68295039  -0.69632687
| 40> H   -1.37898364  -1.69207817   1.11743569
| 41> H   -1.45166261   2.50701912  -1.31250160
| 42> H   -2.39822686   2.17335485   0.08242701
| 43> H   -2.56371621   1.20142307  -1.32508504
| 44> *
| 45>
| 46>                          ****END OF INPUT****

CARTESIAN COORDINATES (ANGSTROEM)
---------------------------------
  Lu     0.046442    0.384407   -0.205461
  C      0.383887    0.992162    2.393996
  C      1.328499   -0.035156    2.188678
  C      2.298352    0.465664    1.284418
  C      1.921339    1.773606    0.910175
  C      0.746591    2.115134    1.627906
  H      2.496286    2.444328    0.287338
  H      0.207692    3.040483    1.568079
  H     -0.442821    0.955687    3.098685
  H      1.369295   -0.978194    2.697277
  H      3.171569   -0.065327    0.953683
  C      1.022948   -0.029742   -2.552640
  C     -0.270464   -0.606860   -2.631608
  C      1.025895   -1.945782   -1.286417
  C      1.826379   -0.870104   -1.752370
  H      1.356352    0.836291   -3.103870
  C     -0.269373   -1.765362   -1.831368
  H     -1.113759   -0.207532   -3.159260
  H      2.876306   -0.748314   -1.555464
  H      1.355246   -2.768326   -0.690793
  H     -1.080646   -2.477902   -1.761893
  C     -2.421059   -1.592597    1.349198
  H     -2.512131   -1.414991    2.424383
  H     -2.878292   -2.550464    1.086626
  H     -2.858467   -0.776266    0.773515
  C     -1.818782    1.682950   -0.696327
  H     -1.378984   -1.692078    1.117436
  H     -1.451663    2.507019   -1.312502
  H     -2.398227    2.173355    0.082427
  H     -2.563716    1.201423   -1.325085

 Total Charge           Charge          ....    0
 Multiplicity           Mult            ....    1
 Number of Electrons    NEL             ....  132
 Basis Dimension        Dim             ....  295

ORBITAL ENERGIES
----------------

  NO   OCC          E(Eh)            E(eV)
   0   2.0000     -19.257770      -524.0306
   1   2.0000     -12.630293      -343.6877
   2   2.0000     -12.627871      -343.6218
   3   2.0000     -12.627268      -343.6054
   4   2.0000     -10.445666      -284.2410
   5   2.0000     -10.445400      -284.2338
   6   2.0000     -10.444987      -284.2226
   7   2.0000     -10.444829      -284.2182
   8   2.0000     -10.444382      -284.2061
   9   2.0000     -10.444144      -284.1996
  10   2.0000     -10.442897      -284.1657
  11   2.0000     -10.442641      -284.1587
  12   2.0000     -10.441679      -284.1325
  13   2.0000     -10.441290      -284.1219
  14   2.0000     -10.438248      -284.0392
  15   2.0000     -10.362705      -281.9835
  16   2.0000      -5.899404      -160.5309
  17   2.0000      -5.899136      -160.5237
  18   2.0000      -5.898512      -160.5067
  19   2.0000      -5.897138      -160.4693
  20   2.0000      -5.896902      -160.4629
  21   2.0000      -2.441188       -66.4281
  22   2.0000      -1.279042       -34.8045
  23   2.0000      -1.276551       -34.7367
  24   2.0000      -1.267206       -34.4824
  25   2.0000      -0.974578       -26.5196
  26   2.0000      -0.967624       -26.3304
  27   2.0000      -0.800490       -21.7824
  28   2.0000      -0.791585       -21.5401
  29   2.0000      -0.790460       -21.5095
  30   2.0000      -0.789889       -21.4940
  31   2.0000      -0.787667       -21.4335
  32   2.0000      -0.710804       -19.3420
  33   2.0000      -0.613994       -16.7076
  34   2.0000      -0.610850       -16.6221
  35   2.0000      -0.608764       -16.5653
  36   2.0000      -0.608522       -16.5587
  37   2.0000      -0.594524       -16.1778
  38   2.0000      -0.589943       -16.0532
  39   2.0000      -0.567201       -15.4343
  40   2.0000      -0.565736       -15.3945
  41   2.0000      -0.565616       -15.3912
  42   2.0000      -0.564722       -15.3669
  43   2.0000      -0.564002       -15.3473
  44   2.0000      -0.562762       -15.3135
  45   2.0000      -0.561197       -15.2710
  46   2.0000      -0.475769       -12.9463
  47   2.0000      -0.471482       -12.8297
  48   2.0000      -0.466612       -12.6972
  49   2.0000      -0.457100       -12.4383
  50   2.0000      -0.452337       -12.3087
  51   2.0000      -0.451193       -12.2776
  52   2.0000      -0.449853       -12.2411
  53   2.0000      -0.447025       -12.1642
  54   2.0000      -0.432835       -11.7780
  55   2.0000      -0.430237       -11.7074
  56   2.0000      -0.429412       -11.6849
  57   2.0000      -0.428078       -11.6486
  58   2.0000      -0.425926       -11.5900
  59   2.0000      -0.400140       -10.8884
  60   2.0000      -0.398269       -10.8375
  61   2.0000      -0.288555        -7.8520
  62   2.0000      -0.282328        -7.6825
  63   2.0000      -0.277869        -7.5612
  64   2.0000      -0.268317        -7.3013
  65   2.0000      -0.259612        -7.0644
  66   0.0000      -0.022193        -0.6039
  67   0.0000       0.012082         0.3288
  68   0.0000       0.043107         1.1730
  69   0.0000       0.051649         1.4054
  70   0.0000       0.056656         1.5417

MULLIKEN ATOMIC CHARGES
-----------------------
   0 Lu:    0.904335
   1 C :   -0.302292
   2 C :   -0.300844
   3 C :   -0.230203
   4 C :   -0.371502
   5 C :   -0.248475
   6 H :    0.241733
   7 H :    0.251626
   8 H :    0.233317
   9 H :    0.231492
  10 H :    0.230177
  11 C :   -0.365979
  12 C :   -0.231415
  13 C :   -0.273321
  14 C :   -0.259043
  15 H :    0.243869
  16 C :   -0.322974
  17 H :    0.248907
  18 H :    0.231581
  19 H :    0.232018
  20 H :    0.231288
  21 C :   -0.928786
  22 H :    0.245666
  23 H :    0.246001
  24 H :    0.268298
  25 C :   -1.103066
  26 H :    0.222612
  27 H :    0.221606
  28 H :    0.229717
  29 H :    0.223660
Sum of atomic charges:    0.0000000

LOEWDIN ATOMIC CHARGES
----------------------
   0 Lu:    0.079156
   1 C :   -0.147400
   2 C :   -0.156694
   3 C :   -0.129405
   4 C :   -0.162876
   5 C :   -0.138464
   6 H :    0.155925
   7 H :    0.160201
   8 H :    0.151706
   9 H :    0.150017
  10 H :    0.148889
  11 C :   -0.161053
  12 C :   -0.134865
  13 C :   -0.151290
  14 C :   -0.134793
  15 H :    0.157112
  16 C :   -0.152712
  17 H :    0.158455
  18 H :    0.149843
  19 H :    0.149829
  20 H :    0.150294
  21 C :   -0.492976
  22 H :    0.141739
  23 H :    0.141058
  24 H :    0.159520
  25 C :   -0.652464
  26 H :    0.140524
  27 H :    0.146710
  28 H :    0.136937
  29 H :    0.137076

  Mayer bond orders larger than 0.100000
B(  0-Lu,  1-C ) :   0.2454 B(  0-Lu,  2-C ) :   0.2424 B(  0-Lu,  3-C ) :   0.2277
B(  0-Lu,  4-C ) :   0.2933 B(  0-Lu,  5-C ) :   0.2411 B(  0-Lu, 11-C ) :   0.2952
B(  0-Lu, 12-C ) :   0.2287 B(  0-Lu, 13-C ) :   0.2362 B(  0-Lu, 14-C ) :   0.2396
B(  0-Lu, 16-C ) :   0.2516 B(  0-Lu, 25-C ) :   0.8300 B(  1-C ,  2-C ) :   1.2839
B(  1-C ,  5-C ) :   1.3197 B(  1-C ,  8-H ) :   0.9196 B(  2-C ,  3-C ) :   1.3203
B(  2-C ,  9-H ) :   0.9212 B(  3-C ,  4-C ) :   1.2926 B(  3-C , 10-H ) :   0.9188
B(  4-C ,  5-C ) :   1.2631 B(  4-C ,  6-H ) :   0.9164 B(  5-C ,  7-H ) :   0.9078
B( 11-C , 12-C ) :   1.2744 B( 11-C , 14-C ) :   1.2836 B( 11-C , 15-H ) :   0.9148
B( 12-C , 16-C ) :   1.3179 B( 12-C , 17-H ) :   0.9087 B( 13-C , 14-C ) :   1.3180
B( 13-C , 16-C ) :   1.2850 B( 13-C , 19-H ) :   0.9199 B( 14-C , 18-H ) :   0.9191
B( 16-C , 20-H ) :   0.9223 B( 21-C , 22-H ) :   0.9185 B( 21-C , 23-H ) :   0.9194
B( 21-C , 24-H ) :   0.8976 B( 21-C , 26-H ) :   0.8886 B( 25-C , 27-H ) :   0.8898
B( 25-C , 28-H ) :   0.9074 B( 25-C , 29-H ) :   0.9028

Dispersion correction           -0.017152246
FINAL SINGLE POINT ENERGY     -1702.386251704957
Dispersion correction            ... done

DIPOLE MOMENT
-------------
                                X             Y             Z
Electronic contribution:     -5.02470      18.26028      -8.59131
Nuclear contribution   :      5.08798     -18.80934       8.90339
                        -----------------------------------------
Total Dipole Moment    :      0.06328      -0.54906       0.31208
                        -----------------------------------------
Magnitude (a.u.)       :      0.63472
Magnitude (Debye)      :      1.61332

Rotational constants in cm-1:     0.027443     0.019364     0.016882
Rotational constants in MHz :   822.723444   580.524415   506.111246

                             ****ORCA TERMINATED NORMALLY****
TOTAL RUN TIME: 0 days 0 hours 8 minutes 17 seconds 301 msec
