                         Program Version 5.0.3 -  RELEASE  -
|  1> ! EnGrad PBEh-3c
|  2> %output
|  3> xyzfile=True
|  4> end
|  5> %scf
|  6> maxiter 250
|  7> end
|  8> %output
|  9> Print[P_Hirshfeld] = 1
| 10> end
| 11> % maxcore
| 12> 4000
| 13> *xyz 0 1
| 14> Lu   0.05889331   0.37931278  -0.20377517
| 15> C    0.38070982   0.99134688   2.39354396
| 16> C    1.32905105  -0.03151638   2.18408549
| 17> C    2.29306875   0.46302850   1.27709723
| 18> C    1.92363661   1.77575938   0.91396955
| 19> C    0.74476758   2.11085886   1.62323466
| 20> H    2.49593410   2.44386126   0.28612301
| 21> H    0.20862417   3.04197634   1.57025372
| 22> H   -0.44253855   0.95332303   3.09845093
| 23> H    1.36794210  -0.98007592   2.69163609
| 24> H    3.17352986  -0.06479119   0.95267486
| 25> C    1.02303322  -0.03316379  -2.55657388
| 26> C   -0.27125679  -0.60265441  -2.62344746
| 27> C    1.02343003  -1.93724276  -1.28581999
| 28> C    1.82469654  -0.86639110  -1.74766669
| 29> H    1.35656489   0.83666054  -3.10270600
| 30> C   -0.26847560  -1.76645839  -1.83204275
| 31> H   -1.11395768  -0.20820663  -3.16209159
| 32> H    2.87701432  -0.74644908  -1.55433264
| 33> H    1.35592554  -2.76688389  -0.68900693
| 34> H   -1.07973738  -2.47711839  -1.75577523
| 35> C   -2.42770291  -1.59044713   1.34885143
| 36> H   -2.51191358  -1.41279286   2.43220300
| 37> H   -2.87403245  -2.55909555   1.08468154
| 38> H   -2.88117225  -0.77178940   0.77468580
| 39> C   -1.81750531   1.68439440  -0.70002426
| 40> H   -1.37577441  -1.68333051   1.10982287
| 41> H   -1.44835707   2.50978232  -1.31586466
| 42> H   -2.39141607   2.16849427   0.09120505
| 43> H   -2.56128873   1.19418627  -1.32832629
| 44> *
| 45>
| 46>                          ****END OF INPUT****

CARTESIAN COORDINATES (ANGSTROEM)
---------------------------------
  Lu     0.058893    0.379313   -0.203775
  C      0.380710    0.991347    2.393544
  C      1.329051   -0.031516    2.184085
  C      2.293069    0.463028    1.277097
  C      1.923637    1.775759    0.913970
  C      0.744768    2.110859    1.623235
  H      2.495934    2.443861    0.286123
  H      0.208624    3.041976    1.570254
  H     -0.442539    0.953323    3.098451
  H      1.367942   -0.980076    2.691636
  H      3.173530   -0.064791    0.952675
  C      1.023033   -0.033164   -2.556574
  C     -0.271257   -0.602654   -2.623447
  C      1.023430   -1.937243   -1.285820
  C      1.824697   -0.866391   -1.747667
  H      1.356565    0.836661   -3.102706
  C     -0.268476   -1.766458   -1.832043
  H     -1.113958   -0.208207   -3.162092
  H      2.877014   -0.746449   -1.554333
  H      1.355926   -2.766884   -0.689007
  H     -1.079737   -2.477118   -1.755775
  C     -2.427703   -1.590447    1.348851
  H     -2.511914   -1.412793    2.432203
  H     -2.874032   -2.559096    1.084682
  H     -2.881172   -0.771789    0.774686
  C     -1.817505    1.684394   -0.700024
  H     -1.375774   -1.683331    1.109823
  H     -1.448357    2.509782   -1.315865
  H     -2.391416    2.168494    0.091205
  H     -2.561289    1.194186   -1.328326

 Total Charge           Charge          ....    0
 Multiplicity           Mult            ....    1
 Number of Electrons    NEL             ....  132
 Basis Dimension        Dim             ....  295

ORBITAL ENERGIES
----------------

  NO   OCC          E(Eh)            E(eV)
   0   2.0000     -19.257004      -524.0097
   1   2.0000     -12.629558      -343.6677
   2   2.0000     -12.627091      -343.6006
   3   2.0000     -12.626478      -343.5839
   4   2.0000     -10.445644      -284.2404
   5   2.0000     -10.445107      -284.2258
   6   2.0000     -10.445044      -284.2241
   7   2.0000     -10.444770      -284.2166
   8   2.0000     -10.444260      -284.2028
   9   2.0000     -10.444248      -284.2024
  10   2.0000     -10.443177      -284.1733
  11   2.0000     -10.442688      -284.1600
  12   2.0000     -10.441974      -284.1405
  13   2.0000     -10.441577      -284.1298
  14   2.0000     -10.441113      -284.1171
  15   2.0000     -10.362851      -281.9875
  16   2.0000      -5.898654      -160.5105
  17   2.0000      -5.898379      -160.5030
  18   2.0000      -5.897744      -160.4858
  19   2.0000      -5.896339      -160.4475
  20   2.0000      -5.896111      -160.4413
  21   2.0000      -2.440438       -66.4077
  22   2.0000      -1.278404       -34.7871
  23   2.0000      -1.276168       -34.7263
  24   2.0000      -1.266381       -34.4600
  25   2.0000      -0.976147       -26.5623
  26   2.0000      -0.969019       -26.3683
  27   2.0000      -0.797853       -21.7107
  28   2.0000      -0.792105       -21.5543
  29   2.0000      -0.791053       -21.5256
  30   2.0000      -0.790408       -21.5081
  31   2.0000      -0.788235       -21.4490
  32   2.0000      -0.707968       -19.2648
  33   2.0000      -0.613803       -16.7024
  34   2.0000      -0.610771       -16.6199
  35   2.0000      -0.608761       -16.5652
  36   2.0000      -0.608470       -16.5573
  37   2.0000      -0.594913       -16.1884
  38   2.0000      -0.590274       -16.0622
  39   2.0000      -0.566472       -15.4145
  40   2.0000      -0.564999       -15.3744
  41   2.0000      -0.564858       -15.3706
  42   2.0000      -0.563926       -15.3452
  43   2.0000      -0.563227       -15.3262
  44   2.0000      -0.561959       -15.2917
  45   2.0000      -0.560368       -15.2484
  46   2.0000      -0.474439       -12.9101
  47   2.0000      -0.469849       -12.7852
  48   2.0000      -0.465704       -12.6724
  49   2.0000      -0.457336       -12.4447
  50   2.0000      -0.451945       -12.2981
  51   2.0000      -0.450454       -12.2575
  52   2.0000      -0.450022       -12.2457
  53   2.0000      -0.447580       -12.1793
  54   2.0000      -0.433074       -11.7845
  55   2.0000      -0.430944       -11.7266
  56   2.0000      -0.430292       -11.7089
  57   2.0000      -0.428618       -11.6633
  58   2.0000      -0.426924       -11.6172
  59   2.0000      -0.398799       -10.8519
  60   2.0000      -0.397219       -10.8089
  61   2.0000      -0.289145        -7.8680
  62   2.0000      -0.282774        -7.6947
  63   2.0000      -0.277917        -7.5625
  64   2.0000      -0.265534        -7.2256
  65   2.0000      -0.260855        -7.0982
  66   0.0000      -0.021915        -0.5963
  67   0.0000       0.011465         0.3120
  68   0.0000       0.042891         1.1671
  69   0.0000       0.052065         1.4168
  70   0.0000       0.057691         1.5699

MULLIKEN ATOMIC CHARGES
-----------------------
   0 Lu:    0.892804
   1 C :   -0.298034
   2 C :   -0.294646
   3 C :   -0.244611
   4 C :   -0.354267
   5 C :   -0.257810
   6 H :    0.242230
   7 H :    0.251115
   8 H :    0.233748
   9 H :    0.231826
  10 H :    0.230541
  11 C :   -0.348986
  12 C :   -0.245864
  13 C :   -0.277494
  14 C :   -0.267638
  15 H :    0.243914
  16 C :   -0.308191
  17 H :    0.247923
  18 H :    0.232095
  19 H :    0.231771
  20 H :    0.231898
  21 C :   -0.922256
  22 H :    0.244219
  23 H :    0.244949
  24 H :    0.268074
  25 C :   -1.093520
  26 H :    0.219330
  27 H :    0.219646
  28 H :    0.226452
  29 H :    0.220780
Sum of atomic charges:   -0.0000000

LOEWDIN ATOMIC CHARGES
----------------------
   0 Lu:    0.069925
   1 C :   -0.146717
   2 C :   -0.154587
   3 C :   -0.131119
   4 C :   -0.160303
   5 C :   -0.137546
   6 H :    0.156168
   7 H :    0.160287
   8 H :    0.152206
   9 H :    0.150141
  10 H :    0.149657
  11 C :   -0.158019
  12 C :   -0.135018
  13 C :   -0.150724
  14 C :   -0.136434
  15 H :    0.157066
  16 C :   -0.150725
  17 H :    0.158578
  18 H :    0.150523
  19 H :    0.150102
  20 H :    0.150623
  21 C :   -0.491673
  22 H :    0.141585
  23 H :    0.140779
  24 H :    0.160016
  25 C :   -0.652057
  26 H :    0.140495
  27 H :    0.145308
  28 H :    0.135699
  29 H :    0.135763

  Mayer bond orders larger than 0.100000
B(  0-Lu,  1-C ) :   0.2460 B(  0-Lu,  2-C ) :   0.2440 B(  0-Lu,  3-C ) :   0.2334
B(  0-Lu,  4-C ) :   0.2923 B(  0-Lu,  5-C ) :   0.2424 B(  0-Lu, 11-C ) :   0.2928
B(  0-Lu, 12-C ) :   0.2304 B(  0-Lu, 13-C ) :   0.2398 B(  0-Lu, 14-C ) :   0.2448
B(  0-Lu, 16-C ) :   0.2504 B(  0-Lu, 25-C ) :   0.8304 B(  1-C ,  2-C ) :   1.2837
B(  1-C ,  5-C ) :   1.3181 B(  1-C ,  8-H ) :   0.9198 B(  2-C ,  3-C ) :   1.3191
B(  2-C ,  9-H ) :   0.9205 B(  3-C ,  4-C ) :   1.2897 B(  3-C , 10-H ) :   0.9195
B(  4-C ,  5-C ) :   1.2670 B(  4-C ,  6-H ) :   0.9155 B(  5-C ,  7-H ) :   0.9088
B( 11-C , 12-C ) :   1.2784 B( 11-C , 14-C ) :   1.2831 B( 11-C , 15-H ) :   0.9140
B( 12-C , 16-C ) :   1.3170 B( 12-C , 17-H ) :   0.9104 B( 13-C , 14-C ) :   1.3138
B( 13-C , 16-C ) :   1.2865 B( 13-C , 19-H ) :   0.9199 B( 14-C , 18-H ) :   0.9192
B( 16-C , 20-H ) :   0.9216 B( 21-C , 22-H ) :   0.9185 B( 21-C , 23-H ) :   0.9191
B( 21-C , 24-H ) :   0.8979 B( 21-C , 26-H ) :   0.8886 B( 25-C , 27-H ) :   0.8912
B( 25-C , 28-H ) :   0.9083 B( 25-C , 29-H ) :   0.9041

Dispersion correction           -0.017163523
FINAL SINGLE POINT ENERGY     -1702.387792676576
Dispersion correction            ... done

DIPOLE MOMENT
-------------
                                X             Y             Z
Electronic contribution:     -4.34830      17.96270      -8.47966
Nuclear contribution   :      4.44435     -18.53066       8.80456
                        -----------------------------------------
Total Dipole Moment    :      0.09605      -0.56796       0.32490
                        -----------------------------------------
Magnitude (a.u.)       :      0.66133
Magnitude (Debye)      :      1.68098

Rotational constants in cm-1:     0.027506     0.019422     0.016908
Rotational constants in MHz :   824.619484   582.265918   506.894244

                             ****ORCA TERMINATED NORMALLY****
TOTAL RUN TIME: 0 days 0 hours 8 minutes 25 seconds 155 msec
