                         Program Version 5.0.3 -  RELEASE  -
|  1> ! EnGrad PBEh-3c
|  2> %output
|  3> xyzfile=True
|  4> end
|  5> %scf
|  6> maxiter 250
|  7> end
|  8> %output
|  9> Print[P_Hirshfeld] = 1
| 10> end
| 11> % maxcore
| 12> 4000
| 13> *xyz 0 1
| 14> Lu   0.09450657   0.36280263  -0.19945624
| 15> C    0.37012660   0.99006805   2.39030890
| 16> C    1.32935902  -0.02668893   2.16858749
| 17> C    2.28251728   0.45565836   1.25790086
| 18> C    1.92835079   1.78122665   0.92063528
| 19> C    0.73765263   2.10119346   1.61169176
| 20> H    2.49467169   2.44284803   0.28216999
| 21> H    0.21231397   3.04581302   1.57675618
| 22> H   -0.44221920   0.94549823   3.09544332
| 23> H    1.36324379  -0.98470297   2.67234865
| 24> H    3.17651549  -0.06217805   0.94896198
| 25> C    1.02198874  -0.03900402  -2.56519879
| 26> C   -0.27538502  -0.59060513  -2.60427200
| 27> C    1.02165810  -1.91715016  -1.27764695
| 28> C    1.82198611  -0.85656424  -1.73489926
| 29> H    1.35704663   0.83829625  -3.09976297
| 30> C   -0.26969293  -1.76641704  -1.83128874
| 31> H   -1.11314033  -0.21049827  -3.16955951
| 32> H    2.87726942  -0.73967375  -1.55041934
| 33> H    1.35644988  -2.75772800  -0.68534581
| 34> H   -1.07754131  -2.47323085  -1.73536085
| 35> C   -2.45249663  -1.58465321   1.35286572
| 36> H   -2.51091389  -1.41007285   2.43404489
| 37> H   -2.85583675  -2.56861628   1.08422962
| 38> H   -2.94431728  -0.77387592   0.78885834
| 39> C   -1.80807975   1.68331406  -0.70781447
| 40> H   -1.37475812  -1.65184585   1.08727614
| 41> H   -1.43912515   2.52054735  -1.32744603
| 42> H   -2.36819022   2.15220570   0.11661816
| 43> H   -2.55321756   1.17269147  -1.33789024
| 44> *
| 45>
| 46>                          ****END OF INPUT****

CARTESIAN COORDINATES (ANGSTROEM)
---------------------------------
  Lu     0.094507    0.362803   -0.199456
  C      0.370127    0.990068    2.390309
  C      1.329359   -0.026689    2.168587
  C      2.282517    0.455658    1.257901
  C      1.928351    1.781227    0.920635
  C      0.737653    2.101193    1.611692
  H      2.494672    2.442848    0.282170
  H      0.212314    3.045813    1.576756
  H     -0.442219    0.945498    3.095443
  H      1.363244   -0.984703    2.672349
  H      3.176515   -0.062178    0.948962
  C      1.021989   -0.039004   -2.565199
  C     -0.275385   -0.590605   -2.604272
  C      1.021658   -1.917150   -1.277647
  C      1.821986   -0.856564   -1.734899
  H      1.357047    0.838296   -3.099763
  C     -0.269693   -1.766417   -1.831289
  H     -1.113140   -0.210498   -3.169560
  H      2.877269   -0.739674   -1.550419
  H      1.356450   -2.757728   -0.685346
  H     -1.077541   -2.473231   -1.735361
  C     -2.452497   -1.584653    1.352866
  H     -2.510914   -1.410073    2.434045
  H     -2.855837   -2.568616    1.084230
  H     -2.944317   -0.773876    0.788858
  C     -1.808080    1.683314   -0.707814
  H     -1.374758   -1.651846    1.087276
  H     -1.439125    2.520547   -1.327446
  H     -2.368190    2.152206    0.116618
  H     -2.553218    1.172691   -1.337890

 Total Charge           Charge          ....    0
 Multiplicity           Mult            ....    1
 Number of Electrons    NEL             ....  132
 Basis Dimension        Dim             ....  295

ORBITAL ENERGIES
----------------

  NO   OCC          E(Eh)            E(eV)
   0   2.0000     -19.253949      -523.9266
   1   2.0000     -12.626548      -343.5859
   2   2.0000     -12.624003      -343.5166
   3   2.0000     -12.623368      -343.4993
   4   2.0000     -10.446228      -284.2563
   5   2.0000     -10.445363      -284.2328
   6   2.0000     -10.445243      -284.2295
   7   2.0000     -10.444852      -284.2189
   8   2.0000     -10.444711      -284.2150
   9   2.0000     -10.444682      -284.2142
  10   2.0000     -10.444128      -284.1992
  11   2.0000     -10.444091      -284.1982
  12   2.0000     -10.443205      -284.1741
  13   2.0000     -10.443026      -284.1692
  14   2.0000     -10.441370      -284.1241
  15   2.0000     -10.364347      -282.0282
  16   2.0000      -5.895608      -160.4277
  17   2.0000      -5.895322      -160.4199
  18   2.0000      -5.894659      -160.4018
  19   2.0000      -5.893201      -160.3621
  20   2.0000      -5.892993      -160.3565
  21   2.0000      -2.437460       -66.3266
  22   2.0000      -1.275745       -34.7148
  23   2.0000      -1.274393       -34.6780
  24   2.0000      -1.263465       -34.3806
  25   2.0000      -0.978642       -26.6302
  26   2.0000      -0.970785       -26.4164
  27   2.0000      -0.795463       -21.6456
  28   2.0000      -0.793813       -21.6008
  29   2.0000      -0.791842       -21.5471
  30   2.0000      -0.790818       -21.5193
  31   2.0000      -0.790225       -21.5031
  32   2.0000      -0.699549       -19.0357
  33   2.0000      -0.614150       -16.7119
  34   2.0000      -0.611960       -16.6523
  35   2.0000      -0.609742       -16.5919
  36   2.0000      -0.608519       -16.5586
  37   2.0000      -0.595871       -16.2145
  38   2.0000      -0.591095       -16.0845
  39   2.0000      -0.563492       -15.3334
  40   2.0000      -0.561989       -15.2925
  41   2.0000      -0.561804       -15.2875
  42   2.0000      -0.560786       -15.2598
  43   2.0000      -0.560148       -15.2424
  44   2.0000      -0.558833       -15.2066
  45   2.0000      -0.557194       -15.1620
  46   2.0000      -0.472533       -12.8583
  47   2.0000      -0.468697       -12.7539
  48   2.0000      -0.467439       -12.7197
  49   2.0000      -0.456791       -12.4299
  50   2.0000      -0.453008       -12.3270
  51   2.0000      -0.450573       -12.2607
  52   2.0000      -0.449609       -12.2345
  53   2.0000      -0.449088       -12.2203
  54   2.0000      -0.433459       -11.7950
  55   2.0000      -0.432414       -11.7666
  56   2.0000      -0.431208       -11.7338
  57   2.0000      -0.429287       -11.6815
  58   2.0000      -0.428281       -11.6541
  59   2.0000      -0.394003       -10.7214
  60   2.0000      -0.393218       -10.7000
  61   2.0000      -0.291101        -7.9213
  62   2.0000      -0.283372        -7.7109
  63   2.0000      -0.277391        -7.5482
  64   2.0000      -0.264532        -7.1983
  65   2.0000      -0.258551        -7.0355
  66   0.0000      -0.021240        -0.5780
  67   0.0000       0.009531         0.2593
  68   0.0000       0.042719         1.1624
  69   0.0000       0.053222         1.4482
  70   0.0000       0.056153         1.5280

MULLIKEN ATOMIC CHARGES
-----------------------
   0 Lu:    0.866766
   1 C :   -0.285586
   2 C :   -0.283812
   3 C :   -0.277048
   4 C :   -0.314905
   5 C :   -0.278695
   6 H :    0.243212
   7 H :    0.249385
   8 H :    0.234697
   9 H :    0.232807
  10 H :    0.232015
  11 C :   -0.309195
  12 C :   -0.277909
  13 C :   -0.289695
  14 C :   -0.286596
  15 H :    0.243999
  16 C :   -0.273777
  17 H :    0.245075
  18 H :    0.233843
  19 H :    0.232009
  20 H :    0.233287
  21 C :   -0.910422
  22 H :    0.245187
  23 H :    0.244750
  24 H :    0.268725
  25 C :   -1.069131
  26 H :    0.207328
  27 H :    0.213085
  28 H :    0.217888
  29 H :    0.212713
Sum of atomic charges:   -0.0000000

LOEWDIN ATOMIC CHARGES
----------------------
   0 Lu:    0.039565
   1 C :   -0.143946
   2 C :   -0.149875
   3 C :   -0.134039
   4 C :   -0.154341
   5 C :   -0.133702
   6 H :    0.156663
   7 H :    0.160306
   8 H :    0.153237
   9 H :    0.150364
  10 H :    0.151550
  11 C :   -0.150709
  12 C :   -0.132901
  13 C :   -0.149299
  14 C :   -0.138837
  15 H :    0.157035
  16 C :   -0.145230
  17 H :    0.158801
  18 H :    0.152167
  19 H :    0.150671
  20 H :    0.151188
  21 C :   -0.487446
  22 H :    0.141088
  23 H :    0.140028
  24 H :    0.160150
  25 C :   -0.649067
  26 H :    0.140262
  27 H :    0.141546
  28 H :    0.132471
  29 H :    0.132297

  Mayer bond orders larger than 0.100000
B(  0-Lu,  1-C ) :   0.2469 B(  0-Lu,  2-C ) :   0.2493 B(  0-Lu,  3-C ) :   0.2476
B(  0-Lu,  4-C ) :   0.2902 B(  0-Lu,  5-C ) :   0.2437 B(  0-Lu, 11-C ) :   0.2875
B(  0-Lu, 12-C ) :   0.2331 B(  0-Lu, 13-C ) :   0.2503 B(  0-Lu, 14-C ) :   0.2576
B(  0-Lu, 16-C ) :   0.2488 B(  0-Lu, 25-C ) :   0.8276 B(  1-C ,  2-C ) :   1.2813
B(  1-C ,  5-C ) :   1.3162 B(  1-C ,  8-H ) :   0.9205 B(  2-C ,  3-C ) :   1.3152
B(  2-C ,  9-H ) :   0.9189 B(  3-C ,  4-C ) :   1.2807 B(  3-C , 10-H ) :   0.9210
B(  4-C ,  5-C ) :   1.2740 B(  4-C ,  6-H ) :   0.9133 B(  5-C ,  7-H ) :   0.9119
B( 11-C , 12-C ) :   1.2852 B( 11-C , 14-C ) :   1.2796 B( 11-C , 15-H ) :   0.9121
B( 12-C , 16-C ) :   1.3147 B( 12-C , 17-H ) :   0.9149 B( 13-C , 14-C ) :   1.3042
B( 13-C , 16-C ) :   1.2863 B( 13-C , 19-H ) :   0.9201 B( 14-C , 18-H ) :   0.9192
B( 16-C , 20-H ) :   0.9201 B( 21-C , 22-H ) :   0.9169 B( 21-C , 23-H ) :   0.9178
B( 21-C , 24-H ) :   0.8992 B( 21-C , 26-H ) :   0.8915 B( 25-C , 27-H ) :   0.8953
B( 25-C , 28-H ) :   0.9100 B( 25-C , 29-H ) :   0.9070

Dispersion correction           -0.017207814
FINAL SINGLE POINT ENERGY     -1702.388856629439
Dispersion correction            ... done

DIPOLE MOMENT
-------------
                                X             Y             Z
Electronic contribution:     -2.42170      17.02099      -8.20026
Nuclear contribution   :      2.59872     -17.64056       8.55700
                        -----------------------------------------
Total Dipole Moment    :      0.17702      -0.61958       0.35674
                        -----------------------------------------
Magnitude (a.u.)       :      0.73653
Magnitude (Debye)      :      1.87211

Rotational constants in cm-1:     0.027655     0.019606     0.016983
Rotational constants in MHz :   829.071249   587.758152   509.125916

                             ****ORCA TERMINATED NORMALLY****
TOTAL RUN TIME: 0 days 0 hours 8 minutes 14 seconds 761 msec
