                         Program Version 5.0.3 -  RELEASE  -
|  1> ! EnGrad PBEh-3c
|  2> %output
|  3> xyzfile=True
|  4> end
|  5> %scf
|  6> maxiter 250
|  7> end
|  8> %output
|  9> Print[P_Hirshfeld] = 1
| 10> end
| 11> % maxcore
| 12> 4000
| 13> *xyz 0 1
| 14> Lu   0.11638306   0.34690907  -0.19639887
| 15> C    0.37210772   0.98354442   2.37850573
| 16> C    1.32102968  -0.02580228   2.15810320
| 17> C    2.27865864   0.45971377   1.25036673
| 18> C    1.92693024   1.77864686   0.92154238
| 19> C    0.73323317   2.10063046   1.60602954
| 20> H    2.49396337   2.44384558   0.27871967
| 21> H    0.21592242   3.04782034   1.58114123
| 22> H   -0.44800261   0.93968750   3.09291598
| 23> H    1.35939007  -0.98809243   2.65738196
| 24> H    3.17786988  -0.06212810   0.94321016
| 25> C    1.02293614  -0.03983071  -2.56285608
| 26> C   -0.27857640  -0.58725522  -2.59698209
| 27> C    1.01324670  -1.90393824  -1.27445293
| 28> C    1.81882312  -0.84953604  -1.73373601
| 29> H    1.35697986   0.84010729  -3.09907807
| 30> C   -0.26254986  -1.75789773  -1.82232977
| 31> H   -1.11222846  -0.21146213  -3.17411007
| 32> H    2.87834238  -0.73268409  -1.54625211
| 33> H    1.35840085  -2.75182358  -0.67878374
| 34> H   -1.08104014  -2.46946313  -1.71934845
| 35> C   -2.45936150  -1.58041336   1.34729102
| 36> H   -2.51427154  -1.41053292   2.42532410
| 37> H   -2.84830885  -2.56221246   1.08908251
| 38> H   -2.98113452  -0.79241429   0.80945931
| 39> C   -1.79807630   1.68158684  -0.71352121
| 40> H   -1.38187433  -1.62363025   1.07412466
| 41> H   -1.43757763   2.52440625  -1.33133414
| 42> H   -2.34770497   2.13848840   0.12741030
| 43> H   -2.54316010   1.16241312  -1.34004411
| 44> *
| 45>
| 46>                          ****END OF INPUT****

CARTESIAN COORDINATES (ANGSTROEM)
---------------------------------
  Lu     0.116383    0.346909   -0.196399
  C      0.372108    0.983544    2.378506
  C      1.321030   -0.025802    2.158103
  C      2.278659    0.459714    1.250367
  C      1.926930    1.778647    0.921542
  C      0.733233    2.100630    1.606030
  H      2.493963    2.443846    0.278720
  H      0.215922    3.047820    1.581141
  H     -0.448003    0.939688    3.092916
  H      1.359390   -0.988092    2.657382
  H      3.177870   -0.062128    0.943210
  C      1.022936   -0.039831   -2.562856
  C     -0.278576   -0.587255   -2.596982
  C      1.013247   -1.903938   -1.274453
  C      1.818823   -0.849536   -1.733736
  H      1.356980    0.840107   -3.099078
  C     -0.262550   -1.757898   -1.822330
  H     -1.112228   -0.211462   -3.174110
  H      2.878342   -0.732684   -1.546252
  H      1.358401   -2.751824   -0.678784
  H     -1.081040   -2.469463   -1.719348
  C     -2.459361   -1.580413    1.347291
  H     -2.514272   -1.410533    2.425324
  H     -2.848309   -2.562212    1.089083
  H     -2.981135   -0.792414    0.809459
  C     -1.798076    1.681587   -0.713521
  H     -1.381874   -1.623630    1.074125
  H     -1.437578    2.524406   -1.331334
  H     -2.347705    2.138488    0.127410
  H     -2.543160    1.162413   -1.340044

 Total Charge           Charge          ....    0
 Multiplicity           Mult            ....    1
 Number of Electrons    NEL             ....  132
 Basis Dimension        Dim             ....  295

ORBITAL ENERGIES
----------------

  NO   OCC          E(Eh)            E(eV)
   0   2.0000     -19.251786      -523.8677
   1   2.0000     -12.624419      -343.5279
   2   2.0000     -12.621809      -343.4569
   3   2.0000     -12.621164      -343.4393
   4   2.0000     -10.445844      -284.2459
   5   2.0000     -10.445423      -284.2344
   6   2.0000     -10.445223      -284.2290
   7   2.0000     -10.444992      -284.2227
   8   2.0000     -10.444311      -284.2042
   9   2.0000     -10.444238      -284.2022
  10   2.0000     -10.443757      -284.1891
  11   2.0000     -10.443185      -284.1735
  12   2.0000     -10.442635      -284.1585
  13   2.0000     -10.441780      -284.1353
  14   2.0000     -10.441077      -284.1161
  15   2.0000     -10.363298      -281.9997
  16   2.0000      -5.893451      -160.3689
  17   2.0000      -5.893152      -160.3608
  18   2.0000      -5.892470      -160.3423
  19   2.0000      -5.890975      -160.3016
  20   2.0000      -5.890776      -160.2962
  21   2.0000      -2.435368       -66.2697
  22   2.0000      -1.273982       -34.6668
  23   2.0000      -1.273283       -34.6478
  24   2.0000      -1.261497       -34.3271
  25   2.0000      -0.982286       -26.7294
  26   2.0000      -0.973853       -26.4999
  27   2.0000      -0.797625       -21.7045
  28   2.0000      -0.794450       -21.6181
  29   2.0000      -0.793989       -21.6055
  30   2.0000      -0.792355       -21.5611
  31   2.0000      -0.790356       -21.5067
  32   2.0000      -0.695974       -18.9384
  33   2.0000      -0.614008       -16.7080
  34   2.0000      -0.611420       -16.6376
  35   2.0000      -0.609428       -16.5834
  36   2.0000      -0.607326       -16.5262
  37   2.0000      -0.596258       -16.2250
  38   2.0000      -0.591196       -16.0873
  39   2.0000      -0.561376       -15.2758
  40   2.0000      -0.559832       -15.2338
  41   2.0000      -0.559637       -15.2285
  42   2.0000      -0.558565       -15.1993
  43   2.0000      -0.557951       -15.1826
  44   2.0000      -0.556580       -15.1453
  45   2.0000      -0.554975       -15.1016
  46   2.0000      -0.475494       -12.9388
  47   2.0000      -0.470471       -12.8022
  48   2.0000      -0.467903       -12.7323
  49   2.0000      -0.458441       -12.4748
  50   2.0000      -0.452915       -12.3244
  51   2.0000      -0.450727       -12.2649
  52   2.0000      -0.449392       -12.2286
  53   2.0000      -0.448842       -12.2136
  54   2.0000      -0.433409       -11.7937
  55   2.0000      -0.432879       -11.7792
  56   2.0000      -0.432296       -11.7634
  57   2.0000      -0.430910       -11.7257
  58   2.0000      -0.428511       -11.6604
  59   2.0000      -0.392015       -10.6673
  60   2.0000      -0.390705       -10.6316
  61   2.0000      -0.290887        -7.9154
  62   2.0000      -0.285953        -7.7812
  63   2.0000      -0.279067        -7.5938
  64   2.0000      -0.265645        -7.2286
  65   2.0000      -0.254433        -6.9235
  66   0.0000      -0.020740        -0.5644
  67   0.0000       0.009185         0.2499
  68   0.0000       0.043053         1.1715
  69   0.0000       0.054299         1.4775
  70   0.0000       0.054839         1.4922

MULLIKEN ATOMIC CHARGES
-----------------------
   0 Lu:    0.853118
   1 C :   -0.279720
   2 C :   -0.284961
   3 C :   -0.283349
   4 C :   -0.305506
   5 C :   -0.280861
   6 H :    0.243095
   7 H :    0.248330
   8 H :    0.234049
   9 H :    0.233947
  10 H :    0.232817
  11 C :   -0.300524
  12 C :   -0.282574
  13 C :   -0.295568
  14 C :   -0.288731
  15 H :    0.243859
  16 C :   -0.262288
  17 H :    0.243687
  18 H :    0.234946
  19 H :    0.232390
  20 H :    0.233310
  21 C :   -0.911019
  22 H :    0.244857
  23 H :    0.245983
  24 H :    0.271807
  25 C :   -1.058876
  26 H :    0.203788
  27 H :    0.211129
  28 H :    0.213805
  29 H :    0.209058
Sum of atomic charges:    0.0000000

LOEWDIN ATOMIC CHARGES
----------------------
   0 Lu:    0.021444
   1 C :   -0.140026
   2 C :   -0.150209
   3 C :   -0.134662
   4 C :   -0.150309
   5 C :   -0.133007
   6 H :    0.156802
   7 H :    0.160489
   8 H :    0.153739
   9 H :    0.151301
  10 H :    0.152484
  11 C :   -0.146183
  12 C :   -0.131489
  13 C :   -0.149588
  14 C :   -0.138974
  15 H :    0.157054
  16 C :   -0.141449
  17 H :    0.159127
  18 H :    0.153279
  19 H :    0.151780
  20 H :    0.152052
  21 C :   -0.485415
  22 H :    0.140671
  23 H :    0.139568
  24 H :    0.158931
  25 C :   -0.648028
  26 H :    0.140365
  27 H :    0.139346
  28 H :    0.130580
  29 H :    0.130327

  Mayer bond orders larger than 0.100000
B(  0-Lu,  1-C ) :   0.2464 B(  0-Lu,  2-C ) :   0.2544 B(  0-Lu,  3-C ) :   0.2550
B(  0-Lu,  4-C ) :   0.2874 B(  0-Lu,  5-C ) :   0.2439 B(  0-Lu, 11-C ) :   0.2846
B(  0-Lu, 12-C ) :   0.2351 B(  0-Lu, 13-C ) :   0.2578 B(  0-Lu, 14-C ) :   0.2643
B(  0-Lu, 16-C ) :   0.2480 B(  0-Lu, 25-C ) :   0.8260 B(  1-C ,  2-C ) :   1.2854
B(  1-C ,  5-C ) :   1.3138 B(  1-C ,  8-H ) :   0.9204 B(  2-C ,  3-C ) :   1.3034
B(  2-C ,  9-H ) :   0.9184 B(  3-C ,  4-C ) :   1.2837 B(  3-C , 10-H ) :   0.9203
B(  4-C ,  5-C ) :   1.2752 B(  4-C ,  6-H ) :   0.9126 B(  5-C ,  7-H ) :   0.9137
B( 11-C , 12-C ) :   1.2860 B( 11-C , 14-C ) :   1.2835 B( 11-C , 15-H ) :   0.9118
B( 12-C , 16-C ) :   1.3118 B( 12-C , 17-H ) :   0.9167 B( 13-C , 14-C ) :   1.2922
B( 13-C , 16-C ) :   1.2886 B( 13-C , 19-H ) :   0.9195 B( 14-C , 18-H ) :   0.9182
B( 16-C , 20-H ) :   0.9193 B( 21-C , 22-H ) :   0.9177 B( 21-C , 23-H ) :   0.9176
B( 21-C , 24-H ) :   0.8994 B( 21-C , 26-H ) :   0.8931 B( 25-C , 27-H ) :   0.8979
B( 25-C , 28-H ) :   0.9109 B( 25-C , 29-H ) :   0.9086

Dispersion correction           -0.017251706
FINAL SINGLE POINT ENERGY     -1702.389232649811
Dispersion correction            ... done

DIPOLE MOMENT
-------------
                                X             Y             Z
Electronic contribution:     -1.26097      16.13433      -7.98974
Nuclear contribution   :      1.47469     -16.79061       8.36312
                        -----------------------------------------
Total Dipole Moment    :      0.21373      -0.65628       0.37338
                        -----------------------------------------
Magnitude (a.u.)       :      0.78473
Magnitude (Debye)      :      1.99462

Rotational constants in cm-1:     0.027836     0.019765     0.017066
Rotational constants in MHz :   834.496427   592.542429   511.613663

                             ****ORCA TERMINATED NORMALLY****
TOTAL RUN TIME: 0 days 0 hours 8 minutes 38 seconds 975 msec
