                         Program Version 5.0.3 -  RELEASE  -
|  1> ! EnGrad PBEh-3c
|  2> %output
|  3> xyzfile=True
|  4> end
|  5> %scf
|  6> maxiter 250
|  7> end
|  8> %output
|  9> Print[P_Hirshfeld] = 1
| 10> end
| 11> % maxcore
| 12> 4000
| 13> *xyz 0 1
| 14> C   -1.78561556   0.17510007  -0.23682184
| 15> C   -1.71979296  -0.70510768  -1.30747261
| 16> C   -1.09725412  -1.93039045  -1.15511915
| 17> C   -0.45187948  -2.23570509   0.02914503
| 18> C   -1.23252713  -0.20153635   0.97238676
| 19> C   -0.48645510  -1.35602945   1.10038001
| 20> H   -2.34782922   1.08661900  -0.40230709
| 21> H   -2.23517368  -0.48706500  -2.23382786
| 22> H   -1.13454968  -2.65741951  -1.95812260
| 23> H    0.04685870  -1.63482270   2.00133717
| 24> H    0.03526537  -3.19699215   0.13045251
| 25> Pd   1.40110386   1.17736726   0.00540451
| 26> O    2.62361718   0.86961072  -1.62538616
| 27> O    2.62993858  -0.46104804   0.07427426
| 28> O    0.33006886   2.90359138  -0.01769240
| 29> C    0.12882988   3.00311772   1.20592051
| 30> O    0.65576070   2.14992319   1.98372532
| 31> H   -1.62924973   0.73538014   2.47874777
| 32> C    3.01891630  -0.19230667  -1.09105408
| 33> H    3.77689926  -0.82429850  -1.56820077
| 34> H   -0.52692893   3.78200213   1.61423694
| 35> *
| 36>
| 37>                          ****END OF INPUT****

CARTESIAN COORDINATES (ANGSTROEM)
---------------------------------
  C     -1.785616    0.175100   -0.236822
  C     -1.719793   -0.705108   -1.307473
  C     -1.097254   -1.930390   -1.155119
  C     -0.451879   -2.235705    0.029145
  C     -1.232527   -0.201536    0.972387
  C     -0.486455   -1.356029    1.100380
  H     -2.347829    1.086619   -0.402307
  H     -2.235174   -0.487065   -2.233828
  H     -1.134550   -2.657420   -1.958123
  H      0.046859   -1.634823    2.001337
  H      0.035265   -3.196992    0.130453
  Pd     1.401104    1.177367    0.005405
  O      2.623617    0.869611   -1.625386
  O      2.629939   -0.461048    0.074274
  O      0.330069    2.903591   -0.017692
  C      0.128830    3.003118    1.205921
  O      0.655761    2.149923    1.983725
  H     -1.629250    0.735380    2.478748
  C      3.018916   -0.192307   -1.091054
  H      3.776899   -0.824299   -1.568201
  H     -0.526929    3.782002    1.614237

 Total Charge           Charge          ....    0
 Multiplicity           Mult            ....    1
 Number of Electrons    NEL             ....  106
 Basis Dimension        Dim             ....  227

ORBITAL ENERGIES
----------------

  NO   OCC          E(Eh)            E(eV)
   0   2.0000     -19.542196      -531.7702
   1   2.0000     -19.541699      -531.7567
   2   2.0000     -19.528611      -531.4005
   3   2.0000     -19.502585      -530.6923
   4   2.0000     -10.599945      -288.4392
   5   2.0000     -10.578225      -287.8481
   6   2.0000     -10.506140      -285.8866
   7   2.0000     -10.464382      -284.7503
   8   2.0000     -10.462699      -284.7045
   9   2.0000     -10.460268      -284.6384
  10   2.0000     -10.459400      -284.6148
  11   2.0000     -10.456413      -284.5335
  12   2.0000      -3.697603      -100.6169
  13   2.0000      -2.351387       -63.9845
  14   2.0000      -2.337476       -63.6059
  15   2.0000      -2.305344       -62.7316
  16   2.0000      -1.246075       -33.9074
  17   2.0000      -1.218140       -33.1473
  18   2.0000      -1.128960       -30.7206
  19   2.0000      -1.096618       -29.8405
  20   2.0000      -0.972794       -26.4711
  21   2.0000      -0.853366       -23.2213
  22   2.0000      -0.843522       -22.9534
  23   2.0000      -0.707802       -19.2603
  24   2.0000      -0.691857       -18.8264
  25   2.0000      -0.686033       -18.6679
  26   2.0000      -0.680152       -18.5079
  27   2.0000      -0.602298       -16.3894
  28   2.0000      -0.592743       -16.1294
  29   2.0000      -0.579270       -15.7627
  30   2.0000      -0.572644       -15.5824
  31   2.0000      -0.544231       -14.8093
  32   2.0000      -0.540786       -14.7155
  33   2.0000      -0.527129       -14.3439
  34   2.0000      -0.522295       -14.2124
  35   2.0000      -0.518571       -14.1110
  36   2.0000      -0.494744       -13.4627
  37   2.0000      -0.454883       -12.3780
  38   2.0000      -0.446743       -12.1565
  39   2.0000      -0.444354       -12.0915
  40   2.0000      -0.424186       -11.5427
  41   2.0000      -0.414344       -11.2749
  42   2.0000      -0.412979       -11.2377
  43   2.0000      -0.398339       -10.8394
  44   2.0000      -0.391179       -10.6445
  45   2.0000      -0.371613       -10.1121
  46   2.0000      -0.369754       -10.0615
  47   2.0000      -0.348152        -9.4737
  48   2.0000      -0.342926        -9.3315
  49   2.0000      -0.334768        -9.1095
  50   2.0000      -0.329302        -8.9608
  51   2.0000      -0.306477        -8.3397
  52   2.0000      -0.298750        -8.1294
  53   0.0000      -0.105091        -2.8597
  54   0.0000      -0.019314        -0.5255
  55   0.0000       0.005857         0.1594
  56   0.0000       0.010123         0.2755
  57   0.0000       0.017021         0.4632

MULLIKEN ATOMIC CHARGES
-----------------------
   0 C :   -0.245100
   1 C :   -0.216934
   2 C :   -0.226050
   3 C :   -0.216775
   4 C :   -0.115475
   5 C :   -0.243034
   6 H :    0.244729
   7 H :    0.233220
   8 H :    0.227778
   9 H :    0.253980
  10 H :    0.230778
  11 Pd:    0.551899
  12 O :   -0.448559
  13 O :   -0.452018
  14 O :   -0.455173
  15 C :    0.394921
  16 O :   -0.458369
  17 H :    0.097540
  18 C :    0.430584
  19 H :    0.211796
  20 H :    0.200261
Sum of atomic charges:    0.0000000

LOEWDIN ATOMIC CHARGES
----------------------
   0 C :   -0.130978
   1 C :   -0.123086
   2 C :   -0.134228
   3 C :   -0.121517
   4 C :   -0.049214
   5 C :   -0.125476
   6 H :    0.154192
   7 H :    0.143240
   8 H :    0.139354
   9 H :    0.158377
  10 H :    0.142581
  11 Pd:   -0.106646
  12 O :   -0.130395
  13 O :   -0.133671
  14 O :   -0.132254
  15 C :    0.145731
  16 O :   -0.206386
  17 H :    0.094032
  18 C :    0.172398
  19 H :    0.126156
  20 H :    0.117791

  Mayer bond orders larger than 0.100000
B(  0-C ,  1-C ) :   1.4127 B(  0-C ,  4-C ) :   1.4127 B(  0-C ,  6-H ) :   0.9102
B(  1-C ,  2-C ) :   1.4285 B(  1-C ,  7-H ) :   0.9132 B(  2-C ,  3-C ) :   1.4283
B(  2-C ,  8-H ) :   0.9175 B(  3-C ,  5-C ) :   1.4116 B(  3-C , 10-H ) :   0.9145
B(  4-C ,  5-C ) :   1.4298 B(  4-C , 17-H ) :   0.8847 B(  5-C ,  9-H ) :   0.9062
B( 11-Pd, 12-O ) :   0.5719 B( 11-Pd, 13-O ) :   0.5844 B( 11-Pd, 14-O ) :   0.5976
B( 11-Pd, 16-O ) :   0.4411 B( 12-O , 13-O ) :   0.1132 B( 12-O , 18-C ) :   1.4758
B( 13-O , 18-C ) :   1.4439 B( 14-O , 15-C ) :   1.4250 B( 14-O , 16-O ) :   0.1078
B( 15-C , 16-O ) :   1.5650 B( 15-C , 20-H ) :   0.8848 B( 18-C , 19-H ) :   0.8881

Dispersion correction           -0.013685509
FINAL SINGLE POINT ENERGY      -737.014000771871
Dispersion correction            ... done

DIPOLE MOMENT
-------------
                                X             Y             Z
Electronic contribution:     53.36592      44.43541      -0.53121
Nuclear contribution   :    -53.58550     -45.08968       0.02274
                        -----------------------------------------
Total Dipole Moment    :     -0.21958      -0.65427      -0.50847
                        -----------------------------------------
Magnitude (a.u.)       :      0.85722
Magnitude (Debye)      :      2.17887

Rotational constants in cm-1:     0.027816     0.019533     0.014530
Rotational constants in MHz :   833.905341   585.589059   435.609531

                             ****ORCA TERMINATED NORMALLY****
TOTAL RUN TIME: 0 days 0 hours 3 minutes 56 seconds 59 msec
