                         Program Version 5.0.3 -  RELEASE  -
|  1> ! EnGrad PBEh-3c
|  2> %output
|  3> xyzfile=True
|  4> end
|  5> %scf
|  6> maxiter 250
|  7> end
|  8> %output
|  9> Print[P_Hirshfeld] = 1
| 10> end
| 11> % maxcore
| 12> 4000
| 13> *xyz 0 1
| 14> C   -1.81867945   0.18095320  -0.27757880
| 15> C   -1.90692127  -0.77770090  -1.22728677
| 16> C   -1.37524725  -2.02327215  -1.03401618
| 17> C   -0.62356693  -2.30723309   0.06967319
| 18> C   -1.14649823  -0.19080818   0.88858283
| 19> C   -0.47977975  -1.40346003   1.06589267
| 20> H   -2.17711213   1.19787503  -0.40450570
| 21> H   -2.40366855  -0.51456291  -2.08603770
| 22> H   -1.54606197  -2.79471951  -1.76943521
| 23> H    0.13895027  -1.55560412   1.94392026
| 24> H   -0.15678009  -3.21035163   0.21615425
| 25> Pd   1.50935072   1.25723142   0.10071814
| 26> O    2.78540050   1.06041604  -1.51647689
| 27> O    2.61055343  -0.42326569   0.03590956
| 28> O    0.40817884   2.88953601  -0.00610838
| 29> C    0.12866481   2.94290614   1.22451852
| 30> O    0.58589472   2.08058690   2.01045009
| 31> H   -1.14475851   0.48319059   1.71082611
| 32> C    3.15276527  -0.03377057  -1.03266855
| 33> H    3.97693472  -0.60225551  -1.46910385
| 34> H   -0.54012610   3.76073002   1.56325627
| 35> *
| 36>
| 37>                          ****END OF INPUT****

CARTESIAN COORDINATES (ANGSTROEM)
---------------------------------
  C     -1.818679    0.180953   -0.277579
  C     -1.906921   -0.777701   -1.227287
  C     -1.375247   -2.023272   -1.034016
  C     -0.623567   -2.307233    0.069673
  C     -1.146498   -0.190808    0.888583
  C     -0.479780   -1.403460    1.065893
  H     -2.177112    1.197875   -0.404506
  H     -2.403669   -0.514563   -2.086038
  H     -1.546062   -2.794720   -1.769435
  H      0.138950   -1.555604    1.943920
  H     -0.156780   -3.210352    0.216154
  Pd     1.509351    1.257231    0.100718
  O      2.785400    1.060416   -1.516477
  O      2.610553   -0.423266    0.035910
  O      0.408179    2.889536   -0.006108
  C      0.128665    2.942906    1.224519
  O      0.585895    2.080587    2.010450
  H     -1.144759    0.483191    1.710826
  C      3.152765   -0.033771   -1.032669
  H      3.976935   -0.602256   -1.469104
  H     -0.540126    3.760730    1.563256

 Total Charge           Charge          ....    0
 Multiplicity           Mult            ....    1
 Number of Electrons    NEL             ....  106
 Basis Dimension        Dim             ....  227

ORBITAL ENERGIES
----------------

  NO   OCC          E(Eh)            E(eV)
   0   2.0000     -19.542163      -531.7693
   1   2.0000     -19.540899      -531.7349
   2   2.0000     -19.538018      -531.6565
   3   2.0000     -19.520447      -531.1784
   4   2.0000     -10.600276      -288.4482
   5   2.0000     -10.591453      -288.2081
   6   2.0000     -10.447427      -284.2889
   7   2.0000     -10.445195      -284.2282
   8   2.0000     -10.444115      -284.1988
   9   2.0000     -10.443903      -284.1930
  10   2.0000     -10.437957      -284.0312
  11   2.0000     -10.436983      -284.0047
  12   2.0000      -3.699020      -100.6554
  13   2.0000      -2.354587       -64.0716
  14   2.0000      -2.338140       -63.6240
  15   2.0000      -2.307097       -62.7793
  16   2.0000      -1.247698       -33.9516
  17   2.0000      -1.229130       -33.4463
  18   2.0000      -1.129305       -30.7299
  19   2.0000      -1.116486       -30.3811
  20   2.0000      -0.969012       -26.3682
  21   2.0000      -0.854566       -23.2539
  22   2.0000      -0.838009       -22.8034
  23   2.0000      -0.711159       -19.3516
  24   2.0000      -0.693978       -18.8841
  25   2.0000      -0.689925       -18.7738
  26   2.0000      -0.685208       -18.6455
  27   2.0000      -0.606806       -16.5120
  28   2.0000      -0.604885       -16.4598
  29   2.0000      -0.586756       -15.9664
  30   2.0000      -0.580257       -15.7896
  31   2.0000      -0.555012       -15.1027
  32   2.0000      -0.546952       -14.8833
  33   2.0000      -0.532124       -14.4798
  34   2.0000      -0.527489       -14.3537
  35   2.0000      -0.519270       -14.1300
  36   2.0000      -0.498034       -13.5522
  37   2.0000      -0.476361       -12.9624
  38   2.0000      -0.455556       -12.3963
  39   2.0000      -0.438672       -11.9369
  40   2.0000      -0.428753       -11.6670
  41   2.0000      -0.419541       -11.4163
  42   2.0000      -0.405511       -11.0345
  43   2.0000      -0.400100       -10.8873
  44   2.0000      -0.394023       -10.7219
  45   2.0000      -0.389466       -10.5979
  46   2.0000      -0.385107       -10.4793
  47   2.0000      -0.374859       -10.2004
  48   2.0000      -0.351904        -9.5758
  49   2.0000      -0.342415        -9.3176
  50   2.0000      -0.336024        -9.1437
  51   2.0000      -0.303949        -8.2709
  52   2.0000      -0.287993        -7.8367
  53   0.0000      -0.098076        -2.6688
  54   0.0000       0.011095         0.3019
  55   0.0000       0.015390         0.4188
  56   0.0000       0.022072         0.6006
  57   0.0000       0.025929         0.7056

MULLIKEN ATOMIC CHARGES
-----------------------
   0 C :   -0.200961
   1 C :   -0.218337
   2 C :   -0.219946
   3 C :   -0.215565
   4 C :   -0.321736
   5 C :   -0.200874
   6 H :    0.228881
   7 H :    0.224060
   8 H :    0.214447
   9 H :    0.240227
  10 H :    0.223478
  11 Pd:    0.562076
  12 O :   -0.445444
  13 O :   -0.463356
  14 O :   -0.467519
  15 C :    0.403101
  16 O :   -0.451306
  17 H :    0.257579
  18 C :    0.435497
  19 H :    0.213269
  20 H :    0.202426
Sum of atomic charges:   -0.0000000

LOEWDIN ATOMIC CHARGES
----------------------
   0 C :   -0.126846
   1 C :   -0.128143
   2 C :   -0.129781
   3 C :   -0.125963
   4 C :   -0.122645
   5 C :   -0.119762
   6 H :    0.146227
   7 H :    0.135917
   8 H :    0.137025
   9 H :    0.151041
  10 H :    0.136366
  11 Pd:   -0.095832
  12 O :   -0.130012
  13 O :   -0.135600
  14 O :   -0.133111
  15 C :    0.154473
  16 O :   -0.185355
  17 H :    0.148890
  18 C :    0.175432
  19 H :    0.127417
  20 H :    0.120261

  Mayer bond orders larger than 0.100000
B(  0-C ,  1-C ) :   1.4373 B(  0-C ,  4-C ) :   1.4034 B(  0-C ,  6-H ) :   0.9153
B(  1-C ,  2-C ) :   1.4276 B(  1-C ,  7-H ) :   0.9174 B(  2-C ,  3-C ) :   1.4320
B(  2-C ,  8-H ) :   0.9249 B(  3-C ,  5-C ) :   1.4301 B(  3-C , 10-H ) :   0.9178
B(  4-C ,  5-C ) :   1.4280 B(  4-C , 17-H ) :   0.8892 B(  5-C ,  9-H ) :   0.9114
B( 11-Pd, 12-O ) :   0.5726 B( 11-Pd, 13-O ) :   0.5862 B( 11-Pd, 14-O ) :   0.6203
B( 11-Pd, 16-O ) :   0.4284 B( 12-O , 13-O ) :   0.1138 B( 12-O , 18-C ) :   1.4807
B( 13-O , 18-C ) :   1.4323 B( 14-O , 15-C ) :   1.3894 B( 14-O , 16-O ) :   0.1093
B( 15-C , 16-O ) :   1.5763 B( 15-C , 20-H ) :   0.8855 B( 18-C , 19-H ) :   0.8894

Dispersion correction           -0.013139037
FINAL SINGLE POINT ENERGY      -737.123749820133
Dispersion correction            ... done

DIPOLE MOMENT
-------------
                                X             Y             Z
Electronic contribution:     58.77405      48.27369       3.50983
Nuclear contribution   :    -58.74263     -48.55442      -3.76032
                        -----------------------------------------
Total Dipole Moment    :      0.03142      -0.28073      -0.25050
                        -----------------------------------------
Magnitude (a.u.)       :      0.37755
Magnitude (Debye)      :      0.95966

Rotational constants in cm-1:     0.029320     0.017846     0.013736
Rotational constants in MHz :   878.981775   535.009230   411.780721

                             ****ORCA TERMINATED NORMALLY****
TOTAL RUN TIME: 0 days 0 hours 4 minutes 0 seconds 690 msec
