                         Program Version 5.0.3 -  RELEASE  -
|  1> ! EnGrad PBEh-3c
|  2> %output
|  3> xyzfile=True
|  4> end
|  5> %scf
|  6> maxiter 250
|  7> end
|  8> %output
|  9> Print[P_Hirshfeld] = 1
| 10> end
| 11> % maxcore
| 12> 4000
| 13> *xyz 0 1
| 14> C   -1.81502346   0.17539324  -0.29658011
| 15> C   -1.94533814  -0.80437302  -1.22979623
| 16> C   -1.42970661  -2.04868554  -1.01956323
| 17> C   -0.65934765  -2.33732667   0.06469095
| 18> C   -1.11743037  -0.20425730   0.84394337
| 19> C   -0.47408631  -1.41754223   1.04826762
| 20> H   -2.15466595   1.21940484  -0.39383341
| 21> H   -2.45271117  -0.51016697  -2.09387471
| 22> H   -1.60933882  -2.79600166  -1.71938996
| 23> H    0.14826985  -1.53905459   1.94709534
| 24> H   -0.17110268  -3.24686732   0.23462720
| 25> Pd   1.52388532   1.26746618   0.10374709
| 26> O    2.80541959   1.09440161  -1.49076357
| 27> O    2.62196714  -0.41611084   0.03507285
| 28> O    0.42835273   2.89722297  -0.00327466
| 29> C    0.12837030   2.93884471   1.22470358
| 30> O    0.57548764   2.06647915   2.01395008
| 31> H   -1.06648678   0.49934332   1.65081382
| 32> C    3.17144395  -0.00702744  -1.01969628
| 33> H    4.00647852  -0.56156832  -1.44854666
| 34> H   -0.54090599   3.75440156   1.55870206
| 35> *
| 36>
| 37>                          ****END OF INPUT****

CARTESIAN COORDINATES (ANGSTROEM)
---------------------------------
  C     -1.815023    0.175393   -0.296580
  C     -1.945338   -0.804373   -1.229796
  C     -1.429707   -2.048686   -1.019563
  C     -0.659348   -2.337327    0.064691
  C     -1.117430   -0.204257    0.843943
  C     -0.474086   -1.417542    1.048268
  H     -2.154666    1.219405   -0.393833
  H     -2.452711   -0.510167   -2.093875
  H     -1.609339   -2.796002   -1.719390
  H      0.148270   -1.539055    1.947095
  H     -0.171103   -3.246867    0.234627
  Pd     1.523885    1.267466    0.103747
  O      2.805420    1.094402   -1.490764
  O      2.621967   -0.416111    0.035073
  O      0.428353    2.897223   -0.003275
  C      0.128370    2.938845    1.224704
  O      0.575488    2.066479    2.013950
  H     -1.066487    0.499343    1.650814
  C      3.171444   -0.007027   -1.019696
  H      4.006479   -0.561568   -1.448547
  H     -0.540906    3.754402    1.558702

 Total Charge           Charge          ....    0
 Multiplicity           Mult            ....    1
 Number of Electrons    NEL             ....  106
 Basis Dimension        Dim             ....  227

ORBITAL ENERGIES
----------------

  NO   OCC          E(Eh)            E(eV)
   0   2.0000     -19.543763      -531.8128
   1   2.0000     -19.541829      -531.7602
   2   2.0000     -19.539501      -531.6968
   3   2.0000     -19.521281      -531.2011
   4   2.0000     -10.601041      -288.4690
   5   2.0000     -10.592912      -288.2478
   6   2.0000     -10.448222      -284.3106
   7   2.0000     -10.445759      -284.2436
   8   2.0000     -10.440969      -284.1132
   9   2.0000     -10.440696      -284.1058
  10   2.0000     -10.439971      -284.0861
  11   2.0000     -10.439310      -284.0681
  12   2.0000      -3.699502      -100.6686
  13   2.0000      -2.355070       -64.0847
  14   2.0000      -2.338971       -63.6466
  15   2.0000      -2.307410       -62.7878
  16   2.0000      -1.249621       -34.0039
  17   2.0000      -1.228376       -33.4258
  18   2.0000      -1.131281       -30.7837
  19   2.0000      -1.116131       -30.3715
  20   2.0000      -0.969504       -26.3816
  21   2.0000      -0.852481       -23.1972
  22   2.0000      -0.839450       -22.8426
  23   2.0000      -0.712600       -19.3908
  24   2.0000      -0.695662       -18.9299
  25   2.0000      -0.689040       -18.7497
  26   2.0000      -0.684076       -18.6147
  27   2.0000      -0.608097       -16.5472
  28   2.0000      -0.604486       -16.4489
  29   2.0000      -0.587645       -15.9906
  30   2.0000      -0.581846       -15.8328
  31   2.0000      -0.555847       -15.1254
  32   2.0000      -0.548594       -14.9280
  33   2.0000      -0.532197       -14.4818
  34   2.0000      -0.523756       -14.2521
  35   2.0000      -0.520795       -14.1715
  36   2.0000      -0.494803       -13.4643
  37   2.0000      -0.477021       -12.9804
  38   2.0000      -0.456195       -12.4137
  39   2.0000      -0.438610       -11.9352
  40   2.0000      -0.431090       -11.7306
  41   2.0000      -0.420673       -11.4471
  42   2.0000      -0.405102       -11.0234
  43   2.0000      -0.400665       -10.9026
  44   2.0000      -0.394102       -10.7241
  45   2.0000      -0.387368       -10.5408
  46   2.0000      -0.385282       -10.4841
  47   2.0000      -0.374346       -10.1865
  48   2.0000      -0.352163        -9.5828
  49   2.0000      -0.342730        -9.3261
  50   2.0000      -0.336223        -9.1491
  51   2.0000      -0.302896        -8.2422
  52   2.0000      -0.288915        -7.8618
  53   0.0000      -0.096774        -2.6333
  54   0.0000       0.009999         0.2721
  55   0.0000       0.017800         0.4844
  56   0.0000       0.020619         0.5611
  57   0.0000       0.024144         0.6570

MULLIKEN ATOMIC CHARGES
-----------------------
   0 C :   -0.198721
   1 C :   -0.229529
   2 C :   -0.205896
   3 C :   -0.227421
   4 C :   -0.321294
   5 C :   -0.198079
   6 H :    0.228549
   7 H :    0.221870
   8 H :    0.217578
   9 H :    0.240896
  10 H :    0.221464
  11 Pd:    0.561582
  12 O :   -0.447296
  13 O :   -0.460998
  14 O :   -0.468004
  15 C :    0.404154
  16 O :   -0.454208
  17 H :    0.260354
  18 C :    0.437438
  19 H :    0.213415
  20 H :    0.204146
Sum of atomic charges:    0.0000000

LOEWDIN ATOMIC CHARGES
----------------------
   0 C :   -0.128359
   1 C :   -0.125723
   2 C :   -0.133747
   3 C :   -0.123644
   4 C :   -0.126509
   5 C :   -0.121250
   6 H :    0.146805
   7 H :    0.136678
   8 H :    0.137242
   9 H :    0.152144
  10 H :    0.137263
  11 Pd:   -0.099513
  12 O :   -0.127837
  13 O :   -0.133337
  14 O :   -0.132548
  15 C :    0.158448
  16 O :   -0.190232
  17 H :    0.149245
  18 C :    0.176036
  19 H :    0.127561
  20 H :    0.121277

  Mayer bond orders larger than 0.100000
B(  0-C ,  1-C ) :   1.4285 B(  0-C ,  4-C ) :   1.4057 B(  0-C ,  6-H ) :   0.9150
B(  1-C ,  2-C ) :   1.4303 B(  1-C ,  7-H ) :   0.9194 B(  2-C ,  3-C ) :   1.4333
B(  2-C ,  8-H ) :   0.9240 B(  3-C ,  5-C ) :   1.4222 B(  3-C , 10-H ) :   0.9196
B(  4-C ,  5-C ) :   1.4294 B(  4-C , 17-H ) :   0.8828 B(  5-C ,  9-H ) :   0.9108
B( 11-Pd, 12-O ) :   0.5807 B( 11-Pd, 13-O ) :   0.5831 B( 11-Pd, 14-O ) :   0.6193
B( 11-Pd, 16-O ) :   0.4273 B( 12-O , 13-O ) :   0.1142 B( 12-O , 18-C ) :   1.4710
B( 13-O , 18-C ) :   1.4389 B( 14-O , 15-C ) :   1.3906 B( 14-O , 16-O ) :   0.1097
B( 15-C , 16-O ) :   1.5702 B( 15-C , 20-H ) :   0.8856 B( 18-C , 19-H ) :   0.8901

Dispersion correction           -0.013092927
FINAL SINGLE POINT ENERGY      -737.120548876981
Dispersion correction            ... done

DIPOLE MOMENT
-------------
                                X             Y             Z
Electronic contribution:     59.47446      48.80711       3.64710
Nuclear contribution   :    -59.40562     -49.05593      -3.90715
                        -----------------------------------------
Total Dipole Moment    :      0.06884      -0.24881      -0.26004
                        -----------------------------------------
Magnitude (a.u.)       :      0.36643
Magnitude (Debye)      :      0.93139

Rotational constants in cm-1:     0.029603     0.017504     0.013572
Rotational constants in MHz :   887.479202   524.766059   406.888631

                             ****ORCA TERMINATED NORMALLY****
TOTAL RUN TIME: 0 days 0 hours 3 minutes 59 seconds 751 msec
