                         Program Version 5.0.3 -  RELEASE  -
|  1> ! EnGrad PBEh-3c
|  2> %output
|  3> xyzfile=True
|  4> end
|  5> %scf
|  6> maxiter 250
|  7> end
|  8> %output
|  9> Print[P_Hirshfeld] = 1
| 10> end
| 11> % maxcore
| 12> 4000
| 13> *xyz 0 1
| 14> C   -1.78953453   0.17609154  -0.28552013
| 15> C   -1.96499725  -0.80425011  -1.24589434
| 16> C   -1.44630092  -2.06180061  -1.02176555
| 17> C   -0.66077403  -2.36089811   0.06987246
| 18> C   -1.10153725  -0.17169625   0.86714261
| 19> C   -0.47411308  -1.39393169   1.04059390
| 20> H   -2.14719697   1.21078404  -0.39874548
| 21> H   -2.48963206  -0.51490770  -2.13580184
| 22> H   -1.63465040  -2.81393474  -1.72090339
| 23> H    0.14739755  -1.54114314   1.93647584
| 24> H   -0.16680153  -3.30027360   0.23164933
| 25> Pd   1.51065625   1.26292195   0.10945548
| 26> O    2.81335757   1.10490388  -1.48366846
| 27> O    2.62515780  -0.41692327   0.03033804
| 28> O    0.43623102   2.90243219   0.00058040
| 29> C    0.12721946   2.93907460   1.23204563
| 30> O    0.57167407   2.07440434   2.00934724
| 31> H   -1.04986390   0.53425695   1.67548649
| 32> C    3.19218941   0.00629182  -1.00916027
| 33> H    4.01823134  -0.55557136  -1.44834029
| 34> H   -0.54160099   3.75064193   1.55868154
| 35> *
| 36>
| 37>                          ****END OF INPUT****

CARTESIAN COORDINATES (ANGSTROEM)
---------------------------------
  C     -1.789535    0.176092   -0.285520
  C     -1.964997   -0.804250   -1.245894
  C     -1.446301   -2.061801   -1.021766
  C     -0.660774   -2.360898    0.069872
  C     -1.101537   -0.171696    0.867143
  C     -0.474113   -1.393932    1.040594
  H     -2.147197    1.210784   -0.398745
  H     -2.489632   -0.514908   -2.135802
  H     -1.634650   -2.813935   -1.720903
  H      0.147398   -1.541143    1.936476
  H     -0.166802   -3.300274    0.231649
  Pd     1.510656    1.262922    0.109455
  O      2.813358    1.104904   -1.483668
  O      2.625158   -0.416923    0.030338
  O      0.436231    2.902432    0.000580
  C      0.127219    2.939075    1.232046
  O      0.571674    2.074404    2.009347
  H     -1.049864    0.534257    1.675486
  C      3.192189    0.006292   -1.009160
  H      4.018231   -0.555571   -1.448340
  H     -0.541601    3.750642    1.558682

 Total Charge           Charge          ....    0
 Multiplicity           Mult            ....    1
 Number of Electrons    NEL             ....  106
 Basis Dimension        Dim             ....  227

ORBITAL ENERGIES
----------------

  NO   OCC          E(Eh)            E(eV)
   0   2.0000     -19.541092      -531.7401
   1   2.0000     -19.539778      -531.7044
   2   2.0000     -19.537914      -531.6537
   3   2.0000     -19.522555      -531.2357
   4   2.0000     -10.599424      -288.4250
   5   2.0000     -10.591727      -288.2155
   6   2.0000     -10.451848      -284.4092
   7   2.0000     -10.449563      -284.3471
   8   2.0000     -10.448947      -284.3303
   9   2.0000     -10.448022      -284.3051
  10   2.0000     -10.445591      -284.2390
  11   2.0000     -10.443932      -284.1938
  12   2.0000      -3.698444      -100.6398
  13   2.0000      -2.354090       -64.0580
  14   2.0000      -2.337621       -63.6099
  15   2.0000      -2.306562       -62.7647
  16   2.0000      -1.246393       -33.9161
  17   2.0000      -1.230804       -33.4919
  18   2.0000      -1.127995       -30.6943
  19   2.0000      -1.118894       -30.4467
  20   2.0000      -0.962920       -26.2024
  21   2.0000      -0.844512       -22.9803
  22   2.0000      -0.840827       -22.8801
  23   2.0000      -0.711081       -19.3495
  24   2.0000      -0.696252       -18.9460
  25   2.0000      -0.685466       -18.6525
  26   2.0000      -0.683331       -18.5944
  27   2.0000      -0.605807       -16.4848
  28   2.0000      -0.599973       -16.3261
  29   2.0000      -0.587708       -15.9923
  30   2.0000      -0.579851       -15.7786
  31   2.0000      -0.556264       -15.1367
  32   2.0000      -0.546780       -14.8786
  33   2.0000      -0.533648       -14.5213
  34   2.0000      -0.523986       -14.2584
  35   2.0000      -0.516746       -14.0614
  36   2.0000      -0.489051       -13.3078
  37   2.0000      -0.479518       -13.0484
  38   2.0000      -0.456117       -12.4116
  39   2.0000      -0.435865       -11.8605
  40   2.0000      -0.428694       -11.6654
  41   2.0000      -0.419566       -11.4170
  42   2.0000      -0.406270       -11.0552
  43   2.0000      -0.400742       -10.9047
  44   2.0000      -0.393808       -10.7161
  45   2.0000      -0.389127       -10.5887
  46   2.0000      -0.385490       -10.4897
  47   2.0000      -0.374527       -10.1914
  48   2.0000      -0.351364        -9.5611
  49   2.0000      -0.342236        -9.3127
  50   2.0000      -0.335782        -9.1371
  51   2.0000      -0.298569        -8.1245
  52   2.0000      -0.290839        -7.9141
  53   0.0000      -0.096700        -2.6313
  54   0.0000       0.011854         0.3226
  55   0.0000       0.015129         0.4117
  56   0.0000       0.016514         0.4494
  57   0.0000       0.025239         0.6868

MULLIKEN ATOMIC CHARGES
-----------------------
   0 C :   -0.210217
   1 C :   -0.223034
   2 C :   -0.219903
   3 C :   -0.220968
   4 C :   -0.306073
   5 C :   -0.209820
   6 H :    0.227238
   7 H :    0.223464
   8 H :    0.219711
   9 H :    0.238946
  10 H :    0.223113
  11 Pd:    0.563100
  12 O :   -0.448904
  13 O :   -0.461437
  14 O :   -0.472448
  15 C :    0.402910
  16 O :   -0.446812
  17 H :    0.268935
  18 C :    0.435364
  19 H :    0.213323
  20 H :    0.203511
Sum of atomic charges:   -0.0000000

LOEWDIN ATOMIC CHARGES
----------------------
   0 C :   -0.122823
   1 C :   -0.128655
   2 C :   -0.130449
   3 C :   -0.126241
   4 C :   -0.134622
   5 C :   -0.115854
   6 H :    0.144625
   7 H :    0.139271
   8 H :    0.136140
   9 H :    0.149862
  10 H :    0.139729
  11 Pd:   -0.100852
  12 O :   -0.132463
  13 O :   -0.135442
  14 O :   -0.136092
  15 C :    0.154242
  16 O :   -0.178552
  17 H :    0.154699
  18 C :    0.175589
  19 H :    0.127236
  20 H :    0.120650

  Mayer bond orders larger than 0.100000
B(  0-C ,  1-C ) :   1.4250 B(  0-C ,  4-C ) :   1.4056 B(  0-C ,  6-H ) :   0.9150
B(  1-C ,  2-C ) :   1.4263 B(  1-C ,  7-H ) :   0.9197 B(  2-C ,  3-C ) :   1.4280
B(  2-C ,  8-H ) :   0.9223 B(  3-C ,  5-C ) :   1.4202 B(  3-C , 10-H ) :   0.9199
B(  4-C ,  5-C ) :   1.4289 B(  4-C , 17-H ) :   0.8786 B(  5-C ,  9-H ) :   0.9110
B( 11-Pd, 12-O ) :   0.5773 B( 11-Pd, 13-O ) :   0.5788 B( 11-Pd, 14-O ) :   0.6292
B( 11-Pd, 16-O ) :   0.4171 B( 12-O , 13-O ) :   0.1139 B( 12-O , 18-C ) :   1.4716
B( 13-O , 18-C ) :   1.4419 B( 14-O , 15-C ) :   1.3769 B( 14-O , 16-O ) :   0.1089
B( 15-C , 16-O ) :   1.5884 B( 15-C , 20-H ) :   0.8864 B( 18-C , 19-H ) :   0.8891

Dispersion correction           -0.013090241
FINAL SINGLE POINT ENERGY      -737.131356882298
Dispersion correction            ... done

DIPOLE MOMENT
-------------
                                X             Y             Z
Electronic contribution:     58.76574      48.47369       3.89261
Nuclear contribution   :    -58.74368     -48.74922      -4.11266
                        -----------------------------------------
Total Dipole Moment    :      0.02206      -0.27553      -0.22005
                        -----------------------------------------
Magnitude (a.u.)       :      0.35330
Magnitude (Debye)      :      0.89803

Rotational constants in cm-1:     0.029555     0.017494     0.013552
Rotational constants in MHz :   886.038561   524.449495   406.281816

                             ****ORCA TERMINATED NORMALLY****
TOTAL RUN TIME: 0 days 0 hours 4 minutes 21 seconds 403 msec
