                         Program Version 5.0.3 -  RELEASE  -
|  1> ! EnGrad PBEh-3c
|  2> %output
|  3> xyzfile=True
|  4> end
|  5> %scf
|  6> maxiter 250
|  7> end
|  8> %output
|  9> Print[P_Hirshfeld] = 1
| 10> end
| 11> % maxcore
| 12> 4000
| 13> *xyz 0 1
| 14> C   -1.77336080   0.18137697  -0.27322078
| 15> C   -1.98363625  -0.79210165  -1.23852098
| 16> C   -1.46910086  -2.07242557  -1.01572597
| 17> C   -0.66651413  -2.36485262   0.09010417
| 18> C   -1.08553746  -0.14856481   0.87777947
| 19> C   -0.47468688  -1.37452204   1.04003105
| 20> H   -2.12887447   1.20010054  -0.41045935
| 21> H   -2.52169479  -0.52799488  -2.15286468
| 22> H   -1.67973689  -2.85207884  -1.72822582
| 23> H    0.15070262  -1.54245593   1.91276336
| 24> H   -0.18191335  -3.33472839   0.22837949
| 25> Pd   1.50452374   1.25845700   0.11874411
| 26> O    2.83289081   1.12257731  -1.47396379
| 27> O    2.62290668  -0.41691482   0.02305244
| 28> O    0.44291110   2.90241907   0.00868374
| 29> C    0.12546224   2.93907393   1.23980759
| 30> O    0.56439343   2.08199707   2.00792994
| 31> H   -1.01500965   0.53858024   1.64809777
| 32> C    3.21539862   0.02448794  -0.99915236
| 33> H    4.04081119  -0.54185667  -1.44559227
| 34> H   -0.54345012   3.74679358   1.55512495
| 35> *
| 36>
| 37>                          ****END OF INPUT****

CARTESIAN COORDINATES (ANGSTROEM)
---------------------------------
  C     -1.773361    0.181377   -0.273221
  C     -1.983636   -0.792102   -1.238521
  C     -1.469101   -2.072426   -1.015726
  C     -0.666514   -2.364853    0.090104
  C     -1.085537   -0.148565    0.877779
  C     -0.474687   -1.374522    1.040031
  H     -2.128874    1.200101   -0.410459
  H     -2.521695   -0.527995   -2.152865
  H     -1.679737   -2.852079   -1.728226
  H      0.150703   -1.542456    1.912763
  H     -0.181913   -3.334728    0.228379
  Pd     1.504524    1.258457    0.118744
  O      2.832891    1.122577   -1.473964
  O      2.622907   -0.416915    0.023052
  O      0.442911    2.902419    0.008684
  C      0.125462    2.939074    1.239808
  O      0.564393    2.081997    2.007930
  H     -1.015010    0.538580    1.648098
  C      3.215399    0.024488   -0.999152
  H      4.040811   -0.541857   -1.445592
  H     -0.543450    3.746794    1.555125

 Total Charge           Charge          ....    0
 Multiplicity           Mult            ....    1
 Number of Electrons    NEL             ....  106
 Basis Dimension        Dim             ....  227

ORBITAL ENERGIES
----------------

  NO   OCC          E(Eh)            E(eV)
   0   2.0000     -19.539786      -531.7046
   1   2.0000     -19.538564      -531.6713
   2   2.0000     -19.536363      -531.6115
   3   2.0000     -19.522948      -531.2464
   4   2.0000     -10.599238      -288.4199
   5   2.0000     -10.589986      -288.1682
   6   2.0000     -10.453803      -284.4624
   7   2.0000     -10.453184      -284.4456
   8   2.0000     -10.452502      -284.4270
   9   2.0000     -10.451545      -284.4010
  10   2.0000     -10.449168      -284.3363
  11   2.0000     -10.441229      -284.1203
  12   2.0000      -3.697999      -100.6277
  13   2.0000      -2.353865       -64.0519
  14   2.0000      -2.336727       -63.5856
  15   2.0000      -2.306446       -62.7616
  16   2.0000      -1.243882       -33.8477
  17   2.0000      -1.234245       -33.5855
  18   2.0000      -1.125816       -30.6350
  19   2.0000      -1.120884       -30.5008
  20   2.0000      -0.960474       -26.1358
  21   2.0000      -0.842454       -22.9243
  22   2.0000      -0.840871       -22.8813
  23   2.0000      -0.709818       -19.3151
  24   2.0000      -0.696814       -18.9613
  25   2.0000      -0.685597       -18.6561
  26   2.0000      -0.682489       -18.5715
  27   2.0000      -0.604649       -16.4533
  28   2.0000      -0.599201       -16.3051
  29   2.0000      -0.588012       -16.0006
  30   2.0000      -0.578622       -15.7451
  31   2.0000      -0.556919       -15.1545
  32   2.0000      -0.545887       -14.8543
  33   2.0000      -0.534645       -14.5484
  34   2.0000      -0.525631       -14.3032
  35   2.0000      -0.514149       -13.9907
  36   2.0000      -0.488019       -13.2797
  37   2.0000      -0.481512       -13.1026
  38   2.0000      -0.456443       -12.4205
  39   2.0000      -0.435082       -11.8392
  40   2.0000      -0.426904       -11.6166
  41   2.0000      -0.419324       -11.4104
  42   2.0000      -0.404587       -11.0094
  43   2.0000      -0.401361       -10.9216
  44   2.0000      -0.393963       -10.7203
  45   2.0000      -0.392178       -10.6717
  46   2.0000      -0.385555       -10.4915
  47   2.0000      -0.374235       -10.1834
  48   2.0000      -0.350729        -9.5438
  49   2.0000      -0.342114        -9.3094
  50   2.0000      -0.335821        -9.1382
  51   2.0000      -0.298021        -8.1096
  52   2.0000      -0.290883        -7.9153
  53   0.0000      -0.097417        -2.6508
  54   0.0000       0.012611         0.3432
  55   0.0000       0.013469         0.3665
  56   0.0000       0.014964         0.4072
  57   0.0000       0.026609         0.7241

MULLIKEN ATOMIC CHARGES
-----------------------
   0 C :   -0.214610
   1 C :   -0.221334
   2 C :   -0.229741
   3 C :   -0.219064
   4 C :   -0.297535
   5 C :   -0.213664
   6 H :    0.226588
   7 H :    0.223590
   8 H :    0.219536
   9 H :    0.237924
  10 H :    0.223303
  11 Pd:    0.565262
  12 O :   -0.447454
  13 O :   -0.464825
  14 O :   -0.475389
  15 C :    0.400267
  16 O :   -0.439791
  17 H :    0.277792
  18 C :    0.433093
  19 H :    0.213628
  20 H :    0.202423
Sum of atomic charges:   -0.0000000

LOEWDIN ATOMIC CHARGES
----------------------
   0 C :   -0.119990
   1 C :   -0.130512
   2 C :   -0.127446
   3 C :   -0.127702
   4 C :   -0.137692
   5 C :   -0.113002
   6 H :    0.143793
   7 H :    0.139915
   8 H :    0.135903
   9 H :    0.148720
  10 H :    0.140258
  11 Pd:   -0.098708
  12 O :   -0.135083
  13 O :   -0.139389
  14 O :   -0.137788
  15 C :    0.148035
  16 O :   -0.168407
  17 H :    0.155233
  18 C :    0.176583
  19 H :    0.127489
  20 H :    0.119791

  Mayer bond orders larger than 0.100000
B(  0-C ,  1-C ) :   1.4248 B(  0-C ,  4-C ) :   1.4073 B(  0-C ,  6-H ) :   0.9156
B(  1-C ,  2-C ) :   1.4213 B(  1-C ,  7-H ) :   0.9195 B(  2-C ,  3-C ) :   1.4223
B(  2-C ,  8-H ) :   0.9213 B(  3-C ,  5-C ) :   1.4217 B(  3-C , 10-H ) :   0.9196
B(  4-C ,  5-C ) :   1.4300 B(  4-C , 17-H ) :   0.8731 B(  5-C ,  9-H ) :   0.9117
B( 11-Pd, 12-O ) :   0.5695 B( 11-Pd, 13-O ) :   0.5790 B( 11-Pd, 14-O ) :   0.6368
B( 11-Pd, 16-O ) :   0.4084 B( 12-O , 13-O ) :   0.1136 B( 12-O , 18-C ) :   1.4793
B( 13-O , 18-C ) :   1.4361 B( 14-O , 15-C ) :   1.3668 B( 14-O , 16-O ) :   0.1078
B( 15-C , 16-O ) :   1.6056 B( 15-C , 20-H ) :   0.8873 B( 18-C , 19-H ) :   0.8877

Dispersion correction           -0.013097779
FINAL SINGLE POINT ENERGY      -737.132532573849
Dispersion correction            ... done

DIPOLE MOMENT
-------------
                                X             Y             Z
Electronic contribution:     58.42365      48.11276       4.20599
Nuclear contribution   :    -58.42099     -48.40008      -4.40176
                        -----------------------------------------
Total Dipole Moment    :      0.00265      -0.28732      -0.19577
                        -----------------------------------------
Magnitude (a.u.)       :      0.34769
Magnitude (Debye)      :      0.88375

Rotational constants in cm-1:     0.029590     0.017475     0.013527
Rotational constants in MHz :   887.086013   523.876061   405.518681

                             ****ORCA TERMINATED NORMALLY****
TOTAL RUN TIME: 0 days 0 hours 3 minutes 50 seconds 352 msec
