                         Program Version 5.0.3 -  RELEASE  -
|  1> ! EnGrad PBEh-3c
|  2> %output
|  3> xyzfile=True
|  4> end
|  5> %scf
|  6> maxiter 250
|  7> end
|  8> %output
|  9> Print[P_Hirshfeld] = 1
| 10> end
| 11> % maxcore
| 12> 4000
| 13> *xyz 0 1
| 14> C   -1.76066557   0.18658481  -0.26530690
| 15> C   -1.98961451  -0.78659711  -1.23580592
| 16> C   -1.47965007  -2.08200056  -1.01825884
| 17> C   -0.67034000  -2.36504220   0.09832427
| 18> C   -1.07349953  -0.14053547   0.87501972
| 19> C   -0.47389389  -1.36076343   1.04223394
| 20> H   -2.11887369   1.18633486  -0.42363160
| 21> H   -2.54167155  -0.54472702  -2.16431549
| 22> H   -1.70636642  -2.87843507  -1.73781452
| 23> H    0.15170551  -1.54836566   1.89277824
| 24> H   -0.19686271  -3.35804830   0.21960908
| 25> Pd   1.49518637   1.24957736   0.12141814
| 26> O    2.84689747   1.13110908  -1.46692126
| 27> O    2.62429810  -0.41742627   0.01770731
| 28> O    0.44623689   2.90445431   0.01374226
| 29> C    0.12257307   2.94958335   1.24176828
| 30> O    0.56328651   2.08630849   2.01315060
| 31> H   -0.99819859   0.57156875   1.67316470
| 32> C    3.23002956   0.03414347  -0.99183024
| 33> H    4.05555649  -0.53607345  -1.44678701
| 34> H   -0.54665947   3.74603521   1.55574306
| 35> *
| 36>
| 37>                          ****END OF INPUT****

CARTESIAN COORDINATES (ANGSTROEM)
---------------------------------
  C     -1.760666    0.186585   -0.265307
  C     -1.989615   -0.786597   -1.235806
  C     -1.479650   -2.082001   -1.018259
  C     -0.670340   -2.365042    0.098324
  C     -1.073500   -0.140535    0.875020
  C     -0.473894   -1.360763    1.042234
  H     -2.118874    1.186335   -0.423632
  H     -2.541672   -0.544727   -2.164315
  H     -1.706366   -2.878435   -1.737815
  H      0.151706   -1.548366    1.892778
  H     -0.196863   -3.358048    0.219609
  Pd     1.495186    1.249577    0.121418
  O      2.846897    1.131109   -1.466921
  O      2.624298   -0.417426    0.017707
  O      0.446237    2.904454    0.013742
  C      0.122573    2.949583    1.241768
  O      0.563287    2.086308    2.013151
  H     -0.998199    0.571569    1.673165
  C      3.230030    0.034143   -0.991830
  H      4.055556   -0.536073   -1.446787
  H     -0.546659    3.746035    1.555743

 Total Charge           Charge          ....    0
 Multiplicity           Mult            ....    1
 Number of Electrons    NEL             ....  106
 Basis Dimension        Dim             ....  227

ORBITAL ENERGIES
----------------

  NO   OCC          E(Eh)            E(eV)
   0   2.0000     -19.538569      -531.6715
   1   2.0000     -19.538107      -531.6589
   2   2.0000     -19.537125      -531.6322
   3   2.0000     -19.521338      -531.2026
   4   2.0000     -10.598834      -288.4089
   5   2.0000     -10.589719      -288.1609
   6   2.0000     -10.457519      -284.5635
   7   2.0000     -10.456927      -284.5475
   8   2.0000     -10.455881      -284.5190
   9   2.0000     -10.451116      -284.3893
  10   2.0000     -10.448748      -284.3249
  11   2.0000     -10.444518      -284.2098
  12   2.0000      -3.697797      -100.6222
  13   2.0000      -2.353768       -64.0493
  14   2.0000      -2.336154       -63.5700
  15   2.0000      -2.306433       -62.7612
  16   2.0000      -1.242912       -33.8214
  17   2.0000      -1.232494       -33.5379
  18   2.0000      -1.124752       -30.6061
  19   2.0000      -1.118572       -30.4379
  20   2.0000      -0.959711       -26.1151
  21   2.0000      -0.841254       -22.8917
  22   2.0000      -0.839823       -22.8527
  23   2.0000      -0.709272       -19.3003
  24   2.0000      -0.697661       -18.9843
  25   2.0000      -0.683363       -18.5953
  26   2.0000      -0.681993       -18.5580
  27   2.0000      -0.603562       -16.4238
  28   2.0000      -0.597377       -16.2555
  29   2.0000      -0.587495       -15.9865
  30   2.0000      -0.577479       -15.7140
  31   2.0000      -0.555663       -15.1204
  32   2.0000      -0.544734       -14.8230
  33   2.0000      -0.533744       -14.5239
  34   2.0000      -0.523846       -14.2546
  35   2.0000      -0.513980       -13.9861
  36   2.0000      -0.487047       -13.2532
  37   2.0000      -0.479906       -13.0589
  38   2.0000      -0.456128       -12.4119
  39   2.0000      -0.435185       -11.8420
  40   2.0000      -0.425373       -11.5750
  41   2.0000      -0.418313       -11.3829
  42   2.0000      -0.404886       -11.0175
  43   2.0000      -0.401127       -10.9152
  44   2.0000      -0.394278       -10.7288
  45   2.0000      -0.391253       -10.6465
  46   2.0000      -0.384563       -10.4645
  47   2.0000      -0.372698       -10.1416
  48   2.0000      -0.349629        -9.5139
  49   2.0000      -0.342161        -9.3107
  50   2.0000      -0.335800        -9.1376
  51   2.0000      -0.297163        -8.0862
  52   2.0000      -0.291678        -7.9370
  53   0.0000      -0.098569        -2.6822
  54   0.0000       0.012656         0.3444
  55   0.0000       0.013205         0.3593
  56   0.0000       0.013592         0.3699
  57   0.0000       0.025740         0.7004

MULLIKEN ATOMIC CHARGES
-----------------------
   0 C :   -0.207255
   1 C :   -0.226625
   2 C :   -0.228830
   3 C :   -0.224504
   4 C :   -0.307516
   5 C :   -0.205917
   6 H :    0.228201
   7 H :    0.223382
   8 H :    0.219967
   9 H :    0.239923
  10 H :    0.222896
  11 Pd:    0.569259
  12 O :   -0.446188
  13 O :   -0.464923
  14 O :   -0.473657
  15 C :    0.400419
  16 O :   -0.445885
  17 H :    0.279332
  18 C :    0.430072
  19 H :    0.213107
  20 H :    0.204741
Sum of atomic charges:   -0.0000000

LOEWDIN ATOMIC CHARGES
----------------------
   0 C :   -0.121755
   1 C :   -0.129822
   2 C :   -0.128365
   3 C :   -0.126788
   4 C :   -0.137060
   5 C :   -0.114594
   6 H :    0.144183
   7 H :    0.139905
   8 H :    0.136156
   9 H :    0.149134
  10 H :    0.140149
  11 Pd:   -0.096992
  12 O :   -0.136640
  13 O :   -0.139489
  14 O :   -0.135739
  15 C :    0.151034
  16 O :   -0.176551
  17 H :    0.160350
  18 C :    0.174836
  19 H :    0.127296
  20 H :    0.120752

  Mayer bond orders larger than 0.100000
B(  0-C ,  1-C ) :   1.4246 B(  0-C ,  4-C ) :   1.4013 B(  0-C ,  6-H ) :   0.9155
B(  1-C ,  2-C ) :   1.4194 B(  1-C ,  7-H ) :   0.9191 B(  2-C ,  3-C ) :   1.4210
B(  2-C ,  8-H ) :   0.9204 B(  3-C ,  5-C ) :   1.4213 B(  3-C , 10-H ) :   0.9193
B(  4-C ,  5-C ) :   1.4255 B(  4-C , 17-H ) :   0.8705 B(  5-C ,  9-H ) :   0.9112
B( 11-Pd, 12-O ) :   0.5637 B( 11-Pd, 13-O ) :   0.5800 B( 11-Pd, 14-O ) :   0.6346
B( 11-Pd, 16-O ) :   0.4059 B( 12-O , 13-O ) :   0.1134 B( 12-O , 18-C ) :   1.4850
B( 13-O , 18-C ) :   1.4341 B( 14-O , 15-C ) :   1.3714 B( 14-O , 16-O ) :   0.1076
B( 15-C , 16-O ) :   1.6002 B( 15-C , 20-H ) :   0.8874 B( 18-C , 19-H ) :   0.8866

Dispersion correction           -0.013101738
FINAL SINGLE POINT ENERGY      -737.131805276864
Dispersion correction            ... done

DIPOLE MOMENT
-------------
                                X             Y             Z
Electronic contribution:     57.90191      47.61973       4.25515
Nuclear contribution   :    -57.93513     -47.90832      -4.45706
                        -----------------------------------------
Total Dipole Moment    :     -0.03322      -0.28859      -0.20191
                        -----------------------------------------
Magnitude (a.u.)       :      0.35377
Magnitude (Debye)      :      0.89921

Rotational constants in cm-1:     0.029560     0.017491     0.013520
Rotational constants in MHz :   886.184160   524.368389   405.320178

                             ****ORCA TERMINATED NORMALLY****
TOTAL RUN TIME: 0 days 0 hours 4 minutes 33 seconds 840 msec
