                         Program Version 5.0.3 -  RELEASE  -
|  1> ! EnGrad PBEh-3c
|  2> %output
|  3> xyzfile=True
|  4> end
|  5> %scf
|  6> maxiter 250
|  7> end
|  8> %output
|  9> Print[P_Hirshfeld] = 1
| 10> end
| 11> % maxcore
| 12> 4000
| 13> *xyz 0 1
| 14> C   -1.75192412   0.18406864  -0.27541433
| 15> C   -1.99399178  -0.79198251  -1.23868959
| 16> C   -1.49206634  -2.09398059  -1.02308420
| 17> C   -0.67916594  -2.37036190   0.09632059
| 18> C   -1.05494190  -0.10996361   0.89411507
| 19> C   -0.47077315  -1.36399208   1.03483281
| 20> H   -2.11058251   1.17708186  -0.43882280
| 21> H   -2.56129313  -0.56713364  -2.16827570
| 22> H   -1.73461006  -2.89986179  -1.74101039
| 23> H    0.15629903  -1.55621665   1.87717675
| 24> H   -0.22021552  -3.37655955   0.20858021
| 25> Pd   1.48403898   1.23952864   0.12114543
| 26> O    2.86328932   1.14044984  -1.45583532
| 27> O    2.62898486  -0.41844128   0.01415761
| 28> O    0.44978284   2.90961099   0.01842555
| 29> C    0.12689613   2.95489721   1.24460771
| 30> O    0.56051780   2.09603714   2.01886566
| 31> H   -0.98029231   0.60875436   1.70241880
| 32> C    3.24658958   0.04316896  -0.98619817
| 33> H    4.07160654  -0.52727587  -1.44673583
| 34> H   -0.55431523   3.75053604   1.55968726
| 35> *
| 36>
| 37>                          ****END OF INPUT****

CARTESIAN COORDINATES (ANGSTROEM)
---------------------------------
  C     -1.751924    0.184069   -0.275414
  C     -1.993992   -0.791983   -1.238690
  C     -1.492066   -2.093981   -1.023084
  C     -0.679166   -2.370362    0.096321
  C     -1.054942   -0.109964    0.894115
  C     -0.470773   -1.363992    1.034833
  H     -2.110583    1.177082   -0.438823
  H     -2.561293   -0.567134   -2.168276
  H     -1.734610   -2.899862   -1.741010
  H      0.156299   -1.556217    1.877177
  H     -0.220216   -3.376560    0.208580
  Pd     1.484039    1.239529    0.121145
  O      2.863289    1.140450   -1.455835
  O      2.628985   -0.418441    0.014158
  O      0.449783    2.909611    0.018426
  C      0.126896    2.954897    1.244608
  O      0.560518    2.096037    2.018866
  H     -0.980292    0.608754    1.702419
  C      3.246590    0.043169   -0.986198
  H      4.071607   -0.527276   -1.446736
  H     -0.554315    3.750536    1.559687

 Total Charge           Charge          ....    0
 Multiplicity           Mult            ....    1
 Number of Electrons    NEL             ....  106
 Basis Dimension        Dim             ....  227

ORBITAL ENERGIES
----------------

  NO   OCC          E(Eh)            E(eV)
   0   2.0000     -19.537742      -531.6490
   1   2.0000     -19.537399      -531.6396
   2   2.0000     -19.536471      -531.6144
   3   2.0000     -19.519494      -531.1524
   4   2.0000     -10.598370      -288.3963
   5   2.0000     -10.588550      -288.1291
   6   2.0000     -10.460534      -284.6456
   7   2.0000     -10.459017      -284.6043
   8   2.0000     -10.457898      -284.5739
   9   2.0000     -10.454430      -284.4795
  10   2.0000     -10.452515      -284.4274
  11   2.0000     -10.451856      -284.4095
  12   2.0000      -3.697522      -100.6147
  13   2.0000      -2.353613       -64.0451
  14   2.0000      -2.335457       -63.5510
  15   2.0000      -2.306417       -62.7608
  16   2.0000      -1.241933       -33.7947
  17   2.0000      -1.232618       -33.5412
  18   2.0000      -1.123665       -30.5765
  19   2.0000      -1.118859       -30.4457
  20   2.0000      -0.956336       -26.0232
  21   2.0000      -0.840277       -22.8651
  22   2.0000      -0.838614       -22.8199
  23   2.0000      -0.707462       -19.2510
  24   2.0000      -0.695487       -18.9252
  25   2.0000      -0.682963       -18.5844
  26   2.0000      -0.681885       -18.5550
  27   2.0000      -0.602360       -16.3910
  28   2.0000      -0.595783       -16.2121
  29   2.0000      -0.586783       -15.9672
  30   2.0000      -0.576291       -15.6817
  31   2.0000      -0.555017       -15.1028
  32   2.0000      -0.544477       -14.8160
  33   2.0000      -0.534543       -14.5457
  34   2.0000      -0.524194       -14.2640
  35   2.0000      -0.512460       -13.9447
  36   2.0000      -0.485614       -13.2142
  37   2.0000      -0.481147       -13.0927
  38   2.0000      -0.454701       -12.3731
  39   2.0000      -0.433965       -11.8088
  40   2.0000      -0.423976       -11.5370
  41   2.0000      -0.418425       -11.3859
  42   2.0000      -0.402346       -10.9484
  43   2.0000      -0.400449       -10.8968
  44   2.0000      -0.394368       -10.7313
  45   2.0000      -0.393835       -10.7168
  46   2.0000      -0.383715       -10.4414
  47   2.0000      -0.372196       -10.1280
  48   2.0000      -0.348805        -9.4915
  49   2.0000      -0.342470        -9.3191
  50   2.0000      -0.336089        -9.1455
  51   2.0000      -0.297672        -8.1001
  52   2.0000      -0.290723        -7.9110
  53   0.0000      -0.100198        -2.7265
  54   0.0000       0.008116         0.2209
  55   0.0000       0.012884         0.3506
  56   0.0000       0.014226         0.3871
  57   0.0000       0.027278         0.7423

MULLIKEN ATOMIC CHARGES
-----------------------
   0 C :   -0.212408
   1 C :   -0.219856
   2 C :   -0.230360
   3 C :   -0.217976
   4 C :   -0.318391
   5 C :   -0.210191
   6 H :    0.229183
   7 H :    0.223838
   8 H :    0.221818
   9 H :    0.240460
  10 H :    0.223117
  11 Pd:    0.571808
  12 O :   -0.444047
  13 O :   -0.466409
  14 O :   -0.471640
  15 C :    0.396104
  16 O :   -0.445040
  17 H :    0.287368
  18 C :    0.427307
  19 H :    0.213249
  20 H :    0.202066
Sum of atomic charges:    0.0000000

LOEWDIN ATOMIC CHARGES
----------------------
   0 C :   -0.119028
   1 C :   -0.132799
   2 C :   -0.125485
   3 C :   -0.129650
   4 C :   -0.137231
   5 C :   -0.112131
   6 H :    0.143662
   7 H :    0.140924
   8 H :    0.136766
   9 H :    0.148484
  10 H :    0.141067
  11 Pd:   -0.095991
  12 O :   -0.136636
  13 O :   -0.141544
  14 O :   -0.135016
  15 C :    0.145968
  16 O :   -0.177647
  17 H :    0.165689
  18 C :    0.173902
  19 H :    0.127311
  20 H :    0.119386

  Mayer bond orders larger than 0.100000
B(  0-C ,  1-C ) :   1.4292 B(  0-C ,  4-C ) :   1.3916 B(  0-C ,  6-H ) :   0.9149
B(  1-C ,  2-C ) :   1.4147 B(  1-C ,  7-H ) :   0.9190 B(  2-C ,  3-C ) :   1.4172
B(  2-C ,  8-H ) :   0.9189 B(  3-C ,  5-C ) :   1.4254 B(  3-C , 10-H ) :   0.9193
B(  4-C ,  5-C ) :   1.4166 B(  4-C , 17-H ) :   0.8654 B(  5-C ,  9-H ) :   0.9109
B( 11-Pd, 12-O ) :   0.5575 B( 11-Pd, 13-O ) :   0.5820 B( 11-Pd, 14-O ) :   0.6350
B( 11-Pd, 16-O ) :   0.3936 B( 12-O , 13-O ) :   0.1133 B( 12-O , 18-C ) :   1.4929
B( 13-O , 18-C ) :   1.4296 B( 14-O , 15-C ) :   1.3712 B( 14-O , 16-O ) :   0.1068
B( 15-C , 16-O ) :   1.6088 B( 15-C , 20-H ) :   0.8867 B( 18-C , 19-H ) :   0.8858

Dispersion correction           -0.013097339
FINAL SINGLE POINT ENERGY      -737.130611913125
Dispersion correction            ... done

DIPOLE MOMENT
-------------
                                X             Y             Z
Electronic contribution:     57.27710      47.04044       4.18027
Nuclear contribution   :    -57.34449     -47.38108      -4.40065
                        -----------------------------------------
Total Dipole Moment    :     -0.06739      -0.34064      -0.22038
                        -----------------------------------------
Magnitude (a.u.)       :      0.41127
Magnitude (Debye)      :      1.04538

Rotational constants in cm-1:     0.029498     0.017477     0.013492
Rotational constants in MHz :   884.335249   523.940436   404.473427

                             ****ORCA TERMINATED NORMALLY****
TOTAL RUN TIME: 0 days 0 hours 4 minutes 28 seconds 894 msec
