                         Program Version 5.0.3 -  RELEASE  -
|  1> ! EnGrad PBEh-3c
|  2> %output
|  3> xyzfile=True
|  4> end
|  5> %scf
|  6> maxiter 250
|  7> end
|  8> %output
|  9> Print[P_Hirshfeld] = 1
| 10> end
| 11> % maxcore
| 12> 4000
| 13> *xyz 0 1
| 14> C   -1.75827970   0.18589805  -0.26806560
| 15> C   -1.99080923  -0.78806699  -1.23659298
| 16> C   -1.48303894  -2.08527036  -1.01957587
| 17> C   -0.67274893  -2.36649415   0.09777739
| 18> C   -1.06843445  -0.13219125   0.88023156
| 19> C   -0.47304212  -1.36164465   1.04021389
| 20> H   -2.11661072   1.18380937  -0.42777785
| 21> H   -2.54702702  -0.55084263  -2.16539638
| 22> H   -1.71407517  -2.88428323  -1.73868680
| 23> H    0.15295925  -1.55050849   1.88852001
| 24> H   -0.20323657  -3.36310071   0.21659889
| 25> Pd   1.49214383   1.24683468   0.12134371
| 26> O    2.85137142   1.13365852  -1.46389549
| 27> O    2.62557729  -0.41770330   0.01673846
| 28> O    0.44720471   2.90586176   0.01502051
| 29> C    0.12375300   2.95103371   1.24254327
| 30> O    0.56253083   2.08896381   2.01471045
| 31> H   -0.99331129   0.58171811   1.68114924
| 32> C    3.23454941   0.03660687  -0.99029304
| 33> H    4.05993715  -0.53367225  -1.44677304
| 34> H   -0.54874902   3.74726366   1.55681958
| 35> *
| 36>
| 37>                          ****END OF INPUT****

CARTESIAN COORDINATES (ANGSTROEM)
---------------------------------
  C     -1.758280    0.185898   -0.268066
  C     -1.990809   -0.788067   -1.236593
  C     -1.483039   -2.085270   -1.019576
  C     -0.672749   -2.366494    0.097777
  C     -1.068434   -0.132191    0.880232
  C     -0.473042   -1.361645    1.040214
  H     -2.116611    1.183809   -0.427778
  H     -2.547027   -0.550843   -2.165396
  H     -1.714075   -2.884283   -1.738687
  H      0.152959   -1.550508    1.888520
  H     -0.203237   -3.363101    0.216599
  Pd     1.492144    1.246835    0.121344
  O      2.851371    1.133659   -1.463895
  O      2.625577   -0.417703    0.016738
  O      0.447205    2.905862    0.015021
  C      0.123753    2.951034    1.242543
  O      0.562531    2.088964    2.014710
  H     -0.993311    0.581718    1.681149
  C      3.234549    0.036607   -0.990293
  H      4.059937   -0.533672   -1.446773
  H     -0.548749    3.747264    1.556820

 Total Charge           Charge          ....    0
 Multiplicity           Mult            ....    1
 Number of Electrons    NEL             ....  106
 Basis Dimension        Dim             ....  227

ORBITAL ENERGIES
----------------

  NO   OCC          E(Eh)            E(eV)
   0   2.0000     -19.538353      -531.6656
   1   2.0000     -19.537921      -531.6539
   2   2.0000     -19.536950      -531.6274
   3   2.0000     -19.520842      -531.1891
   4   2.0000     -10.598711      -288.4056
   5   2.0000     -10.589403      -288.1523
   6   2.0000     -10.458306      -284.5850
   7   2.0000     -10.457507      -284.5632
   8   2.0000     -10.456423      -284.5337
   9   2.0000     -10.451991      -284.4131
  10   2.0000     -10.449639      -284.3491
  11   2.0000     -10.446613      -284.2668
  12   2.0000      -3.697727      -100.6203
  13   2.0000      -2.353731       -64.0483
  14   2.0000      -2.335972       -63.5650
  15   2.0000      -2.306431       -62.7612
  16   2.0000      -1.242659       -33.8145
  17   2.0000      -1.232537       -33.5390
  18   2.0000      -1.124461       -30.5982
  19   2.0000      -1.118663       -30.4404
  20   2.0000      -0.958768       -26.0894
  21   2.0000      -0.840959       -22.8837
  22   2.0000      -0.839514       -22.8443
  23   2.0000      -0.708768       -19.2866
  24   2.0000      -0.697086       -18.9687
  25   2.0000      -0.683030       -18.5862
  26   2.0000      -0.682177       -18.5630
  27   2.0000      -0.603243       -16.4151
  28   2.0000      -0.596933       -16.2434
  29   2.0000      -0.587306       -15.9814
  30   2.0000      -0.577166       -15.7055
  31   2.0000      -0.555486       -15.1156
  32   2.0000      -0.544639       -14.8204
  33   2.0000      -0.533979       -14.5303
  34   2.0000      -0.523954       -14.2575
  35   2.0000      -0.513479       -13.9725
  36   2.0000      -0.486758       -13.2454
  37   2.0000      -0.480286       -13.0692
  38   2.0000      -0.455750       -12.4016
  39   2.0000      -0.434835       -11.8325
  40   2.0000      -0.424986       -11.5645
  41   2.0000      -0.418300       -11.3825
  42   2.0000      -0.403698       -10.9852
  43   2.0000      -0.401426       -10.9234
  44   2.0000      -0.394162       -10.7257
  45   2.0000      -0.392214       -10.6727
  46   2.0000      -0.384365       -10.4591
  47   2.0000      -0.372589       -10.1387
  48   2.0000      -0.349407        -9.5078
  49   2.0000      -0.342249        -9.3131
  50   2.0000      -0.335886        -9.1399
  51   2.0000      -0.297295        -8.0898
  52   2.0000      -0.291425        -7.9301
  53   0.0000      -0.099013        -2.6943
  54   0.0000       0.011749         0.3197
  55   0.0000       0.013048         0.3550
  56   0.0000       0.013565         0.3691
  57   0.0000       0.026137         0.7112

MULLIKEN ATOMIC CHARGES
-----------------------
   0 C :   -0.208703
   1 C :   -0.224709
   2 C :   -0.229331
   3 C :   -0.222676
   4 C :   -0.310497
   5 C :   -0.207123
   6 H :    0.228456
   7 H :    0.223500
   8 H :    0.220462
   9 H :    0.240067
  10 H :    0.222950
  11 Pd:    0.569961
  12 O :   -0.445617
  13 O :   -0.465312
  14 O :   -0.473110
  15 C :    0.399246
  16 O :   -0.445640
  17 H :    0.281571
  18 C :    0.429331
  19 H :    0.213149
  20 H :    0.204027
Sum of atomic charges:   -0.0000000

LOEWDIN ATOMIC CHARGES
----------------------
   0 C :   -0.121035
   1 C :   -0.130635
   2 C :   -0.127582
   3 C :   -0.127568
   4 C :   -0.137066
   5 C :   -0.113946
   6 H :    0.144039
   7 H :    0.140179
   8 H :    0.136315
   9 H :    0.148956
  10 H :    0.140394
  11 Pd:   -0.096684
  12 O :   -0.136633
  13 O :   -0.140025
  14 O :   -0.135540
  15 C :    0.149653
  16 O :   -0.176828
  17 H :    0.161741
  18 C :    0.174577
  19 H :    0.127299
  20 H :    0.120389

  Mayer bond orders larger than 0.100000
B(  0-C ,  1-C ) :   1.4259 B(  0-C ,  4-C ) :   1.3988 B(  0-C ,  6-H ) :   0.9153
B(  1-C ,  2-C ) :   1.4181 B(  1-C ,  7-H ) :   0.9191 B(  2-C ,  3-C ) :   1.4199
B(  2-C ,  8-H ) :   0.9200 B(  3-C ,  5-C ) :   1.4225 B(  3-C , 10-H ) :   0.9193
B(  4-C ,  5-C ) :   1.4232 B(  4-C , 17-H ) :   0.8692 B(  5-C ,  9-H ) :   0.9111
B( 11-Pd, 12-O ) :   0.5621 B( 11-Pd, 13-O ) :   0.5805 B( 11-Pd, 14-O ) :   0.6347
B( 11-Pd, 16-O ) :   0.4026 B( 12-O , 13-O ) :   0.1134 B( 12-O , 18-C ) :   1.4871
B( 13-O , 18-C ) :   1.4329 B( 14-O , 15-C ) :   1.3714 B( 14-O , 16-O ) :   0.1074
B( 15-C , 16-O ) :   1.6026 B( 15-C , 20-H ) :   0.8872 B( 18-C , 19-H ) :   0.8864

Dispersion correction           -0.013100837
FINAL SINGLE POINT ENERGY      -737.131889168508
Dispersion correction            ... done

DIPOLE MOMENT
-------------
                                X             Y             Z
Electronic contribution:     57.73165      47.46180       4.23466
Nuclear contribution   :    -57.77392     -47.76442      -4.44166
                        -----------------------------------------
Total Dipole Moment    :     -0.04228      -0.30262      -0.20700
                        -----------------------------------------
Magnitude (a.u.)       :      0.36907
Magnitude (Debye)      :      0.93811

Rotational constants in cm-1:     0.029543     0.017487     0.013512
Rotational constants in MHz :   885.682036   524.258711   405.093261

                             ****ORCA TERMINATED NORMALLY****
TOTAL RUN TIME: 0 days 0 hours 4 minutes 37 seconds 154 msec
