                         Program Version 5.0.3 -  RELEASE  -
|  1> ! EnGrad PBEh-3c
|  2> %output
|  3> xyzfile=True
|  4> end
|  5> %scf
|  6> maxiter 250
|  7> end
|  8> %output
|  9> Print[P_Hirshfeld] = 1
| 10> end
| 11> % maxcore
| 12> 4000
| 13> *xyz 0 1
| 14> C   -1.79533418   0.18952461  -0.25385101
| 15> C   -1.73938327  -0.73080627  -1.31056642
| 16> C   -1.13089550  -1.95566391  -1.15910343
| 17> C   -0.46803586  -2.25773498   0.01792378
| 18> C   -1.23998057  -0.10600777   1.08801911
| 19> C   -0.47442571  -1.36455770   1.10225140
| 20> H   -2.31989033   1.09515371  -0.40561029
| 21> H   -2.26238730  -0.49472065  -2.22844080
| 22> H   -1.19219023  -2.68300710  -1.93899706
| 23> H    0.06003884  -1.62497186   1.98444800
| 24> H    0.01024264  -3.21217691   0.13587041
| 25> Pd   1.40289998   1.20348551   0.07120867
| 26> O    2.63815535   0.89143094  -1.62819344
| 27> O    2.60090377  -0.45490552   0.05872992
| 28> O    0.34239228   2.90125168  -0.08382435
| 29> C    0.15505947   2.93563202   1.29895036
| 30> O    0.62666472   2.17634600   1.94277129
| 31> H   -1.56395598   0.67344188   2.34574890
| 32> C    3.07819755  -0.16733271  -1.07554184
| 33> H    3.80353361  -0.80519505  -1.56782430
| 34> H   -0.53410279   3.78922490   1.60479054
| 35> *
| 36>
| 37>                          ****END OF INPUT****

CARTESIAN COORDINATES (ANGSTROEM)
---------------------------------
  C     -1.795334    0.189525   -0.253851
  C     -1.739383   -0.730806   -1.310566
  C     -1.130896   -1.955664   -1.159103
  C     -0.468036   -2.257735    0.017924
  C     -1.239981   -0.106008    1.088019
  C     -0.474426   -1.364558    1.102251
  H     -2.319890    1.095154   -0.405610
  H     -2.262387   -0.494721   -2.228441
  H     -1.192190   -2.683007   -1.938997
  H      0.060039   -1.624972    1.984448
  H      0.010243   -3.212177    0.135870
  Pd     1.402900    1.203486    0.071209
  O      2.638155    0.891431   -1.628193
  O      2.600904   -0.454906    0.058730
  O      0.342392    2.901252   -0.083824
  C      0.155059    2.935632    1.298950
  O      0.626665    2.176346    1.942771
  H     -1.563956    0.673442    2.345749
  C      3.078198   -0.167333   -1.075542
  H      3.803534   -0.805195   -1.567824
  H     -0.534103    3.789225    1.604791

 Total Charge           Charge          ....    0
 Multiplicity           Mult            ....    1
 Number of Electrons    NEL             ....  106
 Basis Dimension        Dim             ....  227

ORBITAL ENERGIES
----------------

  NO   OCC          E(Eh)            E(eV)
   0   2.0000     -19.541132      -531.7412
   1   2.0000     -19.529098      -531.4138
   2   2.0000     -19.525592      -531.3184
   3   2.0000     -19.506022      -530.7858
   4   2.0000     -10.590347      -288.1780
   5   2.0000     -10.584529      -288.0197
   6   2.0000     -10.513964      -286.0995
   7   2.0000     -10.470102      -284.9060
   8   2.0000     -10.469580      -284.8918
   9   2.0000     -10.458616      -284.5934
  10   2.0000     -10.458534      -284.5912
  11   2.0000     -10.455435      -284.5068
  12   2.0000      -3.687083      -100.3306
  13   2.0000      -2.341585       -63.7178
  14   2.0000      -2.325450       -63.2787
  15   2.0000      -2.296930       -62.5026
  16   2.0000      -1.286423       -35.0053
  17   2.0000      -1.224002       -33.3068
  18   2.0000      -1.105967       -30.0949
  19   2.0000      -1.079865       -29.3846
  20   2.0000      -0.952875       -25.9290
  21   2.0000      -0.842003       -22.9121
  22   2.0000      -0.832770       -22.6608
  23   2.0000      -0.701670       -19.0934
  24   2.0000      -0.684034       -18.6135
  25   2.0000      -0.681027       -18.5317
  26   2.0000      -0.678320       -18.4580
  27   2.0000      -0.599342       -16.3089
  28   2.0000      -0.591434       -16.0937
  29   2.0000      -0.583926       -15.8894
  30   2.0000      -0.570199       -15.5159
  31   2.0000      -0.554243       -15.0817
  32   2.0000      -0.552488       -15.0340
  33   2.0000      -0.526826       -14.3357
  34   2.0000      -0.524033       -14.2597
  35   2.0000      -0.511190       -13.9102
  36   2.0000      -0.486435       -13.2366
  37   2.0000      -0.464799       -12.6478
  38   2.0000      -0.443901       -12.0792
  39   2.0000      -0.429994       -11.7007
  40   2.0000      -0.411014       -11.1843
  41   2.0000      -0.409666       -11.1476
  42   2.0000      -0.400473       -10.8974
  43   2.0000      -0.392708       -10.6861
  44   2.0000      -0.390233       -10.6188
  45   2.0000      -0.375347       -10.2137
  46   2.0000      -0.370911       -10.0930
  47   2.0000      -0.364329        -9.9139
  48   2.0000      -0.343175        -9.3383
  49   2.0000      -0.328191        -8.9305
  50   2.0000      -0.327256        -8.9051
  51   2.0000      -0.298659        -8.1269
  52   2.0000      -0.291232        -7.9248
  53   0.0000      -0.095536        -2.5997
  54   0.0000      -0.007722        -0.2101
  55   0.0000       0.007281         0.1981
  56   0.0000       0.019598         0.5333
  57   0.0000       0.035337         0.9616

MULLIKEN ATOMIC CHARGES
-----------------------
   0 C :   -0.234202
   1 C :   -0.200784
   2 C :   -0.222077
   3 C :   -0.197727
   4 C :   -0.243238
   5 C :   -0.240516
   6 H :    0.241917
   7 H :    0.231168
   8 H :    0.229924
   9 H :    0.243739
  10 H :    0.229544
  11 Pd:    0.548948
  12 O :   -0.456570
  13 O :   -0.469670
  14 O :   -0.537532
  15 C :    0.361452
  16 O :   -0.295635
  17 H :    0.189534
  18 C :    0.422426
  19 H :    0.213833
  20 H :    0.185465
Sum of atomic charges:    0.0000000

LOEWDIN ATOMIC CHARGES
----------------------
   0 C :   -0.114381
   1 C :   -0.130397
   2 C :   -0.125753
   3 C :   -0.128737
   4 C :   -0.108585
   5 C :   -0.116508
   6 H :    0.147118
   7 H :    0.144269
   8 H :    0.139734
   9 H :    0.147962
  10 H :    0.143359
  11 Pd:   -0.128332
  12 O :   -0.158095
  13 O :   -0.151244
  14 O :   -0.238241
  15 C :    0.122690
  16 O :   -0.016773
  17 H :    0.155418
  18 C :    0.178343
  19 H :    0.126580
  20 H :    0.111573

  Mayer bond orders larger than 0.100000
B(  0-C ,  1-C ) :   1.4329 B(  0-C ,  4-C ) :   1.3717 B(  0-C ,  6-H ) :   0.9120
B(  1-C ,  2-C ) :   1.4203 B(  1-C ,  7-H ) :   0.9150 B(  2-C ,  3-C ) :   1.4238
B(  2-C ,  8-H ) :   0.9152 B(  3-C ,  5-C ) :   1.4282 B(  3-C , 10-H ) :   0.9159
B(  4-C ,  5-C ) :   1.3911 B(  4-C , 17-H ) :   0.9076 B(  5-C ,  9-H ) :   0.9109
B( 11-Pd, 12-O ) :   0.5577 B( 11-Pd, 13-O ) :   0.5509 B( 11-Pd, 14-O ) :   0.7388
B( 11-Pd, 16-O ) :   0.3242 B( 12-O , 13-O ) :   0.1132 B( 12-O , 18-C ) :   1.4820
B( 13-O , 18-C ) :   1.4490 B( 14-O , 15-C ) :   1.1776 B( 15-C , 16-O ) :   1.8488
B( 15-C , 20-H ) :   0.8765 B( 18-C , 19-H ) :   0.8859

Dispersion correction           -0.013568322
FINAL SINGLE POINT ENERGY      -737.014229525804
Dispersion correction            ... done

DIPOLE MOMENT
-------------
                                X             Y             Z
Electronic contribution:     53.44779      45.48416       3.17334
Nuclear contribution   :    -53.72482     -46.16159      -2.94104
                        -----------------------------------------
Total Dipole Moment    :     -0.27702      -0.67743       0.23230
                        -----------------------------------------
Magnitude (a.u.)       :      0.76786
Magnitude (Debye)      :      1.95175

Rotational constants in cm-1:     0.027782     0.019284     0.014396
Rotational constants in MHz :   832.872786   578.130118   431.576726

                             ****ORCA TERMINATED NORMALLY****
TOTAL RUN TIME: 0 days 0 hours 4 minutes 13 seconds 850 msec
