                         Program Version 5.0.3 -  RELEASE  -
|  1> ! EnGrad PBEh-3c
|  2> %output
|  3> xyzfile=True
|  4> end
|  5> %scf
|  6> maxiter 250
|  7> end
|  8> %output
|  9> Print[P_Hirshfeld] = 1
| 10> end
| 11> % maxcore
| 12> 4000
| 13> *xyz 0 1
| 14> C   -1.79019657   0.18189928  -0.24484878
| 15> C   -1.72902713  -0.71722108  -1.30893092
| 16> C   -1.11311146  -1.94230346  -1.15699720
| 17> C   -0.45949502  -2.24608920   0.02385574
| 18> C   -1.23604041  -0.15650759   1.02689172
| 19> C   -0.48078488  -1.36004936   1.10126212
| 20> H   -2.33465983   1.09064196  -0.40386410
| 21> H   -2.24800121  -0.49067360  -2.23128859
| 22> H   -1.16171937  -2.66948059  -1.94910750
| 23> H    0.05307135  -1.63017936   1.99337622
| 24> H    0.02347055  -3.20414970   0.13300631
| 25> Pd   1.40195049   1.18967847   0.03642224
| 26> O    2.63046996   0.87989599  -1.62670941
| 27> O    2.61625261  -0.45815268   0.06694721
| 28> O    0.33587768   2.90248853  -0.04886464
| 29> C    0.14119358   2.97130737   1.24977146
| 30> O    0.64204589   2.16237796   1.96442105
| 31> H   -1.59847259   0.70618465   2.41605685
| 32> C    3.04685936  -0.18053484  -1.08374216
| 33> H    3.78945374  -0.81529381  -1.56802332
| 34> H   -0.53031043   3.78540669   1.60978424
| 35> *
| 36>
| 37>                          ****END OF INPUT****

CARTESIAN COORDINATES (ANGSTROEM)
---------------------------------
  C     -1.790197    0.181899   -0.244849
  C     -1.729027   -0.717221   -1.308931
  C     -1.113111   -1.942303   -1.156997
  C     -0.459495   -2.246089    0.023856
  C     -1.236040   -0.156508    1.026892
  C     -0.480785   -1.360049    1.101262
  H     -2.334660    1.090642   -0.403864
  H     -2.248001   -0.490674   -2.231289
  H     -1.161719   -2.669481   -1.949107
  H      0.053071   -1.630179    1.993376
  H      0.023471   -3.204150    0.133006
  Pd     1.401950    1.189678    0.036422
  O      2.630470    0.879896   -1.626709
  O      2.616253   -0.458153    0.066947
  O      0.335878    2.902489   -0.048865
  C      0.141194    2.971307    1.249771
  O      0.642046    2.162378    1.964421
  H     -1.598473    0.706185    2.416057
  C      3.046859   -0.180535   -1.083742
  H      3.789454   -0.815294   -1.568023
  H     -0.530310    3.785407    1.609784

 Total Charge           Charge          ....    0
 Multiplicity           Mult            ....    1
 Number of Electrons    NEL             ....  106
 Basis Dimension        Dim             ....  227

ORBITAL ENERGIES
----------------

  NO   OCC          E(Eh)            E(eV)
   0   2.0000     -19.536584      -531.6175
   1   2.0000     -19.534459      -531.5596
   2   2.0000     -19.519997      -531.1661
   3   2.0000     -19.518389      -531.1224
   4   2.0000     -10.595665      -288.3227
   5   2.0000     -10.581107      -287.9265
   6   2.0000     -10.510425      -286.0032
   7   2.0000     -10.466515      -284.8084
   8   2.0000     -10.465407      -284.7782
   9   2.0000     -10.459044      -284.6051
  10   2.0000     -10.458632      -284.5939
  11   2.0000     -10.455616      -284.5118
  12   2.0000      -3.693361      -100.5015
  13   2.0000      -2.347541       -63.8798
  14   2.0000      -2.332406       -63.4680
  15   2.0000      -2.301950       -62.6392
  16   2.0000      -1.237049       -33.6618
  17   2.0000      -1.229523       -33.4570
  18   2.0000      -1.118917       -30.4473
  19   2.0000      -1.103202       -30.0196
  20   2.0000      -0.962330       -26.1863
  21   2.0000      -0.847275       -23.0555
  22   2.0000      -0.838600       -22.8195
  23   2.0000      -0.705112       -19.1871
  24   2.0000      -0.687434       -18.7060
  25   2.0000      -0.682099       -18.5609
  26   2.0000      -0.678799       -18.4711
  27   2.0000      -0.596058       -16.2196
  28   2.0000      -0.591667       -16.1001
  29   2.0000      -0.577195       -15.7063
  30   2.0000      -0.569838       -15.5061
  31   2.0000      -0.547533       -14.8991
  32   2.0000      -0.536641       -14.6027
  33   2.0000      -0.524943       -14.2844
  34   2.0000      -0.522879       -14.2283
  35   2.0000      -0.517727       -14.0881
  36   2.0000      -0.491088       -13.3632
  37   2.0000      -0.457619       -12.4524
  38   2.0000      -0.448041       -12.1918
  39   2.0000      -0.436765       -11.8850
  40   2.0000      -0.418426       -11.3859
  41   2.0000      -0.411812       -11.2060
  42   2.0000      -0.408315       -11.1108
  43   2.0000      -0.393961       -10.7202
  44   2.0000      -0.389319       -10.5939
  45   2.0000      -0.375096       -10.2069
  46   2.0000      -0.370670       -10.0865
  47   2.0000      -0.362282        -9.8582
  48   2.0000      -0.345766        -9.4088
  49   2.0000      -0.335947        -9.1416
  50   2.0000      -0.331518        -9.0211
  51   2.0000      -0.302446        -8.2300
  52   2.0000      -0.295740        -8.0475
  53   0.0000      -0.100718        -2.7407
  54   0.0000      -0.006825        -0.1857
  55   0.0000       0.006851         0.1864
  56   0.0000       0.012586         0.3425
  57   0.0000       0.019105         0.5199

MULLIKEN ATOMIC CHARGES
-----------------------
   0 C :   -0.241568
   1 C :   -0.207080
   2 C :   -0.225619
   3 C :   -0.205492
   4 C :   -0.176365
   5 C :   -0.243823
   6 H :    0.243230
   7 H :    0.231841
   8 H :    0.228603
   9 H :    0.249026
  10 H :    0.229808
  11 Pd:    0.554689
  12 O :   -0.452538
  13 O :   -0.460118
  14 O :   -0.501390
  15 C :    0.391923
  16 O :   -0.392198
  17 H :    0.143102
  18 C :    0.427742
  19 H :    0.212815
  20 H :    0.193413
Sum of atomic charges:    0.0000000

LOEWDIN ATOMIC CHARGES
----------------------
   0 C :   -0.124108
   1 C :   -0.126689
   2 C :   -0.130422
   3 C :   -0.125175
   4 C :   -0.078057
   5 C :   -0.122419
   6 H :    0.150519
   7 H :    0.143587
   8 H :    0.139404
   9 H :    0.153097
  10 H :    0.142829
  11 Pd:   -0.112728
  12 O :   -0.143338
  13 O :   -0.141092
  14 O :   -0.186831
  15 C :    0.140674
  16 O :   -0.123407
  17 H :    0.127726
  18 C :    0.175319
  19 H :    0.126330
  20 H :    0.114782

  Mayer bond orders larger than 0.100000
B(  0-C ,  1-C ) :   1.4237 B(  0-C ,  4-C ) :   1.3919 B(  0-C ,  6-H ) :   0.9114
B(  1-C ,  2-C ) :   1.4244 B(  1-C ,  7-H ) :   0.9143 B(  2-C ,  3-C ) :   1.4263
B(  2-C ,  8-H ) :   0.9164 B(  3-C ,  5-C ) :   1.4206 B(  3-C , 10-H ) :   0.9155
B(  4-C ,  5-C ) :   1.4105 B(  4-C , 17-H ) :   0.9017 B(  5-C ,  9-H ) :   0.9088
B( 11-Pd, 12-O ) :   0.5671 B( 11-Pd, 13-O ) :   0.5695 B( 11-Pd, 14-O ) :   0.6657
B( 11-Pd, 16-O ) :   0.3808 B( 12-O , 13-O ) :   0.1132 B( 12-O , 18-C ) :   1.4783
B( 13-O , 18-C ) :   1.4464 B( 14-O , 15-C ) :   1.3014 B( 14-O , 16-O ) :   0.1051
B( 15-C , 16-O ) :   1.6933 B( 15-C , 20-H ) :   0.8829 B( 18-C , 19-H ) :   0.8871

Dispersion correction           -0.013673031
FINAL SINGLE POINT ENERGY      -737.034825247855
Dispersion correction            ... done

DIPOLE MOMENT
-------------
                                X             Y             Z
Electronic contribution:     53.41020      44.92888       1.22064
Nuclear contribution   :    -53.65117     -45.59494      -1.37428
                        -----------------------------------------
Total Dipole Moment    :     -0.24097      -0.66606      -0.15364
                        -----------------------------------------
Magnitude (a.u.)       :      0.72478
Magnitude (Debye)      :      1.84224

Rotational constants in cm-1:     0.027809     0.019419     0.014468
Rotational constants in MHz :   833.686765   582.167172   433.753795

                             ****ORCA TERMINATED NORMALLY****
TOTAL RUN TIME: 0 days 0 hours 4 minutes 22 seconds 900 msec
