                         Program Version 5.0.3 -  RELEASE  -
|  1> ! EnGrad PBEh-3c
|  2> %output
|  3> xyzfile=True
|  4> end
|  5> %scf
|  6> maxiter 250
|  7> end
|  8> %output
|  9> Print[P_Hirshfeld] = 1
| 10> end
| 11> % maxcore
| 12> 4000
| 13> *xyz 0 1
| 14> C   -1.78804900   0.18406714  -0.24104712
| 15> C   -1.74235490  -0.72840284  -1.30688361
| 16> C   -1.13414737  -1.95761323  -1.15600399
| 17> C   -0.47144012  -2.25433610   0.02078010
| 18> C   -1.23782707  -0.11068116   1.07949264
| 19> C   -0.48190478  -1.35315665   1.09923978
| 20> H   -2.31936049   1.09959224  -0.40881394
| 21> H   -2.26553404  -0.49620757  -2.22791759
| 22> H   -1.19900869  -2.68764897  -1.93874000
| 23> H    0.06404004  -1.62627231   1.98484085
| 24> H    0.00783664  -3.21514825   0.13633235
| 25> Pd   1.40398608   1.20370430   0.06583634
| 26> O    2.64413792   0.89046716  -1.62383791
| 27> O    2.60269060  -0.45583912   0.05755128
| 28> O    0.34216372   2.89806234  -0.05795188
| 29> C    0.13595662   2.96900235   1.24962481
| 30> O    0.64264336   2.14846310   1.97213786
| 31> H   -1.55689385   0.66723090   2.33180371
| 32> C    3.07339594  -0.15870516  -1.07486132
| 33> H    3.80892789  -0.80329303  -1.56718618
| 34> H   -0.53196847   3.78535319   1.60444766
| 35> *
| 36>
| 37>                          ****END OF INPUT****

CARTESIAN COORDINATES (ANGSTROEM)
---------------------------------
  C     -1.788049    0.184067   -0.241047
  C     -1.742355   -0.728403   -1.306884
  C     -1.134147   -1.957613   -1.156004
  C     -0.471440   -2.254336    0.020780
  C     -1.237827   -0.110681    1.079493
  C     -0.481905   -1.353157    1.099240
  H     -2.319360    1.099592   -0.408814
  H     -2.265534   -0.496208   -2.227918
  H     -1.199009   -2.687649   -1.938740
  H      0.064040   -1.626272    1.984841
  H      0.007837   -3.215148    0.136332
  Pd     1.403986    1.203704    0.065836
  O      2.644138    0.890467   -1.623838
  O      2.602691   -0.455839    0.057551
  O      0.342164    2.898062   -0.057952
  C      0.135957    2.969002    1.249625
  O      0.642643    2.148463    1.972138
  H     -1.556894    0.667231    2.331804
  C      3.073396   -0.158705   -1.074861
  H      3.808928   -0.803293   -1.567186
  H     -0.531968    3.785353    1.604448

 Total Charge           Charge          ....    0
 Multiplicity           Mult            ....    1
 Number of Electrons    NEL             ....  106
 Basis Dimension        Dim             ....  227

ORBITAL ENERGIES
----------------

  NO   OCC          E(Eh)            E(eV)
   0   2.0000     -19.531811      -531.4876
   1   2.0000     -19.529653      -531.4289
   2   2.0000     -19.526317      -531.3381
   3   2.0000     -19.524136      -531.2788
   4   2.0000     -10.592210      -288.2287
   5   2.0000     -10.588557      -288.1293
   6   2.0000     -10.508268      -285.9445
   7   2.0000     -10.468042      -284.8499
   8   2.0000     -10.466745      -284.8146
   9   2.0000     -10.457999      -284.5766
  10   2.0000     -10.457432      -284.5612
  11   2.0000     -10.454271      -284.4752
  12   2.0000      -3.691938      -100.4627
  13   2.0000      -2.346554       -63.8530
  14   2.0000      -2.330432       -63.4143
  15   2.0000      -2.300717       -62.6057
  16   2.0000      -1.232676       -33.5428
  17   2.0000      -1.226565       -33.3765
  18   2.0000      -1.113677       -30.3047
  19   2.0000      -1.104056       -30.0429
  20   2.0000      -0.953642       -25.9499
  21   2.0000      -0.839871       -22.8540
  22   2.0000      -0.834400       -22.7052
  23   2.0000      -0.701529       -19.0896
  24   2.0000      -0.687294       -18.7022
  25   2.0000      -0.682107       -18.5611
  26   2.0000      -0.677219       -18.4281
  27   2.0000      -0.593016       -16.1368
  28   2.0000      -0.588966       -16.0266
  29   2.0000      -0.578529       -15.7426
  30   2.0000      -0.567026       -15.4296
  31   2.0000      -0.548381       -14.9222
  32   2.0000      -0.533582       -14.5195
  33   2.0000      -0.524944       -14.2844
  34   2.0000      -0.521885       -14.2012
  35   2.0000      -0.510767       -13.8987
  36   2.0000      -0.483479       -13.1561
  37   2.0000      -0.463487       -12.6121
  38   2.0000      -0.448526       -12.2050
  39   2.0000      -0.430839       -11.7237
  40   2.0000      -0.415205       -11.2983
  41   2.0000      -0.411932       -11.2092
  42   2.0000      -0.399816       -10.8796
  43   2.0000      -0.395216       -10.7544
  44   2.0000      -0.387657       -10.5487
  45   2.0000      -0.386108       -10.5065
  46   2.0000      -0.373937       -10.1754
  47   2.0000      -0.368845       -10.0368
  48   2.0000      -0.346343        -9.4245
  49   2.0000      -0.335715        -9.1353
  50   2.0000      -0.331047        -9.0082
  51   2.0000      -0.297183        -8.0868
  52   2.0000      -0.291813        -7.9406
  53   0.0000      -0.098810        -2.6888
  54   0.0000      -0.003236        -0.0880
  55   0.0000       0.008255         0.2246
  56   0.0000       0.018549         0.5047
  57   0.0000       0.030116         0.8195

MULLIKEN ATOMIC CHARGES
-----------------------
   0 C :   -0.241266
   1 C :   -0.201617
   2 C :   -0.224962
   3 C :   -0.198371
   4 C :   -0.228968
   5 C :   -0.242677
   6 H :    0.236932
   7 H :    0.230406
   8 H :    0.228734
   9 H :    0.243153
  10 H :    0.228673
  11 Pd:    0.561982
  12 O :   -0.450316
  13 O :   -0.464457
  14 O :   -0.501722
  15 C :    0.400520
  16 O :   -0.403162
  17 H :    0.192559
  18 C :    0.422662
  19 H :    0.211478
  20 H :    0.200419
Sum of atomic charges:   -0.0000000

LOEWDIN ATOMIC CHARGES
----------------------
   0 C :   -0.120014
   1 C :   -0.131475
   2 C :   -0.128169
   3 C :   -0.129207
   4 C :   -0.104586
   5 C :   -0.117159
   6 H :    0.145844
   7 H :    0.143509
   8 H :    0.138979
   9 H :    0.148833
  10 H :    0.142996
  11 Pd:   -0.113860
  12 O :   -0.148139
  13 O :   -0.146481
  14 O :   -0.184542
  15 C :    0.158555
  16 O :   -0.129723
  17 H :    0.157678
  18 C :    0.171919
  19 H :    0.125645
  20 H :    0.119397

  Mayer bond orders larger than 0.100000
B(  0-C ,  1-C ) :   1.4299 B(  0-C ,  4-C ) :   1.3745 B(  0-C ,  6-H ) :   0.9134
B(  1-C ,  2-C ) :   1.4213 B(  1-C ,  7-H ) :   0.9153 B(  2-C ,  3-C ) :   1.4256
B(  2-C ,  8-H ) :   0.9154 B(  3-C ,  5-C ) :   1.4242 B(  3-C , 10-H ) :   0.9163
B(  4-C ,  5-C ) :   1.3962 B(  4-C , 17-H ) :   0.9070 B(  5-C ,  9-H ) :   0.9110
B( 11-Pd, 12-O ) :   0.5526 B( 11-Pd, 13-O ) :   0.5695 B( 11-Pd, 14-O ) :   0.6662
B( 11-Pd, 16-O ) :   0.3906 B( 12-O , 13-O ) :   0.1126 B( 12-O , 18-C ) :   1.4925
B( 13-O , 18-C ) :   1.4408 B( 14-O , 15-C ) :   1.2998 B( 14-O , 16-O ) :   0.1074
B( 15-C , 16-O ) :   1.6708 B( 15-C , 20-H ) :   0.8825 B( 18-C , 19-H ) :   0.8859

Dispersion correction           -0.013567580
FINAL SINGLE POINT ENERGY      -737.058769166131
Dispersion correction            ... done

DIPOLE MOMENT
-------------
                                X             Y             Z
Electronic contribution:     53.46856      45.65653       2.59337
Nuclear contribution   :    -53.76468     -46.17969      -2.62024
                        -----------------------------------------
Total Dipole Moment    :     -0.29612      -0.52316      -0.02687
                        -----------------------------------------
Magnitude (a.u.)       :      0.60175
Magnitude (Debye)      :      1.52952

Rotational constants in cm-1:     0.027819     0.019284     0.014396
Rotational constants in MHz :   833.996976   578.115351   431.574108

                             ****ORCA TERMINATED NORMALLY****
TOTAL RUN TIME: 0 days 0 hours 4 minutes 19 seconds 331 msec
