                         Program Version 5.0.3 -  RELEASE  -
|  1> ! EnGrad PBEh-3c
|  2> %output
|  3> xyzfile=True
|  4> end
|  5> %scf
|  6> maxiter 250
|  7> end
|  8> %output
|  9> Print[P_Hirshfeld] = 1
| 10> end
| 11> % maxcore
| 12> 4000
| 13> *xyz 0 1
| 14> C   -1.77926529   0.18379093  -0.22094329
| 15> C   -1.76100314  -0.73680867  -1.29631381
| 16> C   -1.16382740  -1.97631161  -1.15046010
| 17> C   -0.48999499  -2.25740166   0.02393465
| 18> C   -1.23619338  -0.07077682   1.12221149
| 19> C   -0.49107638  -1.33169157   1.09724335
| 20> H   -2.29948852   1.11346603  -0.41856441
| 21> H   -2.28965884  -0.50433076  -2.22196153
| 22> H   -1.25135760  -2.71517626  -1.92646849
| 23> H    0.08072817  -1.62283242   1.97327327
| 24> H   -0.01403534  -3.22997832   0.14127468
| 25> Pd   1.41001182   1.21756782   0.09125614
| 26> O    2.66687483   0.90681972  -1.61590032
| 27> O    2.59066685  -0.45353916   0.04681696
| 28> O    0.34854265   2.89132899  -0.04417776
| 29> C    0.12779593   2.97322509   1.22618285
| 30> O    0.64308166   2.12956155   1.98745205
| 31> H   -1.49854287   0.61266051   2.21296813
| 32> C    3.09805431  -0.12950636  -1.06396228
| 33> H    3.83731301  -0.78442755  -1.56325285
| 34> H   -0.53335785   3.78278549   1.59786802
| 35> *
| 36>
| 37>                          ****END OF INPUT****

CARTESIAN COORDINATES (ANGSTROEM)
---------------------------------
  C     -1.779265    0.183791   -0.220943
  C     -1.761003   -0.736809   -1.296314
  C     -1.163827   -1.976312   -1.150460
  C     -0.489995   -2.257402    0.023935
  C     -1.236193   -0.070777    1.122211
  C     -0.491076   -1.331692    1.097243
  H     -2.299489    1.113466   -0.418564
  H     -2.289659   -0.504331   -2.221962
  H     -1.251358   -2.715176   -1.926468
  H      0.080728   -1.622832    1.973273
  H     -0.014035   -3.229978    0.141275
  Pd     1.410012    1.217568    0.091256
  O      2.666875    0.906820   -1.615900
  O      2.590667   -0.453539    0.046817
  O      0.348543    2.891329   -0.044178
  C      0.127796    2.973225    1.226183
  O      0.643082    2.129562    1.987452
  H     -1.498543    0.612661    2.212968
  C      3.098054   -0.129506   -1.063962
  H      3.837313   -0.784428   -1.563253
  H     -0.533358    3.782785    1.597868

 Total Charge           Charge          ....    0
 Multiplicity           Mult            ....    1
 Number of Electrons    NEL             ....  106
 Basis Dimension        Dim             ....  227

ORBITAL ENERGIES
----------------

  NO   OCC          E(Eh)            E(eV)
   0   2.0000     -19.535927      -531.5996
   1   2.0000     -19.529349      -531.4206
   2   2.0000     -19.528090      -531.3863
   3   2.0000     -19.524802      -531.2969
   4   2.0000     -10.593986      -288.2770
   5   2.0000     -10.590802      -288.1904
   6   2.0000     -10.498030      -285.6659
   7   2.0000     -10.469127      -284.8794
   8   2.0000     -10.467143      -284.8254
   9   2.0000     -10.458010      -284.5769
  10   2.0000     -10.457061      -284.5511
  11   2.0000     -10.453706      -284.4598
  12   2.0000      -3.693596      -100.5079
  13   2.0000      -2.348725       -63.9120
  14   2.0000      -2.331728       -63.4495
  15   2.0000      -2.302175       -62.6454
  16   2.0000      -1.232115       -33.5275
  17   2.0000      -1.221924       -33.2502
  18   2.0000      -1.114110       -30.3165
  19   2.0000      -1.110903       -30.2292
  20   2.0000      -0.948187       -25.8015
  21   2.0000      -0.834501       -22.7079
  22   2.0000      -0.832122       -22.6432
  23   2.0000      -0.700542       -19.0627
  24   2.0000      -0.690267       -18.7831
  25   2.0000      -0.678355       -18.4590
  26   2.0000      -0.676631       -18.4121
  27   2.0000      -0.593876       -16.1602
  28   2.0000      -0.586671       -15.9641
  29   2.0000      -0.580003       -15.7827
  30   2.0000      -0.567608       -15.4454
  31   2.0000      -0.548569       -14.9273
  32   2.0000      -0.534515       -14.5449
  33   2.0000      -0.526353       -14.3228
  34   2.0000      -0.521974       -14.2036
  35   2.0000      -0.505772       -13.7628
  36   2.0000      -0.477774       -13.0009
  37   2.0000      -0.474221       -12.9042
  38   2.0000      -0.449683       -12.2365
  39   2.0000      -0.428732       -11.6664
  40   2.0000      -0.416204       -11.3255
  41   2.0000      -0.413585       -11.2542
  42   2.0000      -0.399928       -10.8826
  43   2.0000      -0.395421       -10.7600
  44   2.0000      -0.391895       -10.6640
  45   2.0000      -0.388860       -10.5814
  46   2.0000      -0.376571       -10.2470
  47   2.0000      -0.369414       -10.0523
  48   2.0000      -0.347943        -9.4680
  49   2.0000      -0.338086        -9.1998
  50   2.0000      -0.332454        -9.0465
  51   2.0000      -0.291722        -7.9382
  52   2.0000      -0.290330        -7.9003
  53   0.0000      -0.099680        -2.7124
  54   0.0000      -0.002821        -0.0768
  55   0.0000       0.009108         0.2478
  56   0.0000       0.015714         0.4276
  57   0.0000       0.027998         0.7619

MULLIKEN ATOMIC CHARGES
-----------------------
   0 C :   -0.242739
   1 C :   -0.201746
   2 C :   -0.222977
   3 C :   -0.197278
   4 C :   -0.264249
   5 C :   -0.240583
   6 H :    0.228665
   7 H :    0.229022
   8 H :    0.228814
   9 H :    0.237176
  10 H :    0.227262
  11 Pd:    0.567902
  12 O :   -0.443956
  13 O :   -0.465788
  14 O :   -0.478428
  15 C :    0.410423
  16 O :   -0.440580
  17 H :    0.236606
  18 C :    0.417553
  19 H :    0.209055
  20 H :    0.205843
Sum of atomic charges:   -0.0000000

LOEWDIN ATOMIC CHARGES
----------------------
   0 C :   -0.117456
   1 C :   -0.136061
   2 C :   -0.127658
   3 C :   -0.132720
   4 C :   -0.121712
   5 C :   -0.111363
   6 H :    0.141580
   7 H :    0.143048
   8 H :    0.138582
   9 H :    0.145826
  10 H :    0.142911
  11 Pd:   -0.108134
  12 O :   -0.146647
  13 O :   -0.149260
  14 O :   -0.150482
  15 C :    0.169576
  16 O :   -0.167296
  17 H :    0.174118
  18 C :    0.165659
  19 H :    0.124710
  20 H :    0.122778

  Mayer bond orders larger than 0.100000
B(  0-C ,  1-C ) :   1.4318 B(  0-C ,  4-C ) :   1.3641 B(  0-C ,  6-H ) :   0.9156
B(  1-C ,  2-C ) :   1.4187 B(  1-C ,  7-H ) :   0.9161 B(  2-C ,  3-C ) :   1.4263
B(  2-C ,  8-H ) :   0.9143 B(  3-C ,  5-C ) :   1.4229 B(  3-C , 10-H ) :   0.9173
B(  4-C ,  5-C ) :   1.3899 B(  4-C , 17-H ) :   0.9052 B(  5-C ,  9-H ) :   0.9129
B( 11-Pd, 12-O ) :   0.5374 B( 11-Pd, 13-O ) :   0.5780 B( 11-Pd, 14-O ) :   0.6369
B( 11-Pd, 16-O ) :   0.4286 B( 12-O , 13-O ) :   0.1116 B( 12-O , 18-C ) :   1.5107
B( 13-O , 18-C ) :   1.4308 B( 14-O , 15-C ) :   1.3571 B( 14-O , 16-O ) :   0.1103
B( 15-C , 16-O ) :   1.5927 B( 15-C , 20-H ) :   0.8840 B( 18-C , 19-H ) :   0.8847

Dispersion correction           -0.013186976
FINAL SINGLE POINT ENERGY      -737.090033371786
Dispersion correction            ... done

DIPOLE MOMENT
-------------
                                X             Y             Z
Electronic contribution:     53.74739      46.36294       3.54421
Nuclear contribution   :    -54.06644     -46.72516      -3.60248
                        -----------------------------------------
Total Dipole Moment    :     -0.31905      -0.36222      -0.05827
                        -----------------------------------------
Magnitude (a.u.)       :      0.48620
Magnitude (Debye)      :      1.23583

Rotational constants in cm-1:     0.027919     0.019146     0.014311
Rotational constants in MHz :   836.996656   573.984646   429.033920

                             ****ORCA TERMINATED NORMALLY****
TOTAL RUN TIME: 0 days 0 hours 4 minutes 12 seconds 654 msec
