                         Program Version 5.0.3 -  RELEASE  -
|  1> ! EnGrad PBEh-3c
|  2> %output
|  3> xyzfile=True
|  4> end
|  5> %scf
|  6> maxiter 250
|  7> end
|  8> %output
|  9> Print[P_Hirshfeld] = 1
| 10> end
| 11> % maxcore
| 12> 4000
| 13> *xyz 0 1
| 14> C   -1.77006334   0.18441623  -0.19364337
| 15> C   -1.77760183  -0.73793727  -1.27852094
| 16> C   -1.19192246  -1.98966333  -1.14137499
| 17> C   -0.50832902  -2.25287900   0.03450983
| 18> C   -1.23022825  -0.06097222   1.12739654
| 19> C   -0.50293562  -1.30622343   1.09914720
| 20> H   -2.28111490   1.12465541  -0.42838121
| 21> H   -2.31033600  -0.51148801  -2.21301152
| 22> H   -1.29900015  -2.74106329  -1.91604098
| 23> H    0.09509189  -1.62003263   1.96134985
| 24> H   -0.03480696  -3.23978987   0.14674342
| 25> Pd   1.41975575   1.22356651   0.09990762
| 26> O    2.68948379   0.92666653  -1.60588447
| 27> O    2.58622799  -0.45150539   0.04049840
| 28> O    0.35273121   2.88589457  -0.01630484
| 29> C    0.12303726   2.97654857   1.20094170
| 30> O    0.63861170   2.12006980   1.99729782
| 31> H   -1.44521858   0.56353346   2.10415300
| 32> C    3.11075484  -0.10927018  -1.05625013
| 33> H    3.86286327  -0.76353013  -1.55555551
| 34> H   -0.53348198   3.77794124   1.59165949
| 35> *
| 36>
| 37>                          ****END OF INPUT****

CARTESIAN COORDINATES (ANGSTROEM)
---------------------------------
  C     -1.770063    0.184416   -0.193643
  C     -1.777602   -0.737937   -1.278521
  C     -1.191922   -1.989663   -1.141375
  C     -0.508329   -2.252879    0.034510
  C     -1.230228   -0.060972    1.127397
  C     -0.502936   -1.306223    1.099147
  H     -2.281115    1.124655   -0.428381
  H     -2.310336   -0.511488   -2.213012
  H     -1.299000   -2.741063   -1.916041
  H      0.095092   -1.620033    1.961350
  H     -0.034807   -3.239790    0.146743
  Pd     1.419756    1.223567    0.099908
  O      2.689484    0.926667   -1.605884
  O      2.586228   -0.451505    0.040498
  O      0.352731    2.885895   -0.016305
  C      0.123037    2.976549    1.200942
  O      0.638612    2.120070    1.997298
  H     -1.445219    0.563533    2.104153
  C      3.110755   -0.109270   -1.056250
  H      3.862863   -0.763530   -1.555556
  H     -0.533482    3.777941    1.591659

 Total Charge           Charge          ....    0
 Multiplicity           Mult            ....    1
 Number of Electrons    NEL             ....  106
 Basis Dimension        Dim             ....  227

ORBITAL ENERGIES
----------------

  NO   OCC          E(Eh)            E(eV)
   0   2.0000     -19.544125      -531.8227
   1   2.0000     -19.531046      -531.4668
   2   2.0000     -19.529923      -531.4362
   3   2.0000     -19.517999      -531.1118
   4   2.0000     -10.592933      -288.2484
   5   2.0000     -10.592310      -288.2314
   6   2.0000     -10.483076      -285.2590
   7   2.0000     -10.467712      -284.8409
   8   2.0000     -10.464950      -284.7658
   9   2.0000     -10.458466      -284.5893
  10   2.0000     -10.457251      -284.5563
  11   2.0000     -10.454107      -284.4707
  12   2.0000      -3.696308      -100.5817
  13   2.0000      -2.351754       -63.9945
  14   2.0000      -2.334365       -63.5213
  15   2.0000      -2.304624       -62.7120
  16   2.0000      -1.237723       -33.6801
  17   2.0000      -1.231593       -33.5134
  18   2.0000      -1.116532       -30.3824
  19   2.0000      -1.111567       -30.2473
  20   2.0000      -0.948495       -25.8098
  21   2.0000      -0.840118       -22.8608
  22   2.0000      -0.827683       -22.5224
  23   2.0000      -0.702645       -19.1199
  24   2.0000      -0.690530       -18.7903
  25   2.0000      -0.680636       -18.5210
  26   2.0000      -0.675274       -18.3751
  27   2.0000      -0.598416       -16.2837
  28   2.0000      -0.587224       -15.9792
  29   2.0000      -0.583785       -15.8856
  30   2.0000      -0.570842       -15.5334
  31   2.0000      -0.550680       -14.9848
  32   2.0000      -0.539916       -14.6919
  33   2.0000      -0.529709       -14.4141
  34   2.0000      -0.526173       -14.3179
  35   2.0000      -0.505651       -13.7595
  36   2.0000      -0.489633       -13.3236
  37   2.0000      -0.467913       -12.7326
  38   2.0000      -0.449126       -12.2213
  39   2.0000      -0.430367       -11.7109
  40   2.0000      -0.417897       -11.3716
  41   2.0000      -0.413606       -11.2548
  42   2.0000      -0.401591       -10.9279
  43   2.0000      -0.395367       -10.7585
  44   2.0000      -0.392180       -10.6718
  45   2.0000      -0.389879       -10.6091
  46   2.0000      -0.377993       -10.2857
  47   2.0000      -0.371943       -10.1211
  48   2.0000      -0.349444        -9.5088
  49   2.0000      -0.340188        -9.2570
  50   2.0000      -0.334179        -9.0935
  51   2.0000      -0.292482        -7.9588
  52   2.0000      -0.288509        -7.8507
  53   0.0000      -0.101944        -2.7740
  54   0.0000       0.000480         0.0130
  55   0.0000       0.009387         0.2554
  56   0.0000       0.016963         0.4616
  57   0.0000       0.028801         0.7837

MULLIKEN ATOMIC CHARGES
-----------------------
   0 C :   -0.246678
   1 C :   -0.205237
   2 C :   -0.222487
   3 C :   -0.200778
   4 C :   -0.260961
   5 C :   -0.241704
   6 H :    0.223623
   7 H :    0.227310
   8 H :    0.228655
   9 H :    0.234634
  10 H :    0.225343
  11 Pd:    0.567421
  12 O :   -0.440551
  13 O :   -0.463834
  14 O :   -0.445309
  15 C :    0.406836
  16 O :   -0.468965
  17 H :    0.252454
  18 C :    0.417377
  19 H :    0.207963
  20 H :    0.204888
Sum of atomic charges:   -0.0000000

LOEWDIN ATOMIC CHARGES
----------------------
   0 C :   -0.117671
   1 C :   -0.137267
   2 C :   -0.129483
   3 C :   -0.133206
   4 C :   -0.123698
   5 C :   -0.109178
   6 H :    0.140130
   7 H :    0.141988
   8 H :    0.138520
   9 H :    0.145549
  10 H :    0.142065
  11 Pd:   -0.100376
  12 O :   -0.143768
  13 O :   -0.146791
  14 O :   -0.108761
  15 C :    0.159774
  16 O :   -0.199505
  17 H :    0.171876
  18 C :    0.163292
  19 H :    0.124423
  20 H :    0.122084

  Mayer bond orders larger than 0.100000
B(  0-C ,  1-C ) :   1.4299 B(  0-C ,  4-C ) :   1.3662 B(  0-C ,  6-H ) :   0.9169
B(  1-C ,  2-C ) :   1.4188 B(  1-C ,  7-H ) :   0.9170 B(  2-C ,  3-C ) :   1.4275
B(  2-C ,  8-H ) :   0.9139 B(  3-C ,  5-C ) :   1.4199 B(  3-C , 10-H ) :   0.9183
B(  4-C ,  5-C ) :   1.3942 B(  4-C , 17-H ) :   0.9056 B(  5-C ,  9-H ) :   0.9135
B( 11-Pd, 12-O ) :   0.5324 B( 11-Pd, 13-O ) :   0.5869 B( 11-Pd, 14-O ) :   0.6044
B( 11-Pd, 16-O ) :   0.4643 B( 12-O , 13-O ) :   0.1112 B( 12-O , 18-C ) :   1.5171
B( 13-O , 18-C ) :   1.4250 B( 14-O , 15-C ) :   1.4287 B( 14-O , 16-O ) :   0.1095
B( 15-C , 16-O ) :   1.5277 B( 15-C , 20-H ) :   0.8858 B( 18-C , 19-H ) :   0.8842

Dispersion correction           -0.013169348
FINAL SINGLE POINT ENERGY      -737.108791264092
Dispersion correction            ... done

DIPOLE MOMENT
-------------
                                X             Y             Z
Electronic contribution:     54.25039      46.62085       3.64096
Nuclear contribution   :    -54.53727     -46.90687      -3.81758
                        -----------------------------------------
Total Dipole Moment    :     -0.28689      -0.28602      -0.17661
                        -----------------------------------------
Magnitude (a.u.)       :      0.44193
Magnitude (Debye)      :      1.12330

Rotational constants in cm-1:     0.028090     0.019059     0.014249
Rotational constants in MHz :   842.108701   571.366673   427.177513

                             ****ORCA TERMINATED NORMALLY****
TOTAL RUN TIME: 0 days 0 hours 4 minutes 16 seconds 84 msec
