                         Program Version 5.0.3 -  RELEASE  -
|  1> ! EnGrad PBEh-3c
|  2> %output
|  3> xyzfile=True
|  4> end
|  5> %scf
|  6> maxiter 250
|  7> end
|  8> %output
|  9> Print[P_Hirshfeld] = 1
| 10> end
| 11> % maxcore
| 12> 4000
| 13> *xyz 0 1
| 14> C   -1.76717151   0.18930634  -0.17594731
| 15> C   -1.79380488  -0.73926863  -1.25943908
| 16> C   -1.22097142  -2.00099394  -1.13125944
| 17> C   -0.52650421  -2.24900873   0.04598871
| 18> C   -1.22286352  -0.05865105   1.12256713
| 19> C   -0.50910907  -1.29074133   1.10348362
| 20> H   -2.26086731   1.13263074  -0.43502546
| 21> H   -2.32932136  -0.51746629  -2.20011228
| 22> H   -1.34583468  -2.76455036  -1.90331544
| 23> H    0.10631753  -1.61470076   1.94796595
| 24> H   -0.05657492  -3.24453621   0.15348829
| 25> Pd   1.43138662   1.22820034   0.10875861
| 26> O    2.70998520   0.95011491  -1.59625850
| 27> O    2.58207271  -0.44835297   0.03606824
| 28> O    0.35990411   2.88156502  -0.01226099
| 29> C    0.12134821   2.97006362   1.21068157
| 30> O    0.62829914   2.11980286   1.99534899
| 31> H   -1.39260573   0.51815407   1.99991717
| 32> C    3.12519963  -0.09479734  -1.05021190
| 33> H    3.88638975  -0.74042583  -1.54573646
| 34> H   -0.53358243   3.77334099   1.58424065
| 35> *
| 36>
| 37>                          ****END OF INPUT****

CARTESIAN COORDINATES (ANGSTROEM)
---------------------------------
  C     -1.767172    0.189306   -0.175947
  C     -1.793805   -0.739269   -1.259439
  C     -1.220971   -2.000994   -1.131259
  C     -0.526504   -2.249009    0.045989
  C     -1.222864   -0.058651    1.122567
  C     -0.509109   -1.290741    1.103484
  H     -2.260867    1.132631   -0.435025
  H     -2.329321   -0.517466   -2.200112
  H     -1.345835   -2.764550   -1.903315
  H      0.106318   -1.614701    1.947966
  H     -0.056575   -3.244536    0.153488
  Pd     1.431387    1.228200    0.108759
  O      2.709985    0.950115   -1.596259
  O      2.582073   -0.448353    0.036068
  O      0.359904    2.881565   -0.012261
  C      0.121348    2.970064    1.210682
  O      0.628299    2.119803    1.995349
  H     -1.392606    0.518154    1.999917
  C      3.125200   -0.094797   -1.050212
  H      3.886390   -0.740426   -1.545736
  H     -0.533582    3.773341    1.584241

 Total Charge           Charge          ....    0
 Multiplicity           Mult            ....    1
 Number of Electrons    NEL             ....  106
 Basis Dimension        Dim             ....  227

ORBITAL ENERGIES
----------------

  NO   OCC          E(Eh)            E(eV)
   0   2.0000     -19.542004      -531.7650
   1   2.0000     -19.531823      -531.4879
   2   2.0000     -19.530388      -531.4489
   3   2.0000     -19.519986      -531.1658
   4   2.0000     -10.593458      -288.2626
   5   2.0000     -10.592065      -288.2248
   6   2.0000     -10.468952      -284.8747
   7   2.0000     -10.465521      -284.7813
   8   2.0000     -10.462561      -284.7008
   9   2.0000     -10.458352      -284.5862
  10   2.0000     -10.457227      -284.5556
  11   2.0000     -10.454897      -284.4922
  12   2.0000      -3.696458      -100.5857
  13   2.0000      -2.352081       -64.0034
  14   2.0000      -2.334367       -63.5214
  15   2.0000      -2.304952       -62.7209
  16   2.0000      -1.237870       -33.6841
  17   2.0000      -1.231152       -33.5014
  18   2.0000      -1.117304       -30.4034
  19   2.0000      -1.114452       -30.3258
  20   2.0000      -0.950093       -25.8533
  21   2.0000      -0.845519       -23.0077
  22   2.0000      -0.826071       -22.4785
  23   2.0000      -0.703900       -19.1541
  24   2.0000      -0.691567       -18.8185
  25   2.0000      -0.685761       -18.6605
  26   2.0000      -0.675434       -18.3795
  27   2.0000      -0.599074       -16.3016
  28   2.0000      -0.591275       -16.0894
  29   2.0000      -0.584003       -15.8915
  30   2.0000      -0.571652       -15.5554
  31   2.0000      -0.551495       -15.0069
  32   2.0000      -0.541331       -14.7304
  33   2.0000      -0.534606       -14.5474
  34   2.0000      -0.527278       -14.3480
  35   2.0000      -0.506883       -13.7930
  36   2.0000      -0.495968       -13.4960
  37   2.0000      -0.464892       -12.6503
  38   2.0000      -0.451315       -12.2809
  39   2.0000      -0.431825       -11.7505
  40   2.0000      -0.418564       -11.3897
  41   2.0000      -0.414582       -11.2814
  42   2.0000      -0.402999       -10.9662
  43   2.0000      -0.396271       -10.7831
  44   2.0000      -0.392442       -10.6789
  45   2.0000      -0.389914       -10.6101
  46   2.0000      -0.379450       -10.3253
  47   2.0000      -0.372176       -10.1274
  48   2.0000      -0.349480        -9.5098
  49   2.0000      -0.340743        -9.2721
  50   2.0000      -0.334500        -9.1022
  51   2.0000      -0.294641        -8.0176
  52   2.0000      -0.286964        -7.8087
  53   0.0000      -0.101486        -2.7616
  54   0.0000       0.002485         0.0676
  55   0.0000       0.009699         0.2639
  56   0.0000       0.016870         0.4591
  57   0.0000       0.028052         0.7633

MULLIKEN ATOMIC CHARGES
-----------------------
   0 C :   -0.250879
   1 C :   -0.208495
   2 C :   -0.221900
   3 C :   -0.204420
   4 C :   -0.245940
   5 C :   -0.246622
   6 H :    0.223169
   7 H :    0.225431
   8 H :    0.228781
   9 H :    0.234095
  10 H :    0.223523
  11 Pd:    0.568708
  12 O :   -0.441722
  13 O :   -0.465915
  14 O :   -0.452805
  15 C :    0.406631
  16 O :   -0.461069
  17 H :    0.256338
  18 C :    0.418939
  19 H :    0.209350
  20 H :    0.204802
Sum of atomic charges:   -0.0000000

LOEWDIN ATOMIC CHARGES
----------------------
   0 C :   -0.116086
   1 C :   -0.136374
   2 C :   -0.130670
   3 C :   -0.132172
   4 C :   -0.123784
   5 C :   -0.107966
   6 H :    0.140836
   7 H :    0.140784
   8 H :    0.139007
   9 H :    0.145970
  10 H :    0.140897
  11 Pd:   -0.096674
  12 O :   -0.146168
  13 O :   -0.147233
  14 O :   -0.115570
  15 C :    0.156260
  16 O :   -0.187238
  17 H :    0.162231
  18 C :    0.166897
  19 H :    0.125339
  20 H :    0.121714

  Mayer bond orders larger than 0.100000
B(  0-C ,  1-C ) :   1.4292 B(  0-C ,  4-C ) :   1.3748 B(  0-C ,  6-H ) :   0.9173
B(  1-C ,  2-C ) :   1.4195 B(  1-C ,  7-H ) :   0.9179 B(  2-C ,  3-C ) :   1.4271
B(  2-C ,  8-H ) :   0.9137 B(  3-C ,  5-C ) :   1.4201 B(  3-C , 10-H ) :   0.9191
B(  4-C ,  5-C ) :   1.4027 B(  4-C , 17-H ) :   0.9065 B(  5-C ,  9-H ) :   0.9139
B( 11-Pd, 12-O ) :   0.5338 B( 11-Pd, 13-O ) :   0.5860 B( 11-Pd, 14-O ) :   0.6145
B( 11-Pd, 16-O ) :   0.4548 B( 12-O , 13-O ) :   0.1115 B( 12-O , 18-C ) :   1.5148
B( 13-O , 18-C ) :   1.4229 B( 14-O , 15-C ) :   1.4115 B( 14-O , 16-O ) :   0.1090
B( 15-C , 16-O ) :   1.5474 B( 15-C , 20-H ) :   0.8867 B( 18-C , 19-H ) :   0.8841

Dispersion correction           -0.013185478
FINAL SINGLE POINT ENERGY      -737.117113982896
Dispersion correction            ... done

DIPOLE MOMENT
-------------
                                X             Y             Z
Electronic contribution:     54.85100      46.74573       3.93480
Nuclear contribution   :    -55.09603     -47.03195      -4.09212
                        -----------------------------------------
Total Dipole Moment    :     -0.24503      -0.28622      -0.15732
                        -----------------------------------------
Magnitude (a.u.)       :      0.40831
Magnitude (Debye)      :      1.03784

Rotational constants in cm-1:     0.028249     0.018947     0.014183
Rotational constants in MHz :   846.895251   568.005435   425.199452

                             ****ORCA TERMINATED NORMALLY****
TOTAL RUN TIME: 0 days 0 hours 3 minutes 56 seconds 172 msec
