                         Program Version 5.0.3 -  RELEASE  -
|  1> ! EnGrad PBEh-3c
|  2> %output
|  3> xyzfile=True
|  4> end
|  5> %scf
|  6> maxiter 250
|  7> end
|  8> %output
|  9> Print[P_Hirshfeld] = 1
| 10> end
| 11> % maxcore
| 12> 4000
| 13> *xyz 0 1
| 14> C   -1.77407477   0.20131233  -0.15485561
| 15> C   -1.82356426  -0.73361506  -1.21427839
| 16> C   -1.27440992  -2.01157911  -1.10233667
| 17> C   -0.56117717  -2.23502374   0.07638113
| 18> C   -1.19762449  -0.12426883   1.01984208
| 19> C   -0.51580713  -1.28046887   1.11579647
| 20> H   -2.22398953   1.14319304  -0.43758252
| 21> H   -2.35570154  -0.52323619  -2.16179636
| 22> H   -1.42502662  -2.79927288  -1.87556378
| 23> H    0.11847948  -1.59951881   1.92600815
| 24> H   -0.09683895  -3.23521734   0.17072137
| 25> Pd   1.46218282   1.23147810   0.10667021
| 26> O    2.74393923   0.99538277  -1.57271344
| 27> O    2.58533839  -0.44029690   0.03499099
| 28> O    0.37511502   2.87678641  -0.00935334
| 29> C    0.11891697   2.95931362   1.23971706
| 30> O    0.60674841   2.12125809   1.98749048
| 31> H   -1.30193873   0.46276972   1.84538941
| 32> C    3.13456997  -0.07697848  -1.04486639
| 33> H    3.92403602  -0.69205648  -1.52004076
| 34> H   -0.53176998   3.76301505   1.57082843
| 35> *
| 36>
| 37>                          ****END OF INPUT****

CARTESIAN COORDINATES (ANGSTROEM)
---------------------------------
  C     -1.774075    0.201312   -0.154856
  C     -1.823564   -0.733615   -1.214278
  C     -1.274410   -2.011579   -1.102337
  C     -0.561177   -2.235024    0.076381
  C     -1.197624   -0.124269    1.019842
  C     -0.515807   -1.280469    1.115796
  H     -2.223990    1.143193   -0.437583
  H     -2.355702   -0.523236   -2.161796
  H     -1.425027   -2.799273   -1.875564
  H      0.118479   -1.599519    1.926008
  H     -0.096839   -3.235217    0.170721
  Pd     1.462183    1.231478    0.106670
  O      2.743939    0.995383   -1.572713
  O      2.585338   -0.440297    0.034991
  O      0.375115    2.876786   -0.009353
  C      0.118917    2.959314    1.239717
  O      0.606748    2.121258    1.987490
  H     -1.301939    0.462770    1.845389
  C      3.134570   -0.076978   -1.044866
  H      3.924036   -0.692056   -1.520041
  H     -0.531770    3.763015    1.570828

 Total Charge           Charge          ....    0
 Multiplicity           Mult            ....    1
 Number of Electrons    NEL             ....  106
 Basis Dimension        Dim             ....  227

ORBITAL ENERGIES
----------------

  NO   OCC          E(Eh)            E(eV)
   0   2.0000     -19.536308      -531.6100
   1   2.0000     -19.534396      -531.5579
   2   2.0000     -19.532209      -531.4984
   3   2.0000     -19.522793      -531.2422
   4   2.0000     -10.597266      -288.3663
   5   2.0000     -10.587693      -288.1058
   6   2.0000     -10.454998      -284.4950
   7   2.0000     -10.454235      -284.4742
   8   2.0000     -10.453366      -284.4506
   9   2.0000     -10.451856      -284.4094
  10   2.0000     -10.449131      -284.3353
  11   2.0000     -10.442845      -284.1643
  12   2.0000      -3.696431      -100.5850
  13   2.0000      -2.352030       -64.0020
  14   2.0000      -2.334515       -63.5254
  15   2.0000      -2.305236       -62.7287
  16   2.0000      -1.238640       -33.7051
  17   2.0000      -1.232457       -33.5368
  18   2.0000      -1.120203       -30.4823
  19   2.0000      -1.116269       -30.3752
  20   2.0000      -0.964658       -26.2497
  21   2.0000      -0.852204       -23.1896
  22   2.0000      -0.833496       -22.6806
  23   2.0000      -0.706412       -19.2224
  24   2.0000      -0.695206       -18.9175
  25   2.0000      -0.686733       -18.6870
  26   2.0000      -0.682383       -18.5686
  27   2.0000      -0.601010       -16.3543
  28   2.0000      -0.598473       -16.2853
  29   2.0000      -0.584879       -15.9154
  30   2.0000      -0.573786       -15.6135
  31   2.0000      -0.553571       -15.0634
  32   2.0000      -0.540798       -14.7159
  33   2.0000      -0.530345       -14.4314
  34   2.0000      -0.525769       -14.3069
  35   2.0000      -0.519295       -14.1307
  36   2.0000      -0.495092       -13.4721
  37   2.0000      -0.471983       -12.8433
  38   2.0000      -0.455411       -12.3924
  39   2.0000      -0.438976       -11.9451
  40   2.0000      -0.420337       -11.4380
  41   2.0000      -0.415842       -11.3156
  42   2.0000      -0.398333       -10.8392
  43   2.0000      -0.396421       -10.7872
  44   2.0000      -0.394727       -10.7411
  45   2.0000      -0.392992       -10.6939
  46   2.0000      -0.381247       -10.3743
  47   2.0000      -0.372396       -10.1334
  48   2.0000      -0.349677        -9.5152
  49   2.0000      -0.340394        -9.2626
  50   2.0000      -0.334567        -9.1040
  51   2.0000      -0.299999        -8.1634
  52   2.0000      -0.289613        -7.8808
  53   0.0000      -0.099826        -2.7164
  54   0.0000       0.011855         0.3226
  55   0.0000       0.012953         0.3525
  56   0.0000       0.017812         0.4847
  57   0.0000       0.028674         0.7803

MULLIKEN ATOMIC CHARGES
-----------------------
   0 C :   -0.217460
   1 C :   -0.235674
   2 C :   -0.216070
   3 C :   -0.232674
   4 C :   -0.258652
   5 C :   -0.217182
   6 H :    0.228744
   7 H :    0.220497
   8 H :    0.226335
   9 H :    0.238372
  10 H :    0.218974
  11 Pd:    0.568779
  12 O :   -0.445333
  13 O :   -0.467795
  14 O :   -0.479749
  15 C :    0.402770
  16 O :   -0.433282
  17 H :    0.255578
  18 C :    0.427013
  19 H :    0.212079
  20 H :    0.204732
Sum of atomic charges:    0.0000000

LOEWDIN ATOMIC CHARGES
----------------------
   0 C :   -0.124398
   1 C :   -0.124792
   2 C :   -0.137924
   3 C :   -0.121165
   4 C :   -0.128467
   5 C :   -0.118305
   6 H :    0.147994
   7 H :    0.135711
   8 H :    0.140168
   9 H :    0.151646
  10 H :    0.135797
  11 Pd:   -0.091019
  12 O :   -0.145300
  13 O :   -0.142856
  14 O :   -0.145882
  15 C :    0.148774
  16 O :   -0.155450
  17 H :    0.152634
  18 C :    0.175228
  19 H :    0.127013
  20 H :    0.120592

  Mayer bond orders larger than 0.100000
B(  0-C ,  1-C ) :   1.4248 B(  0-C ,  4-C ) :   1.4022 B(  0-C ,  6-H ) :   0.9174
B(  1-C ,  2-C ) :   1.4249 B(  1-C ,  7-H ) :   0.9188 B(  2-C ,  3-C ) :   1.4268
B(  2-C ,  8-H ) :   0.9162 B(  3-C ,  5-C ) :   1.4205 B(  3-C , 10-H ) :   0.9197
B(  4-C ,  5-C ) :   1.4279 B(  4-C , 17-H ) :   0.9007 B(  5-C ,  9-H ) :   0.9135
B( 11-Pd, 12-O ) :   0.5495 B( 11-Pd, 13-O ) :   0.5829 B( 11-Pd, 14-O ) :   0.6416
B( 11-Pd, 16-O ) :   0.4219 B( 12-O , 13-O ) :   0.1127 B( 12-O , 18-C ) :   1.4991
B( 13-O , 18-C ) :   1.4242 B( 14-O , 15-C ) :   1.3573 B( 14-O , 16-O ) :   0.1073
B( 15-C , 16-O ) :   1.6143 B( 15-C , 20-H ) :   0.8876 B( 18-C , 19-H ) :   0.8853

Dispersion correction           -0.013231322
FINAL SINGLE POINT ENERGY      -737.119475636258
Dispersion correction            ... done

DIPOLE MOMENT
-------------
                                X             Y             Z
Electronic contribution:     56.41978      46.76866       3.74044
Nuclear contribution   :    -56.55004     -47.09903      -3.85796
                        -----------------------------------------
Total Dipole Moment    :     -0.13025      -0.33037      -0.11752
                        -----------------------------------------
Magnitude (a.u.)       :      0.37406
Magnitude (Debye)      :      0.95079

Rotational constants in cm-1:     0.028711     0.018709     0.014078
Rotational constants in MHz :   860.746596   560.884723   422.061214

                             ****ORCA TERMINATED NORMALLY****
TOTAL RUN TIME: 0 days 0 hours 4 minutes 2 seconds 226 msec
