                         Program Version 5.0.3 -  RELEASE  -
|  1> ! EnGrad PBEh-3c
|  2> %output
|  3> xyzfile=True
|  4> end
|  5> %scf
|  6> maxiter 250
|  7> end
|  8> %output
|  9> Print[P_Hirshfeld] = 1
| 10> end
| 11> % maxcore
| 12> 4000
| 13> *xyz 0 1
| 14> C   -1.79140131   0.20128928  -0.19045276
| 15> C   -1.83996398  -0.73527769  -1.20609746
| 16> C   -1.29603597  -2.01172734  -1.08535996
| 17> C   -0.57424485  -2.24092475   0.08384142
| 18> C   -1.18776048  -0.14247400   0.98730449
| 19> C   -0.50259238  -1.31803350   1.10781930
| 20> H   -2.21040646   1.15015326  -0.43011542
| 21> H   -2.36299801  -0.52222783  -2.13896518
| 22> H   -1.45326837  -2.80352393  -1.85650835
| 23> H    0.12070123  -1.58859142   1.92451169
| 24> H   -0.11321115  -3.22308875   0.18075009
| 25> Pd   1.47452245   1.23687505   0.10543093
| 26> O    2.75437640   1.01012717  -1.56052791
| 27> O    2.58958584  -0.43638555   0.03533133
| 28> O    0.38139731   2.87840679  -0.00874240
| 29> C    0.12204788   2.95340811   1.23867450
| 30> O    0.60100628   2.11396327   1.99139038
| 31> H   -1.26640843   0.46016480   1.80679220
| 32> C    3.13765198  -0.06836382  -1.04385871
| 33> H    3.93611996  -0.67148974  -1.50821745
| 34> H   -0.53397029   3.76307289   1.56849843
| 35> *
| 36>
| 37>                          ****END OF INPUT****

CARTESIAN COORDINATES (ANGSTROEM)
---------------------------------
  C     -1.791401    0.201289   -0.190453
  C     -1.839964   -0.735278   -1.206097
  C     -1.296036   -2.011727   -1.085360
  C     -0.574245   -2.240925    0.083841
  C     -1.187760   -0.142474    0.987304
  C     -0.502592   -1.318034    1.107819
  H     -2.210406    1.150153   -0.430115
  H     -2.362998   -0.522228   -2.138965
  H     -1.453268   -2.803524   -1.856508
  H      0.120701   -1.588591    1.924512
  H     -0.113211   -3.223089    0.180750
  Pd     1.474522    1.236875    0.105431
  O      2.754376    1.010127   -1.560528
  O      2.589586   -0.436386    0.035331
  O      0.381397    2.878407   -0.008742
  C      0.122048    2.953408    1.238674
  O      0.601006    2.113963    1.991390
  H     -1.266408    0.460165    1.806792
  C      3.137652   -0.068364   -1.043859
  H      3.936120   -0.671490   -1.508217
  H     -0.533970    3.763073    1.568498

 Total Charge           Charge          ....    0
 Multiplicity           Mult            ....    1
 Number of Electrons    NEL             ....  106
 Basis Dimension        Dim             ....  227

ORBITAL ENERGIES
----------------

  NO   OCC          E(Eh)            E(eV)
   0   2.0000     -19.537458      -531.6413
   1   2.0000     -19.536474      -531.6145
   2   2.0000     -19.532295      -531.5008
   3   2.0000     -19.522467      -531.2333
   4   2.0000     -10.598187      -288.3913
   5   2.0000     -10.587857      -288.1102
   6   2.0000     -10.453796      -284.4623
   7   2.0000     -10.449235      -284.3381
   8   2.0000     -10.448171      -284.3092
   9   2.0000     -10.448069      -284.3064
  10   2.0000     -10.445646      -284.2405
  11   2.0000     -10.443482      -284.1816
  12   2.0000      -3.696915      -100.5982
  13   2.0000      -2.352522       -64.0154
  14   2.0000      -2.335191       -63.5438
  15   2.0000      -2.305607       -62.7388
  16   2.0000      -1.240117       -33.7453
  17   2.0000      -1.232891       -33.5487
  18   2.0000      -1.122175       -30.5359
  19   2.0000      -1.117259       -30.4022
  20   2.0000      -0.965697       -26.2779
  21   2.0000      -0.846339       -23.0300
  22   2.0000      -0.842526       -22.9263
  23   2.0000      -0.706850       -19.2344
  24   2.0000      -0.694988       -18.9116
  25   2.0000      -0.689677       -18.7671
  26   2.0000      -0.682195       -18.5635
  27   2.0000      -0.602957       -16.4073
  28   2.0000      -0.600226       -16.3330
  29   2.0000      -0.585319       -15.9274
  30   2.0000      -0.575243       -15.6532
  31   2.0000      -0.554255       -15.0820
  32   2.0000      -0.541983       -14.7481
  33   2.0000      -0.531128       -14.4527
  34   2.0000      -0.526418       -14.3246
  35   2.0000      -0.517839       -14.0911
  36   2.0000      -0.489733       -13.3263
  37   2.0000      -0.484054       -13.1718
  38   2.0000      -0.455613       -12.3979
  39   2.0000      -0.438879       -11.9425
  40   2.0000      -0.422160       -11.4876
  41   2.0000      -0.417193       -11.3524
  42   2.0000      -0.400169       -10.8891
  43   2.0000      -0.396998       -10.8029
  44   2.0000      -0.395317       -10.7571
  45   2.0000      -0.392962       -10.6930
  46   2.0000      -0.382224       -10.4009
  47   2.0000      -0.373259       -10.1569
  48   2.0000      -0.350188        -9.5291
  49   2.0000      -0.340734        -9.2718
  50   2.0000      -0.334831        -9.1112
  51   2.0000      -0.296169        -8.0592
  52   2.0000      -0.294790        -8.0216
  53   0.0000      -0.099421        -2.7054
  54   0.0000       0.011661         0.3173
  55   0.0000       0.015465         0.4208
  56   0.0000       0.018065         0.4916
  57   0.0000       0.028919         0.7869

MULLIKEN ATOMIC CHARGES
-----------------------
   0 C :   -0.197819
   1 C :   -0.237654
   2 C :   -0.215129
   3 C :   -0.234460
   4 C :   -0.293838
   5 C :   -0.198019
   6 H :    0.230269
   7 H :    0.219592
   8 H :    0.224156
   9 H :    0.239553
  10 H :    0.218548
  11 Pd:    0.567030
  12 O :   -0.444805
  13 O :   -0.468284
  14 O :   -0.479274
  15 C :    0.401646
  16 O :   -0.433097
  17 H :    0.256154
  18 C :    0.429619
  19 H :    0.212725
  20 H :    0.203084
Sum of atomic charges:   -0.0000000

LOEWDIN ATOMIC CHARGES
----------------------
   0 C :   -0.127745
   1 C :   -0.123564
   2 C :   -0.136202
   3 C :   -0.120431
   4 C :   -0.122338
   5 C :   -0.121502
   6 H :    0.147620
   7 H :    0.134545
   8 H :    0.140343
   9 H :    0.151212
  10 H :    0.134727
  11 Pd:   -0.091073
  12 O :   -0.141246
  13 O :   -0.142101
  14 O :   -0.145811
  15 C :    0.147341
  16 O :   -0.157149
  17 H :    0.150047
  18 C :    0.176154
  19 H :    0.127274
  20 H :    0.119896

  Mayer bond orders larger than 0.100000
B(  0-C ,  1-C ) :   1.4320 B(  0-C ,  4-C ) :   1.4050 B(  0-C ,  6-H ) :   0.9166
B(  1-C ,  2-C ) :   1.4227 B(  1-C ,  7-H ) :   0.9187 B(  2-C ,  3-C ) :   1.4235
B(  2-C ,  8-H ) :   0.9183 B(  3-C ,  5-C ) :   1.4286 B(  3-C , 10-H ) :   0.9193
B(  4-C ,  5-C ) :   1.4281 B(  4-C , 17-H ) :   0.8980 B(  5-C ,  9-H ) :   0.9130
B( 11-Pd, 12-O ) :   0.5542 B( 11-Pd, 13-O ) :   0.5847 B( 11-Pd, 14-O ) :   0.6394
B( 11-Pd, 16-O ) :   0.4198 B( 12-O , 13-O ) :   0.1129 B( 12-O , 18-C ) :   1.4965
B( 13-O , 18-C ) :   1.4234 B( 14-O , 15-C ) :   1.3592 B( 14-O , 16-O ) :   0.1075
B( 15-C , 16-O ) :   1.6143 B( 15-C , 20-H ) :   0.8871 B( 18-C , 19-H ) :   0.8863

Dispersion correction           -0.013221008
FINAL SINGLE POINT ENERGY      -737.126774640182
Dispersion correction            ... done

DIPOLE MOMENT
-------------
                                X             Y             Z
Electronic contribution:     57.04134      47.06543       3.68198
Nuclear contribution   :    -57.12579     -47.39455      -3.82409
                        -----------------------------------------
Total Dipole Moment    :     -0.08445      -0.32912      -0.14211
                        -----------------------------------------
Magnitude (a.u.)       :      0.36830
Magnitude (Debye)      :      0.93615

Rotational constants in cm-1:     0.028856     0.018525     0.014014
Rotational constants in MHz :   865.084798   555.372844   420.138955

                             ****ORCA TERMINATED NORMALLY****
TOTAL RUN TIME: 0 days 0 hours 3 minutes 54 seconds 108 msec
