                         Program Version 5.0.3 -  RELEASE  -
|  1> ! EnGrad PBEh-3c
|  2> %output
|  3> xyzfile=True
|  4> end
|  5> %scf
|  6> maxiter 250
|  7> end
|  8> %output
|  9> Print[P_Hirshfeld] = 1
| 10> end
| 11> % maxcore
| 12> 4000
| 13> *xyz 0 1
| 14> C   -1.80739944   0.19234313  -0.23781388
| 15> C   -1.86147859  -0.74657259  -1.21591661
| 16> C   -1.31841021  -2.00954927  -1.06481926
| 17> C   -0.58694756  -2.26487847   0.07999443
| 18> C   -1.17407996  -0.16707918   0.94433013
| 19> C   -0.48881853  -1.36444444   1.08892794
| 20> H   -2.20122323   1.16477509  -0.41911525
| 21> H   -2.37008474  -0.51865615  -2.11468634
| 22> H   -1.47781797  -2.79664233  -1.82817322
| 23> H    0.12486726  -1.57686337   1.93343660
| 24> H   -0.12788174  -3.20923081   0.19281198
| 25> Pd   1.48571141   1.24242099   0.09959058
| 26> O    2.76264748   1.02409728  -1.54568384
| 27> O    2.59864592  -0.43224068   0.03619127
| 28> O    0.38891726   2.88293118  -0.00908480
| 29> C    0.12508521   2.95107352   1.23127414
| 30> O    0.59752929   2.10136879   2.00095591
| 31> H   -1.23395038   0.48260104   1.80009171
| 32> C    3.13885000  -0.06051657  -1.04249117
| 33> H    3.94581728  -0.65006708  -1.49485277
| 34> H   -0.53713666   3.76406523   1.56823110
| 35> *
| 36>
| 37>                          ****END OF INPUT****

CARTESIAN COORDINATES (ANGSTROEM)
---------------------------------
  C     -1.807399    0.192343   -0.237814
  C     -1.861479   -0.746573   -1.215917
  C     -1.318410   -2.009549   -1.064819
  C     -0.586948   -2.264878    0.079994
  C     -1.174080   -0.167079    0.944330
  C     -0.488819   -1.364444    1.088928
  H     -2.201223    1.164775   -0.419115
  H     -2.370085   -0.518656   -2.114686
  H     -1.477818   -2.796642   -1.828173
  H      0.124867   -1.576863    1.933437
  H     -0.127882   -3.209231    0.192812
  Pd     1.485711    1.242421    0.099591
  O      2.762647    1.024097   -1.545684
  O      2.598646   -0.432241    0.036191
  O      0.388917    2.882931   -0.009085
  C      0.125085    2.951074    1.231274
  O      0.597529    2.101369    2.000956
  H     -1.233950    0.482601    1.800092
  C      3.138850   -0.060517   -1.042491
  H      3.945817   -0.650067   -1.494853
  H     -0.537137    3.764065    1.568231

 Total Charge           Charge          ....    0
 Multiplicity           Mult            ....    1
 Number of Electrons    NEL             ....  106
 Basis Dimension        Dim             ....  227

ORBITAL ENERGIES
----------------

  NO   OCC          E(Eh)            E(eV)
   0   2.0000     -19.538965      -531.6823
   1   2.0000     -19.538770      -531.6770
   2   2.0000     -19.534729      -531.5670
   3   2.0000     -19.520726      -531.1860
   4   2.0000     -10.598830      -288.4088
   5   2.0000     -10.589232      -288.1476
   6   2.0000     -10.450341      -284.3682
   7   2.0000     -10.449152      -284.3359
   8   2.0000     -10.446914      -284.2750
   9   2.0000     -10.444736      -284.2157
  10   2.0000     -10.442796      -284.1629
  11   2.0000     -10.441714      -284.1335
  12   2.0000      -3.697674      -100.6188
  13   2.0000      -2.353224       -64.0345
  14   2.0000      -2.336285       -63.5735
  15   2.0000      -2.306086       -62.7518
  16   2.0000      -1.243192       -33.8290
  17   2.0000      -1.229775       -33.4639
  18   2.0000      -1.125140       -30.6166
  19   2.0000      -1.116362       -30.3778
  20   2.0000      -0.967317       -26.3220
  21   2.0000      -0.851167       -23.1614
  22   2.0000      -0.839352       -22.8399
  23   2.0000      -0.708525       -19.2799
  24   2.0000      -0.694137       -18.8884
  25   2.0000      -0.688697       -18.7404
  26   2.0000      -0.683663       -18.6034
  27   2.0000      -0.603766       -16.4293
  28   2.0000      -0.601712       -16.3734
  29   2.0000      -0.585386       -15.9292
  30   2.0000      -0.577049       -15.7023
  31   2.0000      -0.553824       -15.0703
  32   2.0000      -0.543630       -14.7929
  33   2.0000      -0.530861       -14.4455
  34   2.0000      -0.526427       -14.3248
  35   2.0000      -0.517187       -14.0734
  36   2.0000      -0.494580       -13.4582
  37   2.0000      -0.480685       -13.0801
  38   2.0000      -0.455259       -12.3882
  39   2.0000      -0.438921       -11.9436
  40   2.0000      -0.424638       -11.5550
  41   2.0000      -0.417901       -11.3717
  42   2.0000      -0.401355       -10.9214
  43   2.0000      -0.399723       -10.8770
  44   2.0000      -0.394462       -10.7339
  45   2.0000      -0.392040       -10.6680
  46   2.0000      -0.383076       -10.4240
  47   2.0000      -0.373946       -10.1756
  48   2.0000      -0.350664        -9.5420
  49   2.0000      -0.341340        -9.2883
  50   2.0000      -0.335174        -9.1206
  51   2.0000      -0.302387        -8.2284
  52   2.0000      -0.289809        -7.8861
  53   0.0000      -0.099056        -2.6954
  54   0.0000       0.011359         0.3091
  55   0.0000       0.014023         0.3816
  56   0.0000       0.021810         0.5935
  57   0.0000       0.027711         0.7541

MULLIKEN ATOMIC CHARGES
-----------------------
   0 C :   -0.188780
   1 C :   -0.229949
   2 C :   -0.217735
   3 C :   -0.226682
   4 C :   -0.321835
   5 C :   -0.189253
   6 H :    0.230669
   7 H :    0.222012
   8 H :    0.219219
   9 H :    0.240412
  10 H :    0.221371
  11 Pd:    0.565059
  12 O :   -0.445179
  13 O :   -0.465911
  14 O :   -0.473540
  15 C :    0.402527
  16 O :   -0.442918
  17 H :    0.252692
  18 C :    0.432127
  19 H :    0.212967
  20 H :    0.202728
Sum of atomic charges:   -0.0000000

LOEWDIN ATOMIC CHARGES
----------------------
   0 C :   -0.128859
   1 C :   -0.125917
   2 C :   -0.132079
   3 C :   -0.123364
   4 C :   -0.118009
   5 C :   -0.122280
   6 H :    0.146676
   7 H :    0.135127
   8 H :    0.138730
   9 H :    0.150758
  10 H :    0.135402
  11 Pd:   -0.093122
  12 O :   -0.136239
  13 O :   -0.138918
  14 O :   -0.140187
  15 C :    0.151296
  16 O :   -0.172403
  17 H :    0.150798
  18 C :    0.175356
  19 H :    0.127214
  20 H :    0.120019

  Mayer bond orders larger than 0.100000
B(  0-C ,  1-C ) :   1.4386 B(  0-C ,  4-C ) :   1.3983 B(  0-C ,  6-H ) :   0.9155
B(  1-C ,  2-C ) :   1.4232 B(  1-C ,  7-H ) :   0.9177 B(  2-C ,  3-C ) :   1.4254
B(  2-C ,  8-H ) :   0.9215 B(  3-C ,  5-C ) :   1.4339 B(  3-C , 10-H ) :   0.9182
B(  4-C ,  5-C ) :   1.4213 B(  4-C , 17-H ) :   0.8969 B(  5-C ,  9-H ) :   0.9119
B( 11-Pd, 12-O ) :   0.5618 B( 11-Pd, 13-O ) :   0.5859 B( 11-Pd, 14-O ) :   0.6293
B( 11-Pd, 16-O ) :   0.4238 B( 12-O , 13-O ) :   0.1133 B( 12-O , 18-C ) :   1.4902
B( 13-O , 18-C ) :   1.4273 B( 14-O , 15-C ) :   1.3744 B( 14-O , 16-O ) :   0.1086
B( 15-C , 16-O ) :   1.5956 B( 15-C , 20-H ) :   0.8861 B( 18-C , 19-H ) :   0.8878

Dispersion correction           -0.013189216
FINAL SINGLE POINT ENERGY      -737.131542581543
Dispersion correction            ... done

DIPOLE MOMENT
-------------
                                X             Y             Z
Electronic contribution:     57.59313      47.44765       3.46005
Nuclear contribution   :    -57.63852     -47.76846      -3.65756
                        -----------------------------------------
Total Dipole Moment    :     -0.04539      -0.32081      -0.19751
                        -----------------------------------------
Magnitude (a.u.)       :      0.37946
Magnitude (Debye)      :      0.96451

Rotational constants in cm-1:     0.028989     0.018291     0.013930
Rotational constants in MHz :   869.075479   548.345284   417.613248

                             ****ORCA TERMINATED NORMALLY****
TOTAL RUN TIME: 0 days 0 hours 3 minutes 54 seconds 791 msec
