                         Program Version 5.0.4 -  RELEASE  -
|  1> %pal nprocs 8 end
|  2>
|  3>  *xyzfile 1 1 DHSGS_ts_guess.xyz
|  4>
|  5>
|  6>                          ****END OF INPUT****
|  1>
|  2>
|  3>   ! PBEh-3c OptTS Freq pal8
|  4>
|  5>   %geom
|  6>    calc_hess true
|  7>    recalc_hess 20
|  8>    maxiter 600
|  9>   end
| 10>
| 11>
| 12>                          ****END OF INPUT****
 Total Charge           Charge          ....    1
 Multiplicity           Mult            ....    1
 Number of Electrons    NEL             ....  164
Dispersion correction           -0.030465401
FINAL SINGLE POINT ENERGY     -1288.392270852890
Dispersion correction            ... done
Dispersion correction in the Hessian             ... done   (      1.5 sec)
Dispersion correction           -0.030565304
FINAL SINGLE POINT ENERGY     -1288.398163433322
Dispersion correction            ... done
Dispersion correction           -0.030623624
FINAL SINGLE POINT ENERGY     -1288.399339225133
FINAL SINGLE POINT ENERGY     -1288.399968898597
FINAL SINGLE POINT ENERGY     -1288.400303977293
FINAL SINGLE POINT ENERGY     -1288.400258341789
FINAL SINGLE POINT ENERGY     -1288.400127903442
FINAL SINGLE POINT ENERGY     -1288.400073708741
FINAL SINGLE POINT ENERGY     -1288.399493591712
FINAL SINGLE POINT ENERGY     -1288.400408671001
FINAL SINGLE POINT ENERGY     -1288.405593863552
FINAL SINGLE POINT ENERGY     -1288.405686039151
FINAL SINGLE POINT ENERGY     -1288.405755472352
FINAL SINGLE POINT ENERGY     -1288.405737605864
FINAL SINGLE POINT ENERGY     -1288.405729183665
FINAL SINGLE POINT ENERGY     -1288.405750307737
FINAL SINGLE POINT ENERGY     -1288.405742362300
Dispersion correction           -0.031220699
FINAL SINGLE POINT ENERGY     -1288.405742067014
Dispersion correction            ... done
                    ***********************HURRAY********************
Dispersion correction           -0.031220318
FINAL SINGLE POINT ENERGY     -1288.405742056055
Dispersion correction in the Hessian             ... done   (      1.4 sec)

VIBRATIONAL FREQUENCIES
-----------------------

Scaling factor for frequencies =  1.000000000  (already applied!)

   0:         0.00 cm**-1
   1:         0.00 cm**-1
   2:         0.00 cm**-1
   3:         0.00 cm**-1
   4:         0.00 cm**-1
   5:         0.00 cm**-1
   6:       -36.91 cm**-1 ***imaginary mode***
   7:        38.85 cm**-1
   8:        43.02 cm**-1
   9:        55.54 cm**-1
  10:        65.14 cm**-1
  11:        71.41 cm**-1
  12:        79.65 cm**-1
  13:        85.84 cm**-1
  14:       100.79 cm**-1
  15:       101.94 cm**-1
  16:       119.50 cm**-1
  17:       145.98 cm**-1
  18:       155.94 cm**-1
  19:       199.77 cm**-1
  20:       211.54 cm**-1
  21:       237.15 cm**-1
  22:       258.05 cm**-1
  23:       280.91 cm**-1
  24:       300.46 cm**-1
  25:       321.61 cm**-1
  26:       364.76 cm**-1
  27:       379.88 cm**-1
  28:       389.90 cm**-1
  29:       397.37 cm**-1
  30:       429.14 cm**-1
  31:       457.74 cm**-1
  32:       512.06 cm**-1
  33:       565.60 cm**-1
  34:       578.93 cm**-1
  35:       587.73 cm**-1
  36:       601.09 cm**-1
  37:       604.15 cm**-1
  38:       615.72 cm**-1
  39:       643.85 cm**-1
  40:       664.71 cm**-1
  41:       717.76 cm**-1
  42:       782.12 cm**-1
  43:       791.42 cm**-1
  44:       804.72 cm**-1
  45:       854.87 cm**-1
  46:       858.20 cm**-1
  47:       894.18 cm**-1
  48:       906.52 cm**-1
  49:       926.49 cm**-1
  50:       934.02 cm**-1
  51:       943.34 cm**-1
  52:       966.27 cm**-1
  53:       969.64 cm**-1
  54:       983.64 cm**-1
  55:       986.85 cm**-1
  56:       989.79 cm**-1
  57:       993.29 cm**-1
  58:       995.72 cm**-1
  59:      1001.94 cm**-1
  60:      1032.13 cm**-1
  61:      1036.74 cm**-1
  62:      1064.98 cm**-1
  63:      1072.20 cm**-1
  64:      1096.58 cm**-1
  65:      1104.67 cm**-1
  66:      1106.85 cm**-1
  67:      1116.44 cm**-1
  68:      1148.82 cm**-1
  69:      1169.17 cm**-1
  70:      1169.61 cm**-1
  71:      1196.68 cm**-1
  72:      1232.67 cm**-1
  73:      1242.68 cm**-1
  74:      1293.69 cm**-1
  75:      1323.52 cm**-1
  76:      1379.41 cm**-1
  77:      1383.73 cm**-1
  78:      1396.03 cm**-1
  79:      1430.32 cm**-1
  80:      1436.03 cm**-1
  81:      1446.94 cm**-1
  82:      1460.15 cm**-1
  83:      1463.33 cm**-1
  84:      1467.46 cm**-1
  85:      1480.85 cm**-1
  86:      1495.79 cm**-1
  87:      1520.08 cm**-1
  88:      1531.18 cm**-1
  89:      1532.30 cm**-1
  90:      1533.93 cm**-1
  91:      1536.11 cm**-1
  92:      1543.17 cm**-1
  93:      1558.65 cm**-1
  94:      1560.09 cm**-1
  95:      1607.94 cm**-1
  96:      1787.52 cm**-1
  97:      1836.58 cm**-1
  98:      3122.96 cm**-1
  99:      3127.03 cm**-1
 100:      3134.45 cm**-1
 101:      3154.11 cm**-1
 102:      3206.77 cm**-1
 103:      3210.61 cm**-1
 104:      3212.22 cm**-1
 105:      3222.34 cm**-1
 106:      3224.78 cm**-1
 107:      3243.59 cm**-1
 108:      3251.98 cm**-1
 109:      3253.07 cm**-1
 110:      3314.96 cm**-1
 111:      3322.33 cm**-1
 112:      3324.65 cm**-1
 113:      3331.86 cm**-1
 114:      3336.22 cm**-1
 115:      3339.34 cm**-1
 116:      3343.26 cm**-1

IR SPECTRUM
-----------

 Mode   freq       eps      Int      T**2         TX        TY        TZ
       cm**-1   L/(mol*cm) km/mol    a.u.
----------------------------------------------------------------------------
  7:     38.85   0.000003    0.01  0.000021  ( 0.003829  0.002521 -0.000241)
  8:     43.02   0.000329    1.66  0.002386  (-0.045295 -0.002753 -0.018078)
  9:     55.54   0.000125    0.63  0.000704  (-0.024552  0.004956 -0.008744)
 10:     65.14   0.000062    0.31  0.000297  ( 0.010447  0.008317 -0.010887)
 11:     71.41   0.000077    0.39  0.000338  ( 0.016576  0.007452 -0.002805)
 12:     79.65   0.000032    0.16  0.000125  ( 0.005600  0.004933  0.008349)
 13:     85.84   0.000293    1.48  0.001064  (-0.015615  0.002789  0.028511)
 14:    100.79   0.000647    3.27  0.002004  (-0.003042 -0.029673 -0.033383)
 15:    101.94   0.000885    4.47  0.002709  ( 0.051306  0.004763 -0.007317)
 16:    119.50   0.000320    1.62  0.000837  ( 0.020639 -0.000805  0.020257)
 17:    145.98   0.000379    1.91  0.000809  ( 0.023874  0.006266  0.014142)
 18:    155.94   0.001124    5.68  0.002248  (-0.019774 -0.039417  0.017424)
 19:    199.77   0.001685    8.51  0.002631  ( 0.015281 -0.044195 -0.021089)
 20:    211.54   0.001245    6.29  0.001837  ( 0.007677 -0.007755 -0.041449)
 21:    237.15   0.000535    2.70  0.000704  ( 0.007649  0.011621 -0.022590)
 22:    258.05   0.000230    1.16  0.000279  ( 0.009566  0.005028 -0.012721)
 23:    280.91   0.000319    1.61  0.000355  ( 0.005223 -0.000313 -0.018094)
 24:    300.46   0.001585    8.01  0.001647  ( 0.001516 -0.029332 -0.027999)
 25:    321.61   0.000042    0.21  0.000041  (-0.001397 -0.001728  0.005977)
 26:    364.76   0.000896    4.53  0.000767  (-0.000619  0.027304  0.004591)
 27:    379.88   0.000716    3.62  0.000589  (-0.013120 -0.004055 -0.020000)
 28:    389.90   0.000340    1.72  0.000272  ( 0.010291 -0.012879  0.000565)
 29:    397.37   0.000753    3.80  0.000591  ( 0.019657 -0.014305 -0.000375)
 30:    429.14   0.000385    1.95  0.000280  ( 0.005195 -0.011210 -0.011298)
 31:    457.74   0.001317    6.66  0.000898  ( 0.023436  0.016325 -0.009061)
 32:    512.06   0.001337    6.76  0.000815  (-0.007724 -0.020659  0.018127)
 33:    565.60   0.000489    2.47  0.000270  (-0.006892  0.000388  0.014911)
 34:    578.93   0.000834    4.21  0.000449  ( 0.009226 -0.016666 -0.009303)
 35:    587.73   0.000130    0.66  0.000069  ( 0.004926  0.004177  0.005218)
 36:    601.09   0.000080    0.40  0.000042  ( 0.004383  0.001671  0.004421)
 37:    604.15   0.000089    0.45  0.000046  ( 0.001236 -0.003734 -0.005519)
 38:    615.72   0.000008    0.04  0.000004  ( 0.001621  0.000083 -0.001148)
 39:    643.85   0.001030    5.20  0.000499  (-0.020569  0.001665  0.008555)
 40:    664.71   0.000239    1.21  0.000112  ( 0.010376 -0.001954 -0.000935)
 41:    717.76   0.012230   61.81  0.005318  (-0.004164  0.051780  0.051177)
 42:    782.12   0.000182    0.92  0.000073  (-0.002167  0.005256  0.006342)
 43:    791.42   0.017071   86.27  0.006731  ( 0.006132  0.063236 -0.051913)
 44:    804.72   0.000779    3.93  0.000302  (-0.014720  0.003694 -0.008462)
 45:    854.87   0.000617    3.12  0.000225  ( 0.006532 -0.008339 -0.010636)
 46:    858.20   0.000721    3.64  0.000262  ( 0.001778 -0.011204 -0.011549)
 47:    894.18   0.001546    7.81  0.000540  (-0.003845 -0.018530 -0.013468)
 48:    906.52   0.002559   12.93  0.000881  ( 0.013327 -0.017781  0.019680)
 49:    926.49   0.005057   25.56  0.001703  ( 0.009309 -0.040188  0.001272)
 50:    934.02   0.008048   40.67  0.002689  (-0.012506  0.046078 -0.020233)
 51:    943.34   0.008978   45.37  0.002970  ( 0.011754  0.011036 -0.052057)
 52:    966.27   0.000409    2.07  0.000132  (-0.001332  0.008930  0.007113)
 53:    969.64   0.000487    2.46  0.000157  (-0.008625  0.006060  0.006755)
 54:    983.64   0.001828    9.24  0.000580  (-0.000091  0.020111 -0.013252)
 55:    986.85   0.000811    4.10  0.000256  (-0.006578  0.014440  0.002152)
 56:    989.79   0.002360   11.92  0.000744  (-0.008753  0.009440 -0.024047)
 57:    993.29   0.001414    7.15  0.000444  (-0.008248  0.014984  0.012318)
 58:    995.72   0.000758    3.83  0.000238  ( 0.002538  0.005967 -0.013982)
 59:   1001.94   0.000116    0.58  0.000036  (-0.005013  0.001653  0.002857)
 60:   1032.13   0.001447    7.31  0.000438  ( 0.017081 -0.001012 -0.012030)
 61:   1036.74   0.001646    8.32  0.000496  (-0.019528  0.010476 -0.002120)
 62:   1064.98   0.002642   13.35  0.000774  (-0.008569 -0.013911 -0.022522)
 63:   1072.20   0.006062   30.64  0.001764  (-0.004210  0.041117  0.007490)
 64:   1096.58   0.002979   15.06  0.000848  (-0.021998 -0.008376  0.017141)
 65:   1104.67   0.000228    1.15  0.000064  (-0.007425  0.001895 -0.002389)
 66:   1106.85   0.001342    6.78  0.000378  (-0.018314 -0.002202 -0.006172)
 67:   1116.44   0.000103    0.52  0.000029  (-0.004019 -0.002351 -0.002655)
 68:   1148.82   0.000167    0.84  0.000045  ( 0.003701  0.001223  0.005484)
 69:   1169.17   0.005214   26.35  0.001392  (-0.036133  0.008048 -0.004625)
 70:   1169.61   0.000128    0.65  0.000034  (-0.002600  0.004687 -0.002316)
 71:   1196.68   0.000466    2.36  0.000122  (-0.007156  0.008388  0.000083)
 72:   1232.67   0.003250   16.43  0.000823  (-0.017349 -0.002653 -0.022690)
 73:   1242.68   0.004294   21.70  0.001078  (-0.022091  0.013673  0.020081)
 74:   1293.69   0.009831   49.68  0.002371  ( 0.035656  0.001238 -0.033144)
 75:   1323.52   0.000001    0.01  0.000000  ( 0.000157 -0.000096 -0.000556)
 76:   1379.41   0.105014  530.70  0.023757  (-0.015675  0.144695  0.050746)
 77:   1383.73   0.001117    5.64  0.000252  ( 0.013898  0.000199 -0.007659)
 78:   1396.03   0.003583   18.11  0.000801  (-0.020772 -0.006215  0.018188)
 79:   1430.32   0.001567    7.92  0.000342  ( 0.010123  0.009406 -0.012287)
 80:   1436.03   0.000506    2.56  0.000110  (-0.003363 -0.004399 -0.008904)
 81:   1446.94   0.002893   14.62  0.000624  (-0.019027 -0.015999 -0.002435)
 82:   1460.15   0.001695    8.57  0.000362  (-0.010679  0.002479  0.015558)
 83:   1463.33   0.005775   29.18  0.001232  ( 0.005793 -0.034348 -0.004264)
 84:   1467.46   0.032295  163.21  0.006868  (-0.004447  0.067083  0.048454)
 85:   1480.85   0.005619   28.39  0.001184  (-0.025667  0.002382 -0.022794)
 86:   1495.79   0.001464    7.40  0.000305  ( 0.013572  0.004429 -0.010077)
 87:   1520.08   0.003879   19.60  0.000796  (-0.000594  0.005600 -0.027653)
 88:   1531.18   0.002395   12.10  0.000488  ( 0.021774  0.000964 -0.003626)
 89:   1532.30   0.000200    1.01  0.000041  (-0.005815  0.002381 -0.001102)
 90:   1533.93   0.004519   22.84  0.000919  ( 0.024569 -0.013775 -0.011222)
 91:   1536.11   0.002642   13.35  0.000537  (-0.001995 -0.009816 -0.020890)
 92:   1543.17   0.001375    6.95  0.000278  (-0.004937 -0.009763  0.012583)
 93:   1558.65   0.002194   11.09  0.000439  ( 0.010377 -0.007198 -0.016728)
 94:   1560.09   0.002530   12.78  0.000506  ( 0.010343  0.010738  0.016844)
 95:   1607.94   0.000989    5.00  0.000192  ( 0.009074  0.007259 -0.007539)
 96:   1787.52   0.011911   60.19  0.002079  ( 0.030299  0.007346 -0.033279)
 97:   1836.58   0.050260  253.99  0.008540  ( 0.008184 -0.065168  0.065009)
 98:   3122.96   0.001052    5.32  0.000105  (-0.003263  0.005636 -0.007920)
 99:   3127.03   0.001374    6.94  0.000137  ( 0.004085  0.010955 -0.000642)
100:   3134.45   0.000060    0.30  0.000006  (-0.000699 -0.000002  0.002343)
101:   3154.11   0.000166    0.84  0.000016  ( 0.001363  0.003250  0.001999)
102:   3206.77   0.000538    2.72  0.000052  ( 0.001793 -0.005807 -0.003932)
103:   3210.61   0.000271    1.37  0.000026  (-0.004823 -0.000123  0.001745)
104:   3212.22   0.003339   16.87  0.000324  ( 0.008310 -0.005160  0.015123)
105:   3222.34   0.000697    3.52  0.000068  (-0.002891  0.007605  0.001148)
106:   3224.78   0.001269    6.41  0.000123  ( 0.010253 -0.003577 -0.002202)
107:   3243.59   0.000078    0.39  0.000007  (-0.001917 -0.001794  0.000751)
108:   3251.98   0.010006   50.56  0.000960  ( 0.000022  0.021942  0.021880)
109:   3253.07   0.001457    7.36  0.000140  (-0.000069 -0.010902 -0.004569)
110:   3314.96   0.001121    5.67  0.000106  (-0.000553 -0.004731 -0.009103)
111:   3322.33   0.000299    1.51  0.000028  ( 0.002745  0.000434 -0.004516)
112:   3324.65   0.000083    0.42  0.000008  ( 0.001060  0.002329 -0.001118)
113:   3331.86   0.003143   15.88  0.000294  (-0.012929 -0.003953  0.010563)
114:   3336.22   0.003542   17.90  0.000331  ( 0.007448  0.004085  0.016099)
115:   3339.34   0.002431   12.29  0.000227  ( 0.011195 -0.004315 -0.009125)
116:   3343.26   0.000810    4.09  0.000076  ( 0.005248 -0.003430  0.006021)

--------------------------
THERMOCHEMISTRY AT 298.15K
--------------------------

Temperature         ... 298.15 K
Pressure            ... 1.00 atm
Total Mass          ... 469.60 AMU

Throughout the following assumptions are being made:
  (1) The electronic state is orbitally nondegenerate
  (2) There are no thermally accessible electronically excited states
  (3) Hindered rotations indicated by low frequency modes are not
      treated as such but are treated as vibrations and this may
      cause some error
  (4) All equations used are the standard statistical mechanics
      equations for an ideal gas
  (5) All vibrations are strictly harmonic

freq.      38.85  E(vib)   ...       0.54
freq.      43.02  E(vib)   ...       0.53
freq.      55.54  E(vib)   ...       0.52
freq.      65.14  E(vib)   ...       0.50
freq.      71.41  E(vib)   ...       0.50
freq.      79.65  E(vib)   ...       0.49
freq.      85.84  E(vib)   ...       0.48
freq.     100.79  E(vib)   ...       0.46
freq.     101.94  E(vib)   ...       0.46
freq.     119.50  E(vib)   ...       0.44
freq.     145.98  E(vib)   ...       0.41
freq.     155.94  E(vib)   ...       0.40
freq.     199.77  E(vib)   ...       0.35
freq.     211.54  E(vib)   ...       0.34
freq.     237.15  E(vib)   ...       0.32
freq.     258.05  E(vib)   ...       0.30
freq.     280.91  E(vib)   ...       0.28
freq.     300.46  E(vib)   ...       0.26
freq.     321.61  E(vib)   ...       0.25
freq.     364.76  E(vib)   ...       0.22
freq.     379.88  E(vib)   ...       0.21
freq.     389.90  E(vib)   ...       0.20
freq.     397.37  E(vib)   ...       0.20
freq.     429.14  E(vib)   ...       0.18
freq.     457.74  E(vib)   ...       0.16
freq.     512.06  E(vib)   ...       0.14
freq.     565.60  E(vib)   ...       0.11
freq.     578.93  E(vib)   ...       0.11
freq.     587.73  E(vib)   ...       0.10
freq.     601.09  E(vib)   ...       0.10
freq.     604.15  E(vib)   ...       0.10
freq.     615.72  E(vib)   ...       0.10
freq.     643.85  E(vib)   ...       0.09
freq.     664.71  E(vib)   ...       0.08
freq.     717.76  E(vib)   ...       0.07
freq.     782.12  E(vib)   ...       0.05
freq.     791.42  E(vib)   ...       0.05
freq.     804.72  E(vib)   ...       0.05
freq.     854.87  E(vib)   ...       0.04
freq.     858.20  E(vib)   ...       0.04
freq.     894.18  E(vib)   ...       0.03
freq.     906.52  E(vib)   ...       0.03
freq.     926.49  E(vib)   ...       0.03
freq.     934.02  E(vib)   ...       0.03
freq.     943.34  E(vib)   ...       0.03
freq.     966.27  E(vib)   ...       0.03
freq.     969.64  E(vib)   ...       0.03
freq.     983.64  E(vib)   ...       0.02
freq.     986.85  E(vib)   ...       0.02
freq.     989.79  E(vib)   ...       0.02
freq.     993.29  E(vib)   ...       0.02
freq.     995.72  E(vib)   ...       0.02
freq.    1001.94  E(vib)   ...       0.02
freq.    1032.13  E(vib)   ...       0.02
freq.    1036.74  E(vib)   ...       0.02
freq.    1064.98  E(vib)   ...       0.02
freq.    1072.20  E(vib)   ...       0.02
freq.    1096.58  E(vib)   ...       0.02
freq.    1104.67  E(vib)   ...       0.02
freq.    1106.85  E(vib)   ...       0.02
freq.    1116.44  E(vib)   ...       0.01
freq.    1148.82  E(vib)   ...       0.01
freq.    1169.17  E(vib)   ...       0.01
freq.    1169.61  E(vib)   ...       0.01
freq.    1196.68  E(vib)   ...       0.01
freq.    1232.67  E(vib)   ...       0.01
freq.    1242.68  E(vib)   ...       0.01
freq.    1293.69  E(vib)   ...       0.01
freq.    1323.52  E(vib)   ...       0.01
freq.    1379.41  E(vib)   ...       0.01
freq.    1383.73  E(vib)   ...       0.00
freq.    1396.03  E(vib)   ...       0.00
freq.    1430.32  E(vib)   ...       0.00
freq.    1436.03  E(vib)   ...       0.00
freq.    1446.94  E(vib)   ...       0.00
freq.    1460.15  E(vib)   ...       0.00
freq.    1463.33  E(vib)   ...       0.00
freq.    1467.46  E(vib)   ...       0.00
freq.    1480.85  E(vib)   ...       0.00
freq.    1495.79  E(vib)   ...       0.00
freq.    1520.08  E(vib)   ...       0.00
freq.    1531.18  E(vib)   ...       0.00
freq.    1532.30  E(vib)   ...       0.00
freq.    1533.93  E(vib)   ...       0.00
freq.    1536.11  E(vib)   ...       0.00
freq.    1543.17  E(vib)   ...       0.00
freq.    1558.65  E(vib)   ...       0.00
freq.    1560.09  E(vib)   ...       0.00
freq.    1607.94  E(vib)   ...       0.00
freq.    1787.52  E(vib)   ...       0.00
freq.    1836.58  E(vib)   ...       0.00
freq.    3122.96  E(vib)   ...       0.00
freq.    3127.03  E(vib)   ...       0.00
freq.    3134.45  E(vib)   ...       0.00
freq.    3154.11  E(vib)   ...       0.00
freq.    3206.77  E(vib)   ...       0.00
freq.    3210.61  E(vib)   ...       0.00
freq.    3212.22  E(vib)   ...       0.00
freq.    3222.34  E(vib)   ...       0.00
freq.    3224.78  E(vib)   ...       0.00
freq.    3243.59  E(vib)   ...       0.00
freq.    3251.98  E(vib)   ...       0.00
freq.    3253.07  E(vib)   ...       0.00
freq.    3314.96  E(vib)   ...       0.00
freq.    3322.33  E(vib)   ...       0.00
freq.    3324.65  E(vib)   ...       0.00
freq.    3331.86  E(vib)   ...       0.00
freq.    3336.22  E(vib)   ...       0.00
freq.    3339.34  E(vib)   ...       0.00
freq.    3343.26  E(vib)   ...       0.00

------------
INNER ENERGY
------------

The inner energy is: U= E(el) + E(ZPE) + E(vib) + E(rot) + E(trans)
    E(el)   - is the total energy from the electronic structure calculation
              = E(kin-el) + E(nuc-el) + E(el-el) + E(nuc-nuc)
    E(ZPE)  - the the zero temperature vibrational energy from the frequency calculation
    E(vib)  - the the finite temperature correction to E(ZPE) due to population
              of excited vibrational states
    E(rot)  - is the rotational thermal energy
    E(trans)- is the translational thermal energy

Summary of contributions to the inner energy U:
Electronic energy                ...  -1288.40574206 Eh
Zero point energy                ...      0.32221958 Eh     202.20 kcal/mol
Thermal vibrational correction   ...      0.01725286 Eh      10.83 kcal/mol
Thermal rotational correction    ...      0.00141627 Eh       0.89 kcal/mol
Thermal translational correction ...      0.00141627 Eh       0.89 kcal/mol
-----------------------------------------------------------------------
Total thermal energy                  -1288.06343708 Eh

Summary of corrections to the electronic energy:
(perhaps to be used in another calculation)
Total thermal correction                  0.02008540 Eh      12.60 kcal/mol
Non-thermal (ZPE) correction              0.32221958 Eh     202.20 kcal/mol
-----------------------------------------------------------------------
Total correction                          0.34230498 Eh     214.80 kcal/mol

--------
ENTHALPY

|  1>
|  2>
|  3>   ! PBEh-3c IRC pal8
|  4>   %irc
|  5>     maxiter 600
|  6>     inithess read
|  7>     hess_filename "reaction-4-dhsgs_optts_Compound_1.hess"
|  8>   end
|  9>
| 10>
| 11>                          ****END OF INPUT****

CARTESIAN COORDINATES (ANGSTROEM)
---------------------------------
  Ir     0.549875   -0.731468    0.553780
  C      0.021273   -2.460390    1.594752
  C      1.359740   -2.120128    1.996321
  C      1.360929   -2.569052   -0.273607
  C      0.057776   -2.801849    0.190716
  C      2.166424   -2.137100    0.848474
  N     -0.961664    0.228627   -0.540974
  C     -2.280261    0.561548    0.023489
  C     -2.997303    1.678484   -0.714750
  H     -3.876785    1.967400   -0.140992
  H     -3.357306    1.376135   -1.699603
  H     -2.368130    2.562499   -0.815963
  C     -3.121880   -0.706606    0.102841
  H     -2.075851    0.900391    1.040289
  H     -4.077259   -0.482072    0.574586
  H     -3.327623   -1.109108   -0.889853
  H     -2.641188   -1.480977    0.700087
  C     -0.649603    0.494134   -1.744313
  C      0.718299    0.218493   -2.155038
  H     -1.359620    0.927759   -2.442537
  C      1.854634    0.641345   -1.490868
  C      3.035154    0.136048   -2.098754
  S      1.097403   -0.749989   -3.517167
  C      2.776144   -0.628485   -3.192760
  H      1.833772    1.429335   -0.745107
  H      4.033319    0.372977   -1.761688
  H      3.486464   -1.111680   -3.846066
  H     -0.829992   -2.555377    2.253934
  H      1.661303   -1.806713    2.985448
  H      3.211974   -1.868693    0.804016
  O      0.391852    2.508010    0.458061
  O      0.521726    0.779815    1.864054
  C      0.420072    2.058203    1.584212
  C      0.353292    2.923082    2.815256
  H      0.214442    3.965015    2.541348
  H      1.273982    2.830495    3.392244
  H     -0.459998    2.609791    3.469645
  H      1.710543   -2.692772   -1.288188
  H     -0.781540   -3.135487   -0.402081

 Multiplicity           Mult            ....    1
 Number of Electrons    NEL             ....  164
 Basis Dimension        Dim             ....  358

ORBITAL ENERGIES
----------------

  NO   OCC          E(Eh)            E(eV)
   0   2.0000     -89.764450     -2442.6149
   1   2.0000     -19.615050      -533.7526
   2   2.0000     -19.568228      -532.4786
   3   2.0000     -14.842861      -403.8948
   4   2.0000     -10.664130      -290.1857
   5   2.0000     -10.661618      -290.1174
   6   2.0000     -10.645118      -289.6684
   7   2.0000     -10.640073      -289.5311
   8   2.0000     -10.639326      -289.5108
   9   2.0000     -10.637096      -289.4501
  10   2.0000     -10.636269      -289.4276
  11   2.0000     -10.635669      -289.4113
  12   2.0000     -10.616026      -288.8767
  13   2.0000     -10.613904      -288.8190
  14   2.0000     -10.599607      -288.4300
  15   2.0000     -10.587925      -288.1121
  16   2.0000     -10.557493      -287.2840
  17   2.0000     -10.547717      -287.0180
  18   2.0000     -10.524445      -286.3847
  19   2.0000      -8.403577      -228.6729
  20   2.0000      -6.293774      -171.2623
  21   2.0000      -6.290101      -171.1623
  22   2.0000      -6.288158      -171.1095
  23   2.0000      -4.034718      -109.7903
  24   2.0000      -2.354748       -64.0760
  25   2.0000      -2.319716       -63.1227
  26   2.0000      -2.318432       -63.0877
  27   2.0000      -1.286643       -35.0113
  28   2.0000      -1.213969       -33.0338
  29   2.0000      -1.192112       -32.4390
  30   2.0000      -1.178702       -32.0741
  31   2.0000      -1.131959       -30.8022
  32   2.0000      -1.026479       -27.9319
  33   2.0000      -0.994857       -27.0714
  34   2.0000      -0.984616       -26.7928
  35   2.0000      -0.969791       -26.3894
  36   2.0000      -0.965146       -26.2630
  37   2.0000      -0.915508       -24.9123
  38   2.0000      -0.901928       -24.5427
  39   2.0000      -0.875517       -23.8240
  40   2.0000      -0.797188       -21.6926
  41   2.0000      -0.795247       -21.6398
  42   2.0000      -0.793276       -21.5861
  43   2.0000      -0.783143       -21.3104
  44   2.0000      -0.778501       -21.1841
  45   2.0000      -0.755647       -20.5622
  46   2.0000      -0.737686       -20.0735
  47   2.0000      -0.727523       -19.7969
  48   2.0000      -0.695002       -18.9120
  49   2.0000      -0.669730       -18.2243
  50   2.0000      -0.654161       -17.8006
  51   2.0000      -0.652843       -17.7648
  52   2.0000      -0.649766       -17.6810
  53   2.0000      -0.637233       -17.3400
  54   2.0000      -0.632201       -17.2031
  55   2.0000      -0.620611       -16.8877
  56   2.0000      -0.619644       -16.8614
  57   2.0000      -0.614745       -16.7281
  58   2.0000      -0.614472       -16.7206
  59   2.0000      -0.610486       -16.6122
  60   2.0000      -0.597519       -16.2593
  61   2.0000      -0.592940       -16.1347
  62   2.0000      -0.590152       -16.0588
  63   2.0000      -0.577934       -15.7264
  64   2.0000      -0.563784       -15.3414
  65   2.0000      -0.552469       -15.0334
  66   2.0000      -0.547938       -14.9102
  67   2.0000      -0.546280       -14.8650
  68   2.0000      -0.538052       -14.6411
  69   2.0000      -0.535812       -14.5802
  70   2.0000      -0.530035       -14.4230
  71   2.0000      -0.523497       -14.2451
  72   2.0000      -0.514458       -13.9991
  73   2.0000      -0.508793       -13.8450
  74   2.0000      -0.483925       -13.1683
  75   2.0000      -0.476529       -12.9670
  76   2.0000      -0.465014       -12.6537
  77   2.0000      -0.453877       -12.3506
  78   2.0000      -0.441463       -12.0128
  79   2.0000      -0.429599       -11.6900
  80   2.0000      -0.414636       -11.2828
  81   2.0000      -0.403577       -10.9819
  82   0.0000      -0.206405        -5.6166
  83   0.0000      -0.169600        -4.6151
  84   0.0000      -0.138863        -3.7787
  85   0.0000      -0.113568        -3.0904
  86   0.0000      -0.080606        -2.1934

MULLIKEN ATOMIC CHARGES
-----------------------
   0 Ir:    0.644282
   1 C :   -0.297144
   2 C :   -0.163577
   3 C :   -0.244428
   4 C :   -0.208646
   5 C :   -0.228692
   6 N :   -0.406738
   7 C :   -0.122063
   8 C :   -0.696955
   9 H :    0.270235
  10 H :    0.221906
  11 H :    0.277215
  12 C :   -0.637186
  13 H :    0.276952
  14 H :    0.266613
  15 H :    0.231436
  16 H :    0.230226
  17 C :    0.077148
  18 C :   -0.268337
  19 H :    0.295642
  20 C :   -0.258788
  21 C :   -0.146190
  22 S :    0.283996
  23 C :   -0.426348
  24 H :    0.367955
  25 H :    0.275003
  26 H :    0.300072
  27 H :    0.299232
  28 H :    0.313578
  29 H :    0.299622
  30 O :   -0.447669
  31 O :   -0.560657
  32 C :    0.564781
  33 C :   -0.742907
  34 H :    0.263719
  35 H :    0.258179
  36 H :    0.248100
  37 H :    0.296692
  38 H :    0.293740
Sum of atomic charges:    1.0000000

LOEWDIN ATOMIC CHARGES
----------------------
   0 Ir:   -0.192333
   1 C :   -0.030532
   2 C :   -0.029227
   3 C :   -0.052771
   4 C :   -0.047011
   5 C :   -0.037116
   6 N :    0.004923
   7 C :   -0.065693
   8 C :   -0.364953
   9 H :    0.156876
  10 H :    0.132291
  11 H :    0.155165
  12 C :   -0.343080
  13 H :    0.155190
  14 H :    0.153766
  15 H :    0.137327
  16 H :    0.133453
  17 C :    0.039241
  18 C :   -0.191150
  19 H :    0.165012
  20 C :   -0.129085
  21 C :   -0.153425
  22 S :    0.455744
  23 C :   -0.265436
  24 H :    0.208108
  25 H :    0.164284
  26 H :    0.169102
  27 H :    0.189028
  28 H :    0.197181
  29 H :    0.189741
  30 O :   -0.260605
  31 O :   -0.226450
  32 C :    0.124323
  33 C :   -0.381881
  34 H :    0.154859
  35 H :    0.160082
  36 H :    0.153615
  37 H :    0.184494
  38 H :    0.186945

  Mayer bond orders larger than 0.100000
B(  0-Ir,  1-C ) :   0.6092 B(  0-Ir,  2-C ) :   0.4012 B(  0-Ir,  3-C ) :   0.4495
B(  0-Ir,  4-C ) :   0.4164 B(  0-Ir,  5-C ) :   0.4725 B(  0-Ir,  6-N ) :   0.4658
B(  0-Ir, 20-C ) :   0.1128 B(  0-Ir, 31-O ) :   0.6684 B(  1-C ,  2-C ) :   1.1180
B(  1-C ,  4-C ) :   1.1012 B(  1-C , 27-H ) :   0.9030 B(  2-C ,  5-C ) :   1.2442
B(  2-C , 28-H ) :   0.8944 B(  3-C ,  4-C ) :   1.2558 B(  3-C ,  5-C ) :   1.0967
B(  3-C , 37-H ) :   0.8927 B(  4-C , 38-H ) :   0.9036 B(  5-C , 29-H ) :   0.9004
B(  6-N ,  7-C ) :   0.8868 B(  6-N , 17-C ) :   1.7330 B(  7-C ,  8-C ) :   0.9951
B(  7-C , 12-C ) :   0.9684 B(  7-C , 13-H ) :   0.8738 B(  8-C ,  9-H ) :   0.9034
B(  8-C , 10-H ) :   0.9129 B(  8-C , 11-H ) :   0.8991 B( 12-C , 14-H ) :   0.9059
B( 12-C , 15-H ) :   0.9151 B( 12-C , 16-H ) :   0.9116 B( 17-C , 18-C ) :   1.0143
B( 17-C , 19-H ) :   0.8735 B( 18-C , 20-C ) :   1.4041 B( 18-C , 22-S ) :   1.2100
B( 20-C , 21-C ) :   1.2496 B( 20-C , 24-H ) :   0.7984 B( 21-C , 23-C ) :   1.5434
B( 21-C , 25-H ) :   0.9005 B( 22-S , 23-C ) :   1.2073 B( 23-C , 26-H ) :   0.8918
B( 30-O , 32-C ) :   1.8920 B( 31-O , 32-C ) :   1.1610 B( 32-C , 33-C ) :   0.9444
B( 33-C , 34-H ) :   0.9093 B( 33-C , 35-H ) :   0.9042 B( 33-C , 36-H ) :   0.9083

Dispersion correction           -0.031220318
FINAL SINGLE POINT ENERGY     -1288.405741924596
Dispersion correction            ... done

DIPOLE MOMENT
-------------
                                X             Y             Z
Electronic contribution:     34.50382     -67.85361      79.46398
Nuclear contribution   :    -34.73154      66.26824     -79.95293
                        -----------------------------------------
Total Dipole Moment    :     -0.22771      -1.58537      -0.48895
                        -----------------------------------------
Magnitude (a.u.)       :      1.67461
Magnitude (Debye)      :      4.25652

Rotational constants in cm-1:     0.011233     0.009151     0.007871
Rotational constants in MHz :   336.758689   274.330466   235.959260

                      ***********************HURRAY********************
                             ****ORCA TERMINATED NORMALLY****
TOTAL RUN TIME: 0 days 2 hours 15 minutes 35 seconds 833 msec
