                         Program Version 5.0.3 -  RELEASE  -
|  1> ! EnGrad PBEh-3c
|  2> %output
|  3> xyzfile=True
|  4> end
|  5> %scf
|  6> maxiter 250
|  7> end
|  8> %output
|  9> Print[P_Hirshfeld] = 1
| 10> end
| 11> % maxcore
| 12> 4000
| 13> *xyz 1 1
| 14> Ir   0.51756813  -0.78777853   0.54648423
| 15> C    0.13386417  -2.92281777   0.90213440
| 16> C    0.02245752  -2.28152276   2.18030909
| 17> C    2.14580006  -1.90814728   1.37748561
| 18> C    1.46640532  -2.74824340   0.46081305
| 19> C    1.24140734  -1.67332001   2.46223825
| 20> N   -1.12550897  -0.16511714  -0.53170686
| 21> C   -2.49352524  -0.18916555   0.00778625
| 22> C   -2.74513807   0.93625117   1.00278488
| 23> H   -3.73934358   0.86834107   1.44141028
| 24> H   -2.66971351   1.89111429   0.48371991
| 25> H   -2.03586519   0.92554735   1.82491087
| 26> C   -3.63840227  -0.25358000  -0.99856086
| 27> H   -2.57085829  -1.11662784   0.57784162
| 28> H   -4.58585647  -0.42820113  -0.49174478
| 29> H   -3.73102722   0.68466712  -1.54633862
| 30> H   -3.50496459  -1.07390795  -1.70383276
| 31> C   -0.92435122   0.20213273  -1.74261801
| 32> C    0.37853280   0.17208429  -2.31593596
| 33> H   -1.74031914   0.53593232  -2.37404999
| 34> C    1.47145367  -0.20469749  -1.58039781
| 35> C    2.66125760  -0.30934670  -2.33683098
| 36> S    0.82116638   0.40660537  -3.94674031
| 37> C    2.44994354   0.05488798  -3.63983221
| 38> H    2.25530587   1.27987111  -0.88711318
| 39> H    3.65411965  -0.54116125  -1.97376296
| 40> H    3.19684183   0.06421732  -4.41926739
| 41> H   -0.55417369  -3.64785291   0.48771962
| 42> H   -0.80651856  -2.36494162   2.86739280
| 43> H    1.48118476  -1.18181038   3.39341499
| 44> O    2.11009914   2.19265052   0.07597147
| 45> O    0.49606460   1.23968781   1.22981984
| 46> C    1.17390165   2.22691627   0.94711721
| 47> C    1.04567769   3.51668909   1.66300308
| 48> H    0.91645048   4.33378699   0.95454163
| 49> H    1.94386419   3.74515397   2.23773536
| 50> H    0.20057726   3.49270309   2.34324100
| 51> H    3.19249526  -1.66485805   1.37789149
| 52> H    1.88911502  -3.30611009  -0.35703225
| 53> *
| 54>
| 55>                          ****END OF INPUT****

CARTESIAN COORDINATES (ANGSTROEM)
---------------------------------
  Ir     0.517568   -0.787779    0.546484
  C      0.133864   -2.922818    0.902134
  C      0.022458   -2.281523    2.180309
  C      2.145800   -1.908147    1.377486
  C      1.466405   -2.748243    0.460813
  C      1.241407   -1.673320    2.462238
  N     -1.125509   -0.165117   -0.531707
  C     -2.493525   -0.189166    0.007786
  C     -2.745138    0.936251    1.002785
  H     -3.739344    0.868341    1.441410
  H     -2.669714    1.891114    0.483720
  H     -2.035865    0.925547    1.824911
  C     -3.638402   -0.253580   -0.998561
  H     -2.570858   -1.116628    0.577842
  H     -4.585856   -0.428201   -0.491745
  H     -3.731027    0.684667   -1.546339
  H     -3.504965   -1.073908   -1.703833
  C     -0.924351    0.202133   -1.742618
  C      0.378533    0.172084   -2.315936
  H     -1.740319    0.535932   -2.374050
  C      1.471454   -0.204697   -1.580398
  C      2.661258   -0.309347   -2.336831
  S      0.821166    0.406605   -3.946740
  C      2.449944    0.054888   -3.639832
  H      2.255306    1.279871   -0.887113
  H      3.654120   -0.541161   -1.973763
  H      3.196842    0.064217   -4.419267
  H     -0.554174   -3.647853    0.487720
  H     -0.806519   -2.364942    2.867393
  H      1.481185   -1.181810    3.393415
  O      2.110099    2.192651    0.075971
  O      0.496065    1.239688    1.229820
  C      1.173902    2.226916    0.947117
  C      1.045678    3.516689    1.663003
  H      0.916450    4.333787    0.954542
  H      1.943864    3.745154    2.237735
  H      0.200577    3.492703    2.343241
  H      3.192495   -1.664858    1.377891
  H      1.889115   -3.306110   -0.357032

 Total Charge           Charge          ....    1
 Multiplicity           Mult            ....    1
 Number of Electrons    NEL             ....  164
 Basis Dimension        Dim             ....  358

ORBITAL ENERGIES
----------------

  NO   OCC          E(Eh)            E(eV)
   0   2.0000     -89.753746     -2442.3236
   1   2.0000     -19.646780      -534.6161
   2   2.0000     -19.641594      -534.4750
   3   2.0000     -14.823149      -403.3584
   4   2.0000     -10.712343      -291.4977
   5   2.0000     -10.644787      -289.6594
   6   2.0000     -10.617274      -288.9107
   7   2.0000     -10.616691      -288.8948
   8   2.0000     -10.616083      -288.8783
   9   2.0000     -10.608323      -288.6671
  10   2.0000     -10.606289      -288.6118
  11   2.0000     -10.605864      -288.6002
  12   2.0000     -10.603695      -288.5412
  13   2.0000     -10.601483      -288.4810
  14   2.0000     -10.594873      -288.3012
  15   2.0000     -10.587264      -288.0941
  16   2.0000     -10.553871      -287.1854
  17   2.0000     -10.544119      -286.9201
  18   2.0000     -10.535723      -286.6916
  19   2.0000      -8.393327      -228.3940
  20   2.0000      -6.283059      -170.9707
  21   2.0000      -6.279729      -170.8801
  22   2.0000      -6.278418      -170.8444
  23   2.0000      -4.010353      -109.1272
  24   2.0000      -2.326511       -63.3076
  25   2.0000      -2.297004       -62.5047
  26   2.0000      -2.290866       -62.3376
  27   2.0000      -1.338283       -36.4165
  28   2.0000      -1.236621       -33.6502
  29   2.0000      -1.194825       -32.5128
  30   2.0000      -1.155880       -31.4531
  31   2.0000      -1.124131       -30.5891
  32   2.0000      -1.013517       -27.5792
  33   2.0000      -0.966657       -26.3041
  34   2.0000      -0.962940       -26.2029
  35   2.0000      -0.957655       -26.0591
  36   2.0000      -0.955469       -25.9996
  37   2.0000      -0.947154       -25.7734
  38   2.0000      -0.889651       -24.2086
  39   2.0000      -0.861578       -23.4447
  40   2.0000      -0.789615       -21.4865
  41   2.0000      -0.776168       -21.1206
  42   2.0000      -0.772465       -21.0198
  43   2.0000      -0.769870       -20.9492
  44   2.0000      -0.766983       -20.8707
  45   2.0000      -0.755792       -20.5661
  46   2.0000      -0.730145       -19.8683
  47   2.0000      -0.720845       -19.6152
  48   2.0000      -0.690445       -18.7880
  49   2.0000      -0.676298       -18.4030
  50   2.0000      -0.669067       -18.2062
  51   2.0000      -0.659061       -17.9340
  52   2.0000      -0.655056       -17.8250
  53   2.0000      -0.634762       -17.2727
  54   2.0000      -0.628504       -17.1025
  55   2.0000      -0.622799       -16.9472
  56   2.0000      -0.614693       -16.7266
  57   2.0000      -0.603857       -16.4318
  58   2.0000      -0.592331       -16.1181
  59   2.0000      -0.589574       -16.0431
  60   2.0000      -0.588747       -16.0206
  61   2.0000      -0.582255       -15.8440
  62   2.0000      -0.576530       -15.6882
  63   2.0000      -0.567562       -15.4442
  64   2.0000      -0.560775       -15.2595
  65   2.0000      -0.554872       -15.0988
  66   2.0000      -0.545447       -14.8424
  67   2.0000      -0.538422       -14.6512
  68   2.0000      -0.535224       -14.5642
  69   2.0000      -0.530687       -14.4407
  70   2.0000      -0.512821       -13.9546
  71   2.0000      -0.509796       -13.8722
  72   2.0000      -0.496902       -13.5214
  73   2.0000      -0.494045       -13.4436
  74   2.0000      -0.489394       -13.3171
  75   2.0000      -0.466358       -12.6902
  76   2.0000      -0.463560       -12.6141
  77   2.0000      -0.444965       -12.1081
  78   2.0000      -0.441748       -12.0206
  79   2.0000      -0.417285       -11.3549
  80   2.0000      -0.407686       -11.0937
  81   2.0000      -0.387106       -10.5337
  82   0.0000      -0.189103        -5.1457
  83   0.0000      -0.152139        -4.1399
  84   0.0000      -0.140991        -3.8365
  85   0.0000      -0.088255        -2.4015
  86   0.0000      -0.081511        -2.2180

MULLIKEN ATOMIC CHARGES
-----------------------
   0 Ir:    0.593145
   1 C :   -0.279893
   2 C :   -0.242148
   3 C :   -0.279602
   4 C :   -0.196095
   5 C :   -0.168594
   6 N :   -0.474113
   7 C :   -0.105868
   8 C :   -0.636847
   9 H :    0.247103
  10 H :    0.222002
  11 H :    0.265104
  12 C :   -0.687867
  13 H :    0.248928
  14 H :    0.270239
  15 H :    0.224960
  16 H :    0.245170
  17 C :    0.081500
  18 C :   -0.162083
  19 H :    0.277586
  20 C :   -0.319449
  21 C :   -0.222781
  22 S :    0.337817
  23 C :   -0.410421
  24 H :    0.465690
  25 H :    0.270083
  26 H :    0.300352
  27 H :    0.277109
  28 H :    0.275467
  29 H :    0.283202
  30 O :   -0.533858
  31 O :   -0.463309
  32 C :    0.660341
  33 C :   -0.747136
  34 H :    0.278974
  35 H :    0.286159
  36 H :    0.266620
  37 H :    0.272259
  38 H :    0.280255
Sum of atomic charges:    1.0000000

LOEWDIN ATOMIC CHARGES
----------------------
   0 Ir:   -0.261615
   1 C :   -0.061123
   2 C :   -0.095825
   3 C :   -0.102998
   4 C :   -0.031039
   5 C :   -0.023179
   6 N :   -0.017351
   7 C :   -0.066348
   8 C :   -0.348899
   9 H :    0.144811
  10 H :    0.134090
  11 H :    0.148367
  12 C :   -0.364575
  13 H :    0.140502
  14 H :    0.156242
  15 H :    0.132561
  16 H :    0.138664
  17 C :    0.032724
  18 C :   -0.243373
  19 H :    0.155138
  20 C :   -0.163435
  21 C :   -0.184352
  22 S :    0.487817
  23 C :   -0.258062
  24 H :    0.412383
  25 H :    0.161234
  26 H :    0.170922
  27 H :    0.180423
  28 H :    0.176743
  29 H :    0.181902
  30 O :   -0.269344
  31 O :   -0.134564
  32 C :    0.174010
  33 C :   -0.368903
  34 H :    0.171668
  35 H :    0.176843
  36 H :    0.158441
  37 H :    0.178409
  38 H :    0.181092

  Mayer bond orders larger than 0.100000
B(  0-Ir,  1-C ) :   0.4541 B(  0-Ir,  2-C ) :   0.3782 B(  0-Ir,  3-C ) :   0.4792
B(  0-Ir,  4-C ) :   0.4362 B(  0-Ir,  5-C ) :   0.3801 B(  0-Ir,  6-N ) :   0.4756
B(  0-Ir, 20-C ) :   0.5708 B(  0-Ir, 31-O ) :   0.4430 B(  1-C ,  2-C ) :   1.1530
B(  1-C ,  4-C ) :   1.2078 B(  1-C , 27-H ) :   0.9208 B(  2-C ,  5-C ) :   1.2338
B(  2-C , 28-H ) :   0.9158 B(  3-C ,  4-C ) :   1.1373 B(  3-C ,  5-C ) :   1.1665
B(  3-C , 37-H ) :   0.9214 B(  4-C , 38-H ) :   0.9173 B(  5-C , 29-H ) :   0.9121
B(  6-N ,  7-C ) :   0.9095 B(  6-N , 17-C ) :   1.6230 B(  7-C ,  8-C ) :   0.9786
B(  7-C , 12-C ) :   0.9938 B(  7-C , 13-H ) :   0.8859 B(  8-C ,  9-H ) :   0.9079
B(  8-C , 10-H ) :   0.9184 B(  8-C , 11-H ) :   0.9007 B( 12-C , 14-H ) :   0.9045
B( 12-C , 15-H ) :   0.9132 B( 12-C , 16-H ) :   0.9146 B( 17-C , 18-C ) :   1.1250
B( 17-C , 19-H ) :   0.8781 B( 18-C , 20-C ) :   1.3037 B( 18-C , 22-S ) :   1.1714
B( 20-C , 21-C ) :   1.3358 B( 20-C , 24-H ) :   0.1510 B( 21-C , 23-C ) :   1.4489
B( 21-C , 25-H ) :   0.9004 B( 22-S , 23-C ) :   1.2906 B( 23-C , 26-H ) :   0.8889
B( 24-H , 30-O ) :   0.5048 B( 30-O , 32-C ) :   1.3630 B( 31-O , 32-C ) :   1.5430
B( 32-C , 33-C ) :   0.9509 B( 33-C , 34-H ) :   0.8930 B( 33-C , 35-H ) :   0.8886
B( 33-C , 36-H ) :   0.9052

Dispersion correction           -0.030158303
FINAL SINGLE POINT ENERGY     -1288.345591066994
Dispersion correction            ... done

DIPOLE MOMENT
-------------
                                X             Y             Z
Electronic contribution:     28.66960     -78.75103      83.91286
Nuclear contribution   :    -28.82330      78.59902     -83.97422
                        -----------------------------------------
Total Dipole Moment    :     -0.15369      -0.15201      -0.06136
                        -----------------------------------------
Magnitude (a.u.)       :      0.22471
Magnitude (Debye)      :      0.57117

Rotational constants in cm-1:     0.010494     0.008103     0.007693
Rotational constants in MHz :   314.590744   242.915239   230.625136

                             ****ORCA TERMINATED NORMALLY****
TOTAL RUN TIME: 0 days 0 hours 19 minutes 25 seconds 799 msec
