                         Program Version 5.0.3 -  RELEASE  -
|  1> ! EnGrad PBEh-3c
|  2> %output
|  3> xyzfile=True
|  4> end
|  5> %scf
|  6> maxiter 250
|  7> end
|  8> %output
|  9> Print[P_Hirshfeld] = 1
| 10> end
| 11> % maxcore
| 12> 4000
| 13> *xyz 1 1
| 14> Ir   0.62298430  -0.77001461   0.48208902
| 15> C    0.05826013  -2.92600477   1.10721485
| 16> C    0.14948259  -2.19334778   2.30457033
| 17> C    2.18624213  -2.06705579   1.21602824
| 18> C    1.27038831  -2.81201821   0.38609368
| 19> C    1.49190727  -1.71012591   2.38111246
| 20> N   -1.11163811  -0.13900011  -0.54207939
| 21> C   -2.49863181  -0.14550006   0.03181882
| 22> C   -2.79110245   1.11023752   0.84129474
| 23> H   -3.81516436   1.04941371   1.21378801
| 24> H   -2.71862820   2.00724416   0.22574062
| 25> H   -2.13381027   1.19906744   1.70003189
| 26> C   -3.56731212  -0.35727858  -1.02702873
| 27> H   -2.51717903  -1.00284067   0.70430334
| 28> H   -4.51516857  -0.51117186  -0.51265870
| 29> H   -3.71338441   0.50225065  -1.68357252
| 30> H   -3.37927625  -1.24284718  -1.63070267
| 31> C   -0.88600468   0.23059679  -1.75167713
| 32> C    0.44807637   0.17256821  -2.27506834
| 33> H   -1.71669721   0.53943379  -2.36979892
| 34> C    1.51218519  -0.16196885  -1.44526781
| 35> C    2.68463675  -0.20050942  -2.34445078
| 36> S    0.77426823   0.34981585  -3.97804207
| 37> C    2.42007063   0.01550477  -3.68856032
| 38> H    2.07231049   1.35617734  -0.54532115
| 39> H    3.71676399  -0.39662826  -2.07044233
| 40> H    3.11946055   0.01536779  -4.53408739
| 41> H   -0.75045055  -3.57270622   0.81468229
| 42> H   -0.56597941  -2.18547803   3.11462773
| 43> H    1.91530360  -1.21124718   3.23706341
| 44> O    2.08230942   2.08924232   0.09349961
| 45> O    0.42646969   1.16889519   1.35199525
| 46> C    1.17570296   2.10136323   1.01988170
| 47> C    0.98427964   3.45364886   1.77290499
| 48> H    0.89175659   4.29222929   1.07479220
| 49> H    1.85186425   3.68596571   2.40006230
| 50> H    0.10315403   3.48459840   2.43803133
| 51> H    3.21758584  -1.86822211   1.00256812
| 52> H    1.50269255  -3.35269172  -0.51370052
| 53> *
| 54>
| 55>                          ****END OF INPUT****

CARTESIAN COORDINATES (ANGSTROEM)
---------------------------------
  Ir     0.622984   -0.770015    0.482089
  C      0.058260   -2.926005    1.107215
  C      0.149483   -2.193348    2.304570
  C      2.186242   -2.067056    1.216028
  C      1.270388   -2.812018    0.386094
  C      1.491907   -1.710126    2.381112
  N     -1.111638   -0.139000   -0.542079
  C     -2.498632   -0.145500    0.031819
  C     -2.791102    1.110238    0.841295
  H     -3.815164    1.049414    1.213788
  H     -2.718628    2.007244    0.225741
  H     -2.133810    1.199067    1.700032
  C     -3.567312   -0.357279   -1.027029
  H     -2.517179   -1.002841    0.704303
  H     -4.515169   -0.511172   -0.512659
  H     -3.713384    0.502251   -1.683573
  H     -3.379276   -1.242847   -1.630703
  C     -0.886005    0.230597   -1.751677
  C      0.448076    0.172568   -2.275068
  H     -1.716697    0.539434   -2.369799
  C      1.512185   -0.161969   -1.445268
  C      2.684637   -0.200509   -2.344451
  S      0.774268    0.349816   -3.978042
  C      2.420071    0.015505   -3.688560
  H      2.072310    1.356177   -0.545321
  H      3.716764   -0.396628   -2.070442
  H      3.119461    0.015368   -4.534087
  H     -0.750451   -3.572706    0.814682
  H     -0.565979   -2.185478    3.114628
  H      1.915304   -1.211247    3.237063
  O      2.082309    2.089242    0.093500
  O      0.426470    1.168895    1.351995
  C      1.175703    2.101363    1.019882
  C      0.984280    3.453649    1.772905
  H      0.891757    4.292229    1.074792
  H      1.851864    3.685966    2.400062
  H      0.103154    3.484598    2.438031
  H      3.217586   -1.868222    1.002568
  H      1.502693   -3.352692   -0.513701

 Total Charge           Charge          ....    1
 Multiplicity           Mult            ....    1
 Number of Electrons    NEL             ....  164
 Basis Dimension        Dim             ....  358

ORBITAL ENERGIES
----------------

  NO   OCC          E(Eh)            E(eV)
   0   2.0000     -89.739636     -2441.9396
   1   2.0000     -19.683236      -535.6081
   2   2.0000     -19.672962      -535.3285
   3   2.0000     -14.815353      -403.1462
   4   2.0000     -10.746645      -292.4311
   5   2.0000     -10.637474      -289.4604
   6   2.0000     -10.623803      -289.0884
   7   2.0000     -10.622713      -289.0587
   8   2.0000     -10.609383      -288.6960
   9   2.0000     -10.607800      -288.6529
  10   2.0000     -10.605907      -288.6014
  11   2.0000     -10.604107      -288.5524
  12   2.0000     -10.600218      -288.4466
  13   2.0000     -10.598974      -288.4128
  14   2.0000     -10.594228      -288.2836
  15   2.0000     -10.579190      -287.8744
  16   2.0000     -10.572531      -287.6932
  17   2.0000     -10.544261      -286.9239
  18   2.0000     -10.539608      -286.7973
  19   2.0000      -8.378838      -227.9998
  20   2.0000      -6.268853      -170.5842
  21   2.0000      -6.265471      -170.4921
  22   2.0000      -6.263466      -170.4376
  23   2.0000      -4.009699      -109.1095
  24   2.0000      -2.324254       -63.2462
  25   2.0000      -2.296201       -62.4828
  26   2.0000      -2.291720       -62.3609
  27   2.0000      -1.376040       -37.4440
  28   2.0000      -1.288859       -35.0716
  29   2.0000      -1.182430       -32.1756
  30   2.0000      -1.153374       -31.3849
  31   2.0000      -1.096686       -29.8423
  32   2.0000      -1.009121       -27.4596
  33   2.0000      -0.965279       -26.2666
  34   2.0000      -0.962046       -26.1786
  35   2.0000      -0.956666       -26.0322
  36   2.0000      -0.942636       -25.6504
  37   2.0000      -0.936968       -25.4962
  38   2.0000      -0.889605       -24.2074
  39   2.0000      -0.852554       -23.1992
  40   2.0000      -0.844772       -22.9874
  41   2.0000      -0.781187       -21.2572
  42   2.0000      -0.771449       -20.9922
  43   2.0000      -0.770499       -20.9664
  44   2.0000      -0.760621       -20.6975
  45   2.0000      -0.755939       -20.5701
  46   2.0000      -0.752277       -20.4705
  47   2.0000      -0.714804       -19.4508
  48   2.0000      -0.696745       -18.9594
  49   2.0000      -0.681930       -18.5563
  50   2.0000      -0.675937       -18.3932
  51   2.0000      -0.666325       -18.1316
  52   2.0000      -0.643908       -17.5216
  53   2.0000      -0.628477       -17.1017
  54   2.0000      -0.626024       -17.0350
  55   2.0000      -0.618414       -16.8279
  56   2.0000      -0.610534       -16.6135
  57   2.0000      -0.592789       -16.1306
  58   2.0000      -0.592418       -16.1205
  59   2.0000      -0.590242       -16.0613
  60   2.0000      -0.585435       -15.9305
  61   2.0000      -0.583160       -15.8686
  62   2.0000      -0.580735       -15.8026
  63   2.0000      -0.571227       -15.5439
  64   2.0000      -0.569467       -15.4960
  65   2.0000      -0.558127       -15.1874
  66   2.0000      -0.548511       -14.9257
  67   2.0000      -0.543698       -14.7948
  68   2.0000      -0.535759       -14.5788
  69   2.0000      -0.529946       -14.4206
  70   2.0000      -0.527297       -14.3485
  71   2.0000      -0.526871       -14.3369
  72   2.0000      -0.510892       -13.9021
  73   2.0000      -0.499641       -13.5959
  74   2.0000      -0.495300       -13.4778
  75   2.0000      -0.477735       -12.9998
  76   2.0000      -0.471664       -12.8346
  77   2.0000      -0.446981       -12.1630
  78   2.0000      -0.436660       -11.8821
  79   2.0000      -0.411730       -11.2037
  80   2.0000      -0.399884       -10.8814
  81   2.0000      -0.384834       -10.4719
  82   0.0000      -0.177313        -4.8249
  83   0.0000      -0.163387        -4.4460
  84   0.0000      -0.134431        -3.6581
  85   0.0000      -0.109128        -2.9695
  86   0.0000      -0.072741        -1.9794

MULLIKEN ATOMIC CHARGES
-----------------------
   0 Ir:    0.574369
   1 C :   -0.170213
   2 C :   -0.268030
   3 C :   -0.249244
   4 C :   -0.311174
   5 C :   -0.167962
   6 N :   -0.466528
   7 C :   -0.100470
   8 C :   -0.634775
   9 H :    0.245526
  10 H :    0.224773
  11 H :    0.257139
  12 C :   -0.689883
  13 H :    0.247375
  14 H :    0.265464
  15 H :    0.229491
  16 H :    0.250808
  17 C :    0.082412
  18 C :   -0.173438
  19 H :    0.271588
  20 C :   -0.358506
  21 C :   -0.229853
  22 S :    0.296538
  23 C :   -0.383744
  24 H :    0.541442
  25 H :    0.253586
  26 H :    0.294672
  27 H :    0.280537
  28 H :    0.276354
  29 H :    0.282853
  30 O :   -0.546659
  31 O :   -0.430085
  32 C :    0.638704
  33 C :   -0.742234
  34 H :    0.280799
  35 H :    0.283266
  36 H :    0.276419
  37 H :    0.283301
  38 H :    0.285384
Sum of atomic charges:    1.0000000

LOEWDIN ATOMIC CHARGES
----------------------
   0 Ir:   -0.266166
   1 C :   -0.019534
   2 C :   -0.109315
   3 C :   -0.093258
   4 C :   -0.085362
   5 C :   -0.020441
   6 N :   -0.037789
   7 C :   -0.056537
   8 C :   -0.351460
   9 H :    0.145371
  10 H :    0.135580
  11 H :    0.144925
  12 C :   -0.364838
  13 H :    0.139494
  14 H :    0.153845
  15 H :    0.134498
  16 H :    0.141303
  17 C :    0.029567
  18 C :   -0.230533
  19 H :    0.152025
  20 C :   -0.154803
  21 C :   -0.175578
  22 S :    0.440508
  23 C :   -0.259803
  24 H :    0.357165
  25 H :    0.152003
  26 H :    0.169278
  27 H :    0.178513
  28 H :    0.177186
  29 H :    0.179671
  30 O :   -0.214285
  31 O :   -0.114020
  32 C :    0.228904
  33 C :   -0.373581
  34 H :    0.168947
  35 H :    0.172223
  36 H :    0.162878
  37 H :    0.180769
  38 H :    0.182651

  Mayer bond orders larger than 0.100000
B(  0-Ir,  1-C ) :   0.3390 B(  0-Ir,  2-C ) :   0.3302 B(  0-Ir,  3-C ) :   0.4381
B(  0-Ir,  4-C ) :   0.4936 B(  0-Ir,  5-C ) :   0.3738 B(  0-Ir,  6-N ) :   0.5008
B(  0-Ir, 20-C ) :   0.6079 B(  0-Ir, 31-O ) :   0.4304 B(  1-C ,  2-C ) :   1.2422
B(  1-C ,  4-C ) :   1.2017 B(  1-C , 27-H ) :   0.9147 B(  2-C ,  5-C ) :   1.1785
B(  2-C , 28-H ) :   0.9179 B(  3-C ,  4-C ) :   1.1182 B(  3-C ,  5-C ) :   1.2297
B(  3-C , 37-H ) :   0.9106 B(  4-C , 38-H ) :   0.9143 B(  5-C , 29-H ) :   0.9116
B(  6-N ,  7-C ) :   0.8895 B(  6-N , 17-C ) :   1.6122 B(  7-C ,  8-C ) :   0.9805
B(  7-C , 12-C ) :   0.9925 B(  7-C , 13-H ) :   0.8926 B(  8-C ,  9-H ) :   0.9074
B(  8-C , 10-H ) :   0.9187 B(  8-C , 11-H ) :   0.9072 B( 12-C , 14-H ) :   0.9046
B( 12-C , 15-H ) :   0.9115 B( 12-C , 16-H ) :   0.9136 B( 17-C , 18-C ) :   1.1326
B( 17-C , 19-H ) :   0.8786 B( 18-C , 20-C ) :   1.3260 B( 18-C , 22-S ) :   1.1572
B( 20-C , 21-C ) :   1.3072 B( 21-C , 23-C ) :   1.5384 B( 21-C , 25-H ) :   0.9056
B( 22-S , 23-C ) :   1.2328 B( 23-C , 26-H ) :   0.8877 B( 24-H , 30-O ) :   0.5764
B( 30-O , 32-C ) :   1.3008 B( 31-O , 32-C ) :   1.5819 B( 32-C , 33-C ) :   0.9394
B( 33-C , 34-H ) :   0.8911 B( 33-C , 35-H ) :   0.8880 B( 33-C , 36-H ) :   0.9043

Dispersion correction           -0.029590280
FINAL SINGLE POINT ENERGY     -1288.398429386262
Dispersion correction            ... done

DIPOLE MOMENT
-------------
                                X             Y             Z
Electronic contribution:     38.72680     -75.55041      77.83129
Nuclear contribution   :    -39.13280      75.70703     -77.25738
                        -----------------------------------------
Total Dipole Moment    :     -0.40600       0.15663       0.57391
                        -----------------------------------------
Magnitude (a.u.)       :      0.72024
Magnitude (Debye)      :      1.83069

Rotational constants in cm-1:     0.010468     0.008229     0.007694
Rotational constants in MHz :   313.830779   246.707107   230.669510

                             ****ORCA TERMINATED NORMALLY****
TOTAL RUN TIME: 0 days 0 hours 15 minutes 3 seconds 305 msec
