                         Program Version 5.0.3 -  RELEASE  -
|  1> ! EnGrad PBEh-3c
|  2> %output
|  3> xyzfile=True
|  4> end
|  5> %scf
|  6> maxiter 250
|  7> end
|  8> %output
|  9> Print[P_Hirshfeld] = 1
| 10> end
| 11> % maxcore
| 12> 4000
| 13> *xyz 1 1
| 14> Ir   0.68063461  -0.76861429   0.49124559
| 15> C   -0.03191109  -2.92021841   1.32823640
| 16> C    0.34110041  -2.09281124   2.45431411
| 17> C    2.22937312  -2.27074887   0.98884183
| 18> C    1.04709513  -2.89047422   0.30691860
| 19> C    1.78344217  -1.73604343   2.26801433
| 20> N   -1.06773048  -0.11817581  -0.53557961
| 21> C   -2.45771060  -0.08190297   0.02944476
| 22> C   -2.84652463   1.30706777   0.64575384
| 23> H   -3.90182616   1.26627115   0.94492163
| 24> H   -2.77223580   2.13874851  -0.08640050
| 25> H   -2.24555320   1.53869914   1.54157023
| 26> C   -3.49215471  -0.48826962  -1.05054159
| 27> H   -2.45702799  -0.85446656   0.85125224
| 28> H   -4.43926861  -0.61330233  -0.53907471
| 29> H   -3.68222932   0.27848169  -1.83862750
| 30> H   -3.22843851  -1.44578440  -1.53899698
| 31> C   -0.84915122   0.24931872  -1.74798184
| 32> C    0.48204694   0.18016685  -2.23427123
| 33> H   -1.68210669   0.55279734  -2.37736404
| 34> C    1.58419882  -0.07089405  -1.42592465
| 35> C    2.71522352  -0.10461475  -2.35446949
| 36> S    0.72796759   0.26491084  -3.94363290
| 37> C    2.38658116  -0.01929714  -3.71339018
| 38> H    1.86111250   1.26678615  -0.27619574
| 39> H    3.78190017  -0.22295199  -2.16960639
| 40> H    3.01618474  -0.04600134  -4.62720209
| 41> H   -1.00830835  -3.46393365   1.20290623
| 42> H   -0.25479246  -1.96467094   3.39237352
| 43> H    2.43591966  -1.23332754   3.03162991
| 44> O    2.01786985   2.11393571   0.27035961
| 45> O    0.40126913   1.07255231   1.44167151
| 46> C    1.10574630   2.08274187   1.19918185
| 47> C    0.91808177   3.35661753   1.89725996
| 48> H    0.86779105   4.21913896   1.21580236
| 49> H    1.74010625   3.60327785   2.58366855
| 50> H    0.01347020   3.44479310   2.51966924
| 51> H    3.24147590  -2.11760365   0.54482187
| 52> H    1.03278181  -3.41527902  -0.68645925
| 53> *
| 54>
| 55>                          ****END OF INPUT****

CARTESIAN COORDINATES (ANGSTROEM)
---------------------------------
  Ir     0.680635   -0.768614    0.491246
  C     -0.031911   -2.920218    1.328236
  C      0.341100   -2.092811    2.454314
  C      2.229373   -2.270749    0.988842
  C      1.047095   -2.890474    0.306919
  C      1.783442   -1.736043    2.268014
  N     -1.067730   -0.118176   -0.535580
  C     -2.457711   -0.081903    0.029445
  C     -2.846525    1.307068    0.645754
  H     -3.901826    1.266271    0.944922
  H     -2.772236    2.138749   -0.086401
  H     -2.245553    1.538699    1.541570
  C     -3.492155   -0.488270   -1.050542
  H     -2.457028   -0.854467    0.851252
  H     -4.439269   -0.613302   -0.539075
  H     -3.682229    0.278482   -1.838628
  H     -3.228439   -1.445784   -1.538997
  C     -0.849151    0.249319   -1.747982
  C      0.482047    0.180167   -2.234271
  H     -1.682107    0.552797   -2.377364
  C      1.584199   -0.070894   -1.425925
  C      2.715224   -0.104615   -2.354469
  S      0.727968    0.264911   -3.943633
  C      2.386581   -0.019297   -3.713390
  H      1.861112    1.266786   -0.276196
  H      3.781900   -0.222952   -2.169606
  H      3.016185   -0.046001   -4.627202
  H     -1.008308   -3.463934    1.202906
  H     -0.254792   -1.964671    3.392374
  H      2.435920   -1.233328    3.031630
  O      2.017870    2.113936    0.270360
  O      0.401269    1.072552    1.441672
  C      1.105746    2.082742    1.199182
  C      0.918082    3.356618    1.897260
  H      0.867791    4.219139    1.215802
  H      1.740106    3.603278    2.583669
  H      0.013470    3.444793    2.519669
  H      3.241476   -2.117604    0.544822
  H      1.032782   -3.415279   -0.686459

 Total Charge           Charge          ....    1
 Multiplicity           Mult            ....    1
 Number of Electrons    NEL             ....  164
 Basis Dimension        Dim             ....  358

ORBITAL ENERGIES
----------------

  NO   OCC          E(Eh)            E(eV)
   0   2.0000     -89.736388     -2441.8513
   1   2.0000     -19.676457      -535.4236
   2   2.0000     -19.669122      -535.2240
   3   2.0000     -14.814903      -403.1340
   4   2.0000     -10.738041      -292.1970
   5   2.0000     -10.643164      -289.6152
   6   2.0000     -10.636655      -289.4381
   7   2.0000     -10.636613      -289.4369
   8   2.0000     -10.630314      -289.2655
   9   2.0000     -10.629193      -289.2350
  10   2.0000     -10.619990      -288.9846
  11   2.0000     -10.617921      -288.9283
  12   2.0000     -10.599381      -288.4238
  13   2.0000     -10.596248      -288.3386
  14   2.0000     -10.594795      -288.2990
  15   2.0000     -10.578861      -287.8654
  16   2.0000     -10.569225      -287.6032
  17   2.0000     -10.551106      -287.1102
  18   2.0000     -10.549475      -287.0658
  19   2.0000      -8.376264      -227.9297
  20   2.0000      -6.266162      -170.5109
  21   2.0000      -6.262763      -170.4184
  22   2.0000      -6.261058      -170.3720
  23   2.0000      -4.009340      -109.0997
  24   2.0000      -2.321940       -63.1832
  25   2.0000      -2.295834       -62.4728
  26   2.0000      -2.292059       -62.3701
  27   2.0000      -1.372055       -37.3355
  28   2.0000      -1.274876       -34.6911
  29   2.0000      -1.182099       -32.1666
  30   2.0000      -1.119707       -30.4688
  31   2.0000      -1.097724       -29.8706
  32   2.0000      -0.999674       -27.2025
  33   2.0000      -0.979945       -26.6657
  34   2.0000      -0.950385       -25.8613
  35   2.0000      -0.939111       -25.5545
  36   2.0000      -0.938921       -25.5493
  37   2.0000      -0.937916       -25.5220
  38   2.0000      -0.882792       -24.0220
  39   2.0000      -0.849062       -23.1041
  40   2.0000      -0.815342       -22.1866
  41   2.0000      -0.780517       -21.2389
  42   2.0000      -0.764629       -20.8066
  43   2.0000      -0.759513       -20.6674
  44   2.0000      -0.756363       -20.5817
  45   2.0000      -0.751581       -20.4516
  46   2.0000      -0.733278       -19.9535
  47   2.0000      -0.715515       -19.4702
  48   2.0000      -0.699140       -19.0246
  49   2.0000      -0.679618       -18.4934
  50   2.0000      -0.673379       -18.3236
  51   2.0000      -0.661089       -17.9891
  52   2.0000      -0.634973       -17.2785
  53   2.0000      -0.621804       -16.9201
  54   2.0000      -0.615865       -16.7585
  55   2.0000      -0.608920       -16.5695
  56   2.0000      -0.605667       -16.4810
  57   2.0000      -0.597700       -16.2643
  58   2.0000      -0.584804       -15.9133
  59   2.0000      -0.583639       -15.8816
  60   2.0000      -0.582249       -15.8438
  61   2.0000      -0.581034       -15.8107
  62   2.0000      -0.575631       -15.6637
  63   2.0000      -0.569913       -15.5081
  64   2.0000      -0.568513       -15.4700
  65   2.0000      -0.559417       -15.2225
  66   2.0000      -0.549290       -14.9469
  67   2.0000      -0.540081       -14.6963
  68   2.0000      -0.536656       -14.6032
  69   2.0000      -0.527672       -14.3587
  70   2.0000      -0.526399       -14.3240
  71   2.0000      -0.521327       -14.1860
  72   2.0000      -0.510366       -13.8878
  73   2.0000      -0.494789       -13.4639
  74   2.0000      -0.491235       -13.3672
  75   2.0000      -0.470876       -12.8132
  76   2.0000      -0.468041       -12.7360
  77   2.0000      -0.445867       -12.1327
  78   2.0000      -0.433084       -11.7848
  79   2.0000      -0.414803       -11.2874
  80   2.0000      -0.396841       -10.7986
  81   2.0000      -0.382950       -10.4206
  82   0.0000      -0.177777        -4.8376
  83   0.0000      -0.169948        -4.6245
  84   0.0000      -0.140731        -3.8295
  85   0.0000      -0.112553        -3.0627
  86   0.0000      -0.078376        -2.1327

MULLIKEN ATOMIC CHARGES
-----------------------
   0 Ir:    0.573788
   1 C :   -0.129179
   2 C :   -0.270518
   3 C :   -0.194646
   4 C :   -0.371735
   5 C :   -0.220471
   6 N :   -0.458467
   7 C :   -0.101795
   8 C :   -0.634729
   9 H :    0.247188
  10 H :    0.224537
  11 H :    0.248651
  12 C :   -0.681079
  13 H :    0.240698
  14 H :    0.264567
  15 H :    0.227223
  16 H :    0.247996
  17 C :    0.085582
  18 C :   -0.166300
  19 H :    0.273210
  20 C :   -0.341864
  21 C :   -0.241812
  22 S :    0.290578
  23 C :   -0.378559
  24 H :    0.536024
  25 H :    0.251207
  26 H :    0.295062
  27 H :    0.283721
  28 H :    0.283953
  29 H :    0.286695
  30 O :   -0.538294
  31 O :   -0.460454
  32 C :    0.655620
  33 C :   -0.779079
  34 H :    0.291846
  35 H :    0.295032
  36 H :    0.279868
  37 H :    0.294326
  38 H :    0.291610
Sum of atomic charges:    1.0000000

LOEWDIN ATOMIC CHARGES
----------------------
   0 Ir:   -0.291936
   1 C :   -0.011235
   2 C :   -0.095148
   3 C :   -0.055603
   4 C :   -0.113226
   5 C :   -0.052099
   6 N :   -0.041707
   7 C :   -0.050483
   8 C :   -0.355818
   9 H :    0.145462
  10 H :    0.135562
  11 H :    0.142364
  12 C :   -0.365383
  13 H :    0.139559
  14 H :    0.150965
  15 H :    0.134459
  16 H :    0.141408
  17 C :    0.026330
  18 C :   -0.226905
  19 H :    0.154607
  20 C :   -0.154877
  21 C :   -0.162455
  22 S :    0.446709
  23 C :   -0.264840
  24 H :    0.357713
  25 H :    0.153667
  26 H :    0.169181
  27 H :    0.182523
  28 H :    0.184270
  29 H :    0.186824
  30 O :   -0.225940
  31 O :   -0.129786
  32 C :    0.219943
  33 C :   -0.379367
  34 H :    0.178151
  35 H :    0.182568
  36 H :    0.164638
  37 H :    0.189858
  38 H :    0.190047

  Mayer bond orders larger than 0.100000
B(  0-Ir,  1-C ) :   0.2701 B(  0-Ir,  2-C ) :   0.3234 B(  0-Ir,  3-C ) :   0.4032
B(  0-Ir,  4-C ) :   0.5242 B(  0-Ir,  5-C ) :   0.4157 B(  0-Ir,  6-N ) :   0.5030
B(  0-Ir, 20-C ) :   0.5834 B(  0-Ir, 31-O ) :   0.4323 B(  1-C ,  2-C ) :   1.3009
B(  1-C ,  4-C ) :   1.1522 B(  1-C , 27-H ) :   0.9056 B(  2-C ,  5-C ) :   1.1053
B(  2-C , 28-H ) :   0.9124 B(  3-C ,  4-C ) :   1.1032 B(  3-C ,  5-C ) :   1.2452
B(  3-C , 37-H ) :   0.8968 B(  4-C , 38-H ) :   0.9055 B(  5-C , 29-H ) :   0.9078
B(  6-N ,  7-C ) :   0.8901 B(  6-N , 17-C ) :   1.5994 B(  7-C ,  8-C ) :   0.9637
B(  7-C , 12-C ) :   0.9773 B(  7-C , 13-H ) :   0.8986 B(  8-C ,  9-H ) :   0.9063
B(  8-C , 10-H ) :   0.9190 B(  8-C , 11-H ) :   0.9127 B( 12-C , 14-H ) :   0.9045
B( 12-C , 15-H ) :   0.9123 B( 12-C , 16-H ) :   0.9147 B( 17-C , 18-C ) :   1.1390
B( 17-C , 19-H ) :   0.8771 B( 18-C , 20-C ) :   1.3020 B( 18-C , 22-S ) :   1.1655
B( 20-C , 21-C ) :   1.3375 B( 20-C , 24-H ) :   0.1039 B( 21-C , 23-C ) :   1.5341
B( 21-C , 25-H ) :   0.9078 B( 22-S , 23-C ) :   1.2346 B( 23-C , 26-H ) :   0.8844
B( 24-H , 30-O ) :   0.5379 B( 30-O , 32-C ) :   1.3405 B( 31-O , 32-C ) :   1.5462
B( 32-C , 33-C ) :   0.9598 B( 33-C , 34-H ) :   0.8854 B( 33-C , 35-H ) :   0.8786
B( 33-C , 36-H ) :   0.9026

Dispersion correction           -0.029400164
FINAL SINGLE POINT ENERGY     -1288.365861265473
Dispersion correction            ... done

DIPOLE MOMENT
-------------
                                X             Y             Z
Electronic contribution:     44.04988     -74.54611      77.53358
Nuclear contribution   :    -44.65140      74.71685     -76.84988
                        -----------------------------------------
Total Dipole Moment    :     -0.60152       0.17074       0.68371
                        -----------------------------------------
Magnitude (a.u.)       :      0.92652
Magnitude (Debye)      :      2.35502

Rotational constants in cm-1:     0.010342     0.008254     0.007667
Rotational constants in MHz :   310.057336   247.437267   229.855062

                             ****ORCA TERMINATED NORMALLY****
TOTAL RUN TIME: 0 days 0 hours 12 minutes 6 seconds 215 msec
