                         Program Version 5.0.3 -  RELEASE  -
|  1> ! EnGrad PBEh-3c
|  2> %output
|  3> xyzfile=True
|  4> end
|  5> %scf
|  6> maxiter 250
|  7> end
|  8> %output
|  9> Print[P_Hirshfeld] = 1
| 10> end
| 11> % maxcore
| 12> 4000
| 13> *xyz 1 1
| 14> Ir   0.64088700  -0.76957976   0.48493250
| 15> C    0.03025840  -2.92420787   1.17585078
| 16> C    0.20898750  -2.16212721   2.35107169
| 17> C    2.19963601  -2.13031054   1.14547787
| 18> C    1.20104695  -2.83638191   0.36150668
| 19> C    1.58244038  -1.71817432   2.34599102
| 20> N   -1.09800306  -0.13253334  -0.54006095
| 21> C   -2.48592416  -0.12575065   0.03108158
| 22> C   -2.80831323   1.17136110   0.78057156
| 23> H   -3.84207627   1.11675652   1.13029437
| 24> H   -2.73527548   2.04808146   0.12880846
| 25> H   -2.16851087   1.30453651   1.65082328
| 26> C   -3.54397277  -0.39795647  -1.03433041
| 27> H   -2.49849975  -0.95676464   0.74993679
| 28> H   -4.49159863  -0.54288741  -0.52086192
| 29> H   -3.70370952   0.43276154  -1.73172322
| 30> H   -3.33243517  -1.30586721  -1.60222443
| 31> C   -0.87456022   0.23641069  -1.75052960
| 32> C    0.45862557   0.17492789  -2.26239923
| 33> H   -1.70595548   0.54358370  -2.37214819
| 34> C    1.53454827  -0.13368652  -1.43926099
| 35> C    2.69413515  -0.17073033  -2.34756198
| 36> S    0.75989005   0.32344949  -3.96735666
| 37> C    2.40967082   0.00469740  -3.69627098
| 38> H    2.00672517   1.32841784  -0.46174707
| 39> H    3.73699135  -0.34269491  -2.10123669
| 40> H    3.08738933  -0.00368975  -4.56300319
| 41> H   -0.83052559  -3.53892804   0.93524117
| 42> H   -0.46934356  -2.11690869   3.20087878
| 43> H    2.07697547  -1.21810400   3.17326818
| 44> O    2.06229839   2.09691059   0.14842163
| 45> O    0.41864392   1.13897692   1.37984328
| 46> C    1.15397865   2.09558056   1.07556149
| 47> C    0.96372258   3.42351680   1.81152212
| 48> H    0.88431434   4.26953185   1.11858143
| 49> H    1.81715897   3.66028786   2.45707930
| 50> H    0.07530365   3.47223728   2.46338313
| 51> H    3.22500465  -1.94566494   0.86041981
| 52> H    1.35676669  -3.37212755  -0.56734894
| 53> *
| 54>
| 55>                          ****END OF INPUT****

CARTESIAN COORDINATES (ANGSTROEM)
---------------------------------
  Ir     0.640887   -0.769580    0.484932
  C      0.030258   -2.924208    1.175851
  C      0.208987   -2.162127    2.351072
  C      2.199636   -2.130311    1.145478
  C      1.201047   -2.836382    0.361507
  C      1.582440   -1.718174    2.345991
  N     -1.098003   -0.132533   -0.540061
  C     -2.485924   -0.125751    0.031082
  C     -2.808313    1.171361    0.780572
  H     -3.842076    1.116757    1.130294
  H     -2.735275    2.048081    0.128808
  H     -2.168511    1.304537    1.650823
  C     -3.543973   -0.397956   -1.034330
  H     -2.498500   -0.956765    0.749937
  H     -4.491599   -0.542887   -0.520862
  H     -3.703710    0.432762   -1.731723
  H     -3.332435   -1.305867   -1.602224
  C     -0.874560    0.236411   -1.750530
  C      0.458626    0.174928   -2.262399
  H     -1.705955    0.543584   -2.372148
  C      1.534548   -0.133687   -1.439261
  C      2.694135   -0.170730   -2.347562
  S      0.759890    0.323449   -3.967357
  C      2.409671    0.004697   -3.696271
  H      2.006725    1.328418   -0.461747
  H      3.736991   -0.342695   -2.101237
  H      3.087389   -0.003690   -4.563003
  H     -0.830526   -3.538928    0.935241
  H     -0.469344   -2.116909    3.200879
  H      2.076975   -1.218104    3.173268
  O      2.062298    2.096911    0.148422
  O      0.418644    1.138977    1.379843
  C      1.153979    2.095581    1.075561
  C      0.963723    3.423517    1.811522
  H      0.884314    4.269532    1.118581
  H      1.817159    3.660288    2.457079
  H      0.075304    3.472237    2.463383
  H      3.225005   -1.945665    0.860420
  H      1.356767   -3.372128   -0.567349

 Total Charge           Charge          ....    1
 Multiplicity           Mult            ....    1
 Number of Electrons    NEL             ....  164
 Basis Dimension        Dim             ....  358

ORBITAL ENERGIES
----------------

  NO   OCC          E(Eh)            E(eV)
   0   2.0000     -89.738593     -2441.9113
   1   2.0000     -19.681206      -535.5529
   2   2.0000     -19.671865      -535.2987
   3   2.0000     -14.815555      -403.1517
   4   2.0000     -10.743840      -292.3547
   5   2.0000     -10.637483      -289.4606
   6   2.0000     -10.628060      -289.2042
   7   2.0000     -10.625483      -289.1341
   8   2.0000     -10.613795      -288.8160
   9   2.0000     -10.610312      -288.7213
  10   2.0000     -10.609905      -288.7102
  11   2.0000     -10.607464      -288.6438
  12   2.0000     -10.599537      -288.4281
  13   2.0000     -10.598242      -288.3928
  14   2.0000     -10.593893      -288.2745
  15   2.0000     -10.578716      -287.8615
  16   2.0000     -10.571334      -287.6606
  17   2.0000     -10.545791      -286.9656
  18   2.0000     -10.541915      -286.8601
  19   2.0000      -8.378034      -227.9779
  20   2.0000      -6.268011      -170.5613
  21   2.0000      -6.264620      -170.4690
  22   2.0000      -6.262719      -170.4173
  23   2.0000      -4.009499      -109.1040
  24   2.0000      -2.323718       -63.2316
  25   2.0000      -2.295913       -62.4750
  26   2.0000      -2.291739       -62.3614
  27   2.0000      -1.375541       -37.4304
  28   2.0000      -1.285388       -34.9772
  29   2.0000      -1.182666       -32.1820
  30   2.0000      -1.147331       -31.2205
  31   2.0000      -1.097410       -29.8621
  32   2.0000      -1.007176       -27.4066
  33   2.0000      -0.967162       -26.3178
  34   2.0000      -0.962726       -26.1971
  35   2.0000      -0.953414       -25.9437
  36   2.0000      -0.942105       -25.6360
  37   2.0000      -0.937800       -25.5188
  38   2.0000      -0.888249       -24.1705
  39   2.0000      -0.851048       -23.1582
  40   2.0000      -0.836826       -22.7712
  41   2.0000      -0.781283       -21.2598
  42   2.0000      -0.770270       -20.9601
  43   2.0000      -0.768583       -20.9142
  44   2.0000      -0.759903       -20.6780
  45   2.0000      -0.755205       -20.5502
  46   2.0000      -0.749518       -20.3954
  47   2.0000      -0.715410       -19.4673
  48   2.0000      -0.697820       -18.9886
  49   2.0000      -0.681063       -18.5327
  50   2.0000      -0.675812       -18.3898
  51   2.0000      -0.665285       -18.1033
  52   2.0000      -0.641905       -17.4671
  53   2.0000      -0.626910       -17.0591
  54   2.0000      -0.623452       -16.9650
  55   2.0000      -0.616714       -16.7816
  56   2.0000      -0.609922       -16.5968
  57   2.0000      -0.594735       -16.1836
  58   2.0000      -0.591213       -16.0877
  59   2.0000      -0.589615       -16.0442
  60   2.0000      -0.585169       -15.9233
  61   2.0000      -0.584281       -15.8991
  62   2.0000      -0.579795       -15.7770
  63   2.0000      -0.571189       -15.5429
  64   2.0000      -0.569680       -15.5018
  65   2.0000      -0.558822       -15.2063
  66   2.0000      -0.549312       -14.9475
  67   2.0000      -0.542552       -14.7636
  68   2.0000      -0.537233       -14.6188
  69   2.0000      -0.529146       -14.3988
  70   2.0000      -0.527896       -14.3648
  71   2.0000      -0.525436       -14.2978
  72   2.0000      -0.511068       -13.9069
  73   2.0000      -0.498656       -13.5691
  74   2.0000      -0.494714       -13.4619
  75   2.0000      -0.475713       -12.9448
  76   2.0000      -0.471153       -12.8207
  77   2.0000      -0.446813       -12.1584
  78   2.0000      -0.436018       -11.8647
  79   2.0000      -0.412705       -11.2303
  80   2.0000      -0.399095       -10.8599
  81   2.0000      -0.384502       -10.4628
  82   0.0000      -0.177710        -4.8357
  83   0.0000      -0.165332        -4.4989
  84   0.0000      -0.136149        -3.7048
  85   0.0000      -0.109840        -2.9889
  86   0.0000      -0.072630        -1.9764

MULLIKEN ATOMIC CHARGES
-----------------------
   0 Ir:    0.574013
   1 C :   -0.152308
   2 C :   -0.270228
   3 C :   -0.230272
   4 C :   -0.334667
   5 C :   -0.183445
   6 N :   -0.464077
   7 C :   -0.101522
   8 C :   -0.634652
   9 H :    0.245863
  10 H :    0.224702
  11 H :    0.255159
  12 C :   -0.687700
  13 H :    0.245683
  14 H :    0.265211
  15 H :    0.229137
  16 H :    0.250437
  17 C :    0.083588
  18 C :   -0.169744
  19 H :    0.272075
  20 C :   -0.362856
  21 C :   -0.228473
  22 S :    0.295022
  23 C :   -0.382373
  24 H :    0.542294
  25 H :    0.252573
  26 H :    0.294739
  27 H :    0.281599
  28 H :    0.278184
  29 H :    0.283860
  30 O :   -0.544897
  31 O :   -0.438567
  32 C :    0.641821
  33 C :   -0.752777
  34 H :    0.283881
  35 H :    0.286635
  36 H :    0.277512
  37 H :    0.287321
  38 H :    0.287249
Sum of atomic charges:    1.0000000

LOEWDIN ATOMIC CHARGES
----------------------
   0 Ir:   -0.270441
   1 C :   -0.014469
   2 C :   -0.106067
   3 C :   -0.081563
   4 C :   -0.096194
   5 C :   -0.028449
   6 N :   -0.038435
   7 C :   -0.055110
   8 C :   -0.352652
   9 H :    0.145502
  10 H :    0.135491
  11 H :    0.144187
  12 C :   -0.364855
  13 H :    0.139443
  14 H :    0.153103
  15 H :    0.134403
  16 H :    0.141339
  17 C :    0.028799
  18 C :   -0.229037
  19 H :    0.152869
  20 C :   -0.158359
  21 C :   -0.170299
  22 S :    0.442984
  23 C :   -0.261298
  24 H :    0.355978
  25 H :    0.152355
  26 H :    0.169097
  27 H :    0.178981
  28 H :    0.178601
  29 H :    0.181122
  30 O :   -0.216992
  31 O :   -0.117564
  32 C :    0.226080
  33 C :   -0.375655
  34 H :    0.171595
  35 H :    0.175151
  36 H :    0.163367
  37 H :    0.182986
  38 H :    0.184005

  Mayer bond orders larger than 0.100000
B(  0-Ir,  1-C ) :   0.3133 B(  0-Ir,  2-C ) :   0.3296 B(  0-Ir,  3-C ) :   0.4253
B(  0-Ir,  4-C ) :   0.5052 B(  0-Ir,  5-C ) :   0.3875 B(  0-Ir,  6-N ) :   0.5028
B(  0-Ir, 20-C ) :   0.5989 B(  0-Ir, 31-O ) :   0.4299 B(  1-C ,  2-C ) :   1.2638
B(  1-C ,  4-C ) :   1.1895 B(  1-C , 27-H ) :   0.9123 B(  2-C ,  5-C ) :   1.1537
B(  2-C , 28-H ) :   0.9170 B(  3-C ,  4-C ) :   1.1142 B(  3-C ,  5-C ) :   1.2404
B(  3-C , 37-H ) :   0.9066 B(  4-C , 38-H ) :   0.9123 B(  5-C , 29-H ) :   0.9112
B(  6-N ,  7-C ) :   0.8895 B(  6-N , 17-C ) :   1.6084 B(  7-C ,  8-C ) :   0.9765
B(  7-C , 12-C ) :   0.9888 B(  7-C , 13-H ) :   0.8944 B(  8-C ,  9-H ) :   0.9071
B(  8-C , 10-H ) :   0.9188 B(  8-C , 11-H ) :   0.9088 B( 12-C , 14-H ) :   0.9046
B( 12-C , 15-H ) :   0.9116 B( 12-C , 16-H ) :   0.9139 B( 17-C , 18-C ) :   1.1340
B( 17-C , 19-H ) :   0.8782 B( 18-C , 20-C ) :   1.3176 B( 18-C , 22-S ) :   1.1612
B( 20-C , 21-C ) :   1.3151 B( 21-C , 23-C ) :   1.5394 B( 21-C , 25-H ) :   0.9064
B( 22-S , 23-C ) :   1.2329 B( 23-C , 26-H ) :   0.8867 B( 24-H , 30-O ) :   0.5641
B( 30-O , 32-C ) :   1.3133 B( 31-O , 32-C ) :   1.5733 B( 32-C , 33-C ) :   0.9457
B( 33-C , 34-H ) :   0.8896 B( 33-C , 35-H ) :   0.8854 B( 33-C , 36-H ) :   0.9040

Dispersion correction           -0.029546696
FINAL SINGLE POINT ENERGY     -1288.398459101742
Dispersion correction            ... done

DIPOLE MOMENT
-------------
                                X             Y             Z
Electronic contribution:     40.37402     -75.24342      77.74142
Nuclear contribution   :    -40.84654      75.39954     -77.13083
                        -----------------------------------------
Total Dipole Moment    :     -0.47252       0.15613       0.61059
                        -----------------------------------------
Magnitude (a.u.)       :      0.78770
Magnitude (Debye)      :      2.00217

Rotational constants in cm-1:     0.010434     0.008243     0.007694
Rotational constants in MHz :   312.805488   247.114144   230.656905

                             ****ORCA TERMINATED NORMALLY****
TOTAL RUN TIME: 0 days 0 hours 14 minutes 54 seconds 218 msec
