                         Program Version 5.0.3 -  RELEASE  -
|  1> ! EnGrad PBEh-3c
|  2> %output
|  3> xyzfile=True
|  4> end
|  5> %scf
|  6> maxiter 250
|  7> end
|  8> %output
|  9> Print[P_Hirshfeld] = 1
| 10> end
| 11> % maxcore
| 12> 4000
| 13> *xyz 1 1
| 14> Ir   0.68480980  -0.78597988   0.52503567
| 15> C   -0.04405951  -2.89942547   1.37148628
| 16> C    0.41817620  -2.08536915   2.46871966
| 17> C    2.21587111  -2.31221983   0.93085498
| 18> C    0.99332370  -2.91008045   0.30898943
| 19> C    1.84331103  -1.74733395   2.20826027
| 20> N   -1.05323525  -0.11584975  -0.52588871
| 21> C   -2.44120367  -0.06512414   0.02651859
| 22> C   -2.85237235   1.34302260   0.59371222
| 23> H   -3.91287745   1.31206844   0.88296161
| 24> H   -2.77978338   2.15508735  -0.15428081
| 25> H   -2.27076582   1.62216811   1.49177695
| 26> C   -3.47086626  -0.51823026  -1.05146469
| 27> H   -2.44509889  -0.80078207   0.86854653
| 28> H   -4.42610607  -0.63940048  -0.54435642
| 29> H   -3.66601018   0.21690715  -1.86067923
| 30> H   -3.19567316  -1.48489383  -1.51030243
| 31> C   -0.84539504   0.24396022  -1.72988284
| 32> C    0.47626675   0.18969904  -2.23194650
| 33> H   -1.67069446   0.55973228  -2.38187090
| 34> C    1.59867680  -0.03759771  -1.45476471
| 35> C    2.72600625  -0.09395208  -2.36794180
| 36> S    0.72153991   0.23952671  -3.91819766
| 37> C    2.37972734  -0.01978260  -3.70570939
| 38> H    1.81085608   1.25834493  -0.18284829
| 39> H    3.79275438  -0.18563273  -2.17491773
| 40> H    2.98972909  -0.05997284  -4.62053064
| 41> H   -1.05697733  -3.40686606   1.29631610
| 42> H   -0.15801235  -1.91124859   3.42931865
| 43> H    2.54368181  -1.23917645   2.95270515
| 44> O    1.97055756   2.07384478   0.29349151
| 45> O    0.42233885   1.08676991   1.45479205
| 46> C    1.08680818   2.07164759   1.22613042
| 47> C    0.89322624   3.36353981   1.94938583
| 48> H    0.86579090   4.18763762   1.24486253
| 49> H    1.71630175   3.57547915   2.61976988
| 50> H   -0.00473208   3.41942567   2.53343502
| 51> H    3.21829213  -2.18248473   0.43743351
| 52> H    0.91842556  -3.42202210  -0.69418287
| 53> *
| 54>
| 55>                          ****END OF INPUT****

CARTESIAN COORDINATES (ANGSTROEM)
---------------------------------
  Ir     0.684810   -0.785980    0.525036
  C     -0.044060   -2.899425    1.371486
  C      0.418176   -2.085369    2.468720
  C      2.215871   -2.312220    0.930855
  C      0.993324   -2.910080    0.308989
  C      1.843311   -1.747334    2.208260
  N     -1.053235   -0.115850   -0.525889
  C     -2.441204   -0.065124    0.026519
  C     -2.852372    1.343023    0.593712
  H     -3.912877    1.312068    0.882962
  H     -2.779783    2.155087   -0.154281
  H     -2.270766    1.622168    1.491777
  C     -3.470866   -0.518230   -1.051465
  H     -2.445099   -0.800782    0.868547
  H     -4.426106   -0.639400   -0.544356
  H     -3.666010    0.216907   -1.860679
  H     -3.195673   -1.484894   -1.510302
  C     -0.845395    0.243960   -1.729883
  C      0.476267    0.189699   -2.231946
  H     -1.670694    0.559732   -2.381871
  C      1.598677   -0.037598   -1.454765
  C      2.726006   -0.093952   -2.367942
  S      0.721540    0.239527   -3.918198
  C      2.379727   -0.019783   -3.705709
  H      1.810856    1.258345   -0.182848
  H      3.792754   -0.185633   -2.174918
  H      2.989729   -0.059973   -4.620531
  H     -1.056977   -3.406866    1.296316
  H     -0.158012   -1.911249    3.429319
  H      2.543682   -1.239176    2.952705
  O      1.970558    2.073845    0.293492
  O      0.422339    1.086770    1.454792
  C      1.086808    2.071648    1.226130
  C      0.893226    3.363540    1.949386
  H      0.865791    4.187638    1.244863
  H      1.716302    3.575479    2.619770
  H     -0.004732    3.419426    2.533435
  H      3.218292   -2.182485    0.437434
  H      0.918426   -3.422022   -0.694183

 Total Charge           Charge          ....    1
 Multiplicity           Mult            ....    1
 Number of Electrons    NEL             ....  164
 Basis Dimension        Dim             ....  358

ORBITAL ENERGIES
----------------

  NO   OCC          E(Eh)            E(eV)
   0   2.0000     -89.732838     -2441.7547
   1   2.0000     -19.669141      -535.2245
   2   2.0000     -19.666335      -535.1482
   3   2.0000     -14.814394      -403.1202
   4   2.0000     -10.731194      -292.0106
   5   2.0000     -10.645281      -289.6728
   6   2.0000     -10.636939      -289.4458
   7   2.0000     -10.635785      -289.4144
   8   2.0000     -10.633086      -289.3410
   9   2.0000     -10.632901      -289.3359
  10   2.0000     -10.623817      -289.0888
  11   2.0000     -10.617524      -288.9175
  12   2.0000     -10.594347      -288.2868
  13   2.0000     -10.591198      -288.2011
  14   2.0000     -10.590380      -288.1789
  15   2.0000     -10.573903      -287.7305
  16   2.0000     -10.564326      -287.4699
  17   2.0000     -10.551276      -287.1148
  18   2.0000     -10.550462      -287.0927
  19   2.0000      -8.373423      -227.8524
  20   2.0000      -6.263295      -170.4329
  21   2.0000      -6.259870      -170.3397
  22   2.0000      -6.258250      -170.2957
  23   2.0000      -4.011225      -109.1510
  24   2.0000      -2.324844       -63.2622
  25   2.0000      -2.297204       -62.5101
  26   2.0000      -2.293587       -62.4117
  27   2.0000      -1.396566       -38.0025
  28   2.0000      -1.289860       -35.0989
  29   2.0000      -1.187281       -32.3076
  30   2.0000      -1.126700       -30.6591
  31   2.0000      -1.102432       -29.9987
  32   2.0000      -0.999535       -27.1987
  33   2.0000      -0.979226       -26.6461
  34   2.0000      -0.954729       -25.9795
  35   2.0000      -0.942473       -25.6460
  36   2.0000      -0.941315       -25.6145
  37   2.0000      -0.935303       -25.4509
  38   2.0000      -0.882683       -24.0190
  39   2.0000      -0.851076       -23.1590
  40   2.0000      -0.827049       -22.5051
  41   2.0000      -0.782602       -21.2957
  42   2.0000      -0.768264       -20.9055
  43   2.0000      -0.759540       -20.6681
  44   2.0000      -0.757311       -20.6075
  45   2.0000      -0.753522       -20.5044
  46   2.0000      -0.734532       -19.9876
  47   2.0000      -0.715074       -19.4582
  48   2.0000      -0.705609       -19.2006
  49   2.0000      -0.688703       -18.7406
  50   2.0000      -0.672710       -18.3054
  51   2.0000      -0.662078       -18.0160
  52   2.0000      -0.635811       -17.3013
  53   2.0000      -0.623110       -16.9557
  54   2.0000      -0.616440       -16.7742
  55   2.0000      -0.610890       -16.6232
  56   2.0000      -0.607254       -16.5242
  57   2.0000      -0.598552       -16.2874
  58   2.0000      -0.590720       -16.0743
  59   2.0000      -0.587014       -15.9735
  60   2.0000      -0.585140       -15.9225
  61   2.0000      -0.582886       -15.8611
  62   2.0000      -0.577072       -15.7029
  63   2.0000      -0.576456       -15.6862
  64   2.0000      -0.570371       -15.5206
  65   2.0000      -0.559378       -15.2214
  66   2.0000      -0.548548       -14.9268
  67   2.0000      -0.540641       -14.7116
  68   2.0000      -0.535698       -14.5771
  69   2.0000      -0.528301       -14.3758
  70   2.0000      -0.527040       -14.3415
  71   2.0000      -0.521420       -14.1886
  72   2.0000      -0.511032       -13.9059
  73   2.0000      -0.495370       -13.4797
  74   2.0000      -0.489383       -13.3168
  75   2.0000      -0.470649       -12.8070
  76   2.0000      -0.469701       -12.7812
  77   2.0000      -0.448319       -12.1994
  78   2.0000      -0.434429       -11.8214
  79   2.0000      -0.415077       -11.2948
  80   2.0000      -0.398811       -10.8522
  81   2.0000      -0.384821       -10.4715
  82   0.0000      -0.174901        -4.7593
  83   0.0000      -0.168988        -4.5984
  84   0.0000      -0.142542        -3.8788
  85   0.0000      -0.098285        -2.6745
  86   0.0000      -0.074118        -2.0169

MULLIKEN ATOMIC CHARGES
-----------------------
   0 Ir:    0.541170
   1 C :   -0.140713
   2 C :   -0.259241
   3 C :   -0.184135
   4 C :   -0.360701
   5 C :   -0.237986
   6 N :   -0.456751
   7 C :   -0.105113
   8 C :   -0.638845
   9 H :    0.248544
  10 H :    0.226777
  11 H :    0.245640
  12 C :   -0.681715
  13 H :    0.242326
  14 H :    0.263026
  15 H :    0.229151
  16 H :    0.247700
  17 C :    0.086467
  18 C :   -0.174039
  19 H :    0.272874
  20 C :   -0.301045
  21 C :   -0.249503
  22 S :    0.291625
  23 C :   -0.384842
  24 H :    0.545396
  25 H :    0.251235
  26 H :    0.293538
  27 H :    0.285611
  28 H :    0.286698
  29 H :    0.287808
  30 O :   -0.536783
  31 O :   -0.431359
  32 C :    0.612566
  33 C :   -0.762622
  34 H :    0.286353
  35 H :    0.291022
  36 H :    0.280193
  37 H :    0.296245
  38 H :    0.293423
Sum of atomic charges:    1.0000000

LOEWDIN ATOMIC CHARGES
----------------------
   0 Ir:   -0.296217
   1 C :   -0.015457
   2 C :   -0.086642
   3 C :   -0.043821
   4 C :   -0.106172
   5 C :   -0.063789
   6 N :   -0.041406
   7 C :   -0.051592
   8 C :   -0.357520
   9 H :    0.146196
  10 H :    0.135632
  11 H :    0.140654
  12 C :   -0.365697
  13 H :    0.139450
  14 H :    0.150372
  15 H :    0.134618
  16 H :    0.140879
  17 C :    0.027283
  18 C :   -0.240930
  19 H :    0.154822
  20 C :   -0.149700
  21 C :   -0.164607
  22 S :    0.453761
  23 C :   -0.264950
  24 H :    0.338312
  25 H :    0.154388
  26 H :    0.167149
  27 H :    0.185309
  28 H :    0.186722
  29 H :    0.189894
  30 O :   -0.209670
  31 O :   -0.100817
  32 C :    0.188080
  33 C :   -0.373685
  34 H :    0.174178
  35 H :    0.178369
  36 H :    0.162634
  37 H :    0.192293
  38 H :    0.191675

  Mayer bond orders larger than 0.100000
B(  0-Ir,  1-C ) :   0.2835 B(  0-Ir,  2-C ) :   0.3382 B(  0-Ir,  3-C ) :   0.4095
B(  0-Ir,  4-C ) :   0.5341 B(  0-Ir,  5-C ) :   0.4411 B(  0-Ir,  6-N ) :   0.4921
B(  0-Ir, 20-C ) :   0.5790 B(  0-Ir, 31-O ) :   0.4132 B(  1-C ,  2-C ) :   1.2983
B(  1-C ,  4-C ) :   1.1420 B(  1-C , 27-H ) :   0.9042 B(  2-C ,  5-C ) :   1.0972
B(  2-C , 28-H ) :   0.9089 B(  3-C ,  4-C ) :   1.1090 B(  3-C ,  5-C ) :   1.2305
B(  3-C , 37-H ) :   0.8958 B(  4-C , 38-H ) :   0.9037 B(  5-C , 29-H ) :   0.9067
B(  6-N ,  7-C ) :   0.8954 B(  6-N , 17-C ) :   1.6110 B(  7-C ,  8-C ) :   0.9630
B(  7-C , 12-C ) :   0.9766 B(  7-C , 13-H ) :   0.8995 B(  8-C ,  9-H ) :   0.9068
B(  8-C , 10-H ) :   0.9181 B(  8-C , 11-H ) :   0.9145 B( 12-C , 14-H ) :   0.9060
B( 12-C , 15-H ) :   0.9120 B( 12-C , 16-H ) :   0.9148 B( 17-C , 18-C ) :   1.1307
B( 17-C , 19-H ) :   0.8762 B( 18-C , 20-C ) :   1.3196 B( 18-C , 22-S ) :   1.1647
B( 20-C , 21-C ) :   1.3614 B( 21-C , 23-C ) :   1.5268 B( 21-C , 25-H ) :   0.9088
B( 22-S , 23-C ) :   1.2433 B( 23-C , 26-H ) :   0.8859 B( 24-H , 30-O ) :   0.5437
B( 30-O , 32-C ) :   1.3373 B( 31-O , 32-C ) :   1.5967 B( 32-C , 33-C ) :   0.9546
B( 33-C , 34-H ) :   0.8899 B( 33-C , 35-H ) :   0.8846 B( 33-C , 36-H ) :   0.9027

Dispersion correction           -0.029408740
FINAL SINGLE POINT ENERGY     -1288.365909705024
Dispersion correction            ... done

DIPOLE MOMENT
-------------
                                X             Y             Z
Electronic contribution:     44.40750     -76.08074      80.61056
Nuclear contribution   :    -45.02081      76.16752     -79.88106
                        -----------------------------------------
Total Dipole Moment    :     -0.61331       0.08678       0.72950
                        -----------------------------------------
Magnitude (a.u.)       :      0.95699
Magnitude (Debye)      :      2.43249

Rotational constants in cm-1:     0.010342     0.008265     0.007660
Rotational constants in MHz :   310.033712   247.780740   229.638454

                             ****ORCA TERMINATED NORMALLY****
TOTAL RUN TIME: 0 days 0 hours 11 minutes 49 seconds 182 msec
