                         Program Version 5.0.3 -  RELEASE  -
|  1> ! EnGrad PBEh-3c
|  2> %output
|  3> xyzfile=True
|  4> end
|  5> %scf
|  6> maxiter 250
|  7> end
|  8> %output
|  9> Print[P_Hirshfeld] = 1
| 10> end
| 11> % maxcore
| 12> 4000
| 13> *xyz 1 1
| 14> Ir   0.65268314  -0.77398426   0.49570282
| 15> C    0.01029919  -2.91755218   1.22839168
| 16> C    0.26516832  -2.14151266   2.38266785
| 17> C    2.20399619  -2.17916506   1.08783762
| 18> C    1.14525970  -2.85617478   0.34740237
| 19> C    1.65250118  -1.72600558   2.30900132
| 20> N   -1.08597998  -0.12805271  -0.53625478
| 21> C   -2.47391379  -0.10946847   0.02985612
| 22> C   -2.82014598   1.21746342   0.73038763
| 23> H   -3.86109101   1.16921052   1.06386938
| 24> H   -2.74722876   2.07681952   0.05278052
| 25> H   -2.19597300   1.38984132   1.60810896
| 26> C   -3.52433890  -0.43025783  -1.03893208
| 27> H   -2.48415814  -0.91487314   0.78179125
| 28> H   -4.47400960  -0.56880747  -0.52717172
| 29> H   -3.69358479   0.37479055  -1.76635633
| 30> H   -3.29570565  -1.35394754  -1.57753737
| 31> C   -0.86672747   0.23843823  -1.74498459
| 32> C    0.46336338   0.17889491  -2.25422068
| 33> H   -1.69648560   0.54792065  -2.37475937
| 34> C    1.55177097  -0.10788041  -1.44342475
| 35> C    2.70269462  -0.15011036  -2.35303529
| 36> S    0.74959054   0.30091075  -3.95415426
| 37> C    2.40162905  -0.00187708  -3.69880581
| 38> H    1.95412153   1.30959869  -0.38684454
| 39> H    3.75196737  -0.30051346  -2.12102486
| 40> H    3.06116118  -0.01880543  -4.57845306
| 41> H   -0.89134266  -3.50346078   1.03221336
| 42> H   -0.38573081  -2.06167553   3.26222979
| 43> H    2.20231658  -1.22376333   3.11403261
| 44> O    2.03765999   2.09071592   0.18738236
| 45> O    0.41963625   1.12495593   1.39997191
| 46> C    1.13593899   2.08915299   1.11599907
| 47> C    0.94478972   3.40740906   1.84854753
| 48> H    0.87933959   4.24753791   1.15249615
| 49> H    1.79007222   3.63751119   2.50077234
| 50> H    0.05380883   3.45805392   2.48219663
| 51> H    3.22320190  -2.00926651   0.74682038
| 52> H    1.23904349  -3.38552750  -0.60141213
| 53> *
| 54>
| 55>                          ****END OF INPUT****

CARTESIAN COORDINATES (ANGSTROEM)
---------------------------------
  Ir     0.652683   -0.773984    0.495703
  C      0.010299   -2.917552    1.228392
  C      0.265168   -2.141513    2.382668
  C      2.203996   -2.179165    1.087838
  C      1.145260   -2.856175    0.347402
  C      1.652501   -1.726006    2.309001
  N     -1.085980   -0.128053   -0.536255
  C     -2.473914   -0.109468    0.029856
  C     -2.820146    1.217463    0.730388
  H     -3.861091    1.169211    1.063869
  H     -2.747229    2.076820    0.052781
  H     -2.195973    1.389841    1.608109
  C     -3.524339   -0.430258   -1.038932
  H     -2.484158   -0.914873    0.781791
  H     -4.474010   -0.568807   -0.527172
  H     -3.693585    0.374791   -1.766356
  H     -3.295706   -1.353948   -1.577537
  C     -0.866727    0.238438   -1.744985
  C      0.463363    0.178895   -2.254221
  H     -1.696486    0.547921   -2.374759
  C      1.551771   -0.107880   -1.443425
  C      2.702695   -0.150110   -2.353035
  S      0.749591    0.300911   -3.954154
  C      2.401629   -0.001877   -3.698806
  H      1.954122    1.309599   -0.386845
  H      3.751967   -0.300513   -2.121025
  H      3.061161   -0.018805   -4.578453
  H     -0.891343   -3.503461    1.032213
  H     -0.385731   -2.061676    3.262230
  H      2.202317   -1.223763    3.114033
  O      2.037660    2.090716    0.187382
  O      0.419636    1.124956    1.399972
  C      1.135939    2.089153    1.115999
  C      0.944790    3.407409    1.848548
  H      0.879340    4.247538    1.152496
  H      1.790072    3.637511    2.500772
  H      0.053809    3.458054    2.482197
  H      3.223202   -2.009267    0.746820
  H      1.239043   -3.385527   -0.601412

 Total Charge           Charge          ....    1
 Multiplicity           Mult            ....    1
 Number of Electrons    NEL             ....  164
 Basis Dimension        Dim             ....  358

ORBITAL ENERGIES
----------------

  NO   OCC          E(Eh)            E(eV)
   0   2.0000     -89.737017     -2441.8684
   1   2.0000     -19.677765      -535.4592
   2   2.0000     -19.670279      -535.2555
   3   2.0000     -14.815525      -403.1509
   4   2.0000     -10.740177      -292.2551
   5   2.0000     -10.637596      -289.4637
   6   2.0000     -10.631204      -289.2898
   7   2.0000     -10.626953      -289.1741
   8   2.0000     -10.617406      -288.9143
   9   2.0000     -10.614654      -288.8394
  10   2.0000     -10.611763      -288.7608
  11   2.0000     -10.609797      -288.7072
  12   2.0000     -10.597838      -288.3818
  13   2.0000     -10.596442      -288.3438
  14   2.0000     -10.592627      -288.2400
  15   2.0000     -10.577182      -287.8197
  16   2.0000     -10.569245      -287.6038
  17   2.0000     -10.546820      -286.9936
  18   2.0000     -10.543634      -286.9069
  19   2.0000      -8.376785      -227.9439
  20   2.0000      -6.266733      -170.5265
  21   2.0000      -6.263330      -170.4339
  22   2.0000      -6.261513      -170.3844
  23   2.0000      -4.010021      -109.1182
  24   2.0000      -2.324291       -63.2472
  25   2.0000      -2.296251       -62.4842
  26   2.0000      -2.292274       -62.3759
  27   2.0000      -1.381033       -37.5798
  28   2.0000      -1.287165       -35.0255
  29   2.0000      -1.184209       -32.2240
  30   2.0000      -1.145360       -31.1668
  31   2.0000      -1.099034       -29.9062
  32   2.0000      -1.005867       -27.3710
  33   2.0000      -0.970289       -26.4029
  34   2.0000      -0.962488       -26.1906
  35   2.0000      -0.951904       -25.9026
  36   2.0000      -0.942249       -25.6399
  37   2.0000      -0.937747       -25.5174
  38   2.0000      -0.887349       -24.1460
  39   2.0000      -0.851417       -23.1682
  40   2.0000      -0.834922       -22.7194
  41   2.0000      -0.781940       -21.2777
  42   2.0000      -0.770405       -20.9638
  43   2.0000      -0.766868       -20.8676
  44   2.0000      -0.759954       -20.6794
  45   2.0000      -0.755456       -20.5570
  46   2.0000      -0.747675       -20.3453
  47   2.0000      -0.715587       -19.4721
  48   2.0000      -0.699907       -19.0454
  49   2.0000      -0.682588       -18.5742
  50   2.0000      -0.675837       -18.3905
  51   2.0000      -0.664910       -18.0931
  52   2.0000      -0.640807       -17.4372
  53   2.0000      -0.626654       -17.0521
  54   2.0000      -0.622192       -16.9307
  55   2.0000      -0.616152       -16.7664
  56   2.0000      -0.609959       -16.5978
  57   2.0000      -0.596393       -16.2287
  58   2.0000      -0.590909       -16.0794
  59   2.0000      -0.589299       -16.0356
  60   2.0000      -0.586099       -15.9486
  61   2.0000      -0.585776       -15.9398
  62   2.0000      -0.579376       -15.7656
  63   2.0000      -0.572735       -15.5849
  64   2.0000      -0.570228       -15.5167
  65   2.0000      -0.559382       -15.2216
  66   2.0000      -0.549375       -14.9493
  67   2.0000      -0.542299       -14.7567
  68   2.0000      -0.537184       -14.6175
  69   2.0000      -0.528982       -14.3943
  70   2.0000      -0.528076       -14.3697
  71   2.0000      -0.524488       -14.2720
  72   2.0000      -0.511274       -13.9125
  73   2.0000      -0.498286       -13.5590
  74   2.0000      -0.493592       -13.4313
  75   2.0000      -0.474528       -12.9126
  76   2.0000      -0.471386       -12.8271
  77   2.0000      -0.447388       -12.1740
  78   2.0000      -0.435982       -11.8637
  79   2.0000      -0.413628       -11.2554
  80   2.0000      -0.399101       -10.8601
  81   2.0000      -0.384837       -10.4719
  82   0.0000      -0.177103        -4.8192
  83   0.0000      -0.165913        -4.5147
  84   0.0000      -0.138041        -3.7563
  85   0.0000      -0.106397        -2.8952
  86   0.0000      -0.071547        -1.9469

MULLIKEN ATOMIC CHARGES
-----------------------
   0 Ir:    0.566315
   1 C :   -0.146385
   2 C :   -0.267228
   3 C :   -0.216363
   4 C :   -0.344559
   5 C :   -0.198473
   6 N :   -0.462353
   7 C :   -0.102833
   8 C :   -0.635845
   9 H :    0.246458
  10 H :    0.225300
  11 H :    0.253190
  12 C :   -0.686500
  13 H :    0.245026
  14 H :    0.264643
  15 H :    0.229427
  16 H :    0.250123
  17 C :    0.084881
  18 C :   -0.170048
  19 H :    0.272279
  20 C :   -0.353768
  21 C :   -0.230202
  22 S :    0.294471
  23 C :   -0.383334
  24 H :    0.544050
  25 H :    0.251874
  26 H :    0.294367
  27 H :    0.282620
  28 H :    0.280244
  29 H :    0.284904
  30 O :   -0.543163
  31 O :   -0.436050
  32 C :    0.632803
  33 C :   -0.755440
  34 H :    0.284518
  35 H :    0.287758
  36 H :    0.278283
  37 H :    0.290139
  38 H :    0.288868
Sum of atomic charges:    1.0000000

LOEWDIN ATOMIC CHARGES
----------------------
   0 Ir:   -0.273836
   1 C :   -0.013229
   2 C :   -0.101086
   3 C :   -0.071091
   4 C :   -0.100265
   5 C :   -0.037469
   6 N :   -0.038864
   7 C :   -0.054547
   8 C :   -0.353802
   9 H :    0.145769
  10 H :    0.135478
  11 H :    0.143283
  12 C :   -0.364961
  13 H :    0.139390
  14 H :    0.152480
  15 H :    0.134389
  16 H :    0.141242
  17 C :    0.028670
  18 C :   -0.231731
  19 H :    0.153431
  20 C :   -0.158965
  21 C :   -0.167541
  22 S :    0.446259
  23 C :   -0.262362
  24 H :    0.350118
  25 H :    0.152767
  26 H :    0.168488
  27 H :    0.179975
  28 H :    0.180237
  29 H :    0.182999
  30 O :   -0.214623
  31 O :   -0.112601
  32 C :    0.215650
  33 C :   -0.375236
  34 H :    0.172188
  35 H :    0.175952
  36 H :    0.163132
  37 H :    0.185020
  38 H :    0.185294

  Mayer bond orders larger than 0.100000
B(  0-Ir,  1-C ) :   0.3021 B(  0-Ir,  2-C ) :   0.3326 B(  0-Ir,  3-C ) :   0.4201
B(  0-Ir,  4-C ) :   0.5146 B(  0-Ir,  5-C ) :   0.4035 B(  0-Ir,  6-N ) :   0.5009
B(  0-Ir, 20-C ) :   0.5904 B(  0-Ir, 31-O ) :   0.4247 B(  1-C ,  2-C ) :   1.2766
B(  1-C ,  4-C ) :   1.1783 B(  1-C , 27-H ) :   0.9106 B(  2-C ,  5-C ) :   1.1367
B(  2-C , 28-H ) :   0.9154 B(  3-C ,  4-C ) :   1.1134 B(  3-C ,  5-C ) :   1.2417
B(  3-C , 37-H ) :   0.9038 B(  4-C , 38-H ) :   0.9105 B(  5-C , 29-H ) :   0.9106
B(  6-N ,  7-C ) :   0.8910 B(  6-N , 17-C ) :   1.6088 B(  7-C ,  8-C ) :   0.9737
B(  7-C , 12-C ) :   0.9865 B(  7-C , 13-H ) :   0.8957 B(  8-C ,  9-H ) :   0.9071
B(  8-C , 10-H ) :   0.9187 B(  8-C , 11-H ) :   0.9102 B( 12-C , 14-H ) :   0.9050
B( 12-C , 15-H ) :   0.9115 B( 12-C , 16-H ) :   0.9140 B( 17-C , 18-C ) :   1.1328
B( 17-C , 19-H ) :   0.8776 B( 18-C , 20-C ) :   1.3177 B( 18-C , 22-S ) :   1.1631
B( 20-C , 21-C ) :   1.3265 B( 21-C , 23-C ) :   1.5379 B( 21-C , 25-H ) :   0.9072
B( 22-S , 23-C ) :   1.2350 B( 23-C , 26-H ) :   0.8866 B( 24-H , 30-O ) :   0.5586
B( 30-O , 32-C ) :   1.3198 B( 31-O , 32-C ) :   1.5814 B( 32-C , 33-C ) :   0.9480
B( 33-C , 34-H ) :   0.8897 B( 33-C , 35-H ) :   0.8853 B( 33-C , 36-H ) :   0.9037

Dispersion correction           -0.029525734
FINAL SINGLE POINT ENERGY     -1288.397313939456
Dispersion correction            ... done

DIPOLE MOMENT
-------------
                                X             Y             Z
Electronic contribution:     41.45255     -75.47391      78.51439
Nuclear contribution   :    -41.96761      75.60580     -77.86945
                        -----------------------------------------
Total Dipole Moment    :     -0.51506       0.13188       0.64494
                        -----------------------------------------
Magnitude (a.u.)       :      0.83584
Magnitude (Debye)      :      2.12454

Rotational constants in cm-1:     0.010413     0.008253     0.007691
Rotational constants in MHz :   312.175839   247.417592   230.580664

                             ****ORCA TERMINATED NORMALLY****
TOTAL RUN TIME: 0 days 0 hours 14 minutes 52 seconds 549 msec
