                         Program Version 5.0.3 -  RELEASE  -
|  1> ! EnGrad PBEh-3c
|  2> %output
|  3> xyzfile=True
|  4> end
|  5> %scf
|  6> maxiter 250
|  7> end
|  8> %output
|  9> Print[P_Hirshfeld] = 1
| 10> end
| 11> % maxcore
| 12> 4000
| 13> *xyz 1 1
| 14> Ir   0.58316880  -0.77790238   0.49735400
| 15> C    0.11998588  -2.92044297   0.97463019
| 16> C    0.02613871  -2.26487708   2.21961285
| 17> C    2.15299740  -1.94433714   1.35444741
| 18> C    1.39135628  -2.77750094   0.42939942
| 19> C    1.34686870  -1.68341328   2.43666435
| 20> N   -1.13461180  -0.15425335  -0.53509985
| 21> C   -2.52045122  -0.18928384   0.03761778
| 22> C   -2.74946582   0.99566182   0.94749322
| 23> H   -3.76622513   0.92271599   1.37017459
| 24> H   -2.68651651   1.92583037   0.40802798
| 25> H   -2.06901408   1.00717844   1.78696432
| 26> C   -3.60094613  -0.28022491  -1.01915606
| 27> H   -2.55083480  -1.07523044   0.61070200
| 28> H   -4.56635942  -0.45443837  -0.49390095
| 29> H   -3.72892206   0.62572842  -1.58906739
| 30> H   -3.46758673  -1.12321337  -1.68035416
| 31> C   -0.92081657   0.21865601  -1.75464626
| 32> C    0.41944579   0.17477756  -2.31617856
| 33> H   -1.73022013   0.53249361  -2.36526832
| 34> C    1.47007113  -0.20521327  -1.46052053
| 35> C    2.68256369  -0.26454085  -2.34883995
| 36> S    0.80292647   0.39539281  -3.98286110
| 37> C    2.44048137   0.04042335  -3.67298481
| 38> H    2.19088344   1.34393016  -0.74383493
| 39> H    3.67302192  -0.49761882  -2.00496053
| 40> H    3.17354741   0.05056024  -4.46279068
| 41> H   -0.60708120  -3.62525947   0.59083980
| 42> H   -0.72955130  -2.30914801   2.94015133
| 43> H    1.61194524  -1.19745195   3.34172520
| 44> O    2.13474414   2.11449614   0.00573639
| 45> O    0.42945437   1.19094880   1.29627284
| 46> C    1.20936907   2.17258250   0.94797718
| 47> C    1.00706220   3.52482769   1.71894737
| 48> H    0.90840593   4.32313842   0.99296586
| 49> H    1.91644247   3.72698385   2.28862313
| 50> H    0.16789530   3.49806621   2.37803736
| 51> H    3.19806073  -1.72704824   1.26289330
| 52> H    1.77097228  -3.31512927  -0.40632222
| 53> *
| 54>
| 55>                          ****END OF INPUT****

CARTESIAN COORDINATES (ANGSTROEM)
---------------------------------
  Ir     0.583169   -0.777902    0.497354
  C      0.119986   -2.920443    0.974630
  C      0.026139   -2.264877    2.219613
  C      2.152997   -1.944337    1.354447
  C      1.391356   -2.777501    0.429399
  C      1.346869   -1.683413    2.436664
  N     -1.134612   -0.154253   -0.535100
  C     -2.520451   -0.189284    0.037618
  C     -2.749466    0.995662    0.947493
  H     -3.766225    0.922716    1.370175
  H     -2.686517    1.925830    0.408028
  H     -2.069014    1.007178    1.786964
  C     -3.600946   -0.280225   -1.019156
  H     -2.550835   -1.075230    0.610702
  H     -4.566359   -0.454438   -0.493901
  H     -3.728922    0.625728   -1.589067
  H     -3.467587   -1.123213   -1.680354
  C     -0.920817    0.218656   -1.754646
  C      0.419446    0.174778   -2.316179
  H     -1.730220    0.532494   -2.365268
  C      1.470071   -0.205213   -1.460521
  C      2.682564   -0.264541   -2.348840
  S      0.802926    0.395393   -3.982861
  C      2.440481    0.040423   -3.672985
  H      2.190883    1.343930   -0.743835
  H      3.673022   -0.497619   -2.004961
  H      3.173547    0.050560   -4.462791
  H     -0.607081   -3.625259    0.590840
  H     -0.729551   -2.309148    2.940151
  H      1.611945   -1.197452    3.341725
  O      2.134744    2.114496    0.005736
  O      0.429454    1.190949    1.296273
  C      1.209369    2.172582    0.947977
  C      1.007062    3.524828    1.718947
  H      0.908406    4.323138    0.992966
  H      1.916442    3.726984    2.288623
  H      0.167895    3.498066    2.378037
  H      3.198061   -1.727048    1.262893
  H      1.770972   -3.315129   -0.406322

 Total Charge           Charge          ....    1
 Multiplicity           Mult            ....    1
 Number of Electrons    NEL             ....  164
 Basis Dimension        Dim             ....  358

ORBITAL ENERGIES
----------------

  NO   OCC          E(Eh)            E(eV)
   0   2.0000     -89.744349     -2442.0679
   1   2.0000     -19.683027      -535.6024
   2   2.0000     -19.666684      -535.1577
   3   2.0000     -14.816011      -403.1642
   4   2.0000     -10.753023      -292.6046
   5   2.0000     -10.638441      -289.4867
   6   2.0000     -10.617926      -288.9285
   7   2.0000     -10.615945      -288.8745
   8   2.0000     -10.606765      -288.6248
   9   2.0000     -10.604451      -288.5618
  10   2.0000     -10.602554      -288.5102
  11   2.0000     -10.601836      -288.4906
  12   2.0000     -10.600565      -288.4560
  13   2.0000     -10.597393      -288.3697
  14   2.0000     -10.596881      -288.3558
  15   2.0000     -10.582109      -287.9538
  16   2.0000     -10.575370      -287.7704
  17   2.0000     -10.542788      -286.8838
  18   2.0000     -10.535813      -286.6940
  19   2.0000      -8.383526      -228.1273
  20   2.0000      -6.273555      -170.7121
  21   2.0000      -6.270155      -170.6196
  22   2.0000      -6.268169      -170.5655
  23   2.0000      -4.009152      -109.0946
  24   2.0000      -2.323845       -63.2350
  25   2.0000      -2.295836       -62.4729
  26   2.0000      -2.290686       -62.3327
  27   2.0000      -1.339209       -36.4417
  28   2.0000      -1.254480       -34.1361
  29   2.0000      -1.179098       -32.0849
  30   2.0000      -1.152124       -31.3509
  31   2.0000      -1.098226       -29.8842
  32   2.0000      -1.009894       -27.4806
  33   2.0000      -0.969179       -26.3727
  34   2.0000      -0.961778       -26.1713
  35   2.0000      -0.952595       -25.9214
  36   2.0000      -0.943959       -25.6864
  37   2.0000      -0.936088       -25.4722
  38   2.0000      -0.890290       -24.2260
  39   2.0000      -0.851662       -23.1749
  40   2.0000      -0.829117       -22.5614
  41   2.0000      -0.782610       -21.2959
  42   2.0000      -0.772299       -21.0153
  43   2.0000      -0.767941       -20.8967
  44   2.0000      -0.761272       -20.7153
  45   2.0000      -0.755457       -20.5570
  46   2.0000      -0.742771       -20.2118
  47   2.0000      -0.714777       -19.4501
  48   2.0000      -0.685780       -18.6610
  49   2.0000      -0.675938       -18.3932
  50   2.0000      -0.668746       -18.1975
  51   2.0000      -0.658848       -17.9282
  52   2.0000      -0.648034       -17.6339
  53   2.0000      -0.630723       -17.1628
  54   2.0000      -0.630325       -17.1520
  55   2.0000      -0.620167       -16.8756
  56   2.0000      -0.609562       -16.5870
  57   2.0000      -0.600910       -16.3516
  58   2.0000      -0.592803       -16.1310
  59   2.0000      -0.590583       -16.0706
  60   2.0000      -0.583641       -15.8817
  61   2.0000      -0.582504       -15.8507
  62   2.0000      -0.575201       -15.6520
  63   2.0000      -0.571116       -15.5409
  64   2.0000      -0.564156       -15.3515
  65   2.0000      -0.554968       -15.1015
  66   2.0000      -0.542028       -14.7493
  67   2.0000      -0.536455       -14.5977
  68   2.0000      -0.534217       -14.5368
  69   2.0000      -0.531045       -14.4505
  70   2.0000      -0.527473       -14.3533
  71   2.0000      -0.525038       -14.2870
  72   2.0000      -0.509196       -13.8559
  73   2.0000      -0.499398       -13.5893
  74   2.0000      -0.492314       -13.3965
  75   2.0000      -0.477471       -12.9926
  76   2.0000      -0.469735       -12.7821
  77   2.0000      -0.443535       -12.0692
  78   2.0000      -0.437697       -11.9103
  79   2.0000      -0.407413       -11.0863
  80   2.0000      -0.402675       -10.9574
  81   2.0000      -0.384543       -10.4640
  82   0.0000      -0.175867        -4.7856
  83   0.0000      -0.155194        -4.2231
  84   0.0000      -0.132110        -3.5949
  85   0.0000      -0.120322        -3.2741
  86   0.0000      -0.075298        -2.0490

MULLIKEN ATOMIC CHARGES
-----------------------
   0 Ir:    0.598252
   1 C :   -0.228863
   2 C :   -0.250520
   3 C :   -0.282993
   4 C :   -0.248556
   5 C :   -0.153278
   6 N :   -0.471265
   7 C :   -0.094954
   8 C :   -0.639212
   9 H :    0.240702
  10 H :    0.227387
  11 H :    0.262878
  12 C :   -0.697476
  13 H :    0.255343
  14 H :    0.261153
  15 H :    0.233344
  16 H :    0.252535
  17 C :    0.085062
  18 C :   -0.182231
  19 H :    0.272792
  20 C :   -0.367243
  21 C :   -0.224010
  22 S :    0.314701
  23 C :   -0.392555
  24 H :    0.531177
  25 H :    0.259180
  26 H :    0.294205
  27 H :    0.277365
  28 H :    0.271073
  29 H :    0.279651
  30 O :   -0.564118
  31 O :   -0.470052
  32 C :    0.662734
  33 C :   -0.719877
  34 H :    0.282188
  35 H :    0.282902
  36 H :    0.286587
  37 H :    0.274616
  38 H :    0.281375
Sum of atomic charges:    1.0000000

LOEWDIN ATOMIC CHARGES
----------------------
   0 Ir:   -0.264044
   1 C :   -0.041970
   2 C :   -0.105776
   3 C :   -0.107990
   4 C :   -0.059990
   5 C :   -0.013025
   6 N :   -0.032760
   7 C :   -0.059181
   8 C :   -0.349671
   9 H :    0.143822
  10 H :    0.135853
  11 H :    0.147063
  12 C :   -0.365579
  13 H :    0.141086
  14 H :    0.154806
  15 H :    0.135484
  16 H :    0.141210
  17 C :    0.033485
  18 C :   -0.238275
  19 H :    0.150123
  20 C :   -0.157972
  21 C :   -0.181733
  22 S :    0.454663
  23 C :   -0.262165
  24 H :    0.389755
  25 H :    0.152463
  26 H :    0.168547
  27 H :    0.178570
  28 H :    0.172673
  29 H :    0.177340
  30 O :   -0.254432
  31 O :   -0.161781
  32 C :    0.271452
  33 C :   -0.361249
  34 H :    0.170646
  35 H :    0.174145
  36 H :    0.165180
  37 H :    0.177892
  38 H :    0.181336

  Mayer bond orders larger than 0.100000
B(  0-Ir,  1-C ) :   0.3890 B(  0-Ir,  2-C ) :   0.3524 B(  0-Ir,  3-C ) :   0.4627
B(  0-Ir,  4-C ) :   0.4658 B(  0-Ir,  5-C ) :   0.3598 B(  0-Ir,  6-N ) :   0.4915
B(  0-Ir, 20-C ) :   0.5988 B(  0-Ir, 31-O ) :   0.4560 B(  1-C ,  2-C ) :   1.1959
B(  1-C ,  4-C ) :   1.2201 B(  1-C , 27-H ) :   0.9182 B(  2-C ,  5-C ) :   1.2094
B(  2-C , 28-H ) :   0.9205 B(  3-C ,  4-C ) :   1.1189 B(  3-C ,  5-C ) :   1.2071
B(  3-C , 37-H ) :   0.9182 B(  4-C , 38-H ) :   0.9176 B(  5-C , 29-H ) :   0.9137
B(  6-N ,  7-C ) :   0.8917 B(  6-N , 17-C ) :   1.6254 B(  7-C ,  8-C ) :   0.9857
B(  7-C , 12-C ) :   0.9985 B(  7-C , 13-H ) :   0.8886 B(  8-C ,  9-H ) :   0.9097
B(  8-C , 10-H ) :   0.9176 B(  8-C , 11-H ) :   0.9029 B( 12-C , 14-H ) :   0.9072
B( 12-C , 15-H ) :   0.9107 B( 12-C , 16-H ) :   0.9121 B( 17-C , 18-C ) :   1.1266
B( 17-C , 19-H ) :   0.8789 B( 18-C , 20-C ) :   1.3273 B( 18-C , 22-S ) :   1.1630
B( 20-C , 21-C ) :   1.2836 B( 21-C , 23-C ) :   1.5299 B( 21-C , 25-H ) :   0.9034
B( 22-S , 23-C ) :   1.2347 B( 23-C , 26-H ) :   0.8912 B( 24-H , 30-O ) :   0.5526
B( 30-O , 32-C ) :   1.2951 B( 31-O , 32-C ) :   1.5093 B( 32-C , 33-C ) :   0.9474
B( 33-C , 34-H ) :   0.8896 B( 33-C , 35-H ) :   0.8878 B( 33-C , 36-H ) :   0.8970

Dispersion correction           -0.029624711
FINAL SINGLE POINT ENERGY     -1288.378274395267
Dispersion correction            ... done

DIPOLE MOMENT
-------------
                                X             Y             Z
Electronic contribution:     35.01567     -76.84484      79.71564
Nuclear contribution   :    -35.28952      77.12331     -79.29732
                        -----------------------------------------
Total Dipole Moment    :     -0.27385       0.27847       0.41832
                        -----------------------------------------
Magnitude (a.u.)       :      0.57230
Magnitude (Debye)      :      1.45467

Rotational constants in cm-1:     0.010478     0.008150     0.007669
Rotational constants in MHz :   314.136078   244.341545   229.922261

                             ****ORCA TERMINATED NORMALLY****
TOTAL RUN TIME: 0 days 0 hours 15 minutes 4 seconds 348 msec
