                         Program Version 5.0.3 -  RELEASE  -
|  1> ! EnGrad PBEh-3c
|  2> %output
|  3> xyzfile=True
|  4> end
|  5> %scf
|  6> maxiter 250
|  7> end
|  8> %output
|  9> Print[P_Hirshfeld] = 1
| 10> end
| 11> % maxcore
| 12> 4000
| 13> *xyz 1 1
| 14> Ir   0.54333356  -0.78389955   0.52718776
| 15> C    0.12841331  -2.92188504   0.93060797
| 16> C    0.02390335  -2.27498497   2.19574610
| 17> C    2.14862690  -1.92236127   1.36843709
| 18> C    1.43692893  -2.75973464   0.44847498
| 19> C    1.28282853  -1.67728426   2.45219380
| 20> N   -1.12908421  -0.16085026  -0.53303950
| 21> C   -2.50410073  -0.18921201   0.01950293
| 22> C   -2.74683784   0.95958540   0.98106843
| 23> H   -3.74990162   0.88969746   1.41343163
| 24> H   -2.67631309   1.90474944   0.45399101
| 25> H   -2.04888480   0.95760892   1.81000692
| 26> C   -3.62369093  -0.26404510  -1.00664987
| 27> H   -2.56299383  -1.10036853   0.59074792
| 28> H   -4.57819877  -0.43850611  -0.49259164
| 29> H   -3.73020039   0.66151826  -1.56312084
| 30> H   -3.49028400  -1.09327323  -1.69461127
| 31> C   -0.92296294   0.20862244  -1.74734224
| 32> C    0.39460186   0.17314210  -2.31603124
| 33> H   -1.73635264   0.53458173  -2.37060088
| 34> C    1.47091066  -0.20490007  -1.53331460
| 35> C    2.66962582  -0.29174868  -2.34154765
| 36> S    0.81400244   0.40220150  -3.96092718
| 37> C    2.44622716   0.04920683  -3.65285328
| 38> H    2.23000321   1.30503105  -0.83083897
| 39> H    3.66154374  -0.52405945  -1.98601617
| 40> H    3.18769267   0.05885334  -4.43636167
| 41> H   -0.57495374  -3.63897907   0.52822128
| 42> H   -0.77628877  -2.34302803   2.89596957
| 43> H    1.53254247  -1.18795379   3.37311322
| 44> O    2.11977876   2.16195447   0.04838582
| 45> O    0.46990265   1.22054499   1.25592003
| 46> C    1.18783190   2.20557605   0.94745497
| 47> C    1.03051100   3.51988562   1.68497586
| 48> H    0.91329089   4.32960464   0.96963320
| 49> H    1.93309399   3.73801745   2.25772213
| 50> H    0.18774103   3.49480952   2.35690768
| 51> H    3.19468116  -1.68928398   1.33272461
| 52> H    1.84271307  -3.30965248  -0.37639147
| 53> *
| 54>
| 55>                          ****END OF INPUT****

CARTESIAN COORDINATES (ANGSTROEM)
---------------------------------
  Ir     0.543334   -0.783900    0.527188
  C      0.128413   -2.921885    0.930608
  C      0.023903   -2.274985    2.195746
  C      2.148627   -1.922361    1.368437
  C      1.436929   -2.759735    0.448475
  C      1.282829   -1.677284    2.452194
  N     -1.129084   -0.160850   -0.533039
  C     -2.504101   -0.189212    0.019503
  C     -2.746838    0.959585    0.981068
  H     -3.749902    0.889697    1.413432
  H     -2.676313    1.904749    0.453991
  H     -2.048885    0.957609    1.810007
  C     -3.623691   -0.264045   -1.006650
  H     -2.562994   -1.100369    0.590748
  H     -4.578199   -0.438506   -0.492592
  H     -3.730200    0.661518   -1.563121
  H     -3.490284   -1.093273   -1.694611
  C     -0.922963    0.208622   -1.747342
  C      0.394602    0.173142   -2.316031
  H     -1.736353    0.534582   -2.370601
  C      1.470911   -0.204900   -1.533315
  C      2.669626   -0.291749   -2.341548
  S      0.814002    0.402201   -3.960927
  C      2.446227    0.049207   -3.652853
  H      2.230003    1.305031   -0.830839
  H      3.661544   -0.524059   -1.986016
  H      3.187693    0.058853   -4.436362
  H     -0.574954   -3.638979    0.528221
  H     -0.776289   -2.343028    2.895970
  H      1.532542   -1.187954    3.373113
  O      2.119779    2.161954    0.048386
  O      0.469903    1.220545    1.255920
  C      1.187832    2.205576    0.947455
  C      1.030511    3.519886    1.684976
  H      0.913291    4.329605    0.969633
  H      1.933094    3.738017    2.257722
  H      0.187741    3.494810    2.356908
  H      3.194681   -1.689284    1.332725
  H      1.842713   -3.309652   -0.376391

 Total Charge           Charge          ....    1
 Multiplicity           Mult            ....    1
 Number of Electrons    NEL             ....  164
 Basis Dimension        Dim             ....  358

ORBITAL ENERGIES
----------------

  NO   OCC          E(Eh)            E(eV)
   0   2.0000     -89.749864     -2442.2180
   1   2.0000     -19.663163      -535.0619
   2   2.0000     -19.652061      -534.7598
   3   2.0000     -14.820277      -403.2802
   4   2.0000     -10.729011      -291.9512
   5   2.0000     -10.642288      -289.5914
   6   2.0000     -10.617293      -288.9112
   7   2.0000     -10.615976      -288.8754
   8   2.0000     -10.612338      -288.7764
   9   2.0000     -10.605350      -288.5862
  10   2.0000     -10.605073      -288.5787
  11   2.0000     -10.604287      -288.5573
  12   2.0000     -10.602643      -288.5126
  13   2.0000     -10.599571      -288.4290
  14   2.0000     -10.594982      -288.3041
  15   2.0000     -10.584788      -288.0267
  16   2.0000     -10.562428      -287.4183
  17   2.0000     -10.543361      -286.8994
  18   2.0000     -10.535556      -286.6871
  19   2.0000      -8.389300      -228.2845
  20   2.0000      -6.279155      -170.8645
  21   2.0000      -6.275786      -170.7728
  22   2.0000      -6.274218      -170.7301
  23   2.0000      -4.009887      -109.1146
  24   2.0000      -2.325426       -63.2781
  25   2.0000      -2.296517       -62.4914
  26   2.0000      -2.290723       -62.3337
  27   2.0000      -1.336665       -36.3725
  28   2.0000      -1.244626       -33.8680
  29   2.0000      -1.188496       -32.3406
  30   2.0000      -1.154498       -31.4155
  31   2.0000      -1.113433       -30.2981
  32   2.0000      -1.011765       -27.5315
  33   2.0000      -0.965311       -26.2675
  34   2.0000      -0.958862       -26.0920
  35   2.0000      -0.957510       -26.0552
  36   2.0000      -0.953878       -25.9563
  37   2.0000      -0.943259       -25.6674
  38   2.0000      -0.889726       -24.2107
  39   2.0000      -0.857336       -23.3293
  40   2.0000      -0.794726       -21.6256
  41   2.0000      -0.785502       -21.3746
  42   2.0000      -0.770919       -20.9778
  43   2.0000      -0.768813       -20.9205
  44   2.0000      -0.766621       -20.8608
  45   2.0000      -0.756180       -20.5767
  46   2.0000      -0.736125       -20.0310
  47   2.0000      -0.719311       -19.5735
  48   2.0000      -0.688468       -18.7342
  49   2.0000      -0.675061       -18.3694
  50   2.0000      -0.670006       -18.2318
  51   2.0000      -0.658950       -17.9309
  52   2.0000      -0.651124       -17.7180
  53   2.0000      -0.632442       -17.2096
  54   2.0000      -0.628092       -17.0913
  55   2.0000      -0.621551       -16.9133
  56   2.0000      -0.612577       -16.6691
  57   2.0000      -0.598532       -16.2869
  58   2.0000      -0.592716       -16.1286
  59   2.0000      -0.588463       -16.0129
  60   2.0000      -0.587316       -15.9817
  61   2.0000      -0.585799       -15.9404
  62   2.0000      -0.575890       -15.6708
  63   2.0000      -0.566639       -15.4190
  64   2.0000      -0.562876       -15.3166
  65   2.0000      -0.554322       -15.0839
  66   2.0000      -0.547107       -14.8875
  67   2.0000      -0.537446       -14.6247
  68   2.0000      -0.533749       -14.5240
  69   2.0000      -0.531807       -14.4712
  70   2.0000      -0.519586       -14.1386
  71   2.0000      -0.517009       -14.0685
  72   2.0000      -0.502259       -13.6672
  73   2.0000      -0.497812       -13.5462
  74   2.0000      -0.488306       -13.2875
  75   2.0000      -0.472967       -12.8701
  76   2.0000      -0.467382       -12.7181
  77   2.0000      -0.444726       -12.1016
  78   2.0000      -0.440064       -11.9748
  79   2.0000      -0.411895       -11.2082
  80   2.0000      -0.407068       -11.0769
  81   2.0000      -0.387428       -10.5424
  82   0.0000      -0.182964        -4.9787
  83   0.0000      -0.149915        -4.0794
  84   0.0000      -0.140046        -3.8109
  85   0.0000      -0.097144        -2.6434
  86   0.0000      -0.080066        -2.1787

MULLIKEN ATOMIC CHARGES
-----------------------
   0 Ir:    0.596553
   1 C :   -0.261214
   2 C :   -0.245335
   3 C :   -0.280492
   4 C :   -0.216159
   5 C :   -0.162534
   6 N :   -0.473084
   7 C :   -0.101603
   8 C :   -0.637778
   9 H :    0.244584
  10 H :    0.223864
  11 H :    0.264271
  12 C :   -0.691788
  13 H :    0.251474
  14 H :    0.266723
  15 H :    0.228094
  16 H :    0.248039
  17 C :    0.083361
  18 C :   -0.170269
  19 H :    0.275823
  20 C :   -0.342269
  21 C :   -0.223388
  22 S :    0.329537
  23 C :   -0.403790
  24 H :    0.494228
  25 H :    0.265787
  26 H :    0.297840
  27 H :    0.277297
  28 H :    0.273945
  29 H :    0.281694
  30 O :   -0.548969
  31 O :   -0.467802
  32 C :    0.666468
  33 C :   -0.736681
  34 H :    0.280167
  35 H :    0.284706
  36 H :    0.275340
  37 H :    0.272790
  38 H :    0.280571
Sum of atomic charges:    1.0000000

LOEWDIN ATOMIC CHARGES
----------------------
   0 Ir:   -0.261716
   1 C :   -0.053655
   2 C :   -0.099796
   3 C :   -0.105033
   4 C :   -0.042397
   5 C :   -0.019419
   6 N :   -0.023144
   7 C :   -0.063799
   8 C :   -0.349233
   9 H :    0.144447
  10 H :    0.134691
  11 H :    0.147858
  12 C :   -0.365085
  13 H :    0.140742
  14 H :    0.155739
  15 H :    0.133635
  16 H :    0.139648
  17 C :    0.033269
  18 C :   -0.241094
  19 H :    0.153123
  20 C :   -0.164404
  21 C :   -0.183739
  22 S :    0.474507
  23 C :   -0.259572
  24 H :    0.410257
  25 H :    0.157561
  26 H :    0.169972
  27 H :    0.179707
  28 H :    0.175173
  29 H :    0.179896
  30 O :   -0.266958
  31 O :   -0.145591
  32 C :    0.214050
  33 C :   -0.367169
  34 H :    0.171271
  35 H :    0.175796
  36 H :    0.161481
  37 H :    0.177903
  38 H :    0.181077

  Mayer bond orders larger than 0.100000
B(  0-Ir,  1-C ) :   0.4295 B(  0-Ir,  2-C ) :   0.3694 B(  0-Ir,  3-C ) :   0.4747
B(  0-Ir,  4-C ) :   0.4487 B(  0-Ir,  5-C ) :   0.3719 B(  0-Ir,  6-N ) :   0.4808
B(  0-Ir, 20-C ) :   0.5793 B(  0-Ir, 31-O ) :   0.4494 B(  1-C ,  2-C ) :   1.1673
B(  1-C ,  4-C ) :   1.2153 B(  1-C , 27-H ) :   0.9199 B(  2-C ,  5-C ) :   1.2264
B(  2-C , 28-H ) :   0.9177 B(  3-C ,  4-C ) :   1.1286 B(  3-C ,  5-C ) :   1.1818
B(  3-C , 37-H ) :   0.9205 B(  4-C , 38-H ) :   0.9176 B(  5-C , 29-H ) :   0.9128
B(  6-N ,  7-C ) :   0.9027 B(  6-N , 17-C ) :   1.6245 B(  7-C ,  8-C ) :   0.9816
B(  7-C , 12-C ) :   0.9959 B(  7-C , 13-H ) :   0.8871 B(  8-C ,  9-H ) :   0.9086
B(  8-C , 10-H ) :   0.9182 B(  8-C , 11-H ) :   0.9016 B( 12-C , 14-H ) :   0.9056
B( 12-C , 15-H ) :   0.9122 B( 12-C , 16-H ) :   0.9137 B( 17-C , 18-C ) :   1.1263
B( 17-C , 19-H ) :   0.8784 B( 18-C , 20-C ) :   1.3113 B( 18-C , 22-S ) :   1.1696
B( 20-C , 21-C ) :   1.3179 B( 20-C , 24-H ) :   0.1260 B( 21-C , 23-C ) :   1.4825
B( 21-C , 25-H ) :   0.9017 B( 22-S , 23-C ) :   1.2677 B( 23-C , 26-H ) :   0.8901
B( 24-H , 30-O ) :   0.5234 B( 30-O , 32-C ) :   1.3330 B( 31-O , 32-C ) :   1.5278
B( 32-C , 33-C ) :   0.9504 B( 33-C , 34-H ) :   0.8918 B( 33-C , 35-H ) :   0.8882
B( 33-C , 36-H ) :   0.9020

Dispersion correction           -0.029760640
FINAL SINGLE POINT ENERGY     -1288.371892006529
Dispersion correction            ... done

DIPOLE MOMENT
-------------
                                X             Y             Z
Electronic contribution:     31.16563     -77.99064      82.26317
Nuclear contribution   :    -31.36298      78.01941     -82.13731
                        -----------------------------------------
Total Dipole Moment    :     -0.19735       0.02877       0.12585
                        -----------------------------------------
Magnitude (a.u.)       :      0.23582
Magnitude (Debye)      :      0.59942

Rotational constants in cm-1:     0.010489     0.008123     0.007685
Rotational constants in MHz :   314.451453   243.517256   230.399315

                             ****ORCA TERMINATED NORMALLY****
TOTAL RUN TIME: 0 days 0 hours 13 minutes 57 seconds 598 msec
