                         Program Version 5.0.3 -  RELEASE  -
|  1> ! EnGrad PBEh-3c
|  2> %output
|  3> xyzfile=True
|  4> end
|  5> %scf
|  6> maxiter 250
|  7> end
|  8> %output
|  9> Print[P_Hirshfeld] = 1
| 10> end
| 11> % maxcore
| 12> 4000
| 13> *xyz 1 1
| 14> Ir   0.61041237  -0.77238341   0.47695776
| 15> C    0.09762710  -2.92577174   1.02011941
| 16> C    0.06918480  -2.23878206   2.24153267
| 17> C    2.16396929  -1.98041010   1.31614136
| 18> C    1.35041819  -2.78600846   0.41833259
| 19> C    1.38826157  -1.69834050   2.41974794
| 20> N   -1.13282599  -0.14775209  -0.54157214
| 21> C   -2.52299712  -0.17491650   0.04083636
| 22> C   -2.76313086   1.03166038   0.91502033
| 23> H   -3.78059833   0.96231710   1.31973169
| 24> H   -2.69708887   1.95239946   0.35148799
| 25> H   -2.09041266   1.06545405   1.76048655
| 26> C   -3.58893422  -0.30416262  -1.02129917
| 27> H   -2.53962002  -1.05475391   0.64024205
| 28> H   -4.54760918  -0.47163891  -0.50026442
| 29> H   -3.72537862   0.58794618  -1.62002456
| 30> H   -3.44011066  -1.16024700  -1.66552218
| 31> C   -0.90765273   0.22414661  -1.75373621
| 32> C    0.43740999   0.17363127  -2.30191304
| 33> H   -1.72791969   0.53340754  -2.36485802
| 34> C    1.48125486  -0.19757025  -1.42720943
| 35> C    2.67873862  -0.23725111  -2.34791596
| 36> S    0.79282476   0.38398333  -3.99519431
| 37> C    2.43334893   0.03074868  -3.68380092
| 38> H    2.15049907   1.38746197  -0.64753127
| 39> H    3.69003690  -0.46678482  -2.02677295
| 40> H    3.15880972   0.04022980  -4.49241239
| 41> H   -0.64520953  -3.60841635   0.66293532
| 42> H   -0.68456475  -2.27167645   2.99898230
| 43> H    1.70626891  -1.20448501   3.30967915
| 44> O    2.12917582   2.06432056  -0.01473797
| 45> O    0.42055942   1.19320494   1.32341098
| 46> C    1.20547929   2.12351048   0.96227506
| 47> C    0.99847639   3.50851465   1.73853892
| 48> H    0.90218233   4.31717364   1.01899112
| 49> H    1.89630799   3.71561023   2.32504187
| 50> H    0.14056777   3.49871835   2.40449817
| 51> H    3.20266435  -1.77084656   1.18262160
| 52> H    1.68813143  -3.32556762  -0.44183204
| 53> *
| 54>
| 55>                          ****END OF INPUT****

CARTESIAN COORDINATES (ANGSTROEM)
---------------------------------
  Ir     0.610412   -0.772383    0.476958
  C      0.097627   -2.925772    1.020119
  C      0.069185   -2.238782    2.241533
  C      2.163969   -1.980410    1.316141
  C      1.350418   -2.786008    0.418333
  C      1.388262   -1.698341    2.419748
  N     -1.132826   -0.147752   -0.541572
  C     -2.522997   -0.174917    0.040836
  C     -2.763131    1.031660    0.915020
  H     -3.780598    0.962317    1.319732
  H     -2.697089    1.952399    0.351488
  H     -2.090413    1.065454    1.760487
  C     -3.588934   -0.304163   -1.021299
  H     -2.539620   -1.054754    0.640242
  H     -4.547609   -0.471639   -0.500264
  H     -3.725379    0.587946   -1.620025
  H     -3.440111   -1.160247   -1.665522
  C     -0.907653    0.224147   -1.753736
  C      0.437410    0.173631   -2.301913
  H     -1.727920    0.533408   -2.364858
  C      1.481255   -0.197570   -1.427209
  C      2.678739   -0.237251   -2.347916
  S      0.792825    0.383983   -3.995194
  C      2.433349    0.030749   -3.683801
  H      2.150499    1.387462   -0.647531
  H      3.690037   -0.466785   -2.026773
  H      3.158810    0.040230   -4.492412
  H     -0.645210   -3.608416    0.662935
  H     -0.684565   -2.271676    2.998982
  H      1.706269   -1.204485    3.309679
  O      2.129176    2.064321   -0.014738
  O      0.420559    1.193205    1.323411
  C      1.205479    2.123510    0.962275
  C      0.998476    3.508515    1.738539
  H      0.902182    4.317174    1.018991
  H      1.896308    3.715610    2.325042
  H      0.140568    3.498718    2.404498
  H      3.202664   -1.770847    1.182622
  H      1.688131   -3.325568   -0.441832

 Total Charge           Charge          ....    1
 Multiplicity           Mult            ....    1
 Number of Electrons    NEL             ....  164
 Basis Dimension        Dim             ....  358

ORBITAL ENERGIES
----------------

  NO   OCC          E(Eh)            E(eV)
   0   2.0000     -89.739500     -2441.9359
   1   2.0000     -19.681223      -535.5533
   2   2.0000     -19.679163      -535.4972
   3   2.0000     -14.813208      -403.0879
   4   2.0000     -10.760932      -292.8198
   5   2.0000     -10.636065      -289.4220
   6   2.0000     -10.620046      -288.9861
   7   2.0000     -10.619013      -288.9580
   8   2.0000     -10.606128      -288.6074
   9   2.0000     -10.605966      -288.6030
  10   2.0000     -10.604025      -288.5502
  11   2.0000     -10.599492      -288.4268
  12   2.0000     -10.598416      -288.3975
  13   2.0000     -10.598256      -288.3932
  14   2.0000     -10.596278      -288.3394
  15   2.0000     -10.580779      -287.9176
  16   2.0000     -10.579281      -287.8769
  17   2.0000     -10.542906      -286.8871
  18   2.0000     -10.537429      -286.7380
  19   2.0000      -8.378428      -227.9886
  20   2.0000      -6.268537      -170.5756
  21   2.0000      -6.265152      -170.4835
  22   2.0000      -6.262919      -170.4227
  23   2.0000      -4.010000      -109.1176
  24   2.0000      -2.324633       -63.2565
  25   2.0000      -2.296804       -62.4992
  26   2.0000      -2.291895       -62.3656
  27   2.0000      -1.358667       -36.9712
  28   2.0000      -1.281830       -34.8804
  29   2.0000      -1.177973       -32.0543
  30   2.0000      -1.156325       -31.4652
  31   2.0000      -1.090614       -29.6771
  32   2.0000      -1.010109       -27.4865
  33   2.0000      -0.970619       -26.4119
  34   2.0000      -0.962188       -26.1825
  35   2.0000      -0.954910       -25.9844
  36   2.0000      -0.939238       -25.5580
  37   2.0000      -0.932013       -25.3614
  38   2.0000      -0.891218       -24.2513
  39   2.0000      -0.859205       -23.3802
  40   2.0000      -0.846061       -23.0225
  41   2.0000      -0.780017       -21.2253
  42   2.0000      -0.773142       -21.0383
  43   2.0000      -0.770508       -20.9666
  44   2.0000      -0.759723       -20.6731
  45   2.0000      -0.755440       -20.5566
  46   2.0000      -0.751190       -20.4409
  47   2.0000      -0.711645       -19.3648
  48   2.0000      -0.687822       -18.7166
  49   2.0000      -0.679848       -18.4996
  50   2.0000      -0.668584       -18.1931
  51   2.0000      -0.663730       -18.0610
  52   2.0000      -0.646185       -17.5836
  53   2.0000      -0.630503       -17.1569
  54   2.0000      -0.629596       -17.1322
  55   2.0000      -0.618361       -16.8265
  56   2.0000      -0.609182       -16.5767
  57   2.0000      -0.597948       -16.2710
  58   2.0000      -0.592914       -16.1340
  59   2.0000      -0.590623       -16.0717
  60   2.0000      -0.589270       -16.0349
  61   2.0000      -0.581048       -15.8111
  62   2.0000      -0.578707       -15.7474
  63   2.0000      -0.575047       -15.6478
  64   2.0000      -0.567954       -15.4548
  65   2.0000      -0.554293       -15.0831
  66   2.0000      -0.542752       -14.7690
  67   2.0000      -0.542174       -14.7533
  68   2.0000      -0.535578       -14.5738
  69   2.0000      -0.530006       -14.4222
  70   2.0000      -0.528041       -14.3687
  71   2.0000      -0.525041       -14.2871
  72   2.0000      -0.512410       -13.9434
  73   2.0000      -0.500492       -13.6191
  74   2.0000      -0.497019       -13.5246
  75   2.0000      -0.478832       -13.0297
  76   2.0000      -0.471789       -12.8380
  77   2.0000      -0.446255       -12.1432
  78   2.0000      -0.436811       -11.8862
  79   2.0000      -0.410622       -11.1736
  80   2.0000      -0.397584       -10.8188
  81   2.0000      -0.382312       -10.4032
  82   0.0000      -0.175482        -4.7751
  83   0.0000      -0.160294        -4.3618
  84   0.0000      -0.130555        -3.5526
  85   0.0000      -0.124443        -3.3863
  86   0.0000      -0.071170        -1.9366

MULLIKEN ATOMIC CHARGES
-----------------------
   0 Ir:    0.585083
   1 C :   -0.192321
   2 C :   -0.264453
   3 C :   -0.278233
   4 C :   -0.281869
   5 C :   -0.147622
   6 N :   -0.469877
   7 C :   -0.094224
   8 C :   -0.638080
   9 H :    0.243147
  10 H :    0.227279
  11 H :    0.258946
  12 C :   -0.696134
  13 H :    0.252238
  14 H :    0.262283
  15 H :    0.232730
  16 H :    0.253325
  17 C :    0.083213
  18 C :   -0.188322
  19 H :    0.269837
  20 C :   -0.351895
  21 C :   -0.230565
  22 S :    0.298713
  23 C :   -0.384019
  24 H :    0.538024
  25 H :    0.253040
  26 H :    0.293026
  27 H :    0.279280
  28 H :    0.273600
  29 H :    0.281207
  30 O :   -0.571907
  31 O :   -0.431745
  32 C :    0.643509
  33 C :   -0.718883
  34 H :    0.282778
  35 H :    0.282123
  36 H :    0.283872
  37 H :    0.278733
  38 H :    0.284162
Sum of atomic charges:    1.0000000

LOEWDIN ATOMIC CHARGES
----------------------
   0 Ir:   -0.263306
   1 C :   -0.028259
   2 C :   -0.111059
   3 C :   -0.107234
   4 C :   -0.070624
   5 C :   -0.012185
   6 N :   -0.040935
   7 C :   -0.056726
   8 C :   -0.350416
   9 H :    0.144764
  10 H :    0.136352
  11 H :    0.145476
  12 C :   -0.365288
  13 H :    0.140070
  14 H :    0.154350
  15 H :    0.135711
  16 H :    0.141943
  17 C :    0.031729
  18 C :   -0.235523
  19 H :    0.149399
  20 C :   -0.143424
  21 C :   -0.180458
  22 S :    0.437580
  23 C :   -0.261721
  24 H :    0.343743
  25 H :    0.150150
  26 H :    0.168556
  27 H :    0.178358
  28 H :    0.175160
  29 H :    0.177822
  30 O :   -0.241509
  31 O :   -0.127680
  32 C :    0.279787
  33 C :   -0.362338
  34 H :    0.169208
  35 H :    0.171513
  36 H :    0.165719
  37 H :    0.179054
  38 H :    0.182242

  Mayer bond orders larger than 0.100000
B(  0-Ir,  1-C ) :   0.3665 B(  0-Ir,  2-C ) :   0.3294 B(  0-Ir,  3-C ) :   0.4547
B(  0-Ir,  4-C ) :   0.4819 B(  0-Ir,  5-C ) :   0.3563 B(  0-Ir,  6-N ) :   0.4984
B(  0-Ir, 20-C ) :   0.6224 B(  0-Ir, 31-O ) :   0.4306 B(  1-C ,  2-C ) :   1.2185
B(  1-C ,  4-C ) :   1.2119 B(  1-C , 27-H ) :   0.9172 B(  2-C ,  5-C ) :   1.2046
B(  2-C , 28-H ) :   0.9190 B(  3-C ,  4-C ) :   1.1199 B(  3-C ,  5-C ) :   1.2159
B(  3-C , 37-H ) :   0.9153 B(  4-C , 38-H ) :   0.9157 B(  5-C , 29-H ) :   0.9121
B(  6-N ,  7-C ) :   0.8865 B(  6-N , 17-C ) :   1.6204 B(  7-C ,  8-C ) :   0.9861
B(  7-C , 12-C ) :   0.9978 B(  7-C , 13-H ) :   0.8904 B(  8-C ,  9-H ) :   0.9086
B(  8-C , 10-H ) :   0.9179 B(  8-C , 11-H ) :   0.9054 B( 12-C , 14-H ) :   0.9059
B( 12-C , 15-H ) :   0.9108 B( 12-C , 16-H ) :   0.9123 B( 17-C , 18-C ) :   1.1289
B( 17-C , 19-H ) :   0.8793 B( 18-C , 20-C ) :   1.3403 B( 18-C , 22-S ) :   1.1529
B( 20-C , 21-C ) :   1.2817 B( 21-C , 23-C ) :   1.5478 B( 21-C , 25-H ) :   0.9052
B( 22-S , 23-C ) :   1.2221 B( 23-C , 26-H ) :   0.8902 B( 24-H , 30-O ) :   0.6048
B( 30-O , 32-C ) :   1.2439 B( 31-O , 32-C ) :   1.5766 B( 32-C , 33-C ) :   0.9386
B( 33-C , 34-H ) :   0.8896 B( 33-C , 35-H ) :   0.8885 B( 33-C , 36-H ) :   0.8989

Dispersion correction           -0.029625226
FINAL SINGLE POINT ENERGY     -1288.377815782863
Dispersion correction            ... done

DIPOLE MOMENT
-------------
                                X             Y             Z
Electronic contribution:     37.55888     -75.99058      77.99438
Nuclear contribution   :    -37.94576      76.25749     -77.32441
                        -----------------------------------------
Total Dipole Moment    :     -0.38688       0.26691       0.66997
                        -----------------------------------------
Magnitude (a.u.)       :      0.81839
Magnitude (Debye)      :      2.08019

Rotational constants in cm-1:     0.010492     0.008195     0.007671
Rotational constants in MHz :   314.541735   245.673815   229.959446

                             ****ORCA TERMINATED NORMALLY****
TOTAL RUN TIME: 0 days 0 hours 15 minutes 17 seconds 227 msec
