                         Program Version 5.0.3 -  RELEASE  -
|  1> ! EnGrad PBEh-3c
|  2> %output
|  3> xyzfile=True
|  4> end
|  5> %scf
|  6> maxiter 250
|  7> end
|  8> %output
|  9> Print[P_Hirshfeld] = 1
| 10> end
| 11> % maxcore
| 12> 4000
| 13> *xyz 1 1
| 14> Ir   0.56539161  -0.78011261   0.51067023
| 15> C    0.11828964  -2.92316313   0.96004272
| 16> C    0.03879361  -2.26308009   2.21080246
| 17> C    2.15367206  -1.94144992   1.35124028
| 18> C    1.40848093  -2.76837447   0.43856302
| 19> C    1.31749890  -1.68420835   2.44152437
| 20> N   -1.13031465  -0.15654308  -0.53584535
| 21> C   -2.51031458  -0.18451111   0.02651817
| 22> C   -2.75219560   0.98328638   0.95934932
| 23> H   -3.75999586   0.91357754   1.38261955
| 24> H   -2.68314495   1.92041857   0.42028414
| 25> H   -2.06254073   0.99307248   1.79372275
| 26> C   -3.61226161  -0.27723726  -1.01146711
| 27> H   -2.55530764  -1.08536871   0.60702346
| 28> H   -4.56813976  -0.44940143  -0.49511474
| 29> H   -3.72861481   0.63732498  -1.58183294
| 30> H   -3.47378511  -1.11529674  -1.68504568
| 31> C   -0.91792837   0.21372737  -1.74944482
| 32> C    0.40867879   0.17330296  -2.31138865
| 33> H   -1.73357957   0.53419561  -2.36871241
| 34> C    1.47431223  -0.20248975  -1.49842321
| 35> C    2.67262245  -0.27382781  -2.34364179
| 36> S    0.80703842   0.39621068  -3.97219551
| 37> C    2.44199231   0.04313709  -3.66303004
| 38> H    2.20385924   1.33213745  -0.77056046
| 39> H    3.67091337  -0.50522539  -1.99941854
| 40> H    3.17819487   0.05272922  -4.45479327
| 41> H   -0.59805650  -3.62892889   0.57252035
| 42> H   -0.74612644  -2.31956493   2.92984405
| 43> H    1.58967030  -1.19338988   3.35225370
| 44> O    2.12286886   2.12984875   0.02762833
| 45> O    0.45367673   1.21155455   1.27811361
| 46> C    1.19363503   2.17858978   0.95232838
| 47> C    1.01997681   3.51614641   1.70258942
| 48> H    0.90963798   4.32551686   0.98586395
| 49> H    1.92099736   3.73064911   2.27985941
| 50> H    0.17222868   3.49609489   2.37255723
| 51> H    3.19730634  -1.71610484   1.28336506
| 52> H    1.79188078  -3.31488598  -0.39791080
| 53> *
| 54>
| 55>                          ****END OF INPUT****

CARTESIAN COORDINATES (ANGSTROEM)
---------------------------------
  Ir     0.565392   -0.780113    0.510670
  C      0.118290   -2.923163    0.960043
  C      0.038794   -2.263080    2.210802
  C      2.153672   -1.941450    1.351240
  C      1.408481   -2.768374    0.438563
  C      1.317499   -1.684208    2.441524
  N     -1.130315   -0.156543   -0.535845
  C     -2.510315   -0.184511    0.026518
  C     -2.752196    0.983286    0.959349
  H     -3.759996    0.913578    1.382620
  H     -2.683145    1.920419    0.420284
  H     -2.062541    0.993072    1.793723
  C     -3.612262   -0.277237   -1.011467
  H     -2.555308   -1.085369    0.607023
  H     -4.568140   -0.449401   -0.495115
  H     -3.728615    0.637325   -1.581833
  H     -3.473785   -1.115297   -1.685046
  C     -0.917928    0.213727   -1.749445
  C      0.408679    0.173303   -2.311389
  H     -1.733580    0.534196   -2.368712
  C      1.474312   -0.202490   -1.498423
  C      2.672622   -0.273828   -2.343642
  S      0.807038    0.396211   -3.972196
  C      2.441992    0.043137   -3.663030
  H      2.203859    1.332137   -0.770560
  H      3.670913   -0.505225   -1.999419
  H      3.178195    0.052729   -4.454793
  H     -0.598056   -3.628929    0.572520
  H     -0.746126   -2.319565    2.929844
  H      1.589670   -1.193390    3.352254
  O      2.122869    2.129849    0.027628
  O      0.453677    1.211555    1.278114
  C      1.193635    2.178590    0.952328
  C      1.019977    3.516146    1.702589
  H      0.909638    4.325517    0.985864
  H      1.920997    3.730649    2.279859
  H      0.172229    3.496095    2.372557
  H      3.197306   -1.716105    1.283365
  H      1.791881   -3.314886   -0.397911

 Total Charge           Charge          ....    1
 Multiplicity           Mult            ....    1
 Number of Electrons    NEL             ....  164
 Basis Dimension        Dim             ....  358

ORBITAL ENERGIES
----------------

  NO   OCC          E(Eh)            E(eV)
   0   2.0000     -89.745937     -2442.1111
   1   2.0000     -19.672644      -535.3199
   2   2.0000     -19.661897      -535.0274
   3   2.0000     -14.817753      -403.2116
   4   2.0000     -10.740559      -292.2655
   5   2.0000     -10.640115      -289.5322
   6   2.0000     -10.617770      -288.9242
   7   2.0000     -10.616723      -288.8957
   8   2.0000     -10.609642      -288.7030
   9   2.0000     -10.605120      -288.5800
  10   2.0000     -10.602784      -288.5164
  11   2.0000     -10.602466      -288.5078
  12   2.0000     -10.602216      -288.5010
  13   2.0000     -10.598707      -288.4055
  14   2.0000     -10.594627      -288.2945
  15   2.0000     -10.582199      -287.9563
  16   2.0000     -10.569016      -287.5976
  17   2.0000     -10.542970      -286.8888
  18   2.0000     -10.536006      -286.6993
  19   2.0000      -8.385226      -228.1736
  20   2.0000      -6.275171      -170.7561
  21   2.0000      -6.271794      -170.6642
  22   2.0000      -6.269994      -170.6152
  23   2.0000      -4.009928      -109.1157
  24   2.0000      -2.325132       -63.2701
  25   2.0000      -2.296572       -62.4929
  26   2.0000      -2.291057       -62.3428
  27   2.0000      -1.342638       -36.5350
  28   2.0000      -1.256103       -34.1803
  29   2.0000      -1.184832       -32.2409
  30   2.0000      -1.155453       -31.4415
  31   2.0000      -1.105362       -30.0784
  32   2.0000      -1.011003       -27.5108
  33   2.0000      -0.966723       -26.3059
  34   2.0000      -0.959044       -26.0969
  35   2.0000      -0.957077       -26.0434
  36   2.0000      -0.948571       -25.8119
  37   2.0000      -0.939979       -25.5781
  38   2.0000      -0.890100       -24.2209
  39   2.0000      -0.853994       -23.2384
  40   2.0000      -0.813947       -22.1486
  41   2.0000      -0.783754       -21.3270
  42   2.0000      -0.771533       -20.9945
  43   2.0000      -0.768580       -20.9141
  44   2.0000      -0.764300       -20.7977
  45   2.0000      -0.756324       -20.5806
  46   2.0000      -0.743164       -20.2225
  47   2.0000      -0.716644       -19.5009
  48   2.0000      -0.687068       -18.6961
  49   2.0000      -0.676593       -18.4110
  50   2.0000      -0.670767       -18.2525
  51   2.0000      -0.661309       -17.9951
  52   2.0000      -0.648791       -17.6545
  53   2.0000      -0.631187       -17.1755
  54   2.0000      -0.628595       -17.1049
  55   2.0000      -0.620426       -16.8826
  56   2.0000      -0.611563       -16.6415
  57   2.0000      -0.594710       -16.1829
  58   2.0000      -0.592953       -16.1351
  59   2.0000      -0.591100       -16.0847
  60   2.0000      -0.588533       -16.0148
  61   2.0000      -0.584170       -15.8961
  62   2.0000      -0.575021       -15.6471
  63   2.0000      -0.570113       -15.5136
  64   2.0000      -0.562516       -15.3068
  65   2.0000      -0.556130       -15.1331
  66   2.0000      -0.546850       -14.8805
  67   2.0000      -0.536062       -14.5870
  68   2.0000      -0.534133       -14.5345
  69   2.0000      -0.530625       -14.4390
  70   2.0000      -0.524420       -14.2702
  71   2.0000      -0.523303       -14.2398
  72   2.0000      -0.506332       -13.7780
  73   2.0000      -0.499367       -13.5885
  74   2.0000      -0.489730       -13.3262
  75   2.0000      -0.477103       -12.9826
  76   2.0000      -0.469661       -12.7801
  77   2.0000      -0.445285       -12.1168
  78   2.0000      -0.438710       -11.9379
  79   2.0000      -0.407747       -11.0954
  80   2.0000      -0.406960       -11.0739
  81   2.0000      -0.386761       -10.5243
  82   0.0000      -0.178283        -4.8513
  83   0.0000      -0.153685        -4.1820
  84   0.0000      -0.136530        -3.7152
  85   0.0000      -0.106354        -2.8940
  86   0.0000      -0.076216        -2.0739

MULLIKEN ATOMIC CHARGES
-----------------------
   0 Ir:    0.593334
   1 C :   -0.239179
   2 C :   -0.251162
   3 C :   -0.279580
   4 C :   -0.237684
   5 C :   -0.157369
   6 N :   -0.472338
   7 C :   -0.098984
   8 C :   -0.637876
   9 H :    0.244109
  10 H :    0.224710
  11 H :    0.262440
  12 C :   -0.693312
  13 H :    0.251637
  14 H :    0.265216
  15 H :    0.229501
  16 H :    0.249832
  17 C :    0.083602
  18 C :   -0.176526
  19 H :    0.273895
  20 C :   -0.349614
  21 C :   -0.226456
  22 S :    0.319035
  23 C :   -0.397362
  24 H :    0.518291
  25 H :    0.261388
  26 H :    0.296011
  27 H :    0.277965
  28 H :    0.273620
  29 H :    0.281222
  30 O :   -0.565456
  31 O :   -0.455245
  32 C :    0.663667
  33 C :   -0.730960
  34 H :    0.281168
  35 H :    0.283874
  36 H :    0.278869
  37 H :    0.274234
  38 H :    0.281485
Sum of atomic charges:    1.0000000

LOEWDIN ATOMIC CHARGES
----------------------
   0 Ir:   -0.261522
   1 C :   -0.045031
   2 C :   -0.104004
   3 C :   -0.105998
   4 C :   -0.052218
   5 C :   -0.017097
   6 N :   -0.029101
   7 C :   -0.061611
   8 C :   -0.349639
   9 H :    0.144557
  10 H :    0.135107
  11 H :    0.147001
  12 C :   -0.365150
  13 H :    0.140435
  14 H :    0.155268
  15 H :    0.134237
  16 H :    0.140409
  17 C :    0.033023
  18 C :   -0.239449
  19 H :    0.151818
  20 C :   -0.160477
  21 C :   -0.183518
  22 S :    0.461340
  23 C :   -0.259959
  24 H :    0.398658
  25 H :    0.154855
  26 H :    0.169432
  27 H :    0.179294
  28 H :    0.175046
  29 H :    0.178989
  30 O :   -0.263845
  31 O :   -0.138341
  32 C :    0.236053
  33 C :   -0.366048
  34 H :    0.170639
  35 H :    0.174451
  36 H :    0.163121
  37 H :    0.177959
  38 H :    0.181313

  Mayer bond orders larger than 0.100000
B(  0-Ir,  1-C ) :   0.4104 B(  0-Ir,  2-C ) :   0.3567 B(  0-Ir,  3-C ) :   0.4693
B(  0-Ir,  4-C ) :   0.4595 B(  0-Ir,  5-C ) :   0.3659 B(  0-Ir,  6-N ) :   0.4862
B(  0-Ir, 20-C ) :   0.5912 B(  0-Ir, 31-O ) :   0.4436 B(  1-C ,  2-C ) :   1.1822
B(  1-C ,  4-C ) :   1.2167 B(  1-C , 27-H ) :   0.9191 B(  2-C ,  5-C ) :   1.2214
B(  2-C , 28-H ) :   0.9183 B(  3-C ,  4-C ) :   1.1254 B(  3-C ,  5-C ) :   1.1925
B(  3-C , 37-H ) :   0.9191 B(  4-C , 38-H ) :   0.9173 B(  5-C , 29-H ) :   0.9127
B(  6-N ,  7-C ) :   0.8976 B(  6-N , 17-C ) :   1.6234 B(  7-C ,  8-C ) :   0.9833
B(  7-C , 12-C ) :   0.9968 B(  7-C , 13-H ) :   0.8883 B(  8-C ,  9-H ) :   0.9087
B(  8-C , 10-H ) :   0.9181 B(  8-C , 11-H ) :   0.9030 B( 12-C , 14-H ) :   0.9057
B( 12-C , 15-H ) :   0.9118 B( 12-C , 16-H ) :   0.9132 B( 17-C , 18-C ) :   1.1276
B( 17-C , 19-H ) :   0.8787 B( 18-C , 20-C ) :   1.3211 B( 18-C , 22-S ) :   1.1643
B( 20-C , 21-C ) :   1.3090 B( 21-C , 23-C ) :   1.5061 B( 21-C , 25-H ) :   0.9030
B( 22-S , 23-C ) :   1.2518 B( 23-C , 26-H ) :   0.8904 B( 24-H , 30-O ) :   0.5474
B( 30-O , 32-C ) :   1.2957 B( 31-O , 32-C ) :   1.5450 B( 32-C , 33-C ) :   0.9469
B( 33-C , 34-H ) :   0.8910 B( 33-C , 35-H ) :   0.8881 B( 33-C , 36-H ) :   0.9009

Dispersion correction           -0.029634564
FINAL SINGLE POINT ENERGY     -1288.387336421438
Dispersion correction            ... done

DIPOLE MOMENT
-------------
                                X             Y             Z
Electronic contribution:     33.27482     -77.30983      80.86889
Nuclear contribution   :    -33.52765      77.44002     -80.55465
                        -----------------------------------------
Total Dipole Moment    :     -0.25282       0.13020       0.31425
                        -----------------------------------------
Magnitude (a.u.)       :      0.42382
Magnitude (Debye)      :      1.07726

Rotational constants in cm-1:     0.010491     0.008148     0.007682
Rotational constants in MHz :   314.524046   244.270392   230.307465

                             ****ORCA TERMINATED NORMALLY****
TOTAL RUN TIME: 0 days 0 hours 15 minutes 33 seconds 273 msec
