                         Program Version 5.0.3 -  RELEASE  -
|  1> ! EnGrad PBEh-3c
|  2> %output
|  3> xyzfile=True
|  4> end
|  5> %scf
|  6> maxiter 250
|  7> end
|  8> %output
|  9> Print[P_Hirshfeld] = 1
| 10> end
| 11> % maxcore
| 12> 4000
| 13> *xyz 1 1
| 14> Ir   0.61474674  -0.77033083   0.47635613
| 15> C    0.08231876  -2.92717729   1.05059175
| 16> C    0.09812469  -2.22090248   2.26503485
| 17> C    2.17347098  -2.01241106   1.27648405
| 18> C    1.32504154  -2.79247276   0.40829109
| 19> C    1.41955657  -1.70356326   2.41026684
| 20> N   -1.12564159  -0.14465594  -0.54183366
| 21> C   -2.51379316  -0.16076796   0.03472148
| 22> C   -2.77572896   1.05839599   0.89100440
| 23> H   -3.79149691   0.99297247   1.28242032
| 24> H   -2.70463094   1.97214078   0.30695555
| 25> H   -2.10550185   1.11133180   1.73965195
| 26> C   -3.58462697  -0.32326675  -1.02055783
| 27> H   -2.53234582  -1.03996154   0.66466879
| 28> H   -4.53422175  -0.48486094  -0.50574324
| 29> H   -3.72113778   0.55907342  -1.64270032
| 30> H   -3.41861002  -1.18944860  -1.65374069
| 31> C   -0.89606390   0.22676351  -1.75392227
| 32> C    0.44340103   0.17125849  -2.28627793
| 33> H   -1.72552915   0.53557476  -2.36673633
| 34> C    1.49149013  -0.18480596  -1.43801266
| 35> C    2.67854624  -0.22380343  -2.34330291
| 36> S    0.78626395   0.37238165  -3.99169308
| 37> C    2.42816388   0.02491439  -3.68581936
| 38> H    2.12459366   1.40434787  -0.59023067
| 39> H    3.70003791  -0.44183774  -2.04391744
| 40> H    3.14670917   0.03154395  -4.51018436
| 41> H   -0.67994988  -3.59721943   0.71653677
| 42> H   -0.64325216  -2.24253642   3.03986914
| 43> H    1.77866386  -1.20835725   3.28428959
| 44> O    2.10988978   2.04581882   0.00377229
| 45> O    0.42391280   1.19016721   1.33474997
| 46> C    1.19638003   2.10935567   0.97854397
| 47> C    0.99769058   3.48508940   1.74651865
| 48> H    0.89783017   4.31087975   1.03817036
| 49> H    1.88068613   3.70662273   2.35236825
| 50> H    0.12350313   3.49578576   2.42004655
| 51> H    3.20686646  -1.80469876   1.12062708
| 52> H    1.62305621  -3.33467434  -0.46603443
| 53> *
| 54>
| 55>                          ****END OF INPUT****

CARTESIAN COORDINATES (ANGSTROEM)
---------------------------------
  Ir     0.614747   -0.770331    0.476356
  C      0.082319   -2.927177    1.050592
  C      0.098125   -2.220902    2.265035
  C      2.173471   -2.012411    1.276484
  C      1.325042   -2.792473    0.408291
  C      1.419557   -1.703563    2.410267
  N     -1.125642   -0.144656   -0.541834
  C     -2.513793   -0.160768    0.034721
  C     -2.775729    1.058396    0.891004
  H     -3.791497    0.992972    1.282420
  H     -2.704631    1.972141    0.306956
  H     -2.105502    1.111332    1.739652
  C     -3.584627   -0.323267   -1.020558
  H     -2.532346   -1.039962    0.664669
  H     -4.534222   -0.484861   -0.505743
  H     -3.721138    0.559073   -1.642700
  H     -3.418610   -1.189449   -1.653741
  C     -0.896064    0.226764   -1.753922
  C      0.443401    0.171258   -2.286278
  H     -1.725529    0.535575   -2.366736
  C      1.491490   -0.184806   -1.438013
  C      2.678546   -0.223803   -2.343303
  S      0.786264    0.372382   -3.991693
  C      2.428164    0.024914   -3.685819
  H      2.124594    1.404348   -0.590231
  H      3.700038   -0.441838   -2.043917
  H      3.146709    0.031544   -4.510184
  H     -0.679950   -3.597219    0.716537
  H     -0.643252   -2.242536    3.039869
  H      1.778664   -1.208357    3.284290
  O      2.109890    2.045819    0.003772
  O      0.423913    1.190167    1.334750
  C      1.196380    2.109356    0.978544
  C      0.997691    3.485089    1.746519
  H      0.897830    4.310880    1.038170
  H      1.880686    3.706623    2.352368
  H      0.123503    3.495786    2.420047
  H      3.206866   -1.804699    1.120627
  H      1.623056   -3.334674   -0.466034

 Total Charge           Charge          ....    1
 Multiplicity           Mult            ....    1
 Number of Electrons    NEL             ....  164
 Basis Dimension        Dim             ....  358

ORBITAL ENERGIES
----------------

  NO   OCC          E(Eh)            E(eV)
   0   2.0000     -89.737701     -2441.8870
   1   2.0000     -19.680255      -535.5270
   2   2.0000     -19.678580      -535.4814
   3   2.0000     -14.813055      -403.0837
   4   2.0000     -10.759893      -292.7916
   5   2.0000     -10.636125      -289.4237
   6   2.0000     -10.621096      -289.0147
   7   2.0000     -10.620804      -289.0068
   8   2.0000     -10.606811      -288.6260
   9   2.0000     -10.605529      -288.5911
  10   2.0000     -10.605299      -288.5849
  11   2.0000     -10.599920      -288.4385
  12   2.0000     -10.598722      -288.4059
  13   2.0000     -10.597205      -288.3646
  14   2.0000     -10.593749      -288.2706
  15   2.0000     -10.581432      -287.9354
  16   2.0000     -10.577709      -287.8341
  17   2.0000     -10.542757      -286.8830
  18   2.0000     -10.537936      -286.7518
  19   2.0000      -8.376651      -227.9403
  20   2.0000      -6.266749      -170.5269
  21   2.0000      -6.263371      -170.4350
  22   2.0000      -6.261150      -170.3745
  23   2.0000      -4.009576      -109.1061
  24   2.0000      -2.324225       -63.2454
  25   2.0000      -2.296340       -62.4866
  26   2.0000      -2.291442       -62.3533
  27   2.0000      -1.373710       -37.3805
  28   2.0000      -1.294089       -35.2140
  29   2.0000      -1.178790       -32.0765
  30   2.0000      -1.155343       -31.4385
  31   2.0000      -1.091448       -29.6998
  32   2.0000      -1.009507       -27.4701
  33   2.0000      -0.967656       -26.3313
  34   2.0000      -0.966561       -26.3015
  35   2.0000      -0.957216       -26.0472
  36   2.0000      -0.940345       -25.5881
  37   2.0000      -0.932604       -25.3774
  38   2.0000      -0.890672       -24.2364
  39   2.0000      -0.870786       -23.6953
  40   2.0000      -0.846877       -23.0447
  41   2.0000      -0.779311       -21.2061
  42   2.0000      -0.773214       -21.0402
  43   2.0000      -0.771240       -20.9865
  44   2.0000      -0.760149       -20.6847
  45   2.0000      -0.757387       -20.6096
  46   2.0000      -0.752475       -20.4759
  47   2.0000      -0.712021       -19.3751
  48   2.0000      -0.692918       -18.8552
  49   2.0000      -0.680344       -18.5131
  50   2.0000      -0.671958       -18.2849
  51   2.0000      -0.664897       -18.0928
  52   2.0000      -0.644714       -17.5436
  53   2.0000      -0.629344       -17.1253
  54   2.0000      -0.628395       -17.0995
  55   2.0000      -0.618476       -16.8296
  56   2.0000      -0.609243       -16.5783
  57   2.0000      -0.593810       -16.1584
  58   2.0000      -0.592304       -16.1174
  59   2.0000      -0.592206       -16.1147
  60   2.0000      -0.590301       -16.0629
  61   2.0000      -0.582248       -15.8438
  62   2.0000      -0.579448       -15.7676
  63   2.0000      -0.576273       -15.6812
  64   2.0000      -0.568428       -15.4677
  65   2.0000      -0.556127       -15.1330
  66   2.0000      -0.546202       -14.8629
  67   2.0000      -0.545119       -14.8335
  68   2.0000      -0.536642       -14.6028
  69   2.0000      -0.529689       -14.4136
  70   2.0000      -0.526740       -14.3333
  71   2.0000      -0.525783       -14.3073
  72   2.0000      -0.511126       -13.9084
  73   2.0000      -0.499476       -13.5914
  74   2.0000      -0.495681       -13.4882
  75   2.0000      -0.478372       -13.0172
  76   2.0000      -0.471904       -12.8412
  77   2.0000      -0.446596       -12.1525
  78   2.0000      -0.435754       -11.8575
  79   2.0000      -0.411133       -11.1875
  80   2.0000      -0.397129       -10.8064
  81   2.0000      -0.382829       -10.4173
  82   0.0000      -0.176073        -4.7912
  83   0.0000      -0.160718        -4.3734
  84   0.0000      -0.131715        -3.5842
  85   0.0000      -0.122624        -3.3368
  86   0.0000      -0.071143        -1.9359

MULLIKEN ATOMIC CHARGES
-----------------------
   0 Ir:    0.576655
   1 C :   -0.183338
   2 C :   -0.266082
   3 C :   -0.268543
   4 C :   -0.292012
   5 C :   -0.153990
   6 N :   -0.470651
   7 C :   -0.096811
   8 C :   -0.635942
   9 H :    0.245365
  10 H :    0.225023
  11 H :    0.257006
  12 C :   -0.692319
  13 H :    0.248070
  14 H :    0.264873
  15 H :    0.229971
  16 H :    0.251841
  17 C :    0.080981
  18 C :   -0.183351
  19 H :    0.270356
  20 C :   -0.335815
  21 C :   -0.236045
  22 S :    0.292417
  23 C :   -0.382794
  24 H :    0.529193
  25 H :    0.252194
  26 H :    0.293308
  27 H :    0.279693
  28 H :    0.274488
  29 H :    0.281420
  30 O :   -0.559085
  31 O :   -0.420509
  32 C :    0.639694
  33 C :   -0.728428
  34 H :    0.282863
  35 H :    0.283773
  36 H :    0.281535
  37 H :    0.280222
  38 H :    0.284772
Sum of atomic charges:    1.0000000

LOEWDIN ATOMIC CHARGES
----------------------
   0 Ir:   -0.263875
   1 C :   -0.023506
   2 C :   -0.111084
   3 C :   -0.103344
   4 C :   -0.075587
   5 C :   -0.014052
   6 N :   -0.042343
   7 C :   -0.057301
   8 C :   -0.350895
   9 H :    0.145210
  10 H :    0.135711
  11 H :    0.144772
  12 C :   -0.364883
  13 H :    0.139178
  14 H :    0.154156
  15 H :    0.134778
  16 H :    0.141713
  17 C :    0.031605
  18 C :   -0.233499
  19 H :    0.150611
  20 C :   -0.139362
  21 C :   -0.180280
  22 S :    0.432239
  23 C :   -0.259411
  24 H :    0.323172
  25 H :    0.150468
  26 H :    0.168799
  27 H :    0.178177
  28 H :    0.175659
  29 H :    0.177789
  30 O :   -0.223248
  31 O :   -0.113311
  32 C :    0.269417
  33 C :   -0.366912
  34 H :    0.169528
  35 H :    0.171887
  36 H :    0.166554
  37 H :    0.179229
  38 H :    0.182242

  Mayer bond orders larger than 0.100000
B(  0-Ir,  1-C ) :   0.3589 B(  0-Ir,  2-C ) :   0.3250 B(  0-Ir,  3-C ) :   0.4502
B(  0-Ir,  4-C ) :   0.4864 B(  0-Ir,  5-C ) :   0.3626 B(  0-Ir,  6-N ) :   0.4996
B(  0-Ir, 20-C ) :   0.6255 B(  0-Ir, 31-O ) :   0.4232 B(  1-C ,  2-C ) :   1.2273
B(  1-C ,  4-C ) :   1.2074 B(  1-C , 27-H ) :   0.9167 B(  2-C ,  5-C ) :   1.1995
B(  2-C , 28-H ) :   0.9188 B(  3-C ,  4-C ) :   1.1210 B(  3-C ,  5-C ) :   1.2183
B(  3-C , 37-H ) :   0.9140 B(  4-C , 38-H ) :   0.9153 B(  5-C , 29-H ) :   0.9121
B(  6-N ,  7-C ) :   0.8892 B(  6-N , 17-C ) :   1.6119 B(  7-C ,  8-C ) :   0.9838
B(  7-C , 12-C ) :   0.9956 B(  7-C , 13-H ) :   0.8915 B(  8-C ,  9-H ) :   0.9077
B(  8-C , 10-H ) :   0.9185 B(  8-C , 11-H ) :   0.9067 B( 12-C , 14-H ) :   0.9047
B( 12-C , 15-H ) :   0.9115 B( 12-C , 16-H ) :   0.9131 B( 17-C , 18-C ) :   1.1337
B( 17-C , 19-H ) :   0.8792 B( 18-C , 20-C ) :   1.3436 B( 18-C , 22-S ) :   1.1469
B( 20-C , 21-C ) :   1.2967 B( 21-C , 23-C ) :   1.5433 B( 21-C , 25-H ) :   0.9059
B( 22-S , 23-C ) :   1.2274 B( 23-C , 26-H ) :   0.8891 B( 24-H , 30-O ) :   0.6300
B( 30-O , 32-C ) :   1.2413 B( 31-O , 32-C ) :   1.5990 B( 32-C , 33-C ) :   0.9384
B( 33-C , 34-H ) :   0.8893 B( 33-C , 35-H ) :   0.8872 B( 33-C , 36-H ) :   0.9011

Dispersion correction           -0.029620639
FINAL SINGLE POINT ENERGY     -1288.375151261061
Dispersion correction            ... done

DIPOLE MOMENT
-------------
                                X             Y             Z
Electronic contribution:     37.96958     -75.58742      77.86084
Nuclear contribution   :    -38.35748      75.85915     -77.14852
                        -----------------------------------------
Total Dipole Moment    :     -0.38790       0.27173       0.71232
                        -----------------------------------------
Magnitude (a.u.)       :      0.85540
Magnitude (Debye)      :      2.17425

Rotational constants in cm-1:     0.010504     0.008220     0.007679
Rotational constants in MHz :   314.898334   246.426817   230.215060

                             ****ORCA TERMINATED NORMALLY****
TOTAL RUN TIME: 0 days 0 hours 14 minutes 16 seconds 956 msec
