                         Program Version 5.0.3 -  RELEASE  -
|  1> ! EnGrad PBEh-3c
|  2> %output
|  3> xyzfile=True
|  4> end
|  5> %scf
|  6> maxiter 250
|  7> end
|  8> %output
|  9> Print[P_Hirshfeld] = 1
| 10> end
| 11> % maxcore
| 12> 4000
| 13> *xyz 1 1
| 14> Ir   0.58207645  -0.77680581   0.49907012
| 15> C    0.10612944  -2.92452015   0.99065344
| 16> C    0.05885088  -2.24882166   2.22913609
| 17> C    2.16036522  -1.96543882   1.32596842
| 18> C    1.38027367  -2.77652106   0.42832939
| 19> C    1.35200019  -1.69075141   2.43095755
| 20> N   -1.12873489  -0.15252456  -0.53786974
| 21> C   -2.51149054  -0.17648457   0.02929135
| 22> C   -2.76015121   1.00867770   0.93624485
| 23> H   -3.77064501   0.94041754   1.34874651
| 24> H   -2.69040844   1.93790361   0.38197264
| 25> H   -2.07706403   1.03305085   1.77544375
| 26> C   -3.60291953  -0.29279784  -1.01454029
| 27> H   -2.54754524  -1.07001851   0.62651086
| 28> H   -4.55667355  -0.46138876  -0.49870778
| 29> H   -3.72608715   0.61087150  -1.60240957
| 30> H   -3.45513279  -1.14036428  -1.67446281
| 31> C   -0.91053693   0.21813433  -1.75095845
| 32> C    0.42041688   0.17261181  -2.30289980
| 33> H   -1.73085807   0.53466184  -2.36804438
| 34> C    1.48011933  -0.19651162  -1.47800101
| 35> C    2.67462503  -0.25691673  -2.34352723
| 36> S    0.80001547   0.38815512  -3.97878680
| 37> C    2.43731752   0.03697678  -3.67073412
| 38> H    2.17706297   1.35654868  -0.70959875
| 39> H    3.68075912  -0.48379676  -2.01446170
| 40> H    3.16755091   0.04556739  -4.47351861
| 41> H   -0.62574112  -3.61820929   0.62120609
| 42> H   -0.71134909  -2.29352491   2.96703878
| 43> H    1.65356086  -1.19844970   3.32927797
| 44> O    2.11848120   2.10144186   0.01956363
| 45> O    0.44361483   1.20432441   1.29725992
| 46> C    1.19456299   2.15518472   0.96119073
| 47> C    1.01244280   3.50564738   1.71744000
| 48> H    0.90564627   4.32056868   1.00354649
| 49> H    1.90736987   3.72252683   2.30437152
| 50> H    0.15575668   3.49599039   2.38861132
| 51> H    3.20053820  -1.74605462   1.22835037
| 52> H    1.73480848  -3.32157557  -0.42094046
| 53> *
| 54>
| 55>                          ****END OF INPUT****

CARTESIAN COORDINATES (ANGSTROEM)
---------------------------------
  Ir     0.582076   -0.776806    0.499070
  C      0.106129   -2.924520    0.990653
  C      0.058851   -2.248822    2.229136
  C      2.160365   -1.965439    1.325968
  C      1.380274   -2.776521    0.428329
  C      1.352000   -1.690751    2.430958
  N     -1.128735   -0.152525   -0.537870
  C     -2.511491   -0.176485    0.029291
  C     -2.760151    1.008678    0.936245
  H     -3.770645    0.940418    1.348747
  H     -2.690408    1.937904    0.381973
  H     -2.077064    1.033051    1.775444
  C     -3.602920   -0.292798   -1.014540
  H     -2.547545   -1.070019    0.626511
  H     -4.556674   -0.461389   -0.498708
  H     -3.726087    0.610872   -1.602410
  H     -3.455133   -1.140364   -1.674463
  C     -0.910537    0.218134   -1.750958
  C      0.420417    0.172612   -2.302900
  H     -1.730858    0.534662   -2.368044
  C      1.480119   -0.196512   -1.478001
  C      2.674625   -0.256917   -2.343527
  S      0.800015    0.388155   -3.978787
  C      2.437318    0.036977   -3.670734
  H      2.177063    1.356549   -0.709599
  H      3.680759   -0.483797   -2.014462
  H      3.167551    0.045567   -4.473519
  H     -0.625741   -3.618209    0.621206
  H     -0.711349   -2.293525    2.967039
  H      1.653561   -1.198450    3.329278
  O      2.118481    2.101442    0.019564
  O      0.443615    1.204324    1.297260
  C      1.194563    2.155185    0.961191
  C      1.012443    3.505647    1.717440
  H      0.905646    4.320569    1.003546
  H      1.907370    3.722527    2.304372
  H      0.155757    3.495990    2.388611
  H      3.200538   -1.746055    1.228350
  H      1.734808   -3.321576   -0.420940

 Total Charge           Charge          ....    1
 Multiplicity           Mult            ....    1
 Number of Electrons    NEL             ....  164
 Basis Dimension        Dim             ....  358

ORBITAL ENERGIES
----------------

  NO   OCC          E(Eh)            E(eV)
   0   2.0000     -89.742703     -2442.0231
   1   2.0000     -19.677178      -535.4432
   2   2.0000     -19.668674      -535.2118
   3   2.0000     -14.815994      -403.1637
   4   2.0000     -10.747776      -292.4618
   5   2.0000     -10.638618      -289.4915
   6   2.0000     -10.618522      -288.9447
   7   2.0000     -10.617847      -288.9263
   8   2.0000     -10.607676      -288.6495
   9   2.0000     -10.605212      -288.5825
  10   2.0000     -10.603403      -288.5333
  11   2.0000     -10.600881      -288.4646
  12   2.0000     -10.600137      -288.4444
  13   2.0000     -10.598669      -288.4045
  14   2.0000     -10.593842      -288.2731
  15   2.0000     -10.580095      -287.8990
  16   2.0000     -10.573624      -287.7229
  17   2.0000     -10.542708      -286.8817
  18   2.0000     -10.536516      -286.7132
  19   2.0000      -8.381892      -228.0829
  20   2.0000      -6.271895      -170.6669
  21   2.0000      -6.268517      -170.5750
  22   2.0000      -6.266560      -170.5218
  23   2.0000      -4.009844      -109.1134
  24   2.0000      -2.324861       -63.2627
  25   2.0000      -2.296499       -62.4909
  26   2.0000      -2.291202       -62.3468
  27   2.0000      -1.351547       -36.7775
  28   2.0000      -1.268111       -34.5070
  29   2.0000      -1.182672       -32.1821
  30   2.0000      -1.155964       -31.4554
  31   2.0000      -1.100301       -29.9407
  32   2.0000      -1.010489       -27.4968
  33   2.0000      -0.967104       -26.3162
  34   2.0000      -0.960798       -26.1446
  35   2.0000      -0.957388       -26.0519
  36   2.0000      -0.945039       -25.7158
  37   2.0000      -0.937812       -25.5192
  38   2.0000      -0.890285       -24.2259
  39   2.0000      -0.852133       -23.1877
  40   2.0000      -0.832591       -22.6560
  41   2.0000      -0.782155       -21.2835
  42   2.0000      -0.772276       -21.0147
  43   2.0000      -0.769333       -20.9346
  44   2.0000      -0.762511       -20.7490
  45   2.0000      -0.756075       -20.5738
  46   2.0000      -0.748742       -20.3743
  47   2.0000      -0.714913       -19.4538
  48   2.0000      -0.687090       -18.6967
  49   2.0000      -0.679551       -18.4915
  50   2.0000      -0.670387       -18.2422
  51   2.0000      -0.664165       -18.0728
  52   2.0000      -0.647234       -17.6121
  53   2.0000      -0.630556       -17.1583
  54   2.0000      -0.628567       -17.1042
  55   2.0000      -0.619806       -16.8658
  56   2.0000      -0.610803       -16.6208
  57   2.0000      -0.593704       -16.1555
  58   2.0000      -0.592238       -16.1156
  59   2.0000      -0.591441       -16.0939
  60   2.0000      -0.589390       -16.0381
  61   2.0000      -0.583253       -15.8711
  62   2.0000      -0.576411       -15.6849
  63   2.0000      -0.572014       -15.5653
  64   2.0000      -0.565472       -15.3873
  65   2.0000      -0.557040       -15.1578
  66   2.0000      -0.546243       -14.8640
  67   2.0000      -0.536878       -14.6092
  68   2.0000      -0.534553       -14.5459
  69   2.0000      -0.529917       -14.4198
  70   2.0000      -0.528449       -14.3798
  71   2.0000      -0.525233       -14.2923
  72   2.0000      -0.508326       -13.8323
  73   2.0000      -0.499621       -13.5954
  74   2.0000      -0.491617       -13.3776
  75   2.0000      -0.478322       -13.0158
  76   2.0000      -0.470624       -12.8063
  77   2.0000      -0.445729       -12.1289
  78   2.0000      -0.437598       -11.9076
  79   2.0000      -0.408352       -11.1118
  80   2.0000      -0.403713       -10.9856
  81   2.0000      -0.385703       -10.4955
  82   0.0000      -0.175875        -4.7858
  83   0.0000      -0.156883        -4.2690
  84   0.0000      -0.134499        -3.6599
  85   0.0000      -0.112214        -3.0535
  86   0.0000      -0.073936        -2.0119

MULLIKEN ATOMIC CHARGES
-----------------------
   0 Ir:    0.587562
   1 C :   -0.220187
   2 C :   -0.256117
   3 C :   -0.275956
   4 C :   -0.256116
   5 C :   -0.155677
   6 N :   -0.472011
   7 C :   -0.098186
   8 C :   -0.637176
   9 H :    0.244517
  10 H :    0.224652
  11 H :    0.260537
  12 C :   -0.693054
  13 H :    0.250413
  14 H :    0.265053
  15 H :    0.229639
  16 H :    0.250592
  17 C :    0.082742
  18 C :   -0.179018
  19 H :    0.272688
  20 C :   -0.347914
  21 C :   -0.229838
  22 S :    0.309388
  23 C :   -0.392513
  24 H :    0.533442
  25 H :    0.258045
  26 H :    0.294907
  27 H :    0.278542
  28 H :    0.273745
  29 H :    0.281050
  30 O :   -0.573434
  31 O :   -0.443071
  32 C :    0.658550
  33 C :   -0.730163
  34 H :    0.281895
  35 H :    0.283942
  36 H :    0.280211
  37 H :    0.275918
  38 H :    0.282403
Sum of atomic charges:    1.0000000

LOEWDIN ATOMIC CHARGES
----------------------
   0 Ir:   -0.261689
   1 C :   -0.037396
   2 C :   -0.106901
   3 C :   -0.105379
   4 C :   -0.060652
   5 C :   -0.015842
   6 N :   -0.033739
   7 C :   -0.060249
   8 C :   -0.350067
   9 H :    0.144787
  10 H :    0.135223
  11 H :    0.146181
  12 C :   -0.365029
  13 H :    0.139961
  14 H :    0.154886
  15 H :    0.134377
  16 H :    0.140858
  17 C :    0.032655
  18 C :   -0.237842
  19 H :    0.151357
  20 C :   -0.154968
  21 C :   -0.182947
  22 S :    0.450636
  23 C :   -0.259512
  24 H :    0.381081
  25 H :    0.153158
  26 H :    0.169132
  27 H :    0.178920
  28 H :    0.175141
  29 H :    0.178391
  30 O :   -0.254171
  31 O :   -0.129100
  32 C :    0.246956
  33 C :   -0.366266
  34 H :    0.170321
  35 H :    0.173641
  36 H :    0.164433
  37 H :    0.178159
  38 H :    0.181496

  Mayer bond orders larger than 0.100000
B(  0-Ir,  1-C ) :   0.3941 B(  0-Ir,  2-C ) :   0.3460 B(  0-Ir,  3-C ) :   0.4632
B(  0-Ir,  4-C ) :   0.4683 B(  0-Ir,  5-C ) :   0.3639 B(  0-Ir,  6-N ) :   0.4907
B(  0-Ir, 20-C ) :   0.6017 B(  0-Ir, 31-O ) :   0.4367 B(  1-C ,  2-C ) :   1.1965
B(  1-C ,  4-C ) :   1.2152 B(  1-C , 27-H ) :   0.9184 B(  2-C ,  5-C ) :   1.2153
B(  2-C , 28-H ) :   0.9186 B(  3-C ,  4-C ) :   1.1241 B(  3-C ,  5-C ) :   1.2013
B(  3-C , 37-H ) :   0.9176 B(  4-C , 38-H ) :   0.9168 B(  5-C , 29-H ) :   0.9127
B(  6-N ,  7-C ) :   0.8949 B(  6-N , 17-C ) :   1.6195 B(  7-C ,  8-C ) :   0.9837
B(  7-C , 12-C ) :   0.9966 B(  7-C , 13-H ) :   0.8894 B(  8-C ,  9-H ) :   0.9084
B(  8-C , 10-H ) :   0.9183 B(  8-C , 11-H ) :   0.9043 B( 12-C , 14-H ) :   0.9054
B( 12-C , 15-H ) :   0.9117 B( 12-C , 16-H ) :   0.9132 B( 17-C , 18-C ) :   1.1299
B( 17-C , 19-H ) :   0.8788 B( 18-C , 20-C ) :   1.3297 B( 18-C , 22-S ) :   1.1580
B( 20-C , 21-C ) :   1.3067 B( 21-C , 23-C ) :   1.5202 B( 21-C , 25-H ) :   0.9041
B( 22-S , 23-C ) :   1.2430 B( 23-C , 26-H ) :   0.8901 B( 24-H , 30-O ) :   0.5684
B( 30-O , 32-C ) :   1.2718 B( 31-O , 32-C ) :   1.5641 B( 32-C , 33-C ) :   0.9441
B( 33-C , 34-H ) :   0.8904 B( 33-C , 35-H ) :   0.8877 B( 33-C , 36-H ) :   0.9009

Dispersion correction           -0.029626192
FINAL SINGLE POINT ENERGY     -1288.395403647372
Dispersion correction            ... done

DIPOLE MOMENT
-------------
                                X             Y             Z
Electronic contribution:     34.86699     -76.71112      79.86244
Nuclear contribution   :    -35.16041      76.90560     -79.40318
                        -----------------------------------------
Total Dipole Moment    :     -0.29341       0.19448       0.45926
                        -----------------------------------------
Magnitude (a.u.)       :      0.57865
Magnitude (Debye)      :      1.47080

Rotational constants in cm-1:     0.010497     0.008173     0.007683
Rotational constants in MHz :   314.684391   245.034027   230.317740

                             ****ORCA TERMINATED NORMALLY****
TOTAL RUN TIME: 0 days 0 hours 17 minutes 37 seconds 361 msec
