                         Program Version 5.0.3 -  RELEASE  -
|  1> ! EnGrad PBEh-3c
|  2> %output
|  3> xyzfile=True
|  4> end
|  5> %scf
|  6> maxiter 250
|  7> end
|  8> %output
|  9> Print[P_Hirshfeld] = 1
| 10> end
| 11> % maxcore
| 12> 4000
| 13> *xyz 1 1
| 14> Ir   0.64333970  -0.76549212   0.46544448
| 15> C    0.04732413  -2.92603577   1.14268953
| 16> C    0.16397943  -2.17809042   2.32911584
| 17> C    2.19196503  -2.09345780   1.18998392
| 18> C    1.23943660  -2.82205262   0.37190628
| 19> C    1.53375143  -1.71787362   2.36884553
| 20> N   -1.11069171  -0.13368368  -0.54522998
| 21> C   -2.50086295  -0.13858434   0.03640960
| 22> C   -2.80004706   1.14049401   0.81533040
| 23> H   -3.82796560   1.07951823   1.17606337
| 24> H   -2.72712772   2.02699086   0.18310433
| 25> H   -2.15027868   1.24302682   1.68026961
| 26> C   -3.55691126  -0.37364451  -1.03197833
| 27> H   -2.50848932  -0.98596517   0.72638553
| 28> H   -4.50235151  -0.52451237  -0.51639860
| 29> H   -3.71105965   0.47264113  -1.70691343
| 30> H   -3.35826384  -1.27102256  -1.61892822
| 31> C   -0.87687697   0.23638582  -1.75457865
| 32> C    0.46329605   0.17081419  -2.26409500
| 33> H   -1.71375201   0.53946580  -2.36841862
| 34> C    1.51687730  -0.15750690  -1.42010870
| 35> C    2.68808462  -0.18070200  -2.34314262
| 36> S    0.76562769   0.34150304  -3.98790822
| 37> C    2.41475664   0.00784092  -3.69816999
| 38> H    2.04304191   1.40072945  -0.46407126
| 39> H    3.72731030  -0.37216925  -2.08904510
| 40> H    3.10815244   0.00736811  -4.55754457
| 41> H   -0.78192107  -3.56373013   0.86859823
| 42> H   -0.52604056  -2.15660893   3.15536650
| 43> H    1.98679744  -1.21735528   3.21372088
| 44> O    2.07374295   2.04604121   0.07894314
| 45> O    0.41253534   1.16050056   1.37642718
| 46> C    1.18427636   2.06876690   1.01888071
| 47> C    0.97602532   3.44075180   1.78879802
| 48> H    0.88696054   4.28829434   1.09461766
| 49> H    1.83684504   3.67792482   2.42843110
| 50> H    0.08413846   3.48622021   2.45693710
| 51> H    3.22313100  -1.90113960   0.94149156
| 52> H    1.43883246  -3.35945597  -0.53934096
| 53> *
| 54>
| 55>                          ****END OF INPUT****

CARTESIAN COORDINATES (ANGSTROEM)
---------------------------------
  Ir     0.643340   -0.765492    0.465444
  C      0.047324   -2.926036    1.142690
  C      0.163979   -2.178090    2.329116
  C      2.191965   -2.093458    1.189984
  C      1.239437   -2.822053    0.371906
  C      1.533751   -1.717874    2.368846
  N     -1.110692   -0.133684   -0.545230
  C     -2.500863   -0.138584    0.036410
  C     -2.800047    1.140494    0.815330
  H     -3.827966    1.079518    1.176063
  H     -2.727128    2.026991    0.183104
  H     -2.150279    1.243027    1.680270
  C     -3.556911   -0.373645   -1.031978
  H     -2.508489   -0.985965    0.726386
  H     -4.502352   -0.524512   -0.516399
  H     -3.711060    0.472641   -1.706913
  H     -3.358264   -1.271023   -1.618928
  C     -0.876877    0.236386   -1.754579
  C      0.463296    0.170814   -2.264095
  H     -1.713752    0.539466   -2.368419
  C      1.516877   -0.157507   -1.420109
  C      2.688085   -0.180702   -2.343143
  S      0.765628    0.341503   -3.987908
  C      2.414757    0.007841   -3.698170
  H      2.043042    1.400729   -0.464071
  H      3.727310   -0.372169   -2.089045
  H      3.108152    0.007368   -4.557545
  H     -0.781921   -3.563730    0.868598
  H     -0.526041   -2.156609    3.155366
  H      1.986797   -1.217355    3.213721
  O      2.073743    2.046041    0.078943
  O      0.412535    1.160501    1.376427
  C      1.184276    2.068767    1.018881
  C      0.976025    3.440752    1.788798
  H      0.886961    4.288294    1.094618
  H      1.836845    3.677925    2.428431
  H      0.084138    3.486220    2.456937
  H      3.223131   -1.901140    0.941492
  H      1.438832   -3.359456   -0.539341

 Total Charge           Charge          ....    1
 Multiplicity           Mult            ....    1
 Number of Electrons    NEL             ....  164
 Basis Dimension        Dim             ....  358

ORBITAL ENERGIES
----------------

  NO   OCC          E(Eh)            E(eV)
   0   2.0000     -89.736489     -2441.8540
   1   2.0000     -19.686650      -535.7010
   2   2.0000     -19.679394      -535.5035
   3   2.0000     -14.813221      -403.0882
   4   2.0000     -10.755620      -292.6753
   5   2.0000     -10.635628      -289.4102
   6   2.0000     -10.626218      -289.1541
   7   2.0000     -10.625578      -289.1367
   8   2.0000     -10.611522      -288.7542
   9   2.0000     -10.609340      -288.6948
  10   2.0000     -10.606319      -288.6126
  11   2.0000     -10.605878      -288.6006
  12   2.0000     -10.599675      -288.4318
  13   2.0000     -10.596988      -288.3587
  14   2.0000     -10.594622      -288.2943
  15   2.0000     -10.578352      -287.8516
  16   2.0000     -10.578013      -287.8424
  17   2.0000     -10.544600      -286.9332
  18   2.0000     -10.540789      -286.8294
  19   2.0000      -8.375470      -227.9081
  20   2.0000      -6.265551      -170.4943
  21   2.0000      -6.262179      -170.4026
  22   2.0000      -6.259969      -170.3424
  23   2.0000      -4.008867      -109.0868
  24   2.0000      -2.322951       -63.2107
  25   2.0000      -2.295599       -62.4664
  26   2.0000      -2.291282       -62.3489
  27   2.0000      -1.402771       -38.1713
  28   2.0000      -1.305518       -35.5249
  29   2.0000      -1.179264       -32.0894
  30   2.0000      -1.148923       -31.2638
  31   2.0000      -1.090485       -29.6736
  32   2.0000      -1.007380       -27.4122
  33   2.0000      -0.970172       -26.3997
  34   2.0000      -0.963832       -26.2272
  35   2.0000      -0.954099       -25.9624
  36   2.0000      -0.940204       -25.5842
  37   2.0000      -0.932431       -25.3727
  38   2.0000      -0.889109       -24.1939
  39   2.0000      -0.879007       -23.9190
  40   2.0000      -0.846484       -23.0340
  41   2.0000      -0.779069       -21.1995
  42   2.0000      -0.770635       -20.9700
  43   2.0000      -0.770074       -20.9548
  44   2.0000      -0.760144       -20.6846
  45   2.0000      -0.756206       -20.5774
  46   2.0000      -0.750594       -20.4247
  47   2.0000      -0.713102       -19.4045
  48   2.0000      -0.704929       -19.1821
  49   2.0000      -0.685912       -18.6646
  50   2.0000      -0.675984       -18.3945
  51   2.0000      -0.664252       -18.0752
  52   2.0000      -0.641648       -17.4601
  53   2.0000      -0.626875       -17.0581
  54   2.0000      -0.624087       -16.9823
  55   2.0000      -0.616904       -16.7868
  56   2.0000      -0.609226       -16.5779
  57   2.0000      -0.597291       -16.2531
  58   2.0000      -0.592159       -16.1135
  59   2.0000      -0.589793       -16.0491
  60   2.0000      -0.584999       -15.9186
  61   2.0000      -0.584513       -15.9054
  62   2.0000      -0.576744       -15.6940
  63   2.0000      -0.573722       -15.6118
  64   2.0000      -0.569862       -15.5067
  65   2.0000      -0.557247       -15.1635
  66   2.0000      -0.551493       -15.0069
  67   2.0000      -0.548149       -14.9159
  68   2.0000      -0.536041       -14.5864
  69   2.0000      -0.528741       -14.3878
  70   2.0000      -0.527346       -14.3498
  71   2.0000      -0.524825       -14.2812
  72   2.0000      -0.512114       -13.9353
  73   2.0000      -0.499055       -13.5800
  74   2.0000      -0.496637       -13.5142
  75   2.0000      -0.476085       -12.9549
  76   2.0000      -0.471443       -12.8286
  77   2.0000      -0.446992       -12.1633
  78   2.0000      -0.435082       -11.8392
  79   2.0000      -0.413421       -11.2498
  80   2.0000      -0.395261       -10.7556
  81   2.0000      -0.382330       -10.4037
  82   0.0000      -0.178431        -4.8553
  83   0.0000      -0.163503        -4.4491
  84   0.0000      -0.132750        -3.6123
  85   0.0000      -0.116519        -3.1706
  86   0.0000      -0.072215        -1.9651

MULLIKEN ATOMIC CHARGES
-----------------------
   0 Ir:    0.564737
   1 C :   -0.154854
   2 C :   -0.270378
   3 C :   -0.246678
   4 C :   -0.327861
   5 C :   -0.170499
   6 N :   -0.465305
   7 C :   -0.099488
   8 C :   -0.634492
   9 H :    0.245549
  10 H :    0.225745
  11 H :    0.254965
  12 C :   -0.689367
  13 H :    0.246640
  14 H :    0.264915
  15 H :    0.230279
  16 H :    0.251211
  17 C :    0.081025
  18 C :   -0.177909
  19 H :    0.270019
  20 C :   -0.339867
  21 C :   -0.238348
  22 S :    0.284445
  23 C :   -0.376988
  24 H :    0.529050
  25 H :    0.250029
  26 H :    0.293665
  27 H :    0.280736
  28 H :    0.276647
  29 H :    0.283131
  30 O :   -0.512551
  31 O :   -0.418929
  32 C :    0.618451
  33 C :   -0.740377
  34 H :    0.279508
  35 H :    0.281858
  36 H :    0.278002
  37 H :    0.286046
  38 H :    0.287236
Sum of atomic charges:    1.0000000

LOEWDIN ATOMIC CHARGES
----------------------
   0 Ir:   -0.271759
   1 C :   -0.013984
   2 C :   -0.110204
   3 C :   -0.092817
   4 C :   -0.092611
   5 C :   -0.020248
   6 N :   -0.043412
   7 C :   -0.053993
   8 C :   -0.352106
   9 H :    0.145318
  10 H :    0.136102
  11 H :    0.144211
  12 C :   -0.365032
  13 H :    0.139402
  14 H :    0.153256
  15 H :    0.135024
  16 H :    0.141821
  17 C :    0.028622
  18 C :   -0.227911
  19 H :    0.151495
  20 C :   -0.139604
  21 C :   -0.176008
  22 S :    0.426767
  23 C :   -0.259458
  24 H :    0.309977
  25 H :    0.150342
  26 H :    0.169182
  27 H :    0.178066
  28 H :    0.177114
  29 H :    0.179571
  30 O :   -0.175046
  31 O :   -0.109499
  32 C :    0.244568
  33 C :   -0.375035
  34 H :    0.167318
  35 H :    0.170258
  36 H :    0.164532
  37 H :    0.182109
  38 H :    0.183674

  Mayer bond orders larger than 0.100000
B(  0-Ir,  1-C ) :   0.3142 B(  0-Ir,  2-C ) :   0.3147 B(  0-Ir,  3-C ) :   0.4285
B(  0-Ir,  4-C ) :   0.5048 B(  0-Ir,  5-C ) :   0.3736 B(  0-Ir,  6-N ) :   0.5077
B(  0-Ir, 20-C ) :   0.6316 B(  0-Ir, 31-O ) :   0.4245 B(  1-C ,  2-C ) :   1.2657
B(  1-C ,  4-C ) :   1.1920 B(  1-C , 27-H ) :   0.9134 B(  2-C ,  5-C ) :   1.1654
B(  2-C , 28-H ) :   0.9185 B(  3-C ,  4-C ) :   1.1146 B(  3-C ,  5-C ) :   1.2408
B(  3-C , 37-H ) :   0.9079 B(  4-C , 38-H ) :   0.9130 B(  5-C , 29-H ) :   0.9108
B(  6-N ,  7-C ) :   0.8856 B(  6-N , 17-C ) :   1.6070 B(  7-C ,  8-C ) :   0.9794
B(  7-C , 12-C ) :   0.9911 B(  7-C , 13-H ) :   0.8937 B(  8-C ,  9-H ) :   0.9072
B(  8-C , 10-H ) :   0.9186 B(  8-C , 11-H ) :   0.9086 B( 12-C , 14-H ) :   0.9044
B( 12-C , 15-H ) :   0.9113 B( 12-C , 16-H ) :   0.9137 B( 17-C , 18-C ) :   1.1355
B( 17-C , 19-H ) :   0.8789 B( 18-C , 20-C ) :   1.3393 B( 18-C , 22-S ) :   1.1465
B( 20-C , 21-C ) :   1.2973 B( 21-C , 23-C ) :   1.5507 B( 21-C , 25-H ) :   0.9068
B( 22-S , 23-C ) :   1.2237 B( 23-C , 26-H ) :   0.8870 B( 24-H , 30-O ) :   0.6304
B( 30-O , 32-C ) :   1.2992 B( 31-O , 32-C ) :   1.5962 B( 32-C , 33-C ) :   0.9348
B( 33-C , 34-H ) :   0.8910 B( 33-C , 35-H ) :   0.8883 B( 33-C , 36-H ) :   0.9044

Dispersion correction           -0.029574881
FINAL SINGLE POINT ENERGY     -1288.363085239409
Dispersion correction            ... done

DIPOLE MOMENT
-------------
                                X             Y             Z
Electronic contribution:     40.70625     -74.74837      76.37635
Nuclear contribution   :    -41.13924      74.97914     -75.65465
                        -----------------------------------------
Total Dipole Moment    :     -0.43300       0.23077       0.72170
                        -----------------------------------------
Magnitude (a.u.)       :      0.87269
Magnitude (Debye)      :      2.21821

Rotational constants in cm-1:     0.010477     0.008258     0.007686
Rotational constants in MHz :   314.096799   247.568979   230.431294

                             ****ORCA TERMINATED NORMALLY****
TOTAL RUN TIME: 0 days 0 hours 15 minutes 24 seconds 34 msec
