                         Program Version 5.0.3 -  RELEASE  -
|  1> ! EnGrad PBEh-3c
|  2> %output
|  3> xyzfile=True
|  4> end
|  5> %scf
|  6> maxiter 250
|  7> end
|  8> %output
|  9> Print[P_Hirshfeld] = 1
| 10> end
| 11> % maxcore
| 12> 4000
| 13> *xyz 1 1
| 14> Ir   0.60202525  -0.77312180   0.48812080
| 15> C    0.08698101  -2.92501367   1.04016007
| 16> C    0.09308329  -2.22578985   2.26169192
| 17> C    2.17065489  -2.00712490   1.28168857
| 18> C    1.33441371  -2.79134724   0.40995666
| 19> C    1.41118280  -1.69958306   2.41073237
| 20> N   -1.12285960  -0.14638951  -0.54026641
| 21> C   -2.50802994  -0.16414334   0.03160923
| 22> C   -2.77314227   1.05160028   0.89687218
| 23> H   -3.78930998   0.98571209   1.29251670
| 24> H   -2.70236513   1.96691258   0.31721630
| 25> H   -2.10090450   1.10142411   1.74445274
| 26> C   -3.58793812  -0.31912348  -1.02021854
| 27> H   -2.53482768  -1.04264870   0.65903247
| 28> H   -4.53898497  -0.48194333  -0.50446834
| 29> H   -3.72119383   0.56586034  -1.63643856
| 30> H   -3.42358991  -1.18290978  -1.65637940
| 31> C   -0.89957643   0.22407746  -1.75213728
| 32> C    0.43437938   0.17202646  -2.29026401
| 33> H   -1.72528792   0.53622613  -2.36816624
| 34> C    1.49208862  -0.18381074  -1.45914987
| 35> C    2.67900780  -0.23209937  -2.34340199
| 36> S    0.78881798   0.37296407  -3.98175695
| 37> C    2.42997115   0.02748944  -3.67966791
| 38> H    2.13342246   1.37093501  -0.62964905
| 39> H    3.69591731  -0.44744814  -2.03874786
| 40> H    3.14820933   0.03312878  -4.50087950
| 41> H   -0.67659709  -3.60046956   0.70176296
| 42> H   -0.65100814  -2.24894175   3.02836285
| 43> H    1.76207077  -1.20460582   3.29164978
| 44> O    2.10391334   2.08340206   0.03889904
| 45> O    0.43349459   1.19005431   1.32303870
| 46> C    1.19121342   2.12704498   0.97997599
| 47> C    1.00058438   3.48451580   1.74067590
| 48> H    0.89956174   4.31005937   1.03320147
| 49> H    1.88440528   3.70800333   2.34476832
| 50> H    0.13243605   3.49280898   2.41085985
| 51> H    3.20789496  -1.79655405   1.13494219
| 52> H    1.63843152  -3.33391035  -0.45949453
| 53> *
| 54>
| 55>                          ****END OF INPUT****

CARTESIAN COORDINATES (ANGSTROEM)
---------------------------------
  Ir     0.602025   -0.773122    0.488121
  C      0.086981   -2.925014    1.040160
  C      0.093083   -2.225790    2.261692
  C      2.170655   -2.007125    1.281689
  C      1.334414   -2.791347    0.409957
  C      1.411183   -1.699583    2.410732
  N     -1.122860   -0.146390   -0.540266
  C     -2.508030   -0.164143    0.031609
  C     -2.773142    1.051600    0.896872
  H     -3.789310    0.985712    1.292517
  H     -2.702365    1.966913    0.317216
  H     -2.100904    1.101424    1.744453
  C     -3.587938   -0.319123   -1.020219
  H     -2.534828   -1.042649    0.659032
  H     -4.538985   -0.481943   -0.504468
  H     -3.721194    0.565860   -1.636439
  H     -3.423590   -1.182910   -1.656379
  C     -0.899576    0.224077   -1.752137
  C      0.434379    0.172026   -2.290264
  H     -1.725288    0.536226   -2.368166
  C      1.492089   -0.183811   -1.459150
  C      2.679008   -0.232099   -2.343402
  S      0.788818    0.372964   -3.981757
  C      2.429971    0.027489   -3.679668
  H      2.133422    1.370935   -0.629649
  H      3.695917   -0.447448   -2.038748
  H      3.148209    0.033129   -4.500879
  H     -0.676597   -3.600470    0.701763
  H     -0.651008   -2.248942    3.028363
  H      1.762071   -1.204606    3.291650
  O      2.103913    2.083402    0.038899
  O      0.433495    1.190054    1.323039
  C      1.191213    2.127045    0.979976
  C      1.000584    3.484516    1.740676
  H      0.899562    4.310059    1.033201
  H      1.884405    3.708003    2.344768
  H      0.132436    3.492809    2.410860
  H      3.207895   -1.796554    1.134942
  H      1.638432   -3.333910   -0.459495

 Total Charge           Charge          ....    1
 Multiplicity           Mult            ....    1
 Number of Electrons    NEL             ....  164
 Basis Dimension        Dim             ....  358

ORBITAL ENERGIES
----------------

  NO   OCC          E(Eh)            E(eV)
   0   2.0000     -89.740384     -2441.9600
   1   2.0000     -19.681500      -535.5608
   2   2.0000     -19.672602      -535.3187
   3   2.0000     -14.815044      -403.1379
   4   2.0000     -10.750725      -292.5421
   5   2.0000     -10.637582      -289.4633
   6   2.0000     -10.620019      -288.9854
   7   2.0000     -10.619955      -288.9837
   8   2.0000     -10.606134      -288.6076
   9   2.0000     -10.605775      -288.5978
  10   2.0000     -10.604930      -288.5748
  11   2.0000     -10.600085      -288.4430
  12   2.0000     -10.599998      -288.4406
  13   2.0000     -10.598901      -288.4108
  14   2.0000     -10.593677      -288.2686
  15   2.0000     -10.578957      -287.8681
  16   2.0000     -10.575323      -287.7692
  17   2.0000     -10.542967      -286.8887
  18   2.0000     -10.537561      -286.7416
  19   2.0000      -8.379523      -228.0184
  20   2.0000      -6.269556      -170.6033
  21   2.0000      -6.266175      -170.5113
  22   2.0000      -6.264133      -170.4557
  23   2.0000      -4.009628      -109.1075
  24   2.0000      -2.324424       -63.2508
  25   2.0000      -2.296234       -62.4837
  26   2.0000      -2.291307       -62.3496
  27   2.0000      -1.365451       -37.1558
  28   2.0000      -1.281288       -34.8656
  29   2.0000      -1.181603       -32.1531
  30   2.0000      -1.155549       -31.4441
  31   2.0000      -1.096985       -29.8505
  32   2.0000      -1.009876       -27.4801
  33   2.0000      -0.966779       -26.3074
  34   2.0000      -0.962300       -26.1855
  35   2.0000      -0.957385       -26.0518
  36   2.0000      -0.942965       -25.6594
  37   2.0000      -0.936439       -25.4818
  38   2.0000      -0.890153       -24.2223
  39   2.0000      -0.853524       -23.2256
  40   2.0000      -0.846217       -23.0267
  41   2.0000      -0.781210       -21.2578
  42   2.0000      -0.772304       -21.0155
  43   2.0000      -0.770096       -20.9554
  44   2.0000      -0.761305       -20.7162
  45   2.0000      -0.755810       -20.5666
  46   2.0000      -0.752244       -20.4696
  47   2.0000      -0.714244       -19.4356
  48   2.0000      -0.691270       -18.8104
  49   2.0000      -0.681161       -18.5353
  50   2.0000      -0.672471       -18.2989
  51   2.0000      -0.666126       -18.1262
  52   2.0000      -0.645623       -17.5683
  53   2.0000      -0.629744       -17.1362
  54   2.0000      -0.627683       -17.0801
  55   2.0000      -0.619380       -16.8542
  56   2.0000      -0.610417       -16.6103
  57   2.0000      -0.593519       -16.1505
  58   2.0000      -0.591141       -16.0858
  59   2.0000      -0.590224       -16.0608
  60   2.0000      -0.589326       -16.0364
  61   2.0000      -0.582347       -15.8465
  62   2.0000      -0.579519       -15.7695
  63   2.0000      -0.572857       -15.5882
  64   2.0000      -0.568393       -15.4668
  65   2.0000      -0.557323       -15.1655
  66   2.0000      -0.546688       -14.8761
  67   2.0000      -0.541302       -14.7296
  68   2.0000      -0.535298       -14.5662
  69   2.0000      -0.530148       -14.4261
  70   2.0000      -0.528184       -14.3726
  71   2.0000      -0.526372       -14.3233
  72   2.0000      -0.509847       -13.8736
  73   2.0000      -0.499665       -13.5966
  74   2.0000      -0.493732       -13.4351
  75   2.0000      -0.478353       -13.0166
  76   2.0000      -0.471203       -12.8221
  77   2.0000      -0.446127       -12.1397
  78   2.0000      -0.436858       -11.8875
  79   2.0000      -0.409782       -11.1507
  80   2.0000      -0.400912       -10.9094
  81   2.0000      -0.384856       -10.4725
  82   0.0000      -0.175592        -4.7781
  83   0.0000      -0.159902        -4.3512
  84   0.0000      -0.133469        -3.6319
  85   0.0000      -0.113825        -3.0973
  86   0.0000      -0.072784        -1.9805

MULLIKEN ATOMIC CHARGES
-----------------------
   0 Ir:    0.580114
   1 C :   -0.197185
   2 C :   -0.261276
   3 C :   -0.266480
   4 C :   -0.280516
   5 C :   -0.158727
   6 N :   -0.469977
   7 C :   -0.098867
   8 C :   -0.636003
   9 H :    0.244773
  10 H :    0.224848
  11 H :    0.258750
  12 C :   -0.692087
  13 H :    0.249320
  14 H :    0.264978
  15 H :    0.229915
  16 H :    0.251003
  17 C :    0.082112
  18 C :   -0.178272
  19 H :    0.271824
  20 C :   -0.349611
  21 C :   -0.231289
  22 S :    0.300944
  23 C :   -0.387675
  24 H :    0.539866
  25 H :    0.255292
  26 H :    0.294335
  27 H :    0.279240
  28 H :    0.274358
  29 H :    0.281411
  30 O :   -0.562165
  31 O :   -0.435082
  32 C :    0.648347
  33 C :   -0.733189
  34 H :    0.281286
  35 H :    0.283381
  36 H :    0.279829
  37 H :    0.278919
  38 H :    0.283559
Sum of atomic charges:    1.0000000

LOEWDIN ATOMIC CHARGES
----------------------
   0 Ir:   -0.263155
   1 C :   -0.028455
   2 C :   -0.109117
   3 C :   -0.101825
   4 C :   -0.072365
   5 C :   -0.016137
   6 N :   -0.036818
   7 C :   -0.058459
   8 C :   -0.350644
   9 H :    0.145012
  10 H :    0.135416
  11 H :    0.145470
  12 C :   -0.364957
  13 H :    0.139715
  14 H :    0.154401
  15 H :    0.134522
  16 H :    0.141169
  17 C :    0.031450
  18 C :   -0.234777
  19 H :    0.151363
  20 C :   -0.151855
  21 C :   -0.180431
  22 S :    0.442515
  23 C :   -0.259272
  24 H :    0.361931
  25 H :    0.152034
  26 H :    0.169023
  27 H :    0.178513
  28 H :    0.175486
  29 H :    0.178398
  30 O :   -0.230321
  31 O :   -0.122141
  32 C :    0.245691
  33 C :   -0.368725
  34 H :    0.169403
  35 H :    0.172544
  36 H :    0.164560
  37 H :    0.179040
  38 H :    0.181800

  Mayer bond orders larger than 0.100000
B(  0-Ir,  1-C ) :   0.3688 B(  0-Ir,  2-C ) :   0.3368 B(  0-Ir,  3-C ) :   0.4520
B(  0-Ir,  4-C ) :   0.4800 B(  0-Ir,  5-C ) :   0.3658 B(  0-Ir,  6-N ) :   0.4963
B(  0-Ir, 20-C ) :   0.6092 B(  0-Ir, 31-O ) :   0.4334 B(  1-C ,  2-C ) :   1.2178
B(  1-C ,  4-C ) :   1.2111 B(  1-C , 27-H ) :   0.9169 B(  2-C ,  5-C ) :   1.2003
B(  2-C , 28-H ) :   0.9188 B(  3-C ,  4-C ) :   1.1215 B(  3-C ,  5-C ) :   1.2154
B(  3-C , 37-H ) :   0.9147 B(  4-C , 38-H ) :   0.9161 B(  5-C , 29-H ) :   0.9124
B(  6-N ,  7-C ) :   0.8919 B(  6-N , 17-C ) :   1.6156 B(  7-C ,  8-C ) :   0.9831
B(  7-C , 12-C ) :   0.9954 B(  7-C , 13-H ) :   0.8908 B(  8-C ,  9-H ) :   0.9080
B(  8-C , 10-H ) :   0.9185 B(  8-C , 11-H ) :   0.9058 B( 12-C , 14-H ) :   0.9051
B( 12-C , 15-H ) :   0.9115 B( 12-C , 16-H ) :   0.9133 B( 17-C , 18-C ) :   1.1316
B( 17-C , 19-H ) :   0.8789 B( 18-C , 20-C ) :   1.3331 B( 18-C , 22-S ) :   1.1546
B( 20-C , 21-C ) :   1.3049 B( 21-C , 23-C ) :   1.5322 B( 21-C , 25-H ) :   0.9050
B( 22-S , 23-C ) :   1.2360 B( 23-C , 26-H ) :   0.8892 B( 24-H , 30-O ) :   0.5829
B( 30-O , 32-C ) :   1.2764 B( 31-O , 32-C ) :   1.5745 B( 32-C , 33-C ) :   0.9410
B( 33-C , 34-H ) :   0.8905 B( 33-C , 35-H ) :   0.8878 B( 33-C , 36-H ) :   0.9019

Dispersion correction           -0.029619616
FINAL SINGLE POINT ENERGY     -1288.397167689054
Dispersion correction            ... done

DIPOLE MOMENT
-------------
                                X             Y             Z
Electronic contribution:     36.76887     -76.06191      78.73523
Nuclear contribution   :    -37.10726      76.27830     -78.18257
                        -----------------------------------------
Total Dipole Moment    :     -0.33839       0.21639       0.55266
                        -----------------------------------------
Magnitude (a.u.)       :      0.68320
Magnitude (Debye)      :      1.73655

Rotational constants in cm-1:     0.010493     0.008204     0.007687
Rotational constants in MHz :   314.562771   245.943862   230.458683

                             ****ORCA TERMINATED NORMALLY****
TOTAL RUN TIME: 0 days 0 hours 15 minutes 5 seconds 760 msec
