                         Program Version 5.0.3 -  RELEASE  -
|  1> ! EnGrad PBEh-3c
|  2> %output
|  3> xyzfile=True
|  4> end
|  5> %scf
|  6> maxiter 250
|  7> end
|  8> %output
|  9> Print[P_Hirshfeld] = 1
| 10> end
| 11> % maxcore
| 12> 4000
| 13> *xyz 1 1
| 14> Ir   0.66719949  -0.76345968   0.46936439
| 15> C   -0.00232940  -2.92809559   1.24867355
| 16> C    0.26846253  -2.12490802   2.39502659
| 17> C    2.21912496  -2.19348593   1.07751124
| 18> C    1.13532038  -2.85562568   0.33575235
| 19> C    1.66220354  -1.73236709   2.31862632
| 20> N   -1.08796528  -0.12341144  -0.54590406
| 21> C   -2.47880554  -0.10617021   0.03226097
| 22> C   -2.82899124   1.23393859   0.72404864
| 23> H   -3.86970672   1.18379858   1.04770204
| 24> H   -2.75293678   2.09232763   0.03276361
| 25> H   -2.20322825   1.40505571   1.60632169
| 26> C   -3.52379952  -0.43777054  -1.04139551
| 27> H   -2.47994745  -0.91886167   0.79980674
| 28> H   -4.46492549  -0.57283233  -0.52993709
| 29> H   -3.69690966   0.36805968  -1.78300628
| 30> H   -3.28579220  -1.36929106  -1.57653506
| 31> C   -0.85737372   0.24434997  -1.75070640
| 32> C    0.47697153   0.17371109  -2.24301157
| 33> H   -1.69857425   0.54620069  -2.37324320
| 34> C    1.55458089  -0.11589121  -1.41598222
| 35> C    2.69651159  -0.13386730  -2.34666329
| 36> S    0.74357409   0.30098239  -3.97020515
| 37> C    2.39918451  -0.00977810  -3.70731976
| 38> H    1.94338873   1.32504457  -0.36742308
| 39> H    3.76074214  -0.28941867  -2.13730494
| 40> H    3.05881214  -0.02210077  -4.60414273
| 41> H   -0.90625174  -3.51413672   1.05289681
| 42> H   -0.38660287  -2.05159500   3.29661205
| 43> H    2.23856344  -1.22525779   3.12190805
| 44> O    2.03673381   2.10156292   0.20868492
| 45> O    0.41164997   1.12425795   1.41308198
| 46> C    1.14298211   2.04718502   1.10406676
| 47> C    0.94988317   3.38853199   1.84089544
| 48> H    0.87529086   4.25461496   1.16253196
| 49> H    1.78321572   3.63947516   2.51671044
| 50> H    0.04138070   3.46727737   2.49535227
| 51> H    3.23802972  -2.01941301   0.72331189
| 52> H    1.21633775  -3.39231290  -0.62805343
| 53> *
| 54>
| 55>                          ****END OF INPUT****

CARTESIAN COORDINATES (ANGSTROEM)
---------------------------------
  Ir     0.667199   -0.763460    0.469364
  C     -0.002329   -2.928096    1.248674
  C      0.268463   -2.124908    2.395027
  C      2.219125   -2.193486    1.077511
  C      1.135320   -2.855626    0.335752
  C      1.662204   -1.732367    2.318626
  N     -1.087965   -0.123411   -0.545904
  C     -2.478806   -0.106170    0.032261
  C     -2.828991    1.233939    0.724049
  H     -3.869707    1.183799    1.047702
  H     -2.752937    2.092328    0.032764
  H     -2.203228    1.405056    1.606322
  C     -3.523800   -0.437771   -1.041396
  H     -2.479947   -0.918862    0.799807
  H     -4.464925   -0.572832   -0.529937
  H     -3.696910    0.368060   -1.783006
  H     -3.285792   -1.369291   -1.576535
  C     -0.857374    0.244350   -1.750706
  C      0.476972    0.173711   -2.243012
  H     -1.698574    0.546201   -2.373243
  C      1.554581   -0.115891   -1.415982
  C      2.696512   -0.133867   -2.346663
  S      0.743574    0.300982   -3.970205
  C      2.399185   -0.009778   -3.707320
  H      1.943389    1.325045   -0.367423
  H      3.760742   -0.289419   -2.137305
  H      3.058812   -0.022101   -4.604143
  H     -0.906252   -3.514137    1.052897
  H     -0.386603   -2.051595    3.296612
  H      2.238563   -1.225258    3.121908
  O      2.036734    2.101563    0.208685
  O      0.411650    1.124258    1.413082
  C      1.142982    2.047185    1.104067
  C      0.949883    3.388532    1.840895
  H      0.875291    4.254615    1.162532
  H      1.783216    3.639475    2.516710
  H      0.041381    3.467277    2.495352
  H      3.238030   -2.019413    0.723312
  H      1.216338   -3.392313   -0.628053

 Total Charge           Charge          ....    1
 Multiplicity           Mult            ....    1
 Number of Electrons    NEL             ....  164
 Basis Dimension        Dim             ....  358

ORBITAL ENERGIES
----------------

  NO   OCC          E(Eh)            E(eV)
   0   2.0000     -89.738114     -2441.8982
   1   2.0000     -19.686106      -535.6862
   2   2.0000     -19.673621      -535.3464
   3   2.0000     -14.815383      -403.1471
   4   2.0000     -10.738630      -292.2130
   5   2.0000     -10.636811      -289.4423
   6   2.0000     -10.636256      -289.4272
   7   2.0000     -10.632839      -289.3343
   8   2.0000     -10.622582      -289.0552
   9   2.0000     -10.619018      -288.9582
  10   2.0000     -10.615741      -288.8690
  11   2.0000     -10.614042      -288.8228
  12   2.0000     -10.601727      -288.4877
  13   2.0000     -10.598894      -288.4106
  14   2.0000     -10.596570      -288.3473
  15   2.0000     -10.580919      -287.9214
  16   2.0000     -10.567100      -287.5454
  17   2.0000     -10.548764      -287.0465
  18   2.0000     -10.545967      -286.9704
  19   2.0000      -8.377376      -227.9600
  20   2.0000      -6.267352      -170.5433
  21   2.0000      -6.263983      -170.4517
  22   2.0000      -6.262029      -170.3985
  23   2.0000      -4.009921      -109.1155
  24   2.0000      -2.323323       -63.2208
  25   2.0000      -2.296561       -62.4926
  26   2.0000      -2.292600       -62.3848
  27   2.0000      -1.397612       -38.0310
  28   2.0000      -1.304172       -35.4883
  29   2.0000      -1.183462       -32.2036
  30   2.0000      -1.136890       -30.9363
  31   2.0000      -1.095069       -29.7983
  32   2.0000      -1.004705       -27.3394
  33   2.0000      -0.960815       -26.1451
  34   2.0000      -0.957226       -26.0475
  35   2.0000      -0.948378       -25.8067
  36   2.0000      -0.941438       -25.6178
  37   2.0000      -0.936802       -25.4917
  38   2.0000      -0.886540       -24.1240
  39   2.0000      -0.849379       -23.1128
  40   2.0000      -0.836764       -22.7695
  41   2.0000      -0.780345       -21.2343
  42   2.0000      -0.770266       -20.9600
  43   2.0000      -0.763835       -20.7850
  44   2.0000      -0.760555       -20.6958
  45   2.0000      -0.755574       -20.5602
  46   2.0000      -0.741939       -20.1892
  47   2.0000      -0.715302       -19.4644
  48   2.0000      -0.708960       -19.2918
  49   2.0000      -0.689774       -18.7697
  50   2.0000      -0.675780       -18.3889
  51   2.0000      -0.664034       -18.0693
  52   2.0000      -0.638135       -17.3645
  53   2.0000      -0.624166       -16.9844
  54   2.0000      -0.618622       -16.8336
  55   2.0000      -0.613454       -16.6929
  56   2.0000      -0.608186       -16.5496
  57   2.0000      -0.599069       -16.3015
  58   2.0000      -0.590771       -16.0757
  59   2.0000      -0.586336       -15.9550
  60   2.0000      -0.585492       -15.9320
  61   2.0000      -0.577214       -15.7068
  62   2.0000      -0.575293       -15.6545
  63   2.0000      -0.567717       -15.4484
  64   2.0000      -0.565467       -15.3871
  65   2.0000      -0.558897       -15.2084
  66   2.0000      -0.550977       -14.9929
  67   2.0000      -0.547190       -14.8898
  68   2.0000      -0.535493       -14.5715
  69   2.0000      -0.528859       -14.3910
  70   2.0000      -0.528208       -14.3733
  71   2.0000      -0.522880       -14.2283
  72   2.0000      -0.512012       -13.9326
  73   2.0000      -0.499011       -13.5788
  74   2.0000      -0.496159       -13.5012
  75   2.0000      -0.475074       -12.9274
  76   2.0000      -0.471775       -12.8376
  77   2.0000      -0.448524       -12.2050
  78   2.0000      -0.435230       -11.8432
  79   2.0000      -0.416026       -11.3206
  80   2.0000      -0.397166       -10.8074
  81   2.0000      -0.383793       -10.4435
  82   0.0000      -0.181054        -4.9267
  83   0.0000      -0.169931        -4.6241
  84   0.0000      -0.138244        -3.7618
  85   0.0000      -0.099071        -2.6959
  86   0.0000      -0.074566        -2.0291

MULLIKEN ATOMIC CHARGES
-----------------------
   0 Ir:    0.564546
   1 C :   -0.129301
   2 C :   -0.276122
   3 C :   -0.215146
   4 C :   -0.365087
   5 C :   -0.194425
   6 N :   -0.459540
   7 C :   -0.101731
   8 C :   -0.633611
   9 H :    0.247637
  10 H :    0.224868
  11 H :    0.252843
  12 C :   -0.683791
  13 H :    0.242071
  14 H :    0.266436
  15 H :    0.227797
  16 H :    0.249210
  17 C :    0.083421
  18 C :   -0.167239
  19 H :    0.271120
  20 C :   -0.355441
  21 C :   -0.237360
  22 S :    0.286457
  23 C :   -0.374852
  24 H :    0.542985
  25 H :    0.250102
  26 H :    0.295529
  27 H :    0.283711
  28 H :    0.281809
  29 H :    0.286641
  30 O :   -0.514638
  31 O :   -0.417694
  32 C :    0.617354
  33 C :   -0.762669
  34 H :    0.280078
  35 H :    0.283064
  36 H :    0.268399
  37 H :    0.292159
  38 H :    0.290412
Sum of atomic charges:    1.0000000

LOEWDIN ATOMIC CHARGES
----------------------
   0 Ir:   -0.282451
   1 C :   -0.008516
   2 C :   -0.104661
   3 C :   -0.073201
   4 C :   -0.105718
   5 C :   -0.036195
   6 N :   -0.041388
   7 C :   -0.051187
   8 C :   -0.353716
   9 H :    0.145816
  10 H :    0.136201
  11 H :    0.143915
  12 C :   -0.364960
  13 H :    0.139177
  14 H :    0.152236
  15 H :    0.134686
  16 H :    0.141637
  17 C :    0.025134
  18 C :   -0.222109
  19 H :    0.153395
  20 C :   -0.152653
  21 C :   -0.167902
  22 S :    0.434801
  23 C :   -0.261556
  24 H :    0.351386
  25 H :    0.152352
  26 H :    0.170292
  27 H :    0.180139
  28 H :    0.182513
  29 H :    0.184470
  30 O :   -0.184892
  31 O :   -0.096894
  32 C :    0.191438
  33 C :   -0.383344
  34 H :    0.167989
  35 H :    0.171756
  36 H :    0.158814
  37 H :    0.186350
  38 H :    0.186845

  Mayer bond orders larger than 0.100000
B(  0-Ir,  1-C ) :   0.2831 B(  0-Ir,  2-C ) :   0.3124 B(  0-Ir,  3-C ) :   0.4118
B(  0-Ir,  4-C ) :   0.5195 B(  0-Ir,  5-C ) :   0.3924 B(  0-Ir,  6-N ) :   0.5085
B(  0-Ir, 20-C ) :   0.6089 B(  0-Ir, 31-O ) :   0.4218 B(  1-C ,  2-C ) :   1.2893
B(  1-C ,  4-C ) :   1.1688 B(  1-C , 27-H ) :   0.9089 B(  2-C ,  5-C ) :   1.1343
B(  2-C , 28-H ) :   0.9139 B(  3-C ,  4-C ) :   1.1080 B(  3-C ,  5-C ) :   1.2464
B(  3-C , 37-H ) :   0.9013 B(  4-C , 38-H ) :   0.9082 B(  5-C , 29-H ) :   0.9082
B(  6-N ,  7-C ) :   0.8848 B(  6-N , 17-C ) :   1.6036 B(  7-C ,  8-C ) :   0.9710
B(  7-C , 12-C ) :   0.9834 B(  7-C , 13-H ) :   0.8966 B(  8-C ,  9-H ) :   0.9060
B(  8-C , 10-H ) :   0.9190 B(  8-C , 11-H ) :   0.9105 B( 12-C , 14-H ) :   0.9035
B( 12-C , 15-H ) :   0.9120 B( 12-C , 16-H ) :   0.9144 B( 17-C , 18-C ) :   1.1364
B( 17-C , 19-H ) :   0.8781 B( 18-C , 20-C ) :   1.3133 B( 18-C , 22-S ) :   1.1585
B( 20-C , 21-C ) :   1.3130 B( 21-C , 23-C ) :   1.5450 B( 21-C , 25-H ) :   0.9070
B( 22-S , 23-C ) :   1.2273 B( 23-C , 26-H ) :   0.8845 B( 24-H , 30-O ) :   0.5589
B( 30-O , 32-C ) :   1.3528 B( 31-O , 32-C ) :   1.5996 B( 32-C , 33-C ) :   0.9327
B( 33-C , 34-H ) :   0.8924 B( 33-C , 35-H ) :   0.8882 B( 33-C , 36-H ) :   0.9095

Dispersion correction           -0.029473517
FINAL SINGLE POINT ENERGY     -1288.377586363819
Dispersion correction            ... done

DIPOLE MOMENT
-------------
                                X             Y             Z
Electronic contribution:     42.87094     -74.47069      75.91873
Nuclear contribution   :    -43.40588      74.50190     -75.30559
                        -----------------------------------------
Total Dipole Moment    :     -0.53494       0.03120       0.61314
                        -----------------------------------------
Magnitude (a.u.)       :      0.81429
Magnitude (Debye)      :      2.06976

Rotational constants in cm-1:     0.010404     0.008266     0.007688
Rotational constants in MHz :   311.904391   247.815370   230.482470

                             ****ORCA TERMINATED NORMALLY****
TOTAL RUN TIME: 0 days 0 hours 11 minutes 40 seconds 166 msec
