                         Program Version 5.0.3 -  RELEASE  -
|  1> ! EnGrad PBEh-3c
|  2> %output
|  3> xyzfile=True
|  4> end
|  5> %scf
|  6> maxiter 250
|  7> end
|  8> %output
|  9> Print[P_Hirshfeld] = 1
| 10> end
| 11> % maxcore
| 12> 4000
| 13> *xyz 0 1
| 14> Pd   0.39527819   0.13952308  -0.21336024
| 15> O    1.97014595   1.37378929   0.63260363
| 16> C    1.81430083   2.56534236   0.37226316
| 17> O    0.70870737   2.98633199  -0.16352565
| 18> C    2.87334073   3.58455143   0.64490850
| 19> H    2.49443601   4.50551381   1.08790008
| 20> H    3.34774332   3.86597226  -0.29793868
| 21> H    3.64199422   3.16923869   1.29036746
| 22> N   -1.30411491  -0.84269750  -0.92970664
| 23> C   -1.03588852  -2.16225812  -1.53089224
| 24> H   -0.31688404  -2.12420806  -2.34473418
| 25> H   -1.90891827  -2.62940488  -2.02993433
| 26> H   -0.62894080  -2.83785769  -0.79636509
| 27> C   -1.89429059  -0.04515902  -2.01664235
| 28> H   -2.01029467   0.98442171  -1.69520022
| 29> H   -2.87303476  -0.43081693  -2.33080139
| 30> H   -1.28279434  -0.04217633  -2.91231565
| 31> C   -1.68429768  -1.17538644   1.46831048
| 32> C   -2.04852663  -2.12626517   2.42145969
| 33> C   -1.71493120  -1.98526632   3.76097399
| 34> C   -0.99192625  -0.88211641   4.16908132
| 35> C   -0.80934688   0.16206629   3.27266291
| 36> C   -1.17745059   0.03232610   1.94002845
| 37> H   -0.76463995  -0.75041787   5.21991022
| 38> H   -0.53865029   1.10606919   3.72928817
| 39> H   -2.75086093  -2.91999289   2.18673359
| 40> H   -2.06813443  -2.70197062   4.49054125
| 41> H   -1.26573162   3.80125808   0.98037373
| 42> C   -2.33675019  -1.06606115   0.11632388
| 43> H   -3.07381310  -0.25306058   0.12676754
| 44> H   -2.97823178  -1.94615176  -0.02895901
| 45> O    1.52081945   0.49035761  -1.90208379
| 46> C    2.24964745  -0.42848906  -2.41337305
| 47> O    2.18496291  -1.56113047  -1.96352901
| 48> C    3.32836165  -0.03502992  -3.39719806
| 49> H    3.70367211  -0.89396589  -3.95532798
| 50> H    4.18091428   0.36380391  -2.84518590
| 51> H    3.04412162   0.70931725  -4.14341093
| 52> *
| 53>
| 54>                          ****END OF INPUT****

CARTESIAN COORDINATES (ANGSTROEM)
---------------------------------
  Pd     0.395278    0.139523   -0.213360
  O      1.970146    1.373789    0.632604
  C      1.814301    2.565342    0.372263
  O      0.708707    2.986332   -0.163526
  C      2.873341    3.584551    0.644908
  H      2.494436    4.505514    1.087900
  H      3.347743    3.865972   -0.297939
  H      3.641994    3.169239    1.290367
  N     -1.304115   -0.842697   -0.929707
  C     -1.035889   -2.162258   -1.530892
  H     -0.316884   -2.124208   -2.344734
  H     -1.908918   -2.629405   -2.029934
  H     -0.628941   -2.837858   -0.796365
  C     -1.894291   -0.045159   -2.016642
  H     -2.010295    0.984422   -1.695200
  H     -2.873035   -0.430817   -2.330801
  H     -1.282794   -0.042176   -2.912316
  C     -1.684298   -1.175386    1.468310
  C     -2.048527   -2.126265    2.421460
  C     -1.714931   -1.985266    3.760974
  C     -0.991926   -0.882116    4.169081
  C     -0.809347    0.162066    3.272663
  C     -1.177451    0.032326    1.940028
  H     -0.764640   -0.750418    5.219910
  H     -0.538650    1.106069    3.729288
  H     -2.750861   -2.919993    2.186734
  H     -2.068134   -2.701971    4.490541
  H     -1.265732    3.801258    0.980374
  C     -2.336750   -1.066061    0.116324
  H     -3.073813   -0.253061    0.126768
  H     -2.978232   -1.946152   -0.028959
  O      1.520819    0.490358   -1.902084
  C      2.249647   -0.428489   -2.413373
  O      2.184963   -1.561130   -1.963529
  C      3.328362   -0.035030   -3.397198
  H      3.703672   -0.893966   -3.955328
  H      4.180914    0.363804   -2.845186
  H      3.044122    0.709317   -4.143411

 Total Charge           Charge          ....    0
 Multiplicity           Mult            ....    1
 Number of Electrons    NEL             ....  154
 Basis Dimension        Dim             ....  339

ORBITAL ENERGIES
----------------

  NO   OCC          E(Eh)            E(eV)
   0   2.0000     -19.499080      -530.5969
   1   2.0000     -19.464070      -529.6443
   2   2.0000     -19.459466      -529.5190
   3   2.0000     -19.415217      -528.3149
   4   2.0000     -14.733457      -400.9177
   5   2.0000     -10.549680      -287.0714
   6   2.0000     -10.521213      -286.2968
   7   2.0000     -10.505447      -285.8678
   8   2.0000     -10.484107      -285.2871
   9   2.0000     -10.483578      -285.2727
  10   2.0000     -10.479763      -285.1689
  11   2.0000     -10.476008      -285.0667
  12   2.0000     -10.468441      -284.8608
  13   2.0000     -10.464434      -284.7517
  14   2.0000     -10.463746      -284.7330
  15   2.0000     -10.462904      -284.7101
  16   2.0000     -10.427165      -283.7376
  17   2.0000     -10.415827      -283.4291
  18   2.0000      -3.662230       -99.6543
  19   2.0000      -2.311430       -62.8972
  20   2.0000      -2.302694       -62.6595
  21   2.0000      -2.272371       -61.8344
  22   2.0000      -1.175704       -31.9925
  23   2.0000      -1.145250       -31.1638
  24   2.0000      -1.085997       -29.5515
  25   2.0000      -1.049260       -28.5518
  26   2.0000      -1.034311       -28.1450
  27   2.0000      -0.977456       -26.5979
  28   2.0000      -0.888551       -24.1787
  29   2.0000      -0.845463       -23.0062
  30   2.0000      -0.818244       -22.2656
  31   2.0000      -0.814032       -22.1509
  32   2.0000      -0.802644       -21.8411
  33   2.0000      -0.794791       -21.6274
  34   2.0000      -0.725570       -19.7438
  35   2.0000      -0.693765       -18.8783
  36   2.0000      -0.669127       -18.2079
  37   2.0000      -0.603806       -16.4304
  38   2.0000      -0.595372       -16.2009
  39   2.0000      -0.582297       -15.8451
  40   2.0000      -0.578382       -15.7386
  41   2.0000      -0.574551       -15.6343
  42   2.0000      -0.556946       -15.1553
  43   2.0000      -0.534282       -14.5385
  44   2.0000      -0.519925       -14.1479
  45   2.0000      -0.515236       -14.0203
  46   2.0000      -0.514220       -13.9926
  47   2.0000      -0.509232       -13.8569
  48   2.0000      -0.498541       -13.5660
  49   2.0000      -0.493264       -13.4224
  50   2.0000      -0.485417       -13.2089
  51   2.0000      -0.481193       -13.0939
  52   2.0000      -0.478149       -13.0111
  53   2.0000      -0.468346       -12.7443
  54   2.0000      -0.451579       -12.2881
  55   2.0000      -0.443383       -12.0651
  56   2.0000      -0.442130       -12.0310
  57   2.0000      -0.438591       -11.9347
  58   2.0000      -0.431497       -11.7416
  59   2.0000      -0.424531       -11.5521
  60   2.0000      -0.419633       -11.4188
  61   2.0000      -0.411982       -11.2106
  62   2.0000      -0.407388       -11.0856
  63   2.0000      -0.403654       -10.9840
  64   2.0000      -0.367253        -9.9935
  65   2.0000      -0.362222        -9.8566
  66   2.0000      -0.357252        -9.7213
  67   2.0000      -0.337979        -9.1969
  68   2.0000      -0.329403        -8.9635
  69   2.0000      -0.315700        -8.5906
  70   2.0000      -0.314193        -8.5496
  71   2.0000      -0.306864        -8.3502
  72   2.0000      -0.303438        -8.2570
  73   2.0000      -0.291713        -7.9379
  74   2.0000      -0.283690        -7.7196
  75   2.0000      -0.264391        -7.1945
  76   2.0000      -0.254325        -6.9205
  77   0.0000      -0.179438        -4.8828
  78   0.0000      -0.081950        -2.2300
  79   0.0000      -0.011100        -0.3021
  80   0.0000       0.008851         0.2408
  81   0.0000       0.065353         1.7783

MULLIKEN ATOMIC CHARGES
-----------------------
   0 Pd:    0.434423
   1 O :   -0.426494
   2 C :    0.601111
   3 O :   -0.472449
   4 C :   -0.746781
   5 H :    0.244184
   6 H :    0.255905
   7 H :    0.238508
   8 N :   -0.487047
   9 C :   -0.545328
  10 H :    0.301499
  11 H :    0.218929
  12 H :    0.277842
  13 C :   -0.542180
  14 H :    0.290331
  15 H :    0.231230
  16 H :    0.283268
  17 C :    0.029710
  18 C :   -0.262980
  19 C :   -0.221384
  20 C :   -0.202118
  21 C :   -0.278773
  22 C :   -0.028061
  23 H :    0.232432
  24 H :    0.239398
  25 H :    0.218131
  26 H :    0.233805
  27 H :    0.156581
  28 C :   -0.330448
  29 H :    0.279221
  30 H :    0.245678
  31 O :   -0.507603
  32 C :    0.536717
  33 O :   -0.468703
  34 C :   -0.746330
  35 H :    0.240296
  36 H :    0.247751
  37 H :    0.229731
Sum of atomic charges:    0.0000000

LOEWDIN ATOMIC CHARGES
----------------------
   0 Pd:   -0.299294
   1 O :   -0.098851
   2 C :    0.146915
   3 O :   -0.266533
   4 C :   -0.379641
   5 H :    0.149128
   6 H :    0.160280
   7 H :    0.141631
   8 N :   -0.031806
   9 C :   -0.239502
  10 H :    0.162656
  11 H :    0.120029
  12 H :    0.154149
  13 C :   -0.233556
  14 H :    0.158953
  15 H :    0.125006
  16 H :    0.157571
  17 C :   -0.064539
  18 C :   -0.125384
  19 C :   -0.127106
  20 C :   -0.119721
  21 C :   -0.119659
  22 C :   -0.004998
  23 H :    0.142009
  24 H :    0.149297
  25 H :    0.138895
  26 H :    0.142007
  27 H :    0.165491
  28 C :   -0.104431
  29 H :    0.156351
  30 H :    0.136856
  31 O :   -0.176014
  32 C :    0.108246
  33 O :   -0.276177
  34 C :   -0.382928
  35 H :    0.142657
  36 H :    0.154654
  37 H :    0.137359

  Mayer bond orders larger than 0.100000
B(  0-Pd,  1-O ) :   0.4998 B(  0-Pd,  3-O ) :   0.1385 B(  0-Pd,  8-N ) :   0.4473
B(  0-Pd, 22-C ) :   0.4207 B(  0-Pd, 27-H ) :   0.1613 B(  0-Pd, 31-O ) :   0.6221
B(  0-Pd, 33-O ) :   0.1028 B(  1-O ,  2-C ) :   1.5084 B(  2-C ,  3-O ) :   1.5330
B(  2-C ,  4-C ) :   0.9446 B(  3-O , 27-H ) :   0.2619 B(  4-C ,  5-H ) :   0.9145
B(  4-C ,  6-H ) :   0.9064 B(  4-C ,  7-H ) :   0.9126 B(  8-N ,  9-C ) :   0.9144
B(  8-N , 13-C ) :   0.9128 B(  8-N , 28-C ) :   0.8800 B(  9-C , 10-H ) :   0.8824
B(  9-C , 11-H ) :   0.9016 B(  9-C , 12-H ) :   0.9010 B( 13-C , 14-H ) :   0.8930
B( 13-C , 15-H ) :   0.9004 B( 13-C , 16-H ) :   0.8944 B( 17-C , 18-C ) :   1.3992
B( 17-C , 22-C ) :   1.3387 B( 17-C , 28-C ) :   0.9518 B( 18-C , 19-C ) :   1.4468
B( 18-C , 25-H ) :   0.9137 B( 19-C , 20-C ) :   1.4235 B( 19-C , 26-H ) :   0.9115
B( 20-C , 21-C ) :   1.4111 B( 20-C , 23-H ) :   0.9098 B( 21-C , 22-C ) :   1.4147
B( 21-C , 24-H ) :   0.9083 B( 22-C , 27-H ) :   0.3585 B( 28-C , 29-H ) :   0.8956
B( 28-C , 30-H ) :   0.9048 B( 31-O , 32-C ) :   1.3027 B( 32-C , 33-O ) :   1.8473
B( 32-C , 34-C ) :   0.9319 B( 34-C , 35-H ) :   0.9176 B( 34-C , 36-H ) :   0.9109
B( 34-C , 37-H ) :   0.9145

Dispersion correction           -0.025835245
FINAL SINGLE POINT ENERGY      -988.213797954486
Dispersion correction            ... done

DIPOLE MOMENT
-------------
                                X             Y             Z
Electronic contribution:     14.58245       6.35328     -10.96340
Nuclear contribution   :    -16.93137      -6.43702      11.65451
                        -----------------------------------------
Total Dipole Moment    :     -2.34892      -0.08374       0.69111
                        -----------------------------------------
Magnitude (a.u.)       :      2.44991
Magnitude (Debye)      :      6.22717

Rotational constants in cm-1:     0.014177     0.008357     0.006372
Rotational constants in MHz :   425.027499   250.527178   191.024776

                             ****ORCA TERMINATED NORMALLY****
TOTAL RUN TIME: 0 days 0 hours 30 minutes 58 seconds 246 msec
