                         Program Version 5.0.3 -  RELEASE  -
|  1> ! EnGrad PBEh-3c
|  2> %output
|  3> xyzfile=True
|  4> end
|  5> %scf
|  6> maxiter 250
|  7> end
|  8> %output
|  9> Print[P_Hirshfeld] = 1
| 10> end
| 11> % maxcore
| 12> 4000
| 13> *xyz 0 1
| 14> Pd   0.40233099   0.34826962  -0.07358965
| 15> O    1.88750308   1.31021244   0.60139340
| 16> C    1.69533845   2.58122267   0.36780595
| 17> O    0.58435633   2.98070543  -0.14663705
| 18> C    2.83513512   3.56402096   0.64603871
| 19> H    2.41820861   4.48148255   1.07359468
| 20> H    3.30329370   3.87509888  -0.29731991
| 21> H    3.63133300   3.20078689   1.30847642
| 22> N   -1.37334997  -0.86620934  -1.00354165
| 23> C   -1.06095808  -2.14945833  -1.67675158
| 24> H   -0.34437140  -1.95900637  -2.46798893
| 25> H   -2.03381736  -2.51525225  -2.02600870
| 26> H   -0.65274192  -2.84293797  -0.93194157
| 27> C   -1.95976683   0.07391091  -1.98191334
| 28> H   -2.06513834   1.07524109  -1.55811194
| 29> H   -2.94140326  -0.31629638  -2.26959986
| 30> H   -1.28354143   0.11546517  -2.84075093
| 31> C   -1.80057457  -1.04593481   1.51864260
| 32> C   -1.95821975  -2.13785094   2.39859726
| 33> C   -1.54337454  -2.02368897   3.71310092
| 34> C   -1.09661099  -0.79922353   4.18150677
| 35> C   -0.90886122   0.28115190   3.29990578
| 36> C   -0.99204262   0.01342558   1.93422680
| 37> H   -0.77318488  -0.69585367   5.20886058
| 38> H   -0.65079529   1.23619371   3.71037850
| 39> H   -2.45386683  -3.04335605   2.06719656
| 40> H   -1.79970220  -2.79481543   4.43078312
| 41> H   -1.29950102   3.58109905   1.03086370
| 42> C   -2.32814203  -1.10796922   0.12434830
| 43> H   -3.04715108  -0.29598983   0.12320486
| 44> H   -2.85367321  -2.04618543  -0.08947728
| 45> O    1.52265942   0.45347286  -1.90323810
| 46> C    2.25059958  -0.54070716  -2.36219093
| 47> O    2.06586956  -1.73262134  -2.25710915
| 48> C    3.42158480  -0.13152285  -3.30451445
| 49> H    3.80473337  -1.02713694  -3.80198704
| 50> H    4.23938375   0.27824510  -2.70600592
| 51> H    3.16261134   0.61656585  -4.05194944
| 52> *
| 53>
| 54>                          ****END OF INPUT****

CARTESIAN COORDINATES (ANGSTROEM)
---------------------------------
  Pd     0.402331    0.348270   -0.073590
  O      1.887503    1.310212    0.601393
  C      1.695338    2.581223    0.367806
  O      0.584356    2.980705   -0.146637
  C      2.835135    3.564021    0.646039
  H      2.418209    4.481483    1.073595
  H      3.303294    3.875099   -0.297320
  H      3.631333    3.200787    1.308476
  N     -1.373350   -0.866209   -1.003542
  C     -1.060958   -2.149458   -1.676752
  H     -0.344371   -1.959006   -2.467989
  H     -2.033817   -2.515252   -2.026009
  H     -0.652742   -2.842938   -0.931942
  C     -1.959767    0.073911   -1.981913
  H     -2.065138    1.075241   -1.558112
  H     -2.941403   -0.316296   -2.269600
  H     -1.283541    0.115465   -2.840751
  C     -1.800575   -1.045935    1.518643
  C     -1.958220   -2.137851    2.398597
  C     -1.543375   -2.023689    3.713101
  C     -1.096611   -0.799224    4.181507
  C     -0.908861    0.281152    3.299906
  C     -0.992043    0.013426    1.934227
  H     -0.773185   -0.695854    5.208861
  H     -0.650795    1.236194    3.710378
  H     -2.453867   -3.043356    2.067197
  H     -1.799702   -2.794815    4.430783
  H     -1.299501    3.581099    1.030864
  C     -2.328142   -1.107969    0.124348
  H     -3.047151   -0.295990    0.123205
  H     -2.853673   -2.046185   -0.089477
  O      1.522659    0.453473   -1.903238
  C      2.250600   -0.540707   -2.362191
  O      2.065870   -1.732621   -2.257109
  C      3.421585   -0.131523   -3.304514
  H      3.804733   -1.027137   -3.801987
  H      4.239384    0.278245   -2.706006
  H      3.162611    0.616566   -4.051949

 Total Charge           Charge          ....    0
 Multiplicity           Mult            ....    1
 Number of Electrons    NEL             ....  154
 Basis Dimension        Dim             ....  339

ORBITAL ENERGIES
----------------

  NO   OCC          E(Eh)            E(eV)
   0   2.0000     -19.527976      -531.3833
   1   2.0000     -19.486218      -530.2469
   2   2.0000     -19.456862      -529.4481
   3   2.0000     -19.422042      -528.5006
   4   2.0000     -14.706917      -400.1956
   5   2.0000     -10.579544      -287.8840
   6   2.0000     -10.522133      -286.3218
   7   2.0000     -10.503163      -285.8056
   8   2.0000     -10.499611      -285.7089
   9   2.0000     -10.489566      -285.4356
  10   2.0000     -10.477763      -285.1144
  11   2.0000     -10.477547      -285.1086
  12   2.0000     -10.474045      -285.0133
  13   2.0000     -10.470777      -284.9243
  14   2.0000     -10.470100      -284.9059
  15   2.0000     -10.469501      -284.8896
  16   2.0000     -10.447763      -284.2981
  17   2.0000     -10.402608      -283.0693
  18   2.0000      -3.668995       -99.8384
  19   2.0000      -2.320723       -63.1501
  20   2.0000      -2.304253       -62.7019
  21   2.0000      -2.281639       -62.0866
  22   2.0000      -1.179759       -32.1029
  23   2.0000      -1.126400       -30.6509
  24   2.0000      -1.074175       -29.2298
  25   2.0000      -1.061292       -28.8792
  26   2.0000      -1.035751       -28.1842
  27   2.0000      -0.982716       -26.7411
  28   2.0000      -0.888038       -24.1647
  29   2.0000      -0.855641       -23.2832
  30   2.0000      -0.823415       -22.4063
  31   2.0000      -0.810122       -22.0445
  32   2.0000      -0.800405       -21.7801
  33   2.0000      -0.771881       -21.0040
  34   2.0000      -0.709819       -19.3152
  35   2.0000      -0.701012       -19.0755
  36   2.0000      -0.666367       -18.1328
  37   2.0000      -0.630629       -17.1603
  38   2.0000      -0.600592       -16.3430
  39   2.0000      -0.568116       -15.4592
  40   2.0000      -0.564770       -15.3682
  41   2.0000      -0.562960       -15.3189
  42   2.0000      -0.551127       -14.9969
  43   2.0000      -0.541728       -14.7412
  44   2.0000      -0.532223       -14.4825
  45   2.0000      -0.530346       -14.4315
  46   2.0000      -0.519742       -14.1429
  47   2.0000      -0.516163       -14.0455
  48   2.0000      -0.491548       -13.3757
  49   2.0000      -0.486370       -13.2348
  50   2.0000      -0.480729       -13.0813
  51   2.0000      -0.472755       -12.8643
  52   2.0000      -0.470529       -12.8037
  53   2.0000      -0.467204       -12.7133
  54   2.0000      -0.459352       -12.4996
  55   2.0000      -0.456232       -12.4147
  56   2.0000      -0.446869       -12.1599
  57   2.0000      -0.441076       -12.0023
  58   2.0000      -0.437944       -11.9171
  59   2.0000      -0.433169       -11.7871
  60   2.0000      -0.419697       -11.4205
  61   2.0000      -0.417110       -11.3501
  62   2.0000      -0.411861       -11.2073
  63   2.0000      -0.399317       -10.8660
  64   2.0000      -0.378073       -10.2879
  65   2.0000      -0.364104        -9.9078
  66   2.0000      -0.351995        -9.5783
  67   2.0000      -0.346894        -9.4395
  68   2.0000      -0.339490        -9.2380
  69   2.0000      -0.336410        -9.1542
  70   2.0000      -0.327125        -8.9015
  71   2.0000      -0.308314        -8.3897
  72   2.0000      -0.303748        -8.2654
  73   2.0000      -0.292918        -7.9707
  74   2.0000      -0.282066        -7.6754
  75   2.0000      -0.270743        -7.3673
  76   2.0000      -0.256945        -6.9918
  77   0.0000      -0.177986        -4.8432
  78   0.0000      -0.068803        -1.8722
  79   0.0000      -0.010447        -0.2843
  80   0.0000      -0.005971        -0.1625
  81   0.0000       0.042315         1.1515

MULLIKEN ATOMIC CHARGES
-----------------------
   0 Pd:    0.440954
   1 O :   -0.485925
   2 C :    0.631043
   3 O :   -0.453006
   4 C :   -0.751303
   5 H :    0.247601
   6 H :    0.267061
   7 H :    0.250256
   8 N :   -0.453692
   9 C :   -0.508359
  10 H :    0.297781
  11 H :    0.198309
  12 H :    0.259084
  13 C :   -0.530060
  14 H :    0.276521
  15 H :    0.218761
  16 H :    0.276644
  17 C :    0.081336
  18 C :   -0.249860
  19 C :   -0.200044
  20 C :   -0.223561
  21 C :   -0.291221
  22 C :   -0.062331
  23 H :    0.238477
  24 H :    0.251574
  25 H :    0.229734
  26 H :    0.230698
  27 H :    0.139987
  28 C :   -0.324945
  29 H :    0.266869
  30 H :    0.233647
  31 O :   -0.536063
  32 C :    0.543932
  33 O :   -0.454264
  34 C :   -0.739698
  35 H :    0.232082
  36 H :    0.225232
  37 H :    0.226752
Sum of atomic charges:   -0.0000000

LOEWDIN ATOMIC CHARGES
----------------------
   0 Pd:   -0.330479
   1 O :   -0.097737
   2 C :    0.214620
   3 O :   -0.237034
   4 C :   -0.378366
   5 H :    0.152088
   6 H :    0.164800
   7 H :    0.148028
   8 N :   -0.088261
   9 C :   -0.231296
  10 H :    0.166736
  11 H :    0.111199
  12 H :    0.148443
  13 C :   -0.235543
  14 H :    0.154796
  15 H :    0.117958
  16 H :    0.158242
  17 C :   -0.041806
  18 C :   -0.126637
  19 C :   -0.121183
  20 C :   -0.129754
  21 C :   -0.111177
  22 C :    0.033662
  23 H :    0.144758
  24 H :    0.153846
  25 H :    0.142565
  26 H :    0.145027
  27 H :    0.151966
  28 C :   -0.111848
  29 H :    0.156083
  30 H :    0.134725
  31 O :   -0.233494
  32 C :    0.126507
  33 O :   -0.270070
  34 C :   -0.394179
  35 H :    0.137299
  36 H :    0.139641
  37 H :    0.135873

  Mayer bond orders larger than 0.100000
B(  0-Pd,  1-O ) :   0.6461 B(  0-Pd,  3-O ) :   0.1422 B(  0-Pd,  8-N ) :   0.3759
B(  0-Pd, 22-C ) :   0.5223 B(  0-Pd, 27-H ) :   0.2606 B(  0-Pd, 31-O ) :   0.5829
B(  1-O ,  2-C ) :   1.2966 B(  2-C ,  3-O ) :   1.6445 B(  2-C ,  4-C ) :   0.9461
B(  3-O , 27-H ) :   0.1772 B(  4-C ,  5-H ) :   0.9097 B(  4-C ,  6-H ) :   0.9007
B(  4-C ,  7-H ) :   0.9075 B(  8-N ,  9-C ) :   0.9200 B(  8-N , 13-C ) :   0.9232
B(  8-N , 28-C ) :   0.8936 B(  9-C , 10-H ) :   0.8822 B(  9-C , 11-H ) :   0.9041
B(  9-C , 12-H ) :   0.9100 B( 13-C , 14-H ) :   0.8966 B( 13-C , 15-H ) :   0.9048
B( 13-C , 16-H ) :   0.8973 B( 17-C , 18-C ) :   1.3986 B( 17-C , 22-C ) :   1.3020
B( 17-C , 28-C ) :   0.9664 B( 18-C , 19-C ) :   1.4140 B( 18-C , 25-H ) :   0.9121
B( 19-C , 20-C ) :   1.4135 B( 19-C , 26-H ) :   0.9141 B( 20-C , 21-C ) :   1.4068
B( 20-C , 23-H ) :   0.9094 B( 21-C , 22-C ) :   1.4047 B( 21-C , 24-H ) :   0.9070
B( 22-C , 27-H ) :   0.3112 B( 28-C , 29-H ) :   0.8953 B( 28-C , 30-H ) :   0.9076
B( 31-O , 32-C ) :   1.2979 B( 31-O , 33-O ) :   0.1024 B( 32-C , 33-O ) :   1.8934
B( 32-C , 34-C ) :   0.9123 B( 34-C , 35-H ) :   0.9220 B( 34-C , 36-H ) :   0.9189
B( 34-C , 37-H ) :   0.9185

Dispersion correction           -0.025777878
FINAL SINGLE POINT ENERGY      -988.238508163543
Dispersion correction            ... done

DIPOLE MOMENT
-------------
                                X             Y             Z
Electronic contribution:     15.67688      18.02916      -2.32336
Nuclear contribution   :    -17.72498     -17.78480       3.84144
                        -----------------------------------------
Total Dipole Moment    :     -2.04810       0.24435       1.51808
                        -----------------------------------------
Magnitude (a.u.)       :      2.56105
Magnitude (Debye)      :      6.50967

Rotational constants in cm-1:     0.013706     0.008448     0.006404
Rotational constants in MHz :   410.908222   253.260770   191.972863

                             ****ORCA TERMINATED NORMALLY****
TOTAL RUN TIME: 0 days 0 hours 14 minutes 36 seconds 123 msec
