                         Program Version 5.0.3 -  RELEASE  -
|  1> ! EnGrad PBEh-3c
|  2> %output
|  3> xyzfile=True
|  4> end
|  5> %scf
|  6> maxiter 250
|  7> end
|  8> %output
|  9> Print[P_Hirshfeld] = 1
| 10> end
| 11> % maxcore
| 12> 4000
| 13> *xyz 0 1
| 14> Pd   0.32841309   0.43413139  -0.01598316
| 15> O    1.82930075   1.38288037   0.59751979
| 16> C    1.69689674   2.52956822   0.39673860
| 17> O    0.42879072   2.98765369  -0.14441824
| 18> C    2.75951483   3.54110573   0.63971208
| 19> H    2.33759413   4.45610907   1.05888196
| 20> H    3.24474913   3.87668607  -0.29126037
| 21> H    3.59244089   3.23082047   1.31394234
| 22> N   -1.38835917  -0.81473289  -0.99263813
| 23> C   -1.11743867  -2.07190419  -1.79414546
| 24> H   -0.40485211  -1.79805971  -2.61256286
| 25> H   -2.15512408  -2.41376956  -2.06875734
| 26> H   -0.67560775  -2.83445252  -1.12120796
| 27> C   -2.01338485   0.17935032  -1.91397079
| 28> H   -2.12554766   1.15884803  -1.40224793
| 29> H   -3.02200132  -0.17350055  -2.22124717
| 30> H   -1.31653671   0.30570982  -2.76124535
| 31> C   -1.80321985  -0.99967735   1.53224141
| 32> C   -1.84904341  -2.12587745   2.36388236
| 33> C   -1.38177160  -2.03450827   3.68054916
| 34> C   -1.16529176  -0.71515132   4.18482107
| 35> C   -0.99864590   0.37016923   3.31892499
| 36> C   -0.91394950   0.04386888   1.92513573
| 37> H   -0.80628845  -0.62965628   5.20510177
| 38> H   -0.80387627   1.38063561   3.70748768
| 39> H   -2.10409947  -3.16559958   1.94037308
| 40> H   -1.47082173  -2.89869221   4.35801664
| 41> H   -1.36800871   3.33070547   1.10149887
| 42> C   -2.30982403  -1.13600828   0.10121950
| 43> H   -3.05881826  -0.35761270   0.10026613
| 44> H   -2.72718695  -2.14907842  -0.12027539
| 45> O    1.59101434   0.33506887  -1.83903267
| 46> C    2.23184145  -0.65346599  -2.42066343
| 47> O    1.88375981  -1.84026442  -2.55064264
| 48> C    3.52481105  -0.24682319  -3.16436006
| 49> H    3.90490898  -1.17223783  -3.61969018
| 50> H    4.31648971   0.17790807  -2.54198053
| 51> H    3.31775057   0.49326508  -3.94895428
| 52> *
| 53>
| 54>                          ****END OF INPUT****

CARTESIAN COORDINATES (ANGSTROEM)
---------------------------------
  Pd     0.328413    0.434131   -0.015983
  O      1.829301    1.382880    0.597520
  C      1.696897    2.529568    0.396739
  O      0.428791    2.987654   -0.144418
  C      2.759515    3.541106    0.639712
  H      2.337594    4.456109    1.058882
  H      3.244749    3.876686   -0.291260
  H      3.592441    3.230820    1.313942
  N     -1.388359   -0.814733   -0.992638
  C     -1.117439   -2.071904   -1.794145
  H     -0.404852   -1.798060   -2.612563
  H     -2.155124   -2.413770   -2.068757
  H     -0.675608   -2.834453   -1.121208
  C     -2.013385    0.179350   -1.913971
  H     -2.125548    1.158848   -1.402248
  H     -3.022001   -0.173501   -2.221247
  H     -1.316537    0.305710   -2.761245
  C     -1.803220   -0.999677    1.532241
  C     -1.849043   -2.125877    2.363882
  C     -1.381772   -2.034508    3.680549
  C     -1.165292   -0.715151    4.184821
  C     -0.998646    0.370169    3.318925
  C     -0.913949    0.043869    1.925136
  H     -0.806288   -0.629656    5.205102
  H     -0.803876    1.380636    3.707488
  H     -2.104099   -3.165600    1.940373
  H     -1.470822   -2.898692    4.358017
  H     -1.368009    3.330705    1.101499
  C     -2.309824   -1.136008    0.101220
  H     -3.058818   -0.357613    0.100266
  H     -2.727187   -2.149078   -0.120275
  O      1.591014    0.335069   -1.839033
  C      2.231841   -0.653466   -2.420663
  O      1.883760   -1.840264   -2.550643
  C      3.524811   -0.246823   -3.164360
  H      3.904909   -1.172238   -3.619690
  H      4.316490    0.177908   -2.541981
  H      3.317751    0.493265   -3.948954

 Total Charge           Charge          ....    0
 Multiplicity           Mult            ....    1
 Number of Electrons    NEL             ....  154
 Basis Dimension        Dim             ....  339

ORBITAL ENERGIES
----------------

  NO   OCC          E(Eh)            E(eV)
   0   2.0000     -19.565641      -532.4082
   1   2.0000     -19.493512      -530.4454
   2   2.0000     -19.447368      -529.1898
   3   2.0000     -19.415503      -528.3227
   4   2.0000     -14.707491      -400.2112
   5   2.0000     -10.596979      -288.3585
   6   2.0000     -10.520803      -286.2856
   7   2.0000     -10.506055      -285.8843
   8   2.0000     -10.497546      -285.6527
   9   2.0000     -10.488488      -285.4063
  10   2.0000     -10.481910      -285.2273
  11   2.0000     -10.480672      -285.1936
  12   2.0000     -10.476041      -285.0676
  13   2.0000     -10.475983      -285.0660
  14   2.0000     -10.471832      -284.9530
  15   2.0000     -10.469098      -284.8786
  16   2.0000     -10.461525      -284.6726
  17   2.0000     -10.401949      -283.0514
  18   2.0000      -3.672892       -99.9445
  19   2.0000      -2.325974       -63.2930
  20   2.0000      -2.308394       -62.8146
  21   2.0000      -2.284423       -62.1623
  22   2.0000      -1.261847       -34.3366
  23   2.0000      -1.107219       -30.1290
  24   2.0000      -1.059143       -28.8208
  25   2.0000      -1.034036       -28.1376
  26   2.0000      -1.021418       -27.7942
  27   2.0000      -0.972160       -26.4538
  28   2.0000      -0.875851       -23.8331
  29   2.0000      -0.847518       -23.0621
  30   2.0000      -0.842862       -22.9354
  31   2.0000      -0.801569       -21.8118
  32   2.0000      -0.792047       -21.5527
  33   2.0000      -0.770171       -20.9574
  34   2.0000      -0.704677       -19.1752
  35   2.0000      -0.683500       -18.5990
  36   2.0000      -0.670094       -18.2342
  37   2.0000      -0.659577       -17.9480
  38   2.0000      -0.591550       -16.0969
  39   2.0000      -0.576042       -15.6749
  40   2.0000      -0.570149       -15.5146
  41   2.0000      -0.561283       -15.2733
  42   2.0000      -0.559105       -15.2140
  43   2.0000      -0.554657       -15.0930
  44   2.0000      -0.549154       -14.9432
  45   2.0000      -0.540191       -14.6993
  46   2.0000      -0.517004       -14.0684
  47   2.0000      -0.512415       -13.9435
  48   2.0000      -0.488355       -13.2888
  49   2.0000      -0.478623       -13.0240
  50   2.0000      -0.474760       -12.9189
  51   2.0000      -0.466643       -12.6980
  52   2.0000      -0.465882       -12.6773
  53   2.0000      -0.464174       -12.6308
  54   2.0000      -0.462679       -12.5901
  55   2.0000      -0.456147       -12.4124
  56   2.0000      -0.449163       -12.2223
  57   2.0000      -0.436440       -11.8761
  58   2.0000      -0.430154       -11.7051
  59   2.0000      -0.424230       -11.5439
  60   2.0000      -0.411715       -11.2033
  61   2.0000      -0.408807       -11.1242
  62   2.0000      -0.403369       -10.9762
  63   2.0000      -0.392326       -10.6757
  64   2.0000      -0.371877       -10.1193
  65   2.0000      -0.368478       -10.0268
  66   2.0000      -0.363588        -9.8937
  67   2.0000      -0.356692        -9.7061
  68   2.0000      -0.344498        -9.3743
  69   2.0000      -0.336085        -9.1453
  70   2.0000      -0.329384        -8.9630
  71   2.0000      -0.297475        -8.0947
  72   2.0000      -0.294684        -8.0188
  73   2.0000      -0.285442        -7.7673
  74   2.0000      -0.281317        -7.6550
  75   2.0000      -0.265160        -7.2154
  76   2.0000      -0.254643        -6.9292
  77   0.0000      -0.169035        -4.5997
  78   0.0000      -0.073322        -1.9952
  79   0.0000      -0.021504        -0.5851
  80   0.0000      -0.002868        -0.0780
  81   0.0000       0.025568         0.6957

MULLIKEN ATOMIC CHARGES
-----------------------
   0 Pd:    0.443896
   1 O :   -0.361228
   2 C :    0.621584
   3 O :   -0.514609
   4 C :   -0.768458
   5 H :    0.264836
   6 H :    0.279518
   7 H :    0.249680
   8 N :   -0.443128
   9 C :   -0.505424
  10 H :    0.302179
  11 H :    0.192901
  12 H :    0.257452
  13 C :   -0.536681
  14 H :    0.272549
  15 H :    0.221705
  16 H :    0.279144
  17 C :    0.074176
  18 C :   -0.249292
  19 C :   -0.207482
  20 C :   -0.221418
  21 C :   -0.285972
  22 C :   -0.092618
  23 H :    0.231901
  24 H :    0.244621
  25 H :    0.224228
  26 H :    0.230362
  27 H :    0.165648
  28 C :   -0.309573
  29 H :    0.262261
  30 H :    0.229948
  31 O :   -0.550187
  32 C :    0.546955
  33 O :   -0.490222
  34 C :   -0.736677
  35 H :    0.231536
  36 H :    0.220993
  37 H :    0.224897
Sum of atomic charges:    0.0000000

LOEWDIN ATOMIC CHARGES
----------------------
   0 Pd:   -0.358568
   1 O :    0.035208
   2 C :    0.222138
   3 O :   -0.321291
   4 C :   -0.374089
   5 H :    0.161602
   6 H :    0.173140
   7 H :    0.150950
   8 N :   -0.085873
   9 C :   -0.229449
  10 H :    0.175471
  11 H :    0.111448
  12 H :    0.146324
  13 C :   -0.236701
  14 H :    0.154069
  15 H :    0.120430
  16 H :    0.160551
  17 C :   -0.036960
  18 C :   -0.131555
  19 C :   -0.125630
  20 C :   -0.140759
  21 C :   -0.120105
  22 C :    0.033259
  23 H :    0.143879
  24 H :    0.152075
  25 H :    0.143157
  26 H :    0.144917
  27 H :    0.182937
  28 C :   -0.117271
  29 H :    0.154393
  30 H :    0.137150
  31 O :   -0.261563
  32 C :    0.135443
  33 O :   -0.314714
  34 C :   -0.395688
  35 H :    0.138888
  36 H :    0.133626
  37 H :    0.139161

  Mayer bond orders larger than 0.100000
B(  0-Pd,  1-O ) :   0.5211 B(  0-Pd,  3-O ) :   0.1950 B(  0-Pd,  8-N ) :   0.3999
B(  0-Pd, 22-C ) :   0.6326 B(  0-Pd, 27-H ) :   0.2246 B(  0-Pd, 31-O ) :   0.5182
B(  1-O ,  2-C ) :   1.6003 B(  2-C ,  3-O ) :   1.3059 B(  2-C ,  4-C ) :   0.9532
B(  3-O , 27-H ) :   0.3476 B(  4-C ,  5-H ) :   0.9012 B(  4-C ,  6-H ) :   0.8921
B(  4-C ,  7-H ) :   0.9036 B(  8-N ,  9-C ) :   0.9034 B(  8-N , 13-C ) :   0.9208
B(  8-N , 28-C ) :   0.8876 B(  9-C , 10-H ) :   0.8723 B(  9-C , 11-H ) :   0.9009
B(  9-C , 12-H ) :   0.9090 B( 13-C , 14-H ) :   0.8945 B( 13-C , 15-H ) :   0.9024
B( 13-C , 16-H ) :   0.8962 B( 17-C , 18-C ) :   1.3853 B( 17-C , 22-C ) :   1.2932
B( 17-C , 28-C ) :   0.9671 B( 18-C , 19-C ) :   1.4067 B( 18-C , 25-H ) :   0.9151
B( 19-C , 20-C ) :   1.3797 B( 19-C , 26-H ) :   0.9145 B( 20-C , 21-C ) :   1.4312
B( 20-C , 23-H ) :   0.9132 B( 21-C , 22-C ) :   1.3499 B( 21-C , 24-H ) :   0.9118
B( 22-C , 27-H ) :   0.1895 B( 28-C , 29-H ) :   0.8952 B( 28-C , 30-H ) :   0.9081
B( 31-O , 32-C ) :   1.3398 B( 31-O , 33-O ) :   0.1061 B( 32-C , 33-O ) :   1.8601
B( 32-C , 34-C ) :   0.9132 B( 34-C , 35-H ) :   0.9218 B( 34-C , 36-H ) :   0.9189
B( 34-C , 37-H ) :   0.9196

Dispersion correction           -0.025842696
FINAL SINGLE POINT ENERGY      -988.171742753992
Dispersion correction            ... done

DIPOLE MOMENT
-------------
                                X             Y             Z
Electronic contribution:     12.58882      23.12450       1.21205
Nuclear contribution   :    -14.10626     -22.42202       0.52247
                        -----------------------------------------
Total Dipole Moment    :     -1.51744       0.70248       1.73452
                        -----------------------------------------
Magnitude (a.u.)       :      2.40929
Magnitude (Debye)      :      6.12393

Rotational constants in cm-1:     0.013311     0.008577     0.006461
Rotational constants in MHz :   399.040089   257.131255   193.685650

                             ****ORCA TERMINATED NORMALLY****
TOTAL RUN TIME: 0 days 0 hours 13 minutes 49 seconds 86 msec
