                         Program Version 5.0.3 -  RELEASE  -
|  1> ! EnGrad PBEh-3c
|  2> %output
|  3> xyzfile=True
|  4> end
|  5> %scf
|  6> maxiter 250
|  7> end
|  8> %output
|  9> Print[P_Hirshfeld] = 1
| 10> end
| 11> % maxcore
| 12> 4000
| 13> *xyz 0 1
| 14> Pd   0.37091928   0.38475693  -0.04910954
| 15> O    1.86276976   1.34109297   0.59974730
| 16> C    1.69600065   2.55927190   0.38010100
| 17> O    0.51824810   2.98365812  -0.14569416
| 18> C    2.80299997   3.55428304   0.64335018
| 19> H    2.38395116   4.47069999   1.06734245
| 20> H    3.27841495   3.87577336  -0.29474489
| 21> H    3.61480564   3.21354979   1.31079918
| 22> N   -1.37972819  -0.84433421  -0.99890816
| 23> C   -1.08495973  -2.11650138  -1.72663859
| 24> H   -0.37007292  -1.89061144  -2.52942621
| 25> H   -2.08536714  -2.47212677  -2.04417491
| 26> H   -0.66245885  -2.83933204  -1.01237108
| 27> C   -1.98255203   0.11871782  -1.95304088
| 28> H   -2.09080952   1.11077019  -1.49187690
| 29> H   -2.97565373  -0.25561471  -2.24905219
| 30> H   -1.29756291   0.19631040  -2.80696471
| 31> C   -1.80169869  -1.02627752   1.52442147
| 32> C   -1.91182482  -2.13276275   2.38384502
| 33> C   -1.47470072  -2.02828667   3.69926792
| 34> C   -1.12579716  -0.76349670   4.18291520
| 35> C   -0.94701558   0.31898017   3.30798807
| 36> C   -0.95885663   0.02636259   1.93036351
| 37> H   -0.78725237  -0.66772282   5.20726326
| 38> H   -0.71584767   1.29757488   3.70915003
| 39> H   -2.30523178  -3.09530393   2.01330241
| 40> H   -1.65994312  -2.83895829   4.39986071
| 41> H   -1.32861364   3.47469329   1.06088040
| 42> C   -2.32035772  -1.11988453   0.11451962
| 43> H   -3.05210910  -0.32217672   0.11345695
| 44> H   -2.79992236  -2.08991022  -0.10256506
| 45> O    1.55170712   0.40315661  -1.87595374
| 46> C    2.24262824  -0.58862448  -2.38703906
| 47> O    1.98848128  -1.77836470  -2.38184740
| 48> C    3.46545121  -0.18052020  -3.24495527
| 49> H    3.84730340  -1.08879815  -3.72451925
| 50> H    4.27215024   0.23560648  -2.63630267
| 51> H    3.22853838   0.56416869  -4.00818123
| 52> *
| 53>
| 54>                          ****END OF INPUT****

CARTESIAN COORDINATES (ANGSTROEM)
---------------------------------
  Pd     0.370919    0.384757   -0.049110
  O      1.862770    1.341093    0.599747
  C      1.696001    2.559272    0.380101
  O      0.518248    2.983658   -0.145694
  C      2.803000    3.554283    0.643350
  H      2.383951    4.470700    1.067342
  H      3.278415    3.875773   -0.294745
  H      3.614806    3.213550    1.310799
  N     -1.379728   -0.844334   -0.998908
  C     -1.084960   -2.116501   -1.726639
  H     -0.370073   -1.890611   -2.529426
  H     -2.085367   -2.472127   -2.044175
  H     -0.662459   -2.839332   -1.012371
  C     -1.982552    0.118718   -1.953041
  H     -2.090810    1.110770   -1.491877
  H     -2.975654   -0.255615   -2.249052
  H     -1.297563    0.196310   -2.806965
  C     -1.801699   -1.026278    1.524421
  C     -1.911825   -2.132763    2.383845
  C     -1.474701   -2.028287    3.699268
  C     -1.125797   -0.763497    4.182915
  C     -0.947016    0.318980    3.307988
  C     -0.958857    0.026363    1.930364
  H     -0.787252   -0.667723    5.207263
  H     -0.715848    1.297575    3.709150
  H     -2.305232   -3.095304    2.013302
  H     -1.659943   -2.838958    4.399861
  H     -1.328614    3.474693    1.060880
  C     -2.320358   -1.119885    0.114520
  H     -3.052109   -0.322177    0.113457
  H     -2.799922   -2.089910   -0.102565
  O      1.551707    0.403157   -1.875954
  C      2.242628   -0.588624   -2.387039
  O      1.988481   -1.778365   -2.381847
  C      3.465451   -0.180520   -3.244955
  H      3.847303   -1.088798   -3.724519
  H      4.272150    0.235606   -2.636303
  H      3.228538    0.564169   -4.008181

 Total Charge           Charge          ....    0
 Multiplicity           Mult            ....    1
 Number of Electrons    NEL             ....  154
 Basis Dimension        Dim             ....  339

ORBITAL ENERGIES
----------------

  NO   OCC          E(Eh)            E(eV)
   0   2.0000     -19.543856      -531.8154
   1   2.0000     -19.488484      -530.3086
   2   2.0000     -19.451980      -529.3153
   3   2.0000     -19.418535      -528.4052
   4   2.0000     -14.707361      -400.2077
   5   2.0000     -10.587445      -288.0990
   6   2.0000     -10.519716      -286.2560
   7   2.0000     -10.503582      -285.8170
   8   2.0000     -10.498545      -285.6799
   9   2.0000     -10.488495      -285.4065
  10   2.0000     -10.479327      -285.1570
  11   2.0000     -10.478133      -285.1245
  12   2.0000     -10.473720      -285.0044
  13   2.0000     -10.472452      -284.9699
  14   2.0000     -10.469688      -284.8947
  15   2.0000     -10.469061      -284.8776
  16   2.0000     -10.453257      -284.4476
  17   2.0000     -10.401306      -283.0339
  18   2.0000      -3.671281       -99.9006
  19   2.0000      -2.323552       -63.2271
  20   2.0000      -2.306380       -62.7598
  21   2.0000      -2.283508       -62.1374
  22   2.0000      -1.207242       -32.8507
  23   2.0000      -1.121363       -30.5138
  24   2.0000      -1.061003       -28.8714
  25   2.0000      -1.058154       -28.7938
  26   2.0000      -1.031274       -28.0624
  27   2.0000      -0.978603       -26.6291
  28   2.0000      -0.883107       -24.0306
  29   2.0000      -0.850690       -23.1485
  30   2.0000      -0.833022       -22.6677
  31   2.0000      -0.806743       -21.9526
  32   2.0000      -0.797416       -21.6988
  33   2.0000      -0.771332       -20.9890
  34   2.0000      -0.707740       -19.2586
  35   2.0000      -0.694422       -18.8962
  36   2.0000      -0.664133       -18.0720
  37   2.0000      -0.646451       -17.5908
  38   2.0000      -0.597224       -16.2513
  39   2.0000      -0.566812       -15.4238
  40   2.0000      -0.562900       -15.3173
  41   2.0000      -0.560378       -15.2487
  42   2.0000      -0.551005       -14.9936
  43   2.0000      -0.548566       -14.9272
  44   2.0000      -0.541873       -14.7451
  45   2.0000      -0.529455       -14.4072
  46   2.0000      -0.524240       -14.2653
  47   2.0000      -0.517050       -14.0696
  48   2.0000      -0.491041       -13.3619
  49   2.0000      -0.482913       -13.1407
  50   2.0000      -0.478298       -13.0152
  51   2.0000      -0.470205       -12.7949
  52   2.0000      -0.467926       -12.7329
  53   2.0000      -0.464622       -12.6430
  54   2.0000      -0.459076       -12.4921
  55   2.0000      -0.456057       -12.4099
  56   2.0000      -0.453055       -12.3283
  57   2.0000      -0.439201       -11.9513
  58   2.0000      -0.434959       -11.8358
  59   2.0000      -0.429793       -11.6953
  60   2.0000      -0.416226       -11.3261
  61   2.0000      -0.414598       -11.2818
  62   2.0000      -0.410242       -11.1633
  63   2.0000      -0.396524       -10.7900
  64   2.0000      -0.374150       -10.1811
  65   2.0000      -0.364716        -9.9244
  66   2.0000      -0.357035        -9.7154
  67   2.0000      -0.352463        -9.5910
  68   2.0000      -0.341552        -9.2941
  69   2.0000      -0.336272        -9.1504
  70   2.0000      -0.329985        -8.9793
  71   2.0000      -0.303581        -8.2609
  72   2.0000      -0.300145        -8.1674
  73   2.0000      -0.290302        -7.8995
  74   2.0000      -0.282060        -7.6753
  75   2.0000      -0.268138        -7.2964
  76   2.0000      -0.256617        -6.9829
  77   0.0000      -0.174579        -4.7505
  78   0.0000      -0.070452        -1.9171
  79   0.0000      -0.013951        -0.3796
  80   0.0000      -0.004015        -0.1092
  81   0.0000       0.033130         0.9015

MULLIKEN ATOMIC CHARGES
-----------------------
   0 Pd:    0.444980
   1 O :   -0.439336
   2 C :    0.636810
   3 O :   -0.490015
   4 C :   -0.756841
   5 H :    0.254772
   6 H :    0.272331
   7 H :    0.249836
   8 N :   -0.449302
   9 C :   -0.507529
  10 H :    0.299570
  11 H :    0.196158
  12 H :    0.258582
  13 C :   -0.533000
  14 H :    0.275232
  15 H :    0.220007
  16 H :    0.277837
  17 C :    0.080612
  18 C :   -0.254028
  19 C :   -0.200627
  20 C :   -0.222545
  21 C :   -0.291691
  22 C :   -0.075299
  23 H :    0.235620
  24 H :    0.248617
  25 H :    0.229336
  26 H :    0.229866
  27 H :    0.153718
  28 C :   -0.318204
  29 H :    0.264884
  30 H :    0.231967
  31 O :   -0.541350
  32 C :    0.542720
  33 O :   -0.464183
  34 C :   -0.739695
  35 H :    0.231659
  36 H :    0.222900
  37 H :    0.225632
Sum of atomic charges:   -0.0000000

LOEWDIN ATOMIC CHARGES
----------------------
   0 Pd:   -0.339503
   1 O :   -0.043890
   2 C :    0.223001
   3 O :   -0.281529
   4 C :   -0.376068
   5 H :    0.156105
   6 H :    0.168270
   7 H :    0.149076
   8 N :   -0.086713
   9 C :   -0.230441
  10 H :    0.170255
  11 H :    0.111316
  12 H :    0.147432
  13 C :   -0.235962
  14 H :    0.154545
  15 H :    0.118970
  16 H :    0.159249
  17 C :   -0.039631
  18 C :   -0.128856
  19 C :   -0.122416
  20 C :   -0.134406
  21 C :   -0.114738
  22 C :    0.032160
  23 H :    0.144251
  24 H :    0.152914
  25 H :    0.142723
  26 H :    0.144577
  27 H :    0.167777
  28 C :   -0.113844
  29 H :    0.155304
  30 H :    0.135610
  31 O :   -0.243860
  32 C :    0.123303
  33 O :   -0.282352
  34 C :   -0.394361
  35 H :    0.137821
  36 H :    0.136817
  37 H :    0.137094

  Mayer bond orders larger than 0.100000
B(  0-Pd,  1-O ) :   0.5918 B(  0-Pd,  3-O ) :   0.1649 B(  0-Pd,  8-N ) :   0.3870
B(  0-Pd, 22-C ) :   0.5702 B(  0-Pd, 27-H ) :   0.2504 B(  0-Pd, 31-O ) :   0.5584
B(  1-O ,  2-C ) :   1.4216 B(  2-C ,  3-O ) :   1.4949 B(  2-C ,  4-C ) :   0.9509
B(  3-O , 27-H ) :   0.2461 B(  4-C ,  5-H ) :   0.9062 B(  4-C ,  6-H ) :   0.8970
B(  4-C ,  7-H ) :   0.9060 B(  8-N ,  9-C ) :   0.9138 B(  8-N , 13-C ) :   0.9222
B(  8-N , 28-C ) :   0.8910 B(  9-C , 10-H ) :   0.8787 B(  9-C , 11-H ) :   0.9027
B(  9-C , 12-H ) :   0.9097 B( 13-C , 14-H ) :   0.8957 B( 13-C , 15-H ) :   0.9039
B( 13-C , 16-H ) :   0.8968 B( 17-C , 18-C ) :   1.3980 B( 17-C , 22-C ) :   1.2945
B( 17-C , 28-C ) :   0.9667 B( 18-C , 19-C ) :   1.4072 B( 18-C , 25-H ) :   0.9134
B( 19-C , 20-C ) :   1.4040 B( 19-C , 26-H ) :   0.9147 B( 20-C , 21-C ) :   1.4128
B( 20-C , 23-H ) :   0.9113 B( 21-C , 22-C ) :   1.3861 B( 21-C , 24-H ) :   0.9094
B( 22-C , 27-H ) :   0.2560 B( 28-C , 29-H ) :   0.8953 B( 28-C , 30-H ) :   0.9080
B( 31-O , 32-C ) :   1.3149 B( 31-O , 33-O ) :   0.1026 B( 32-C , 33-O ) :   1.8892
B( 32-C , 34-C ) :   0.9126 B( 34-C , 35-H ) :   0.9224 B( 34-C , 36-H ) :   0.9193
B( 34-C , 37-H ) :   0.9191

Dispersion correction           -0.025810144
FINAL SINGLE POINT ENERGY      -988.223513495296
Dispersion correction            ... done

DIPOLE MOMENT
-------------
                                X             Y             Z
Electronic contribution:     14.35310      20.17305      -0.82449
Nuclear contribution   :    -16.18719     -19.75541       2.43103
                        -----------------------------------------
Total Dipole Moment    :     -1.83409       0.41765       1.60655
                        -----------------------------------------
Magnitude (a.u.)       :      2.47372
Magnitude (Debye)      :      6.28770

Rotational constants in cm-1:     0.013546     0.008509     0.006430
Rotational constants in MHz :   406.095165   255.081442   192.778196

                             ****ORCA TERMINATED NORMALLY****
TOTAL RUN TIME: 0 days 0 hours 14 minutes 6 seconds 98 msec
