                         Program Version 5.0.3 -  RELEASE  -
|  1> ! EnGrad PBEh-3c
|  2> %output
|  3> xyzfile=True
|  4> end
|  5> %scf
|  6> maxiter 250
|  7> end
|  8> %output
|  9> Print[P_Hirshfeld] = 1
| 10> end
| 11> % maxcore
| 12> 4000
| 13> *xyz 0 1
| 14> Pd   0.30664239   0.37346514  -0.05643550
| 15> O    1.85176510   1.37312705   0.61933267
| 16> C    1.66219642   2.57596591   0.37794861
| 17> O    0.47768012   2.97250323  -0.12656018
| 18> C    2.76824284   3.55340735   0.64166459
| 19> H    2.33762776   4.45533463   1.05876371
| 20> H    3.24111216   3.87210026  -0.29144451
| 21> H    3.58081116   3.22671826   1.30646432
| 22> N   -1.36850762  -0.79690513  -0.98174708
| 23> C   -1.12387178  -2.05268848  -1.77796289
| 24> H   -0.42207103  -1.81149177  -2.60586073
| 25> H   -2.13453459  -2.41668946  -2.08409067
| 26> H   -0.67403284  -2.82441472  -1.13608166
| 27> C   -2.00716746   0.17476647  -1.90771184
| 28> H   -2.12477397   1.14960323  -1.40440130
| 29> H   -3.01244093  -0.17116522  -2.22438894
| 30> H   -1.33280146   0.30714154  -2.75885452
| 31> C   -1.75743203  -1.03608190   1.51509360
| 32> C   -1.84145335  -2.13853645   2.36233982
| 33> C   -1.40199036  -2.01397681   3.68550322
| 34> C   -1.14111052  -0.73328864   4.17985689
| 35> C   -0.98613534   0.35494103   3.31107945
| 36> C   -0.97906934   0.07288492   1.92719949
| 37> H   -0.81797132  -0.62784140   5.20970635
| 38> H   -0.81723247   1.36743261   3.71241177
| 39> H   -2.09634493  -3.13615340   1.95059058
| 40> H   -1.46091080  -2.88715788   4.35306687
| 41> H   -1.37300593   3.32670908   1.10366759
| 42> C   -2.30640010  -1.13212555   0.10326313
| 43> H   -3.07628761  -0.36733514   0.09466946
| 44> H   -2.72789632  -2.13561705  -0.10461787
| 45> O    1.61540470   0.31990012  -1.82053591
| 46> C    2.22301105  -0.63521298  -2.44114681
| 47> O    1.86639077  -1.81471467  -2.53824281
| 48> C    3.52292945  -0.25269850  -3.15934600
| 49> H    3.89648306  -1.17071118  -3.61837602
| 50> H    4.31254109   0.17450327  -2.53826410
| 51> H    3.32869745   0.48730023  -3.95224380
| 52> *
| 53>
| 54>                          ****END OF INPUT****

CARTESIAN COORDINATES (ANGSTROEM)
---------------------------------
  Pd     0.306642    0.373465   -0.056435
  O      1.851765    1.373127    0.619333
  C      1.662196    2.575966    0.377949
  O      0.477680    2.972503   -0.126560
  C      2.768243    3.553407    0.641665
  H      2.337628    4.455335    1.058764
  H      3.241112    3.872100   -0.291445
  H      3.580811    3.226718    1.306464
  N     -1.368508   -0.796905   -0.981747
  C     -1.123872   -2.052688   -1.777963
  H     -0.422071   -1.811492   -2.605861
  H     -2.134535   -2.416689   -2.084091
  H     -0.674033   -2.824415   -1.136082
  C     -2.007167    0.174766   -1.907712
  H     -2.124774    1.149603   -1.404401
  H     -3.012441   -0.171165   -2.224389
  H     -1.332801    0.307142   -2.758855
  C     -1.757432   -1.036082    1.515094
  C     -1.841453   -2.138536    2.362340
  C     -1.401990   -2.013977    3.685503
  C     -1.141111   -0.733289    4.179857
  C     -0.986135    0.354941    3.311079
  C     -0.979069    0.072885    1.927199
  H     -0.817971   -0.627841    5.209706
  H     -0.817232    1.367433    3.712412
  H     -2.096345   -3.136153    1.950591
  H     -1.460911   -2.887158    4.353067
  H     -1.373006    3.326709    1.103668
  C     -2.306400   -1.132126    0.103263
  H     -3.076288   -0.367335    0.094669
  H     -2.727896   -2.135617   -0.104618
  O      1.615405    0.319900   -1.820536
  C      2.223011   -0.635213   -2.441147
  O      1.866391   -1.814715   -2.538243
  C      3.522929   -0.252698   -3.159346
  H      3.896483   -1.170711   -3.618376
  H      4.312541    0.174503   -2.538264
  H      3.328697    0.487300   -3.952244

 Total Charge           Charge          ....    0
 Multiplicity           Mult            ....    1
 Number of Electrons    NEL             ....  154
 Basis Dimension        Dim             ....  339

ORBITAL ENERGIES
----------------

  NO   OCC          E(Eh)            E(eV)
   0   2.0000     -19.533293      -531.5279
   1   2.0000     -19.483660      -530.1773
   2   2.0000     -19.447691      -529.1986
   3   2.0000     -19.409862      -528.1692
   4   2.0000     -14.717065      -400.4717
   5   2.0000     -10.580030      -287.8972
   6   2.0000     -10.515435      -286.1395
   7   2.0000     -10.507726      -285.9298
   8   2.0000     -10.502686      -285.7926
   9   2.0000     -10.491360      -285.4844
  10   2.0000     -10.483982      -285.2837
  11   2.0000     -10.483454      -285.2693
  12   2.0000     -10.475624      -285.0562
  13   2.0000     -10.475405      -285.0503
  14   2.0000     -10.474848      -285.0351
  15   2.0000     -10.471435      -284.9422
  16   2.0000     -10.446045      -284.2513
  17   2.0000     -10.400283      -283.0061
  18   2.0000      -3.671698       -99.9120
  19   2.0000      -2.322438       -63.1968
  20   2.0000      -2.307388       -62.7872
  21   2.0000      -2.284006       -62.1510
  22   2.0000      -1.201247       -32.6876
  23   2.0000      -1.115409       -30.3518
  24   2.0000      -1.068863       -29.0852
  25   2.0000      -1.057087       -28.7648
  26   2.0000      -1.024613       -27.8811
  27   2.0000      -0.980143       -26.6711
  28   2.0000      -0.884252       -24.0617
  29   2.0000      -0.850880       -23.1536
  30   2.0000      -0.832709       -22.6592
  31   2.0000      -0.808438       -21.9987
  32   2.0000      -0.798551       -21.7297
  33   2.0000      -0.772328       -21.0161
  34   2.0000      -0.712573       -19.3901
  35   2.0000      -0.694857       -18.9080
  36   2.0000      -0.668342       -18.1865
  37   2.0000      -0.634767       -17.2729
  38   2.0000      -0.597727       -16.2650
  39   2.0000      -0.567117       -15.4320
  40   2.0000      -0.564478       -15.3602
  41   2.0000      -0.563351       -15.3296
  42   2.0000      -0.551476       -15.0064
  43   2.0000      -0.545324       -14.8390
  44   2.0000      -0.537696       -14.6314
  45   2.0000      -0.528184       -14.3726
  46   2.0000      -0.522375       -14.2146
  47   2.0000      -0.519618       -14.1395
  48   2.0000      -0.491602       -13.3772
  49   2.0000      -0.485300       -13.2057
  50   2.0000      -0.480974       -13.0880
  51   2.0000      -0.468475       -12.7478
  52   2.0000      -0.467033       -12.7086
  53   2.0000      -0.461016       -12.5449
  54   2.0000      -0.455574       -12.3968
  55   2.0000      -0.452955       -12.3255
  56   2.0000      -0.447426       -12.1751
  57   2.0000      -0.442741       -12.0476
  58   2.0000      -0.433113       -11.7856
  59   2.0000      -0.427391       -11.6299
  60   2.0000      -0.419260       -11.4086
  61   2.0000      -0.411786       -11.2053
  62   2.0000      -0.406638       -11.0652
  63   2.0000      -0.393940       -10.7196
  64   2.0000      -0.373177       -10.1547
  65   2.0000      -0.363182        -9.8827
  66   2.0000      -0.358986        -9.7685
  67   2.0000      -0.353221        -9.6116
  68   2.0000      -0.350297        -9.5321
  69   2.0000      -0.336612        -9.1597
  70   2.0000      -0.330449        -8.9920
  71   2.0000      -0.304854        -8.2955
  72   2.0000      -0.298335        -8.1181
  73   2.0000      -0.284561        -7.7433
  74   2.0000      -0.282568        -7.6891
  75   2.0000      -0.263956        -7.1826
  76   2.0000      -0.259965        -7.0740
  77   0.0000      -0.174248        -4.7415
  78   0.0000      -0.074322        -2.0224
  79   0.0000      -0.016531        -0.4498
  80   0.0000      -0.005594        -0.1522
  81   0.0000       0.042361         1.1527

MULLIKEN ATOMIC CHARGES
-----------------------
   0 Pd:    0.437579
   1 O :   -0.424122
   2 C :    0.634940
   3 O :   -0.498696
   4 C :   -0.759359
   5 H :    0.252045
   6 H :    0.270109
   7 H :    0.252389
   8 N :   -0.455899
   9 C :   -0.517889
  10 H :    0.305579
  11 H :    0.199311
  12 H :    0.261823
  13 C :   -0.541630
  14 H :    0.277695
  15 H :    0.226590
  16 H :    0.284000
  17 C :    0.079240
  18 C :   -0.250219
  19 C :   -0.209533
  20 C :   -0.212677
  21 C :   -0.304736
  22 C :   -0.070330
  23 H :    0.235503
  24 H :    0.248320
  25 H :    0.230063
  26 H :    0.232149
  27 H :    0.164223
  28 C :   -0.311793
  29 H :    0.265896
  30 H :    0.237180
  31 O :   -0.529286
  32 C :    0.542659
  33 O :   -0.493578
  34 C :   -0.740233
  35 H :    0.233943
  36 H :    0.227740
  37 H :    0.221002
Sum of atomic charges:    0.0000000

LOEWDIN ATOMIC CHARGES
----------------------
   0 Pd:   -0.351819
   1 O :   -0.051955
   2 C :    0.208140
   3 O :   -0.285813
   4 C :   -0.377035
   5 H :    0.154406
   6 H :    0.166828
   7 H :    0.149984
   8 N :   -0.067741
   9 C :   -0.232551
  10 H :    0.174271
  11 H :    0.112800
  12 H :    0.147609
  13 C :   -0.235681
  14 H :    0.155471
  15 H :    0.122874
  16 H :    0.161100
  17 C :   -0.033988
  18 C :   -0.133897
  19 C :   -0.114554
  20 C :   -0.137076
  21 C :   -0.112097
  22 C :    0.031728
  23 H :    0.145450
  24 H :    0.154491
  25 H :    0.144866
  26 H :    0.144907
  27 H :    0.180949
  28 C :   -0.110145
  29 H :    0.155013
  30 H :    0.139406
  31 O :   -0.230772
  32 C :    0.117810
  33 O :   -0.314919
  34 C :   -0.392829
  35 H :    0.139559
  36 H :    0.137062
  37 H :    0.138151

  Mayer bond orders larger than 0.100000
B(  0-Pd,  1-O ) :   0.5757 B(  0-Pd,  3-O ) :   0.1658 B(  0-Pd,  8-N ) :   0.4150
B(  0-Pd, 22-C ) :   0.5745 B(  0-Pd, 27-H ) :   0.2385 B(  0-Pd, 31-O ) :   0.5382
B(  1-O ,  2-C ) :   1.4458 B(  2-C ,  3-O ) :   1.4961 B(  2-C ,  4-C ) :   0.9521
B(  3-O , 27-H ) :   0.2377 B(  4-C ,  5-H ) :   0.9065 B(  4-C ,  6-H ) :   0.8985
B(  4-C ,  7-H ) :   0.9066 B(  8-N ,  9-C ) :   0.9039 B(  8-N , 13-C ) :   0.9169
B(  8-N , 28-C ) :   0.8803 B(  9-C , 10-H ) :   0.8709 B(  9-C , 11-H ) :   0.9003
B(  9-C , 12-H ) :   0.9079 B( 13-C , 14-H ) :   0.8926 B( 13-C , 15-H ) :   0.9016
B( 13-C , 16-H ) :   0.8943 B( 17-C , 18-C ) :   1.4134 B( 17-C , 22-C ) :   1.2757
B( 17-C , 28-C ) :   0.9603 B( 18-C , 19-C ) :   1.3931 B( 18-C , 25-H ) :   0.9138
B( 19-C , 20-C ) :   1.4099 B( 19-C , 26-H ) :   0.9146 B( 20-C , 21-C ) :   1.4059
B( 20-C , 23-H ) :   0.9116 B( 21-C , 22-C ) :   1.3894 B( 21-C , 24-H ) :   0.9102
B( 22-C , 27-H ) :   0.2704 B( 28-C , 29-H ) :   0.8951 B( 28-C , 30-H ) :   0.9089
B( 31-O , 32-C ) :   1.3575 B( 31-O , 33-O ) :   0.1053 B( 32-C , 33-O ) :   1.8573
B( 32-C , 34-C ) :   0.9138 B( 34-C , 35-H ) :   0.9212 B( 34-C , 36-H ) :   0.9173
B( 34-C , 37-H ) :   0.9204

Dispersion correction           -0.025944521
FINAL SINGLE POINT ENERGY      -988.233424333003
Dispersion correction            ... done

DIPOLE MOMENT
-------------
                                X             Y             Z
Electronic contribution:     10.87347      19.55897      -1.06378
Nuclear contribution   :    -12.86305     -19.16879       2.74464
                        -----------------------------------------
Total Dipole Moment    :     -1.98959       0.39018       1.68086
                        -----------------------------------------
Magnitude (a.u.)       :      2.63363
Magnitude (Debye)      :      6.69415

Rotational constants in cm-1:     0.013403     0.008601     0.006477
Rotational constants in MHz :   401.810460   257.838570   194.183442

                             ****ORCA TERMINATED NORMALLY****
TOTAL RUN TIME: 0 days 0 hours 13 minutes 29 seconds 278 msec
