                         Program Version 5.0.3 -  RELEASE  -
|  1> ! EnGrad PBEh-3c
|  2> %output
|  3> xyzfile=True
|  4> end
|  5> %scf
|  6> maxiter 250
|  7> end
|  8> %output
|  9> Print[P_Hirshfeld] = 1
| 10> end
| 11> % maxcore
| 12> 4000
| 13> *xyz 0 1
| 14> Pd   0.28594539   0.31835910  -0.09303542
| 15> O    1.86116117   1.38194977   0.63581910
| 16> C    1.65912648   2.59300416   0.37533354
| 17> O    0.50021888   2.96704801  -0.11843539
| 18> C    2.76608188   3.56315438   0.64041132
| 19> H    2.33529048   4.45646743   1.05940201
| 20> H    3.23575553   3.86780113  -0.29200352
| 21> H    3.56750256   3.22199097   1.30013954
| 22> N   -1.34963644  -0.77587061  -0.96664853
| 23> C   -1.13046929  -2.02934134  -1.76573635
| 24> H   -0.44161418  -1.81957665  -2.60422917
| 25> H   -2.11912076  -2.41612295  -2.10144211
| 26> H   -0.67337870  -2.81361044  -1.15705009
| 27> C   -2.00265140   0.17426382  -1.89727049
| 28> H   -2.12625960   1.14312564  -1.40130363
| 29> H   -3.00605773  -0.16360009  -2.22646238
| 30> H   -1.34945269   0.31605248  -2.75465464
| 31> C   -1.71094975  -1.07048544   1.49641739
| 32> C   -1.82622168  -2.14445745   2.35937905
| 33> C   -1.41817500  -2.00125726   3.69041901
| 34> C   -1.11751220  -0.74278805   4.17473532
| 35> C   -0.97707831   0.34486135   3.30400052
| 36> C   -1.03956779   0.09976811   1.92564039
| 37> H   -0.83144529  -0.62349224   5.21402748
| 38> H   -0.83265473   1.35877889   3.71604053
| 39> H   -2.07931350  -3.11568095   1.95556304
| 40> H   -1.43934279  -2.87797783   4.34453572
| 41> H   -1.37915868   3.31054137   1.10840447
| 42> C   -2.30181031  -1.12770109   0.10382748
| 43> H   -3.09460270  -0.37916351   0.08806401
| 44> H   -2.72551088  -2.12605605  -0.08992224
| 45> O    1.63793706   0.30049412  -1.79709746
| 46> C    2.21376528  -0.63644226  -2.46288061
| 47> O    1.84505598  -1.78065469  -2.53677826
| 48> C    3.52309741  -0.26058579  -3.15161735
| 49> H    3.89351773  -1.17408395  -3.61068095
| 50> H    4.31111482   0.16748131  -2.52780358
| 51> H    3.34429108   0.47571793  -3.94993114
| 52> *
| 53>
| 54>                          ****END OF INPUT****

CARTESIAN COORDINATES (ANGSTROEM)
---------------------------------
  Pd     0.285945    0.318359   -0.093035
  O      1.861161    1.381950    0.635819
  C      1.659126    2.593004    0.375334
  O      0.500219    2.967048   -0.118435
  C      2.766082    3.563154    0.640411
  H      2.335290    4.456467    1.059402
  H      3.235756    3.867801   -0.292004
  H      3.567503    3.221991    1.300140
  N     -1.349636   -0.775871   -0.966649
  C     -1.130469   -2.029341   -1.765736
  H     -0.441614   -1.819577   -2.604229
  H     -2.119121   -2.416123   -2.101442
  H     -0.673379   -2.813610   -1.157050
  C     -2.002651    0.174264   -1.897270
  H     -2.126260    1.143126   -1.401304
  H     -3.006058   -0.163600   -2.226462
  H     -1.349453    0.316052   -2.754655
  C     -1.710950   -1.070485    1.496417
  C     -1.826222   -2.144457    2.359379
  C     -1.418175   -2.001257    3.690419
  C     -1.117512   -0.742788    4.174735
  C     -0.977078    0.344861    3.304001
  C     -1.039568    0.099768    1.925640
  H     -0.831445   -0.623492    5.214027
  H     -0.832655    1.358779    3.716041
  H     -2.079314   -3.115681    1.955563
  H     -1.439343   -2.877978    4.344536
  H     -1.379159    3.310541    1.108404
  C     -2.301810   -1.127701    0.103827
  H     -3.094603   -0.379164    0.088064
  H     -2.725511   -2.126056   -0.089922
  O      1.637937    0.300494   -1.797097
  C      2.213765   -0.636442   -2.462881
  O      1.845056   -1.780655   -2.536778
  C      3.523097   -0.260586   -3.151617
  H      3.893518   -1.174084   -3.610681
  H      4.311115    0.167481   -2.527804
  H      3.344291    0.475718   -3.949931

 Total Charge           Charge          ....    0
 Multiplicity           Mult            ....    1
 Number of Electrons    NEL             ....  154
 Basis Dimension        Dim             ....  339

ORBITAL ENERGIES
----------------

  NO   OCC          E(Eh)            E(eV)
   0   2.0000     -19.515307      -531.0385
   1   2.0000     -19.475298      -529.9498
   2   2.0000     -19.445360      -529.1352
   3   2.0000     -19.410322      -528.1817
   4   2.0000     -14.725098      -400.6903
   5   2.0000     -10.567784      -287.5640
   6   2.0000     -10.511209      -286.0245
   7   2.0000     -10.504861      -285.8518
   8   2.0000     -10.504338      -285.8376
   9   2.0000     -10.489360      -285.4300
  10   2.0000     -10.485004      -285.3115
  11   2.0000     -10.481081      -285.2047
  12   2.0000     -10.475851      -285.0624
  13   2.0000     -10.473272      -284.9922
  14   2.0000     -10.471293      -284.9384
  15   2.0000     -10.470265      -284.9104
  16   2.0000     -10.436661      -283.9960
  17   2.0000     -10.399904      -282.9958
  18   2.0000      -3.668698       -99.8303
  19   2.0000      -2.318605       -63.0925
  20   2.0000      -2.305046       -62.7235
  21   2.0000      -2.280934       -62.0674
  22   2.0000      -1.181948       -32.1625
  23   2.0000      -1.129318       -30.7303
  24   2.0000      -1.077162       -29.3111
  25   2.0000      -1.057654       -28.7802
  26   2.0000      -1.031467       -28.0677
  27   2.0000      -0.981416       -26.7057
  28   2.0000      -0.887513       -24.1505
  29   2.0000      -0.852114       -23.1872
  30   2.0000      -0.826817       -22.4988
  31   2.0000      -0.812901       -22.1202
  32   2.0000      -0.801246       -21.8030
  33   2.0000      -0.775256       -21.0958
  34   2.0000      -0.718714       -19.5572
  35   2.0000      -0.698613       -19.0102
  36   2.0000      -0.672252       -18.2929
  37   2.0000      -0.618377       -16.8269
  38   2.0000      -0.599801       -16.3214
  39   2.0000      -0.571710       -15.5570
  40   2.0000      -0.567375       -15.4391
  41   2.0000      -0.564710       -15.3665
  42   2.0000      -0.556178       -15.1344
  43   2.0000      -0.534716       -14.5504
  44   2.0000      -0.531594       -14.4654
  45   2.0000      -0.526125       -14.3166
  46   2.0000      -0.521096       -14.1797
  47   2.0000      -0.514807       -14.0086
  48   2.0000      -0.495553       -13.4847
  49   2.0000      -0.489227       -13.3125
  50   2.0000      -0.486215       -13.2306
  51   2.0000      -0.471680       -12.8351
  52   2.0000      -0.469612       -12.7788
  53   2.0000      -0.465352       -12.6629
  54   2.0000      -0.454008       -12.3542
  55   2.0000      -0.450235       -12.2515
  56   2.0000      -0.445013       -12.1094
  57   2.0000      -0.438605       -11.9350
  58   2.0000      -0.434216       -11.8156
  59   2.0000      -0.427320       -11.6280
  60   2.0000      -0.421850       -11.4791
  61   2.0000      -0.413083       -11.2406
  62   2.0000      -0.406574       -11.0634
  63   2.0000      -0.395686       -10.7672
  64   2.0000      -0.372185       -10.1277
  65   2.0000      -0.360978        -9.8227
  66   2.0000      -0.354790        -9.6543
  67   2.0000      -0.353007        -9.6058
  68   2.0000      -0.346319        -9.4238
  69   2.0000      -0.331317        -9.0156
  70   2.0000      -0.326730        -8.8908
  71   2.0000      -0.308034        -8.3820
  72   2.0000      -0.299178        -8.1411
  73   2.0000      -0.286464        -7.7951
  74   2.0000      -0.282434        -7.6854
  75   2.0000      -0.266138        -7.2420
  76   2.0000      -0.262325        -7.1382
  77   0.0000      -0.174317        -4.7434
  78   0.0000      -0.074441        -2.0257
  79   0.0000      -0.011450        -0.3116
  80   0.0000      -0.004129        -0.1124
  81   0.0000       0.055010         1.4969

MULLIKEN ATOMIC CHARGES
-----------------------
   0 Pd:    0.432226
   1 O :   -0.434256
   2 C :    0.626493
   3 O :   -0.490436
   4 C :   -0.755383
   5 H :    0.247085
   6 H :    0.265621
   7 H :    0.251557
   8 N :   -0.469364
   9 C :   -0.530328
  10 H :    0.307597
  11 H :    0.206158
  12 H :    0.266459
  13 C :   -0.546840
  14 H :    0.283247
  15 H :    0.231031
  16 H :    0.287710
  17 C :    0.072802
  18 C :   -0.249573
  19 C :   -0.215408
  20 C :   -0.207942
  21 C :   -0.313777
  22 C :   -0.056908
  23 H :    0.235966
  24 H :    0.245766
  25 H :    0.229514
  26 H :    0.233293
  27 H :    0.169152
  28 C :   -0.312350
  29 H :    0.268124
  30 H :    0.242068
  31 O :   -0.524585
  32 C :    0.533023
  33 O :   -0.468600
  34 C :   -0.745622
  35 H :    0.233204
  36 H :    0.232870
  37 H :    0.220405
Sum of atomic charges:    0.0000000

LOEWDIN ATOMIC CHARGES
----------------------
   0 Pd:   -0.352874
   1 O :   -0.084245
   2 C :    0.189611
   3 O :   -0.274721
   4 C :   -0.377918
   5 H :    0.151484
   6 H :    0.164177
   7 H :    0.148882
   8 N :   -0.049533
   9 C :   -0.235525
  10 H :    0.172217
  11 H :    0.115111
  12 H :    0.148797
  13 C :   -0.234983
  14 H :    0.156799
  15 H :    0.125313
  16 H :    0.161354
  17 C :   -0.036959
  18 C :   -0.134295
  19 C :   -0.112742
  20 C :   -0.133348
  21 C :   -0.111201
  22 C :    0.022549
  23 H :    0.145293
  24 H :    0.153874
  25 H :    0.143921
  26 H :    0.144225
  27 H :    0.186331
  28 C :   -0.104646
  29 H :    0.155197
  30 H :    0.140650
  31 O :   -0.218824
  32 C :    0.094529
  33 O :   -0.283435
  34 C :   -0.391881
  35 H :    0.138982
  36 H :    0.139772
  37 H :    0.138064

  Mayer bond orders larger than 0.100000
B(  0-Pd,  1-O ) :   0.5689 B(  0-Pd,  3-O ) :   0.1526 B(  0-Pd,  8-N ) :   0.4345
B(  0-Pd, 22-C ) :   0.5313 B(  0-Pd, 27-H ) :   0.2193 B(  0-Pd, 31-O ) :   0.5646
B(  1-O ,  2-C ) :   1.4306 B(  2-C ,  3-O ) :   1.5452 B(  2-C ,  4-C ) :   0.9516
B(  3-O , 27-H ) :   0.2177 B(  4-C ,  5-H ) :   0.9090 B(  4-C ,  6-H ) :   0.9015
B(  4-C ,  7-H ) :   0.9086 B(  8-N ,  9-C ) :   0.9037 B(  8-N , 13-C ) :   0.9131
B(  8-N , 28-C ) :   0.8737 B(  9-C , 10-H ) :   0.8713 B(  9-C , 11-H ) :   0.9001
B(  9-C , 12-H ) :   0.9062 B( 13-C , 14-H ) :   0.8902 B( 13-C , 15-H ) :   0.9005
B( 13-C , 16-H ) :   0.8928 B( 17-C , 18-C ) :   1.4352 B( 17-C , 22-C ) :   1.2661
B( 17-C , 28-C ) :   0.9553 B( 18-C , 19-C ) :   1.3905 B( 18-C , 25-H ) :   0.9129
B( 19-C , 20-C ) :   1.4311 B( 19-C , 26-H ) :   0.9142 B( 20-C , 21-C ) :   1.3922
B( 20-C , 23-H ) :   0.9109 B( 21-C , 22-C ) :   1.4176 B( 21-C , 24-H ) :   0.9107
B( 22-C , 27-H ) :   0.3146 B( 28-C , 29-H ) :   0.8953 B( 28-C , 30-H ) :   0.9095
B( 31-O , 32-C ) :   1.3441 B( 31-O , 33-O ) :   0.1025 B( 32-C , 33-O ) :   1.8935
B( 32-C , 34-C ) :   0.9121 B( 34-C , 35-H ) :   0.9211 B( 34-C , 36-H ) :   0.9170
B( 34-C , 37-H ) :   0.9207

Dispersion correction           -0.026038460
FINAL SINGLE POINT ENERGY      -988.250068537126
Dispersion correction            ... done

DIPOLE MOMENT
-------------
                                X             Y             Z
Electronic contribution:      9.52885      16.37038      -3.24075
Nuclear contribution   :    -11.70823     -16.19089       4.74587
                        -----------------------------------------
Total Dipole Moment    :     -2.17938       0.17949       1.50512
                        -----------------------------------------
Magnitude (a.u.)       :      2.65468
Magnitude (Debye)      :      6.74766

Rotational constants in cm-1:     0.013477     0.008629     0.006498
Rotational constants in MHz :   404.030539   258.675997   194.811793

                             ****ORCA TERMINATED NORMALLY****
TOTAL RUN TIME: 0 days 0 hours 18 minutes 7 seconds 293 msec
