                         Program Version 5.0.3 -  RELEASE  -
|  1> ! EnGrad PBEh-3c
|  2> %output
|  3> xyzfile=True
|  4> end
|  5> %scf
|  6> maxiter 250
|  7> end
|  8> %output
|  9> Print[P_Hirshfeld] = 1
| 10> end
| 11> % maxcore
| 12> 4000
| 13> *xyz 0 1
| 14> Pd   0.26983721   0.30113534  -0.10682428
| 15> O    1.84976192   1.39183432   0.64476475
| 16> C    1.62984154   2.59865291   0.37147485
| 17> O    0.50767996   2.95936151  -0.10351224
| 18> C    2.75288108   3.56835466   0.63790672
| 19> H    2.31696462   4.45628678   1.05845029
| 20> H    3.22105117   3.86543603  -0.29363504
| 21> H    3.54974061   3.22237975   1.29691586
| 22> N   -1.34499675  -0.75888510  -0.96509225
| 23> C   -1.14040392  -1.99956397  -1.78467050
| 24> H   -0.47117486  -1.79459025  -2.62720081
| 25> H   -2.12776820  -2.39130542  -2.12110392
| 26> H   -0.67684763  -2.80210154  -1.20766235
| 27> C   -2.01139660   0.20021192  -1.87647939
| 28> H   -2.13928148   1.15426681  -1.36929799
| 29> H   -3.01260266  -0.13218990  -2.21604161
| 30> H   -1.36803320   0.35928563  -2.73694112
| 31> C   -1.68265552  -1.07569258   1.48199917
| 32> C   -1.78571598  -2.14828088   2.35437812
| 33> C   -1.40079305  -2.00039374   3.68438548
| 34> C   -1.11026009  -0.73279614   4.17351433
| 35> C   -0.98928695   0.36250889   3.30142190
| 36> C   -1.07307440   0.12295891   1.92122738
| 37> H   -0.84885574  -0.60778882   5.21685503
| 38> H   -0.87366271   1.37318162   3.71636237
| 39> H   -2.00065948  -3.12439824   1.93545791
| 40> H   -1.36013750  -2.88630570   4.32336985
| 41> H   -1.39486332   3.24421346   1.12540909
| 42> C   -2.29302577  -1.13055249   0.10870313
| 43> H   -3.11009639  -0.40246795   0.08050593
| 44> H   -2.69796106  -2.13640194  -0.08576707
| 45> O    1.66223647   0.27484384  -1.76598119
| 46> C    2.21037576  -0.64807305  -2.47509478
| 47> O    1.78964369  -1.79324599  -2.59729391
| 48> C    3.54172807  -0.28730813  -3.12826692
| 49> H    3.91156600  -1.20604502  -3.57021855
| 50> H    4.32082916   0.14113648  -2.48590657
| 51> H    3.38796528   0.44169122  -3.92769475
| 52> *
| 53>
| 54>                          ****END OF INPUT****

CARTESIAN COORDINATES (ANGSTROEM)
---------------------------------
  Pd     0.269837    0.301135   -0.106824
  O      1.849762    1.391834    0.644765
  C      1.629842    2.598653    0.371475
  O      0.507680    2.959362   -0.103512
  C      2.752881    3.568355    0.637907
  H      2.316965    4.456287    1.058450
  H      3.221051    3.865436   -0.293635
  H      3.549741    3.222380    1.296916
  N     -1.344997   -0.758885   -0.965092
  C     -1.140404   -1.999564   -1.784671
  H     -0.471175   -1.794590   -2.627201
  H     -2.127768   -2.391305   -2.121104
  H     -0.676848   -2.802102   -1.207662
  C     -2.011397    0.200212   -1.876479
  H     -2.139281    1.154267   -1.369298
  H     -3.012603   -0.132190   -2.216042
  H     -1.368033    0.359286   -2.736941
  C     -1.682656   -1.075693    1.481999
  C     -1.785716   -2.148281    2.354378
  C     -1.400793   -2.000394    3.684385
  C     -1.110260   -0.732796    4.173514
  C     -0.989287    0.362509    3.301422
  C     -1.073074    0.122959    1.921227
  H     -0.848856   -0.607789    5.216855
  H     -0.873663    1.373182    3.716362
  H     -2.000659   -3.124398    1.935458
  H     -1.360137   -2.886306    4.323370
  H     -1.394863    3.244213    1.125409
  C     -2.293026   -1.130552    0.108703
  H     -3.110096   -0.402468    0.080506
  H     -2.697961   -2.136402   -0.085767
  O      1.662236    0.274844   -1.765981
  C      2.210376   -0.648073   -2.475095
  O      1.789644   -1.793246   -2.597294
  C      3.541728   -0.287308   -3.128267
  H      3.911566   -1.206045   -3.570219
  H      4.320829    0.141136   -2.485907
  H      3.387965    0.441691   -3.927695

 Total Charge           Charge          ....    0
 Multiplicity           Mult            ....    1
 Number of Electrons    NEL             ....  154
 Basis Dimension        Dim             ....  339

ORBITAL ENERGIES
----------------

  NO   OCC          E(Eh)            E(eV)
   0   2.0000     -19.503418      -530.7150
   1   2.0000     -19.467683      -529.7426
   2   2.0000     -19.448248      -529.2137
   3   2.0000     -19.409840      -528.1686
   4   2.0000     -14.728976      -400.7958
   5   2.0000     -10.556969      -287.2697
   6   2.0000     -10.514489      -286.1138
   7   2.0000     -10.509302      -285.9726
   8   2.0000     -10.507824      -285.9324
   9   2.0000     -10.492965      -285.5281
  10   2.0000     -10.486190      -285.3437
  11   2.0000     -10.484364      -285.2940
  12   2.0000     -10.476778      -285.0876
  13   2.0000     -10.475041      -285.0403
  14   2.0000     -10.474656      -285.0299
  15   2.0000     -10.474373      -285.0222
  16   2.0000     -10.429236      -283.7939
  17   2.0000     -10.401310      -283.0340
  18   2.0000      -3.669542       -99.8533
  19   2.0000      -2.319623       -63.1201
  20   2.0000      -2.305793       -62.7438
  21   2.0000      -2.281945       -62.0949
  22   2.0000      -1.178963       -32.0812
  23   2.0000      -1.122425       -30.5427
  24   2.0000      -1.080653       -29.4061
  25   2.0000      -1.064880       -28.9769
  26   2.0000      -1.026656       -27.9367
  27   2.0000      -0.983608       -26.7653
  28   2.0000      -0.890832       -24.2408
  29   2.0000      -0.855630       -23.2829
  30   2.0000      -0.817932       -22.2571
  31   2.0000      -0.815590       -22.1933
  32   2.0000      -0.803029       -21.8515
  33   2.0000      -0.777408       -21.1544
  34   2.0000      -0.722721       -19.6662
  35   2.0000      -0.701985       -19.1020
  36   2.0000      -0.676251       -18.4017
  37   2.0000      -0.610330       -16.6079
  38   2.0000      -0.600989       -16.3538
  39   2.0000      -0.575152       -15.6507
  40   2.0000      -0.569955       -15.5093
  41   2.0000      -0.567036       -15.4298
  42   2.0000      -0.559495       -15.2246
  43   2.0000      -0.536924       -14.6104
  44   2.0000      -0.527952       -14.3663
  45   2.0000      -0.523393       -14.2423
  46   2.0000      -0.520820       -14.1722
  47   2.0000      -0.511523       -13.9193
  48   2.0000      -0.495963       -13.4958
  49   2.0000      -0.492258       -13.3950
  50   2.0000      -0.487856       -13.2752
  51   2.0000      -0.472140       -12.8476
  52   2.0000      -0.470072       -12.7913
  53   2.0000      -0.464395       -12.6368
  54   2.0000      -0.455806       -12.4031
  55   2.0000      -0.446695       -12.1552
  56   2.0000      -0.446276       -12.1438
  57   2.0000      -0.436212       -11.8699
  58   2.0000      -0.433975       -11.8091
  59   2.0000      -0.430713       -11.7203
  60   2.0000      -0.423772       -11.5314
  61   2.0000      -0.413206       -11.2439
  62   2.0000      -0.409515       -11.1435
  63   2.0000      -0.396065       -10.7775
  64   2.0000      -0.373006       -10.1500
  65   2.0000      -0.359066        -9.7707
  66   2.0000      -0.353883        -9.6296
  67   2.0000      -0.353145        -9.6096
  68   2.0000      -0.343560        -9.3487
  69   2.0000      -0.329777        -8.9737
  70   2.0000      -0.325079        -8.8459
  71   2.0000      -0.310903        -8.4601
  72   2.0000      -0.300491        -8.1768
  73   2.0000      -0.284853        -7.7512
  74   2.0000      -0.283683        -7.7194
  75   2.0000      -0.267122        -7.2688
  76   2.0000      -0.263566        -7.1720
  77   0.0000      -0.174347        -4.7442
  78   0.0000      -0.075657        -2.0587
  79   0.0000      -0.015069        -0.4100
  80   0.0000      -0.006905        -0.1879
  81   0.0000       0.064109         1.7445

MULLIKEN ATOMIC CHARGES
-----------------------
   0 Pd:    0.435500
   1 O :   -0.441838
   2 C :    0.611953
   3 O :   -0.476833
   4 C :   -0.753722
   5 H :    0.240985
   6 H :    0.260403
   7 H :    0.248693
   8 N :   -0.478032
   9 C :   -0.536030
  10 H :    0.312540
  11 H :    0.206820
  12 H :    0.268080
  13 C :   -0.551004
  14 H :    0.286344
  15 H :    0.233806
  16 H :    0.290064
  17 C :    0.070336
  18 C :   -0.249391
  19 C :   -0.214684
  20 C :   -0.212917
  21 C :   -0.307619
  22 C :   -0.053105
  23 H :    0.238317
  24 H :    0.247963
  25 H :    0.230833
  26 H :    0.236985
  27 H :    0.170235
  28 C :   -0.311140
  29 H :    0.269035
  30 H :    0.245508
  31 O :   -0.519329
  32 C :    0.538759
  33 O :   -0.488538
  34 C :   -0.743617
  35 H :    0.236023
  36 H :    0.234452
  37 H :    0.224169
Sum of atomic charges:   -0.0000000

LOEWDIN ATOMIC CHARGES
----------------------
   0 Pd:   -0.352196
   1 O :   -0.100200
   2 C :    0.162631
   3 O :   -0.255126
   4 C :   -0.380232
   5 H :    0.147868
   6 H :    0.160365
   7 H :    0.146618
   8 N :   -0.043352
   9 C :   -0.237398
  10 H :    0.172368
  11 H :    0.115124
  12 H :    0.149352
  13 C :   -0.234852
  14 H :    0.157209
  15 H :    0.126713
  16 H :    0.162101
  17 C :   -0.036892
  18 C :   -0.132401
  19 C :   -0.111499
  20 C :   -0.129906
  21 C :   -0.109742
  22 C :    0.024945
  23 H :    0.145915
  24 H :    0.155080
  25 H :    0.144958
  26 H :    0.145659
  27 H :    0.188534
  28 C :   -0.101189
  29 H :    0.155729
  30 H :    0.142305
  31 O :   -0.211650
  32 C :    0.109800
  33 O :   -0.307192
  34 C :   -0.390773
  35 H :    0.140667
  36 H :    0.140909
  37 H :    0.139751

  Mayer bond orders larger than 0.100000
B(  0-Pd,  1-O ) :   0.5814 B(  0-Pd,  3-O ) :   0.1451 B(  0-Pd,  8-N ) :   0.4424
B(  0-Pd, 22-C ) :   0.4980 B(  0-Pd, 27-H ) :   0.2155 B(  0-Pd, 31-O ) :   0.5686
B(  1-O ,  2-C ) :   1.4030 B(  2-C ,  3-O ) :   1.6171 B(  2-C ,  4-C ) :   0.9451
B(  3-O , 27-H ) :   0.1768 B(  4-C ,  5-H ) :   0.9120 B(  4-C ,  6-H ) :   0.9054
B(  4-C ,  7-H ) :   0.9111 B(  8-N ,  9-C ) :   0.9015 B(  8-N , 13-C ) :   0.9110
B(  8-N , 28-C ) :   0.8698 B(  9-C , 10-H ) :   0.8669 B(  9-C , 11-H ) :   0.9001
B(  9-C , 12-H ) :   0.9057 B( 13-C , 14-H ) :   0.8881 B( 13-C , 15-H ) :   0.8999
B( 13-C , 16-H ) :   0.8920 B( 17-C , 18-C ) :   1.4262 B( 17-C , 22-C ) :   1.2734
B( 17-C , 28-C ) :   0.9525 B( 18-C , 19-C ) :   1.4032 B( 18-C , 25-H ) :   0.9116
B( 19-C , 20-C ) :   1.4223 B( 19-C , 26-H ) :   0.9128 B( 20-C , 21-C ) :   1.4009
B( 20-C , 23-H ) :   0.9100 B( 21-C , 22-C ) :   1.4138 B( 21-C , 24-H ) :   0.9104
B( 22-C , 27-H ) :   0.3599 B( 28-C , 29-H ) :   0.8946 B( 28-C , 30-H ) :   0.9098
B( 31-O , 32-C ) :   1.3486 B( 31-O , 33-O ) :   0.1045 B( 32-C , 33-O ) :   1.8678
B( 32-C , 34-C ) :   0.9155 B( 34-C , 35-H ) :   0.9197 B( 34-C , 36-H ) :   0.9164
B( 34-C , 37-H ) :   0.9188

Dispersion correction           -0.026110913
FINAL SINGLE POINT ENERGY      -988.255421941948
Dispersion correction            ... done

DIPOLE MOMENT
-------------
                                X             Y             Z
Electronic contribution:      8.54471      15.30840      -3.93173
Nuclear contribution   :    -10.88041     -15.26680       5.46308
                        -----------------------------------------
Total Dipole Moment    :     -2.33571       0.04159       1.53134
                        -----------------------------------------
Magnitude (a.u.)       :      2.79325
Magnitude (Debye)      :      7.09989

Rotational constants in cm-1:     0.013441     0.008670     0.006520
Rotational constants in MHz :   402.962607   259.914746   195.472382

                             ****ORCA TERMINATED NORMALLY****
TOTAL RUN TIME: 0 days 0 hours 13 minutes 19 seconds 672 msec
