                         Program Version 5.0.3 -  RELEASE  -
|  1> ! EnGrad PBEh-3c
|  2> %output
|  3> xyzfile=True
|  4> end
|  5> %scf
|  6> maxiter 250
|  7> end
|  8> %output
|  9> Print[P_Hirshfeld] = 1
| 10> end
| 11> % maxcore
| 12> 4000
| 13> *xyz 0 1
| 14> Pd   0.25378373   0.27447683  -0.13283218
| 15> O    1.81560189   1.38948415   0.66430091
| 16> C    1.56206148   2.61922430   0.36330168
| 17> O    0.52398563   2.94636588  -0.07157902
| 18> C    2.72014888   3.57694468   0.63213798
| 19> H    2.27557085   4.46253002   1.05867414
| 20> H    3.18942778   3.86126625  -0.30173632
| 21> H    3.50884269   3.22046579   1.29022186
| 22> N   -1.34698285  -0.73222103  -0.97476598
| 23> C   -1.16061646  -1.94049580  -1.82921982
| 24> H   -0.53598518  -1.73688726  -2.67859519
| 25> H   -2.14278953  -2.32931349  -2.16271416
| 26> H   -0.68342078  -2.77287361  -1.31669455
| 27> C   -2.03086832   0.26084664  -1.83340023
| 28> H   -2.16896572   1.18286467  -1.29634591
| 29> H   -3.02246172  -0.06526866  -2.18962566
| 30> H   -1.40880163   0.45607631  -2.69866153
| 31> C   -1.62762739  -1.07131440   1.45627698
| 32> C   -1.68725147  -2.15778092   2.33674302
| 33> C   -1.35552120  -1.99676017   3.67308758
| 34> C   -1.09355900  -0.71008602   4.16326148
| 35> C   -1.02177701   0.39871639   3.29460268
| 36> C   -1.14937050   0.17101027   1.91196389
| 37> H   -0.88809239  -0.57288876   5.22474295
| 38> H   -0.96045194   1.40156199   3.71535330
| 39> H   -1.82819176  -3.14300982   1.89334549
| 40> H   -1.18753238  -2.89937311   4.27655235
| 41> H   -1.42620210   3.08311005   1.16355487
| 42> C   -2.27316390  -1.13814712   0.12013633
| 43> H   -3.14205366  -0.45840197   0.06721383
| 44> H   -2.63561010  -2.15597347  -0.07676366
| 45> O    1.71225895   0.22447320  -1.69814993
| 46> C    2.19010416  -0.70757926  -2.48524603
| 47> O    1.68059065  -1.78752480  -2.73346399
| 48> C    3.58275896  -0.34714950  -3.07758309
| 49> H    3.95408459  -1.27953407  -3.48212090
| 50> H    4.33352148   0.07884474  -2.39236561
| 51> H    3.48523698   0.36784175  -3.88200816
| 52> *
| 53>
| 54>                          ****END OF INPUT****

CARTESIAN COORDINATES (ANGSTROEM)
---------------------------------
  Pd     0.253784    0.274477   -0.132832
  O      1.815602    1.389484    0.664301
  C      1.562061    2.619224    0.363302
  O      0.523986    2.946366   -0.071579
  C      2.720149    3.576945    0.632138
  H      2.275571    4.462530    1.058674
  H      3.189428    3.861266   -0.301736
  H      3.508843    3.220466    1.290222
  N     -1.346983   -0.732221   -0.974766
  C     -1.160616   -1.940496   -1.829220
  H     -0.535985   -1.736887   -2.678595
  H     -2.142790   -2.329313   -2.162714
  H     -0.683421   -2.772874   -1.316695
  C     -2.030868    0.260847   -1.833400
  H     -2.168966    1.182865   -1.296346
  H     -3.022462   -0.065269   -2.189626
  H     -1.408802    0.456076   -2.698662
  C     -1.627627   -1.071314    1.456277
  C     -1.687251   -2.157781    2.336743
  C     -1.355521   -1.996760    3.673088
  C     -1.093559   -0.710086    4.163261
  C     -1.021777    0.398716    3.294603
  C     -1.149370    0.171010    1.911964
  H     -0.888092   -0.572889    5.224743
  H     -0.960452    1.401562    3.715353
  H     -1.828192   -3.143010    1.893345
  H     -1.187532   -2.899373    4.276552
  H     -1.426202    3.083110    1.163555
  C     -2.273164   -1.138147    0.120136
  H     -3.142054   -0.458402    0.067214
  H     -2.635610   -2.155973   -0.076764
  O      1.712259    0.224473   -1.698150
  C      2.190104   -0.707579   -2.485246
  O      1.680591   -1.787525   -2.733464
  C      3.582759   -0.347149   -3.077583
  H      3.954085   -1.279534   -3.482121
  H      4.333521    0.078845   -2.392366
  H      3.485237    0.367842   -3.882008

 Total Charge           Charge          ....    0
 Multiplicity           Mult            ....    1
 Number of Electrons    NEL             ....  154
 Basis Dimension        Dim             ....  339

ORBITAL ENERGIES
----------------

  NO   OCC          E(Eh)            E(eV)
   0   2.0000     -19.476937      -529.9944
   1   2.0000     -19.456683      -529.4433
   2   2.0000     -19.452371      -529.3259
   3   2.0000     -19.420832      -528.4677
   4   2.0000     -14.731297      -400.8590
   5   2.0000     -10.536681      -286.7177
   6   2.0000     -10.522657      -286.3360
   7   2.0000     -10.520137      -286.2675
   8   2.0000     -10.511789      -286.0403
   9   2.0000     -10.500073      -285.7215
  10   2.0000     -10.489708      -285.4395
  11   2.0000     -10.486668      -285.3568
  12   2.0000     -10.483667      -285.2751
  13   2.0000     -10.482995      -285.2568
  14   2.0000     -10.481860      -285.2259
  15   2.0000     -10.472197      -284.9630
  16   2.0000     -10.416922      -283.4589
  17   2.0000     -10.403395      -283.0908
  18   2.0000      -3.666959       -99.7830
  19   2.0000      -2.317359       -63.0586
  20   2.0000      -2.303162       -62.6722
  21   2.0000      -2.280009       -62.0422
  22   2.0000      -1.185347       -32.2549
  23   2.0000      -1.123016       -30.5588
  24   2.0000      -1.084313       -29.5056
  25   2.0000      -1.066825       -29.0298
  26   2.0000      -1.030096       -28.0303
  27   2.0000      -0.987837       -26.8804
  28   2.0000      -0.896780       -24.4026
  29   2.0000      -0.861693       -23.4479
  30   2.0000      -0.820618       -22.3301
  31   2.0000      -0.806325       -21.9412
  32   2.0000      -0.801893       -21.8206
  33   2.0000      -0.775087       -21.0912
  34   2.0000      -0.728187       -19.8150
  35   2.0000      -0.708627       -19.2827
  36   2.0000      -0.681470       -18.5437
  37   2.0000      -0.609737       -16.5918
  38   2.0000      -0.587472       -15.9859
  39   2.0000      -0.579841       -15.7783
  40   2.0000      -0.573410       -15.6033
  41   2.0000      -0.568571       -15.4716
  42   2.0000      -0.563933       -15.3454
  43   2.0000      -0.542961       -14.7747
  44   2.0000      -0.526973       -14.3397
  45   2.0000      -0.522406       -14.2154
  46   2.0000      -0.513517       -13.9735
  47   2.0000      -0.507268       -13.8035
  48   2.0000      -0.499025       -13.5791
  49   2.0000      -0.497390       -13.5347
  50   2.0000      -0.489080       -13.3085
  51   2.0000      -0.476669       -12.9708
  52   2.0000      -0.470570       -12.8048
  53   2.0000      -0.466840       -12.7034
  54   2.0000      -0.460340       -12.5265
  55   2.0000      -0.448516       -12.2047
  56   2.0000      -0.440903       -11.9976
  57   2.0000      -0.439393       -11.9565
  58   2.0000      -0.436397       -11.8750
  59   2.0000      -0.428132       -11.6501
  60   2.0000      -0.424993       -11.5646
  61   2.0000      -0.414470       -11.2783
  62   2.0000      -0.412528       -11.2254
  63   2.0000      -0.398286       -10.8379
  64   2.0000      -0.375424       -10.2158
  65   2.0000      -0.355165        -9.6645
  66   2.0000      -0.351837        -9.5740
  67   2.0000      -0.351300        -9.5594
  68   2.0000      -0.332828        -9.0567
  69   2.0000      -0.327076        -8.9002
  70   2.0000      -0.317531        -8.6405
  71   2.0000      -0.314327        -8.5533
  72   2.0000      -0.302349        -8.2273
  73   2.0000      -0.290178        -7.8961
  74   2.0000      -0.283069        -7.7027
  75   2.0000      -0.272595        -7.4177
  76   2.0000      -0.271637        -7.3916
  77   0.0000      -0.170801        -4.6477
  78   0.0000      -0.073944        -2.0121
  79   0.0000      -0.023177        -0.6307
  80   0.0000      -0.010573        -0.2877
  81   0.0000       0.063057         1.7159

MULLIKEN ATOMIC CHARGES
-----------------------
   0 Pd:    0.433208
   1 O :   -0.482078
   2 C :    0.579833
   3 O :   -0.412634
   4 C :   -0.754555
   5 H :    0.227804
   6 H :    0.250752
   7 H :    0.246001
   8 N :   -0.491783
   9 C :   -0.544868
  10 H :    0.317737
  11 H :    0.208215
  12 H :    0.269745
  13 C :   -0.556726
  14 H :    0.290066
  15 H :    0.236556
  16 H :    0.292706
  17 C :    0.057622
  18 C :   -0.253630
  19 C :   -0.210289
  20 C :   -0.224069
  21 C :   -0.284352
  22 C :   -0.044181
  23 H :    0.241584
  24 H :    0.252280
  25 H :    0.235904
  26 H :    0.241174
  27 H :    0.162960
  28 C :   -0.308925
  29 H :    0.269101
  30 H :    0.250697
  31 O :   -0.521984
  32 C :    0.541331
  33 O :   -0.474202
  34 C :   -0.741523
  35 H :    0.232526
  36 H :    0.237217
  37 H :    0.230780
Sum of atomic charges:    0.0000000

LOEWDIN ATOMIC CHARGES
----------------------
   0 Pd:   -0.361949
   1 O :   -0.152525
   2 C :    0.112989
   3 O :   -0.183223
   4 C :   -0.385932
   5 H :    0.141254
   6 H :    0.154228
   7 H :    0.143733
   8 N :   -0.040249
   9 C :   -0.241561
  10 H :    0.170012
  11 H :    0.114453
  12 H :    0.149957
  13 C :   -0.234526
  14 H :    0.157757
  15 H :    0.127273
  16 H :    0.162636
  17 C :   -0.038277
  18 C :   -0.126846
  19 C :   -0.111987
  20 C :   -0.123048
  21 C :   -0.107076
  22 C :    0.031219
  23 H :    0.147373
  24 H :    0.157179
  25 H :    0.147416
  26 H :    0.149035
  27 H :    0.183768
  28 C :   -0.095495
  29 H :    0.156230
  30 H :    0.144230
  31 O :   -0.213155
  32 C :    0.129187
  33 O :   -0.292373
  34 C :   -0.393821
  35 H :    0.139014
  36 H :    0.141798
  37 H :    0.141305

  Mayer bond orders larger than 0.100000
B(  0-Pd,  1-O ) :   0.6383 B(  0-Pd,  3-O ) :   0.1233 B(  0-Pd,  8-N ) :   0.4390
B(  0-Pd, 22-C ) :   0.4063 B(  0-Pd, 27-H ) :   0.2018 B(  0-Pd, 31-O ) :   0.6034
B(  1-O ,  2-C ) :   1.2916 B(  2-C ,  3-O ) :   1.8119 B(  2-C ,  4-C ) :   0.9317
B(  4-C ,  5-H ) :   0.9177 B(  4-C ,  6-H ) :   0.9117 B(  4-C ,  7-H ) :   0.9144
B(  8-N ,  9-C ) :   0.9039 B(  8-N , 13-C ) :   0.9101 B(  8-N , 28-C ) :   0.8652
B(  9-C , 10-H ) :   0.8637 B(  9-C , 11-H ) :   0.9010 B(  9-C , 12-H ) :   0.9055
B( 13-C , 14-H ) :   0.8855 B( 13-C , 15-H ) :   0.8991 B( 13-C , 16-H ) :   0.8912
B( 17-C , 18-C ) :   1.4010 B( 17-C , 22-C ) :   1.3040 B( 17-C , 28-C ) :   0.9477
B( 18-C , 19-C ) :   1.4303 B( 18-C , 25-H ) :   0.9079 B( 19-C , 20-C ) :   1.3994
B( 19-C , 26-H ) :   0.9111 B( 20-C , 21-C ) :   1.4205 B( 20-C , 23-H ) :   0.9085
B( 21-C , 22-C ) :   1.4021 B( 21-C , 24-H ) :   0.9095 B( 22-C , 27-H ) :   0.4771
B( 28-C , 29-H ) :   0.8940 B( 28-C , 30-H ) :   0.9108 B( 31-O , 32-C ) :   1.3122
B( 31-O , 33-O ) :   0.1067 B( 32-C , 33-O ) :   1.8892 B( 32-C , 34-C ) :   0.9091
B( 34-C , 35-H ) :   0.9189 B( 34-C , 36-H ) :   0.9165 B( 34-C , 37-H ) :   0.9174

Dispersion correction           -0.026263663
FINAL SINGLE POINT ENERGY      -988.251395815492
Dispersion correction            ... done

DIPOLE MOMENT
-------------
                                X             Y             Z
Electronic contribution:      7.52577      13.53224      -5.28183
Nuclear contribution   :    -10.10727     -13.83078       6.79786
                        -----------------------------------------
Total Dipole Moment    :     -2.58150      -0.29854       1.51603
                        -----------------------------------------
Magnitude (a.u.)       :      3.00859
Magnitude (Debye)      :      7.64722

Rotational constants in cm-1:     0.013360     0.008756     0.006574
Rotational constants in MHz :   400.523880   262.504412   197.078461

                             ****ORCA TERMINATED NORMALLY****
TOTAL RUN TIME: 0 days 0 hours 16 minutes 41 seconds 306 msec
