                         Program Version 5.0.3 -  RELEASE  -
|  1> ! EnGrad PBEh-3c
|  2> %output
|  3> xyzfile=True
|  4> end
|  5> %scf
|  6> maxiter 250
|  7> end
|  8> %output
|  9> Print[P_Hirshfeld] = 1
| 10> end
| 11> % maxcore
| 12> 4000
| 13> *xyz 0 1
| 14> Pd   0.26903110   0.26750468  -0.14265882
| 15> O    1.78399010   1.37558487   0.67469669
| 16> C    1.55704532   2.60909583   0.37702781
| 17> O    0.49298465   2.96131292  -0.06711697
| 18> C    2.69836264   3.58177552   0.62993356
| 19> H    2.25242525   4.47461929   1.06115009
| 20> H    3.17043291   3.85952076  -0.31081001
| 21> H    3.48017838   3.21532071   1.28567448
| 22> N   -1.36279462  -0.72891046  -0.99555570
| 23> C   -1.17252827  -1.91321515  -1.85557957
| 24> H   -0.57267238  -1.70016079  -2.71030730
| 25> H   -2.14623147  -2.28568767  -2.18553681
| 26> H   -0.68442485  -2.75096354  -1.37246475
| 27> C   -2.04101677   0.29787518  -1.81203389
| 28> H   -2.18678875   1.20455492  -1.25117572
| 29> H   -3.02207648  -0.03095966  -2.17157395
| 30> H   -1.43106953   0.51346902  -2.67902038
| 31> C   -1.60189507  -1.05324505   1.44596604
| 32> C   -1.61825953  -2.16289806   2.32117438
| 33> C   -1.31943199  -1.99644486   3.66424514
| 34> C   -1.08161440  -0.69676990   4.15414517
| 35> C   -1.04272271   0.41565072   3.28420047
| 36> C   -1.19722094   0.19873872   1.91002231
| 37> H   -0.91364722  -0.55150329   5.22434598
| 38> H   -1.00197184   1.41054839   3.71011652
| 39> H   -1.73438845  -3.15070328   1.87496794
| 40> H   -1.09593746  -2.89539988   4.24933166
| 41> H   -1.43275917   2.96643154   1.18310657
| 42> C   -2.26309818  -1.14264813   0.12327582
| 43> H   -3.15690848  -0.49656892   0.06576327
| 44> H   -2.60098512  -2.16208116  -0.06970735
| 45> O    1.73624592   0.18558450  -1.66372022
| 46> C    2.18217707  -0.71877819  -2.46844112
| 47> O    1.61843313  -1.78851061  -2.81289464
| 48> C    3.59809243  -0.38767229  -3.04673248
| 49> H    3.98439844  -1.32089756  -3.43465536
| 50> H    4.33038410   0.03903477  -2.33590869
| 51> H    3.53886809   0.32724956  -3.85968146
| 52> *
| 53>
| 54>                          ****END OF INPUT****

CARTESIAN COORDINATES (ANGSTROEM)
---------------------------------
  Pd     0.269031    0.267505   -0.142659
  O      1.783990    1.375585    0.674697
  C      1.557045    2.609096    0.377028
  O      0.492985    2.961313   -0.067117
  C      2.698363    3.581776    0.629934
  H      2.252425    4.474619    1.061150
  H      3.170433    3.859521   -0.310810
  H      3.480178    3.215321    1.285674
  N     -1.362795   -0.728910   -0.995556
  C     -1.172528   -1.913215   -1.855580
  H     -0.572672   -1.700161   -2.710307
  H     -2.146231   -2.285688   -2.185537
  H     -0.684425   -2.750964   -1.372465
  C     -2.041017    0.297875   -1.812034
  H     -2.186789    1.204555   -1.251176
  H     -3.022076   -0.030960   -2.171574
  H     -1.431070    0.513469   -2.679020
  C     -1.601895   -1.053245    1.445966
  C     -1.618260   -2.162898    2.321174
  C     -1.319432   -1.996445    3.664245
  C     -1.081614   -0.696770    4.154145
  C     -1.042723    0.415651    3.284200
  C     -1.197221    0.198739    1.910022
  H     -0.913647   -0.551503    5.224346
  H     -1.001972    1.410548    3.710117
  H     -1.734388   -3.150703    1.874968
  H     -1.095937   -2.895400    4.249332
  H     -1.432759    2.966432    1.183107
  C     -2.263098   -1.142648    0.123276
  H     -3.156908   -0.496569    0.065763
  H     -2.600985   -2.162081   -0.069707
  O      1.736246    0.185584   -1.663720
  C      2.182177   -0.718778   -2.468441
  O      1.618433   -1.788511   -2.812895
  C      3.598092   -0.387672   -3.046732
  H      3.984398   -1.320898   -3.434655
  H      4.330384    0.039035   -2.335909
  H      3.538868    0.327250   -3.859681

 Total Charge           Charge          ....    0
 Multiplicity           Mult            ....    1
 Number of Electrons    NEL             ....  154
 Basis Dimension        Dim             ....  339

ORBITAL ENERGIES
----------------

  NO   OCC          E(Eh)            E(eV)
   0   2.0000     -19.483795      -530.1810
   1   2.0000     -19.460993      -529.5605
   2   2.0000     -19.455379      -529.4078
   3   2.0000     -19.416785      -528.3576
   4   2.0000     -14.729026      -400.7972
   5   2.0000     -10.542837      -286.8852
   6   2.0000     -10.526798      -286.4487
   7   2.0000     -10.520271      -286.2711
   8   2.0000     -10.510619      -286.0085
   9   2.0000     -10.501204      -285.7523
  10   2.0000     -10.488357      -285.4027
  11   2.0000     -10.485430      -285.3231
  12   2.0000     -10.485133      -285.3150
  13   2.0000     -10.484500      -285.2978
  14   2.0000     -10.483774      -285.2780
  15   2.0000     -10.465956      -284.7931
  16   2.0000     -10.422225      -283.6032
  17   2.0000     -10.405159      -283.1388
  18   2.0000      -3.668210       -99.8171
  19   2.0000      -2.319339       -63.1124
  20   2.0000      -2.304865       -62.7186
  21   2.0000      -2.280631       -62.0591
  22   2.0000      -1.174084       -31.9484
  23   2.0000      -1.118079       -30.4245
  24   2.0000      -1.084256       -29.5041
  25   2.0000      -1.065328       -28.9891
  26   2.0000      -1.027532       -27.9606
  27   2.0000      -0.988062       -26.8865
  28   2.0000      -0.897054       -24.4101
  29   2.0000      -0.863442       -23.4955
  30   2.0000      -0.822457       -22.3802
  31   2.0000      -0.806694       -21.9513
  32   2.0000      -0.805793       -21.9267
  33   2.0000      -0.773133       -21.0380
  34   2.0000      -0.727086       -19.7850
  35   2.0000      -0.710204       -19.3256
  36   2.0000      -0.681724       -18.5506
  37   2.0000      -0.610734       -16.6189
  38   2.0000      -0.592770       -16.1301
  39   2.0000      -0.580591       -15.7987
  40   2.0000      -0.574895       -15.6437
  41   2.0000      -0.573477       -15.6051
  42   2.0000      -0.564566       -15.3626
  43   2.0000      -0.543515       -14.7898
  44   2.0000      -0.527675       -14.3588
  45   2.0000      -0.522522       -14.2186
  46   2.0000      -0.512231       -13.9385
  47   2.0000      -0.506076       -13.7710
  48   2.0000      -0.500169       -13.6103
  49   2.0000      -0.496263       -13.5040
  50   2.0000      -0.488169       -13.2837
  51   2.0000      -0.477318       -12.9885
  52   2.0000      -0.468923       -12.7600
  53   2.0000      -0.465618       -12.6701
  54   2.0000      -0.461161       -12.5488
  55   2.0000      -0.448457       -12.2031
  56   2.0000      -0.441889       -12.0244
  57   2.0000      -0.441117       -12.0034
  58   2.0000      -0.438452       -11.9309
  59   2.0000      -0.429197       -11.6790
  60   2.0000      -0.424109       -11.5406
  61   2.0000      -0.414134       -11.2692
  62   2.0000      -0.408689       -11.1210
  63   2.0000      -0.399526       -10.8716
  64   2.0000      -0.375575       -10.2199
  65   2.0000      -0.355674        -9.6784
  66   2.0000      -0.353775        -9.6267
  67   2.0000      -0.350852        -9.5472
  68   2.0000      -0.335460        -9.1283
  69   2.0000      -0.328549        -8.9403
  70   2.0000      -0.319010        -8.6807
  71   2.0000      -0.315141        -8.5754
  72   2.0000      -0.303642        -8.2625
  73   2.0000      -0.290960        -7.9174
  74   2.0000      -0.284833        -7.7507
  75   2.0000      -0.274206        -7.4615
  76   2.0000      -0.268542        -7.3074
  77   0.0000      -0.164047        -4.4640
  78   0.0000      -0.076575        -2.0837
  79   0.0000      -0.025159        -0.6846
  80   0.0000      -0.010434        -0.2839
  81   0.0000       0.061473         1.6728

MULLIKEN ATOMIC CHARGES
-----------------------
   0 Pd:    0.453453
   1 O :   -0.484878
   2 C :    0.592516
   3 O :   -0.445245
   4 C :   -0.749988
   5 H :    0.231780
   6 H :    0.252788
   7 H :    0.246148
   8 N :   -0.486602
   9 C :   -0.548995
  10 H :    0.320488
  11 H :    0.207788
  12 H :    0.270657
  13 C :   -0.556764
  14 H :    0.289345
  15 H :    0.236847
  16 H :    0.292628
  17 C :    0.044608
  18 C :   -0.255559
  19 C :   -0.209155
  20 C :   -0.229966
  21 C :   -0.273184
  22 C :   -0.048659
  23 H :    0.241148
  24 H :    0.251426
  25 H :    0.238598
  26 H :    0.240845
  27 H :    0.171678
  28 C :   -0.308161
  29 H :    0.267634
  30 H :    0.253575
  31 O :   -0.506615
  32 C :    0.547785
  33 O :   -0.508681
  34 C :   -0.738744
  35 H :    0.235842
  36 H :    0.232285
  37 H :    0.231335
Sum of atomic charges:   -0.0000000

LOEWDIN ATOMIC CHARGES
----------------------
   0 Pd:   -0.348055
   1 O :   -0.146820
   2 C :    0.135283
   3 O :   -0.222361
   4 C :   -0.381985
   5 H :    0.144498
   6 H :    0.156478
   7 H :    0.143834
   8 N :   -0.042515
   9 C :   -0.246096
  10 H :    0.170039
  11 H :    0.112823
  12 H :    0.150896
  13 C :   -0.234035
  14 H :    0.158304
  15 H :    0.126360
  16 H :    0.162298
  17 C :   -0.040022
  18 C :   -0.122852
  19 C :   -0.115258
  20 C :   -0.120142
  21 C :   -0.110056
  22 C :    0.018451
  23 H :    0.147121
  24 H :    0.155945
  25 H :    0.148174
  26 H :    0.149697
  27 H :    0.194505
  28 C :   -0.094473
  29 H :    0.155370
  30 H :    0.144614
  31 O :   -0.187694
  32 C :    0.144805
  33 O :   -0.334221
  34 C :   -0.393364
  35 H :    0.139909
  36 H :    0.139029
  37 H :    0.141515

  Mayer bond orders larger than 0.100000
B(  0-Pd,  1-O ) :   0.6354 B(  0-Pd,  3-O ) :   0.1252 B(  0-Pd,  8-N ) :   0.4436
B(  0-Pd, 22-C ) :   0.3589 B(  0-Pd, 27-H ) :   0.1728 B(  0-Pd, 31-O ) :   0.5925
B(  1-O ,  2-C ) :   1.3067 B(  2-C ,  3-O ) :   1.7653 B(  2-C ,  4-C ) :   0.9354
B(  4-C ,  5-H ) :   0.9174 B(  4-C ,  6-H ) :   0.9105 B(  4-C ,  7-H ) :   0.9122
B(  8-N ,  9-C ) :   0.9080 B(  8-N , 13-C ) :   0.9119 B(  8-N , 28-C ) :   0.8652
B(  9-C , 10-H ) :   0.8601 B(  9-C , 11-H ) :   0.9005 B(  9-C , 12-H ) :   0.9058
B( 13-C , 14-H ) :   0.8860 B( 13-C , 15-H ) :   0.8991 B( 13-C , 16-H ) :   0.8916
B( 17-C , 18-C ) :   1.3830 B( 17-C , 22-C ) :   1.3316 B( 17-C , 28-C ) :   0.9477
B( 18-C , 19-C ) :   1.4480 B( 18-C , 25-H ) :   0.9065 B( 19-C , 20-C ) :   1.3870
B( 19-C , 26-H ) :   0.9110 B( 20-C , 21-C ) :   1.4324 B( 20-C , 23-H ) :   0.9086
B( 21-C , 22-C ) :   1.3978 B( 21-C , 24-H ) :   0.9097 B( 22-C , 27-H ) :   0.5192
B( 28-C , 29-H ) :   0.8946 B( 28-C , 30-H ) :   0.9110 B( 31-O , 32-C ) :   1.3442
B( 31-O , 33-O ) :   0.1092 B( 32-C , 33-O ) :   1.8410 B( 32-C , 34-C ) :   0.9081
B( 34-C , 35-H ) :   0.9180 B( 34-C , 36-H ) :   0.9168 B( 34-C , 37-H ) :   0.9173

Dispersion correction           -0.026361155
FINAL SINGLE POINT ENERGY      -988.264317020198
Dispersion correction            ... done

DIPOLE MOMENT
-------------
                                X             Y             Z
Electronic contribution:      8.54423      13.25709      -5.61903
Nuclear contribution   :    -11.01602     -13.46370       7.27260
                        -----------------------------------------
Total Dipole Moment    :     -2.47179      -0.20661       1.65357
                        -----------------------------------------
Magnitude (a.u.)       :      2.98106
Magnitude (Debye)      :      7.57726

Rotational constants in cm-1:     0.013288     0.008806     0.006613
Rotational constants in MHz :   398.349903   263.991150   198.245772

                             ****ORCA TERMINATED NORMALLY****
TOTAL RUN TIME: 0 days 0 hours 12 minutes 4 seconds 172 msec
