                         Program Version 5.0.3 -  RELEASE  -
|  1> ! EnGrad PBEh-3c
|  2> %output
|  3> xyzfile=True
|  4> end
|  5> %scf
|  6> maxiter 250
|  7> end
|  8> %output
|  9> Print[P_Hirshfeld] = 1
| 10> end
| 11> % maxcore
| 12> 4000
| 13> *xyz 0 1
| 14> Pd   0.28935096   0.25309642  -0.16056557
| 15> O    1.72438156   1.35688511   0.69499448
| 16> C    1.53580998   2.58901973   0.40216613
| 17> O    0.43444618   2.98978813  -0.05437361
| 18> C    2.65205185   3.59156331   0.62582568
| 19> H    2.20719937   4.49317612   1.06315165
| 20> H    3.12982395   3.85549355  -0.32568614
| 21> H    3.42490084   3.20666357   1.27808836
| 22> N   -1.38712007  -0.71332551  -1.02516267
| 23> C   -1.20098927  -1.85796890  -1.90938234
| 24> H   -0.64072154  -1.62172919  -2.78099282
| 25> H   -2.16293391  -2.20191928  -2.23262156
| 26> H   -0.68594048  -2.70932730  -1.48346171
| 27> C   -2.06128069   0.36854945  -1.77014333
| 28> H   -2.22252051   1.25019934  -1.15753087
| 29> H   -3.02768831   0.03978642  -2.13693798
| 30> H   -1.47378866   0.63136897  -2.63889295
| 31> C   -1.55528482  -1.02752396   1.42948492
| 32> C   -1.48287739  -2.16654083   2.28782053
| 33> C   -1.23777156  -1.99016679   3.64227658
| 34> C   -1.06413924  -0.67032805   4.13532979
| 35> C   -1.08499923   0.44440431   3.26894195
| 36> C   -1.28306543   0.26015710   1.90847721
| 37> H   -0.96339204  -0.50740604   5.21934532
| 38> H   -1.08491711   1.43608968   3.69982064
| 39> H   -1.54253160  -3.16779175   1.83606077
| 40> H   -0.91185635  -2.89135265   4.19663054
| 41> H   -1.44251653   2.72683318   1.22109289
| 42> C   -2.24431658  -1.15091579   0.11858069
| 43> H   -3.18449160  -0.57133620   0.06414959
| 44> H   -2.53159377  -2.18025392  -0.05610265
| 45> O    1.78373544   0.10335227  -1.59206498
| 46> C    2.15738228  -0.77143482  -2.46120469
| 47> O    1.50832334  -1.76428900  -2.96227248
| 48> C    3.62935452  -0.46968985  -2.97420331
| 49> H    4.04607903  -1.40488992  -3.33747604
| 50> H    4.32601185  -0.04146060  -2.22351262
| 51> H    3.64461086   0.24492250  -3.81275203
| 52> *
| 53>
| 54>                          ****END OF INPUT****

CARTESIAN COORDINATES (ANGSTROEM)
---------------------------------
  Pd     0.289351    0.253096   -0.160566
  O      1.724382    1.356885    0.694994
  C      1.535810    2.589020    0.402166
  O      0.434446    2.989788   -0.054374
  C      2.652052    3.591563    0.625826
  H      2.207199    4.493176    1.063152
  H      3.129824    3.855494   -0.325686
  H      3.424901    3.206664    1.278088
  N     -1.387120   -0.713326   -1.025163
  C     -1.200989   -1.857969   -1.909382
  H     -0.640722   -1.621729   -2.780993
  H     -2.162934   -2.201919   -2.232622
  H     -0.685940   -2.709327   -1.483462
  C     -2.061281    0.368549   -1.770143
  H     -2.222521    1.250199   -1.157531
  H     -3.027688    0.039786   -2.136938
  H     -1.473789    0.631369   -2.638893
  C     -1.555285   -1.027524    1.429485
  C     -1.482877   -2.166541    2.287821
  C     -1.237772   -1.990167    3.642277
  C     -1.064139   -0.670328    4.135330
  C     -1.084999    0.444404    3.268942
  C     -1.283065    0.260157    1.908477
  H     -0.963392   -0.507406    5.219345
  H     -1.084917    1.436090    3.699821
  H     -1.542532   -3.167792    1.836061
  H     -0.911856   -2.891353    4.196631
  H     -1.442517    2.726833    1.221093
  C     -2.244317   -1.150916    0.118581
  H     -3.184492   -0.571336    0.064150
  H     -2.531594   -2.180254   -0.056103
  O      1.783735    0.103352   -1.592065
  C      2.157382   -0.771435   -2.461205
  O      1.508323   -1.764289   -2.962272
  C      3.629355   -0.469690   -2.974203
  H      4.046079   -1.404890   -3.337476
  H      4.326012   -0.041461   -2.223513
  H      3.644611    0.244922   -3.812752

 Total Charge           Charge          ....    0
 Multiplicity           Mult            ....    1
 Number of Electrons    NEL             ....  154
 Basis Dimension        Dim             ....  339

ORBITAL ENERGIES
----------------

  NO   OCC          E(Eh)            E(eV)
   0   2.0000     -19.493002      -530.4315
   1   2.0000     -19.473483      -529.9004
   2   2.0000     -19.452066      -529.3176
   3   2.0000     -19.422099      -528.5022
   4   2.0000     -14.726409      -400.7260
   5   2.0000     -10.550795      -287.1017
   6   2.0000     -10.537711      -286.7457
   7   2.0000     -10.520296      -286.2718
   8   2.0000     -10.508667      -285.9554
   9   2.0000     -10.503214      -285.8070
  10   2.0000     -10.487590      -285.3818
  11   2.0000     -10.486666      -285.3567
  12   2.0000     -10.485170      -285.3160
  13   2.0000     -10.485158      -285.3157
  14   2.0000     -10.484004      -285.2842
  15   2.0000     -10.459910      -284.6286
  16   2.0000     -10.428552      -283.7753
  17   2.0000     -10.411701      -283.3168
  18   2.0000      -3.669887       -99.8627
  19   2.0000      -2.321999       -63.1848
  20   2.0000      -2.307317       -62.7853
  21   2.0000      -2.281471       -62.0820
  22   2.0000      -1.164555       -31.6892
  23   2.0000      -1.119967       -30.4759
  24   2.0000      -1.083968       -29.4963
  25   2.0000      -1.057463       -28.7750
  26   2.0000      -1.025851       -27.9148
  27   2.0000      -0.985387       -26.8138
  28   2.0000      -0.894310       -24.3354
  29   2.0000      -0.864119       -23.5139
  30   2.0000      -0.824076       -22.4243
  31   2.0000      -0.809246       -22.0207
  32   2.0000      -0.805217       -21.9111
  33   2.0000      -0.770258       -20.9598
  34   2.0000      -0.725411       -19.7394
  35   2.0000      -0.707559       -19.2537
  36   2.0000      -0.681276       -18.5385
  37   2.0000      -0.610964       -16.6252
  38   2.0000      -0.599015       -16.3000
  39   2.0000      -0.586918       -15.9708
  40   2.0000      -0.578109       -15.7312
  41   2.0000      -0.573277       -15.5997
  42   2.0000      -0.562981       -15.3195
  43   2.0000      -0.541759       -14.7420
  44   2.0000      -0.527868       -14.3640
  45   2.0000      -0.522544       -14.2191
  46   2.0000      -0.511170       -13.9096
  47   2.0000      -0.505854       -13.7650
  48   2.0000      -0.499999       -13.6057
  49   2.0000      -0.494253       -13.4493
  50   2.0000      -0.487082       -13.2542
  51   2.0000      -0.476499       -12.9662
  52   2.0000      -0.472061       -12.8454
  53   2.0000      -0.465525       -12.6676
  54   2.0000      -0.461556       -12.5596
  55   2.0000      -0.447453       -12.1758
  56   2.0000      -0.442735       -12.0474
  57   2.0000      -0.441278       -12.0078
  58   2.0000      -0.440431       -11.9847
  59   2.0000      -0.431199       -11.7335
  60   2.0000      -0.420737       -11.4488
  61   2.0000      -0.413894       -11.2626
  62   2.0000      -0.403506       -10.9800
  63   2.0000      -0.401603       -10.9282
  64   2.0000      -0.377114       -10.2618
  65   2.0000      -0.359594        -9.7850
  66   2.0000      -0.355346        -9.6695
  67   2.0000      -0.349888        -9.5209
  68   2.0000      -0.336574        -9.1586
  69   2.0000      -0.328982        -8.9521
  70   2.0000      -0.322124        -8.7654
  71   2.0000      -0.315467        -8.5843
  72   2.0000      -0.304496        -8.2858
  73   2.0000      -0.295928        -8.0526
  74   2.0000      -0.286992        -7.8095
  75   2.0000      -0.277689        -7.5563
  76   2.0000      -0.270510        -7.3609
  77   0.0000      -0.145003        -3.9457
  78   0.0000      -0.079020        -2.1502
  79   0.0000      -0.028334        -0.7710
  80   0.0000      -0.008848        -0.2408
  81   0.0000       0.059499         1.6191

MULLIKEN ATOMIC CHARGES
-----------------------
   0 Pd:    0.494043
   1 O :   -0.487642
   2 C :    0.605691
   3 O :   -0.490774
   4 C :   -0.742488
   5 H :    0.238448
   6 H :    0.254805
   7 H :    0.243733
   8 N :   -0.481267
   9 C :   -0.555603
  10 H :    0.321123
  11 H :    0.210952
  12 H :    0.271112
  13 C :   -0.555507
  14 H :    0.286307
  15 H :    0.238051
  16 H :    0.292228
  17 C :    0.001442
  18 C :   -0.254057
  19 C :   -0.212128
  20 C :   -0.234578
  21 C :   -0.250066
  22 C :   -0.061569
  23 H :    0.239575
  24 H :    0.248276
  25 H :    0.241364
  26 H :    0.237619
  27 H :    0.188423
  28 C :   -0.302632
  29 H :    0.264780
  30 H :    0.256589
  31 O :   -0.499927
  32 C :    0.555642
  33 O :   -0.524333
  34 C :   -0.734425
  35 H :    0.235197
  36 H :    0.231327
  37 H :    0.230268
Sum of atomic charges:   -0.0000000

LOEWDIN ATOMIC CHARGES
----------------------
   0 Pd:   -0.326437
   1 O :   -0.136027
   2 C :    0.165000
   3 O :   -0.280535
   4 C :   -0.377261
   5 H :    0.148992
   6 H :    0.159130
   7 H :    0.143105
   8 N :   -0.045967
   9 C :   -0.253059
  10 H :    0.169426
  11 H :    0.112031
  12 H :    0.152313
  13 C :   -0.232727
  14 H :    0.159761
  15 H :    0.125514
  16 H :    0.161662
  17 C :   -0.041990
  18 C :   -0.119177
  19 C :   -0.120313
  20 C :   -0.117192
  21 C :   -0.116902
  22 C :   -0.012971
  23 H :    0.146922
  24 H :    0.153056
  25 H :    0.149740
  26 H :    0.150810
  27 H :    0.213495
  28 C :   -0.094597
  29 H :    0.153521
  30 H :    0.144744
  31 O :   -0.169744
  32 C :    0.169087
  33 O :   -0.357453
  34 C :   -0.393838
  35 H :    0.138655
  36 H :    0.137247
  37 H :    0.141978

  Mayer bond orders larger than 0.100000
B(  0-Pd,  1-O ) :   0.6234 B(  0-Pd,  3-O ) :   0.1300 B(  0-Pd,  8-N ) :   0.4491
B(  0-Pd, 22-C ) :   0.2734 B(  0-Pd, 27-H ) :   0.1243 B(  0-Pd, 31-O ) :   0.6008
B(  1-O ,  2-C ) :   1.3339 B(  2-C ,  3-O ) :   1.6990 B(  2-C ,  4-C ) :   0.9394
B(  4-C ,  5-H ) :   0.9166 B(  4-C ,  6-H ) :   0.9093 B(  4-C ,  7-H ) :   0.9096
B(  8-N ,  9-C ) :   0.9132 B(  8-N , 13-C ) :   0.9128 B(  8-N , 28-C ) :   0.8660
B(  9-C , 10-H ) :   0.8583 B(  9-C , 11-H ) :   0.8992 B(  9-C , 12-H ) :   0.9064
B( 13-C , 14-H ) :   0.8875 B( 13-C , 15-H ) :   0.8983 B( 13-C , 16-H ) :   0.8920
B( 17-C , 18-C ) :   1.3692 B( 17-C , 22-C ) :   1.3622 B( 17-C , 28-C ) :   0.9485
B( 18-C , 19-C ) :   1.4623 B( 18-C , 25-H ) :   0.9051 B( 19-C , 20-C ) :   1.3727
B( 19-C , 26-H ) :   0.9118 B( 20-C , 21-C ) :   1.4424 B( 20-C , 23-H ) :   0.9093
B( 21-C , 22-C ) :   1.3977 B( 21-C , 24-H ) :   0.9104 B( 22-C , 27-H ) :   0.5930
B( 28-C , 29-H ) :   0.8955 B( 28-C , 30-H ) :   0.9116 B( 31-O , 32-C ) :   1.3452
B( 31-O , 33-O ) :   0.1120 B( 32-C , 33-O ) :   1.8168 B( 32-C , 34-C ) :   0.9017
B( 34-C , 35-H ) :   0.9166 B( 34-C , 36-H ) :   0.9157 B( 34-C , 37-H ) :   0.9182

Dispersion correction           -0.026536823
FINAL SINGLE POINT ENERGY      -988.274241224616
Dispersion correction            ... done

DIPOLE MOMENT
-------------
                                X             Y             Z
Electronic contribution:     10.04922      12.46062      -6.43817
Nuclear contribution   :    -12.27631     -12.68268       8.14166
                        -----------------------------------------
Total Dipole Moment    :     -2.22709      -0.22206       1.70349
                        -----------------------------------------
Magnitude (a.u.)       :      2.81267
Magnitude (Debye)      :      7.14924

Rotational constants in cm-1:     0.013145     0.008893     0.006694
Rotational constants in MHz :   394.067639   266.602914   200.678826

                             ****ORCA TERMINATED NORMALLY****
TOTAL RUN TIME: 0 days 0 hours 11 minutes 39 seconds 285 msec
