                         Program Version 5.0.3 -  RELEASE  -
|  1> ! EnGrad PBEh-3c
|  2> %output
|  3> xyzfile=True
|  4> end
|  5> %scf
|  6> maxiter 250
|  7> end
|  8> %output
|  9> Print[P_Hirshfeld] = 1
| 10> end
| 11> % maxcore
| 12> 4000
| 13> *xyz 0 1
| 14> Pd   0.32304513   0.26306566  -0.15541918
| 15> O    1.70851935   1.33951239   0.69359091
| 16> C    1.51728299   2.57807291   0.40739564
| 17> O    0.43055541   3.00589933  -0.04981759
| 18> C    2.64436186   3.59042615   0.62699017
| 19> H    2.21129942   4.50290185   1.06368819
| 20> H    3.12423323   3.85551212  -0.32937945
| 21> H    3.42009903   3.20014093   1.27973845
| 22> N   -1.39922285  -0.72190016  -1.03645988
| 23> C   -1.19749389  -1.86973943  -1.91626703
| 24> H   -0.63497373  -1.61168103  -2.78829571
| 25> H   -2.16886358  -2.19561143  -2.23499777
| 26> H   -0.68022874  -2.69949867  -1.46702057
| 27> C   -2.05855085   0.37168632  -1.77540203
| 28> H   -2.22133671   1.25561752  -1.15272554
| 29> H   -3.02414613   0.03136672  -2.13435299
| 30> H   -1.46948445   0.63603357  -2.64330703
| 31> C   -1.57585792  -1.00704343   1.43674908
| 32> C   -1.45872883  -2.15222568   2.27572404
| 33> C   -1.20668284  -1.99049400   3.63230672
| 34> C   -1.06344047  -0.67335428   4.12805493
| 35> C   -1.09027895   0.43452980   3.27267271
| 36> C   -1.28944333   0.26557139   1.91093002
| 37> H   -0.96627295  -0.50591282   5.20423180
| 38> H   -1.06883478   1.42339631   3.69238241
| 39> H   -1.55359668  -3.15752281   1.84803741
| 40> H   -0.93294922  -2.86442193   4.19840715
| 41> H   -1.41395436   2.66492215   1.21455803
| 42> C   -2.24544482  -1.14951321   0.10540353
| 43> H   -3.17556801  -0.58148642   0.07921656
| 44> H   -2.53509361  -2.17737818  -0.05267664
| 45> O    1.76899721   0.08861089  -1.59427338
| 46> C    2.14606753  -0.79479056  -2.46088802
| 47> O    1.54860711  -1.70447810  -2.93293790
| 48> C    3.61275420  -0.47503943  -2.97190354
| 49> H    4.05362447  -1.40441263  -3.34240721
| 50> H    4.30147084  -0.05174999  -2.22183450
| 51> H    3.63769583   0.24133247  -3.81235103
| 52> *
| 53>
| 54>                          ****END OF INPUT****

CARTESIAN COORDINATES (ANGSTROEM)
---------------------------------
  Pd     0.323045    0.263066   -0.155419
  O      1.708519    1.339512    0.693591
  C      1.517283    2.578073    0.407396
  O      0.430555    3.005899   -0.049818
  C      2.644362    3.590426    0.626990
  H      2.211299    4.502902    1.063688
  H      3.124233    3.855512   -0.329379
  H      3.420099    3.200141    1.279738
  N     -1.399223   -0.721900   -1.036460
  C     -1.197494   -1.869739   -1.916267
  H     -0.634974   -1.611681   -2.788296
  H     -2.168864   -2.195611   -2.234998
  H     -0.680229   -2.699499   -1.467021
  C     -2.058551    0.371686   -1.775402
  H     -2.221337    1.255618   -1.152726
  H     -3.024146    0.031367   -2.134353
  H     -1.469484    0.636034   -2.643307
  C     -1.575858   -1.007043    1.436749
  C     -1.458729   -2.152226    2.275724
  C     -1.206683   -1.990494    3.632307
  C     -1.063440   -0.673354    4.128055
  C     -1.090279    0.434530    3.272673
  C     -1.289443    0.265571    1.910930
  H     -0.966273   -0.505913    5.204232
  H     -1.068835    1.423396    3.692382
  H     -1.553597   -3.157523    1.848037
  H     -0.932949   -2.864422    4.198407
  H     -1.413954    2.664922    1.214558
  C     -2.245445   -1.149513    0.105404
  H     -3.175568   -0.581486    0.079217
  H     -2.535094   -2.177378   -0.052677
  O      1.768997    0.088611   -1.594273
  C      2.146068   -0.794791   -2.460888
  O      1.548607   -1.704478   -2.932938
  C      3.612754   -0.475039   -2.971904
  H      4.053624   -1.404413   -3.342407
  H      4.301471   -0.051750   -2.221834
  H      3.637696    0.241332   -3.812351

 Total Charge           Charge          ....    0
 Multiplicity           Mult            ....    1
 Number of Electrons    NEL             ....  154
 Basis Dimension        Dim             ....  339

ORBITAL ENERGIES
----------------

  NO   OCC          E(Eh)            E(eV)
   0   2.0000     -19.496626      -530.5302
   1   2.0000     -19.462884      -529.6120
   2   2.0000     -19.454624      -529.3872
   3   2.0000     -19.429732      -528.7099
   4   2.0000     -14.720220      -400.5576
   5   2.0000     -10.553596      -287.1779
   6   2.0000     -10.528376      -286.4917
   7   2.0000     -10.516829      -286.1775
   8   2.0000     -10.504491      -285.8417
   9   2.0000     -10.500412      -285.7307
  10   2.0000     -10.484681      -285.3027
  11   2.0000     -10.484168      -285.2887
  12   2.0000     -10.480947      -285.2011
  13   2.0000     -10.480153      -285.1795
  14   2.0000     -10.479113      -285.1512
  15   2.0000     -10.462511      -284.6994
  16   2.0000     -10.429872      -283.8113
  17   2.0000     -10.406823      -283.1840
  18   2.0000      -3.666158       -99.7612
  19   2.0000      -2.318520       -63.0901
  20   2.0000      -2.304271       -62.7024
  21   2.0000      -2.277402       -61.9713
  22   2.0000      -1.166594       -31.7446
  23   2.0000      -1.147337       -31.2206
  24   2.0000      -1.081086       -29.4178
  25   2.0000      -1.063211       -28.9314
  26   2.0000      -1.054661       -28.6988
  27   2.0000      -0.985803       -26.8251
  28   2.0000      -0.892871       -24.2963
  29   2.0000      -0.863349       -23.4929
  30   2.0000      -0.823082       -22.3972
  31   2.0000      -0.806135       -21.9360
  32   2.0000      -0.804921       -21.9030
  33   2.0000      -0.767610       -20.8877
  34   2.0000      -0.722516       -19.6607
  35   2.0000      -0.707255       -19.2454
  36   2.0000      -0.680528       -18.5181
  37   2.0000      -0.612276       -16.6609
  38   2.0000      -0.601872       -16.3778
  39   2.0000      -0.584129       -15.8950
  40   2.0000      -0.575853       -15.6698
  41   2.0000      -0.572779       -15.5861
  42   2.0000      -0.562358       -15.3025
  43   2.0000      -0.538066       -14.6415
  44   2.0000      -0.528285       -14.3754
  45   2.0000      -0.524723       -14.2784
  46   2.0000      -0.513880       -13.9834
  47   2.0000      -0.510023       -13.8784
  48   2.0000      -0.498534       -13.5658
  49   2.0000      -0.496661       -13.5148
  50   2.0000      -0.488841       -13.3020
  51   2.0000      -0.483599       -13.1594
  52   2.0000      -0.478604       -13.0235
  53   2.0000      -0.475217       -12.9313
  54   2.0000      -0.461258       -12.5515
  55   2.0000      -0.449126       -12.2213
  56   2.0000      -0.443369       -12.0647
  57   2.0000      -0.442527       -12.0418
  58   2.0000      -0.439211       -11.9516
  59   2.0000      -0.433376       -11.7928
  60   2.0000      -0.420591       -11.4449
  61   2.0000      -0.415428       -11.3044
  62   2.0000      -0.402954       -10.9649
  63   2.0000      -0.399565       -10.8727
  64   2.0000      -0.379322       -10.3219
  65   2.0000      -0.361043        -9.8245
  66   2.0000      -0.355899        -9.6845
  67   2.0000      -0.348597        -9.4858
  68   2.0000      -0.335285        -9.1236
  69   2.0000      -0.330276        -8.9873
  70   2.0000      -0.322719        -8.7816
  71   2.0000      -0.315108        -8.5745
  72   2.0000      -0.305946        -8.3252
  73   2.0000      -0.296658        -8.0725
  74   2.0000      -0.290126        -7.8947
  75   2.0000      -0.281093        -7.6489
  76   2.0000      -0.274914        -7.4808
  77   0.0000      -0.136846        -3.7238
  78   0.0000      -0.073759        -2.0071
  79   0.0000      -0.021285        -0.5792
  80   0.0000      -0.005677        -0.1545
  81   0.0000       0.060375         1.6429

MULLIKEN ATOMIC CHARGES
-----------------------
   0 Pd:    0.496039
   1 O :   -0.497389
   2 C :    0.607842
   3 O :   -0.483562
   4 C :   -0.740724
   5 H :    0.238010
   6 H :    0.254101
   7 H :    0.241061
   8 N :   -0.475700
   9 C :   -0.544205
  10 H :    0.312145
  11 H :    0.209209
  12 H :    0.268484
  13 C :   -0.549459
  14 H :    0.282790
  15 H :    0.233177
  16 H :    0.288163
  17 C :    0.008722
  18 C :   -0.254233
  19 C :   -0.210414
  20 C :   -0.233334
  21 C :   -0.248375
  22 C :   -0.080177
  23 H :    0.237001
  24 H :    0.248032
  25 H :    0.236274
  26 H :    0.240371
  27 H :    0.188820
  28 C :   -0.304093
  29 H :    0.264840
  30 H :    0.254030
  31 O :   -0.523466
  32 C :    0.535700
  33 O :   -0.438249
  34 C :   -0.746491
  35 H :    0.225424
  36 H :    0.232300
  37 H :    0.227339
Sum of atomic charges:   -0.0000000

LOEWDIN ATOMIC CHARGES
----------------------
   0 Pd:   -0.329116
   1 O :   -0.130483
   2 C :    0.172176
   3 O :   -0.274747
   4 C :   -0.377501
   5 H :    0.148002
   6 H :    0.158692
   7 H :    0.141665
   8 N :   -0.058229
   9 C :   -0.247206
  10 H :    0.166489
  11 H :    0.111539
  12 H :    0.150658
  13 C :   -0.232091
  14 H :    0.159551
  15 H :    0.122742
  16 H :    0.159835
  17 C :   -0.040453
  18 C :   -0.119512
  19 C :   -0.117809
  20 C :   -0.120105
  21 C :   -0.116917
  22 C :   -0.023068
  23 H :    0.145542
  24 H :    0.151844
  25 H :    0.148086
  26 H :    0.148375
  27 H :    0.214045
  28 C :   -0.099298
  29 H :    0.152386
  30 H :    0.143228
  31 O :   -0.182343
  32 C :    0.114218
  33 O :   -0.250850
  34 C :   -0.399383
  35 H :    0.133753
  36 H :    0.136010
  37 H :    0.140274

  Mayer bond orders larger than 0.100000
B(  0-Pd,  1-O ) :   0.6380 B(  0-Pd,  3-O ) :   0.1237 B(  0-Pd,  8-N ) :   0.4255
B(  0-Pd, 22-C ) :   0.2555 B(  0-Pd, 27-H ) :   0.1174 B(  0-Pd, 31-O ) :   0.6305
B(  1-O ,  2-C ) :   1.3124 B(  2-C ,  3-O ) :   1.7149 B(  2-C ,  4-C ) :   0.9366
B(  4-C ,  5-H ) :   0.9170 B(  4-C ,  6-H ) :   0.9096 B(  4-C ,  7-H ) :   0.9099
B(  8-N ,  9-C ) :   0.9170 B(  8-N , 13-C ) :   0.9160 B(  8-N , 28-C ) :   0.8760
B(  9-C , 10-H ) :   0.8683 B(  9-C , 11-H ) :   0.9017 B(  9-C , 12-H ) :   0.9077
B( 13-C , 14-H ) :   0.8897 B( 13-C , 15-H ) :   0.8999 B( 13-C , 16-H ) :   0.8940
B( 17-C , 18-C ) :   1.3686 B( 17-C , 22-C ) :   1.3806 B( 17-C , 28-C ) :   0.9501
B( 18-C , 19-C ) :   1.4668 B( 18-C , 25-H ) :   0.9077 B( 19-C , 20-C ) :   1.3779
B( 19-C , 26-H ) :   0.9109 B( 20-C , 21-C ) :   1.4516 B( 20-C , 23-H ) :   0.9105
B( 21-C , 22-C ) :   1.3935 B( 21-C , 24-H ) :   0.9105 B( 22-C , 27-H ) :   0.6093
B( 28-C , 29-H ) :   0.8962 B( 28-C , 30-H ) :   0.9122 B( 31-O , 32-C ) :   1.2941
B( 31-O , 33-O ) :   0.1045 B( 32-C , 33-O ) :   1.9399 B( 32-C , 34-C ) :   0.8936
B( 34-C , 35-H ) :   0.9202 B( 34-C , 36-H ) :   0.9168 B( 34-C , 37-H ) :   0.9207

Dispersion correction           -0.026617974
FINAL SINGLE POINT ENERGY      -988.293344316845
Dispersion correction            ... done

DIPOLE MOMENT
-------------
                                X             Y             Z
Electronic contribution:     11.89561      12.78416      -6.32958
Nuclear contribution   :    -14.08279     -13.18431       7.87507
                        -----------------------------------------
Total Dipole Moment    :     -2.18719      -0.40016       1.54550
                        -----------------------------------------
Magnitude (a.u.)       :      2.70786
Magnitude (Debye)      :      6.88282

Rotational constants in cm-1:     0.013192     0.008915     0.006724
Rotational constants in MHz :   395.493749   267.267631   201.566938

                             ****ORCA TERMINATED NORMALLY****
TOTAL RUN TIME: 0 days 0 hours 13 minutes 48 seconds 514 msec
