                         Program Version 5.0.3 -  RELEASE  -
|  1> ! EnGrad PBEh-3c
|  2> %output
|  3> xyzfile=True
|  4> end
|  5> %scf
|  6> maxiter 250
|  7> end
|  8> %output
|  9> Print[P_Hirshfeld] = 1
| 10> end
| 11> % maxcore
| 12> 4000
| 13> *xyz 0 1
| 14> Pd   0.40762741   0.19909445  -0.16896857
| 15> O    1.96773657   1.29065961   0.63348392
| 16> C    1.69648721   2.65079240   0.33310591
| 17> O    0.74035219   2.96176219  -0.13417943
| 18> C    2.89252306   3.58013432   0.65033585
| 19> H    2.47816662   4.50129577   1.08537580
| 20> H    3.34096792   3.86862359  -0.29809261
| 21> H    3.64285538   3.17838533   1.29298273
| 22> N   -1.33245668  -0.87313736  -0.98447554
| 23> C   -1.02893364  -2.17714929  -1.57190705
| 24> H   -0.32161879  -2.09308776  -2.35464575
| 25> H   -1.92658169  -2.60009403  -2.01533792
| 26> H   -0.63335800  -2.84124984  -0.80905983
| 27> C   -1.91146411  -0.01068790  -2.01633728
| 28> H   -2.01890181   0.99819751  -1.67644812
| 29> H   -2.87769227  -0.41692541  -2.31387872
| 30> H   -1.27623453  -0.02204275  -2.89962951
| 31> C   -1.73093602  -1.12310788   1.47971293
| 32> C   -2.03850385  -2.14406194   2.42377403
| 33> C   -1.68272045  -1.99700528   3.74630785
| 34> C   -1.01935000  -0.87248775   4.17321080
| 35> C   -0.82789687   0.19864708   3.27652643
| 36> C   -1.12335559   0.01521936   1.93899239
| 37> H   -0.76074715  -0.74265549   5.21858283
| 38> H   -0.55291597   1.11968175   3.72029416
| 39> H   -2.70509985  -2.93683814   2.16852471
| 40> H   -2.03217859  -2.71494620   4.48223024
| 41> H   -1.26036133   3.76676604   0.98365514
| 42> C   -2.33770076  -1.08063248   0.14441502
| 43> H   -3.06123091  -0.25720975   0.13059520
| 44> H   -2.95339764  -1.96045040  -0.04830487
| 45> O    1.50066179   0.51927906  -1.92033334
| 46> C    2.25388205  -0.47468046  -2.35706239
| 47> O    2.17900167  -1.59700502  -2.02796251
| 48> C    3.34663833  -0.04608200  -3.40759621
| 49> H    3.72048704  -0.91318140  -3.93142861
| 50> H    4.18652747   0.35106881  -2.82295297
| 51> H    3.06037778   0.69611001  -4.12655497
| 52> *
| 53>
| 54>                          ****END OF INPUT****

CARTESIAN COORDINATES (ANGSTROEM)
---------------------------------
  Pd     0.407627    0.199094   -0.168969
  O      1.967737    1.290660    0.633484
  C      1.696487    2.650792    0.333106
  O      0.740352    2.961762   -0.134179
  C      2.892523    3.580134    0.650336
  H      2.478167    4.501296    1.085376
  H      3.340968    3.868624   -0.298093
  H      3.642855    3.178385    1.292983
  N     -1.332457   -0.873137   -0.984476
  C     -1.028934   -2.177149   -1.571907
  H     -0.321619   -2.093088   -2.354646
  H     -1.926582   -2.600094   -2.015338
  H     -0.633358   -2.841250   -0.809060
  C     -1.911464   -0.010688   -2.016337
  H     -2.018902    0.998198   -1.676448
  H     -2.877692   -0.416925   -2.313879
  H     -1.276235   -0.022043   -2.899630
  C     -1.730936   -1.123108    1.479713
  C     -2.038504   -2.144062    2.423774
  C     -1.682720   -1.997005    3.746308
  C     -1.019350   -0.872488    4.173211
  C     -0.827897    0.198647    3.276526
  C     -1.123356    0.015219    1.938992
  H     -0.760747   -0.742655    5.218583
  H     -0.552916    1.119682    3.720294
  H     -2.705100   -2.936838    2.168525
  H     -2.032179   -2.714946    4.482230
  H     -1.260361    3.766766    0.983655
  C     -2.337701   -1.080632    0.144415
  H     -3.061231   -0.257210    0.130595
  H     -2.953398   -1.960450   -0.048305
  O      1.500662    0.519279   -1.920333
  C      2.253882   -0.474680   -2.357062
  O      2.179002   -1.597005   -2.027963
  C      3.346638   -0.046082   -3.407596
  H      3.720487   -0.913181   -3.931429
  H      4.186527    0.351069   -2.822953
  H      3.060378    0.696110   -4.126555

 Total Charge           Charge          ....    0
 Multiplicity           Mult            ....    1
 Number of Electrons    NEL             ....  154
 Basis Dimension        Dim             ....  339

ORBITAL ENERGIES
----------------

  NO   OCC          E(Eh)            E(eV)
   0   2.0000     -19.477656      -530.0140
   1   2.0000     -19.473543      -529.9020
   2   2.0000     -19.460145      -529.5375
   3   2.0000     -19.430010      -528.7174
   4   2.0000     -14.718941      -400.5227
   5   2.0000     -10.544049      -286.9182
   6   2.0000     -10.523592      -286.3615
   7   2.0000     -10.506751      -285.9032
   8   2.0000     -10.502501      -285.7876
   9   2.0000     -10.491783      -285.4959
  10   2.0000     -10.478657      -285.1388
  11   2.0000     -10.477769      -285.1146
  12   2.0000     -10.477217      -285.0996
  13   2.0000     -10.475259      -285.0463
  14   2.0000     -10.471529      -284.9448
  15   2.0000     -10.470207      -284.9088
  16   2.0000     -10.424328      -283.6604
  17   2.0000     -10.406813      -283.1838
  18   2.0000      -3.656226       -99.4910
  19   2.0000      -2.303994       -62.6949
  20   2.0000      -2.294926       -62.4481
  21   2.0000      -2.269193       -61.7479
  22   2.0000      -1.216703       -33.1082
  23   2.0000      -1.150536       -31.3077
  24   2.0000      -1.073116       -29.2010
  25   2.0000      -1.043229       -28.3877
  26   2.0000      -1.029985       -28.0273
  27   2.0000      -0.988652       -26.9026
  28   2.0000      -0.898896       -24.4602
  29   2.0000      -0.859949       -23.4004
  30   2.0000      -0.820536       -22.3279
  31   2.0000      -0.806339       -21.9416
  32   2.0000      -0.802922       -21.8486
  33   2.0000      -0.777807       -21.1652
  34   2.0000      -0.721221       -19.6254
  35   2.0000      -0.710296       -19.3281
  36   2.0000      -0.672830       -18.3086
  37   2.0000      -0.607382       -16.5277
  38   2.0000      -0.584229       -15.8977
  39   2.0000      -0.575424       -15.6581
  40   2.0000      -0.570567       -15.5259
  41   2.0000      -0.569676       -15.5017
  42   2.0000      -0.561245       -15.2723
  43   2.0000      -0.542515       -14.7626
  44   2.0000      -0.528561       -14.3829
  45   2.0000      -0.525942       -14.3116
  46   2.0000      -0.515133       -14.0175
  47   2.0000      -0.511397       -13.9158
  48   2.0000      -0.499256       -13.5854
  49   2.0000      -0.497006       -13.5242
  50   2.0000      -0.486546       -13.2396
  51   2.0000      -0.481816       -13.1109
  52   2.0000      -0.478948       -13.0328
  53   2.0000      -0.471992       -12.8436
  54   2.0000      -0.462843       -12.5946
  55   2.0000      -0.447487       -12.1768
  56   2.0000      -0.446197       -12.1416
  57   2.0000      -0.443593       -12.0708
  58   2.0000      -0.432539       -11.7700
  59   2.0000      -0.430559       -11.7161
  60   2.0000      -0.429644       -11.6912
  61   2.0000      -0.423792       -11.5320
  62   2.0000      -0.408968       -11.1286
  63   2.0000      -0.396055       -10.7772
  64   2.0000      -0.376454       -10.2438
  65   2.0000      -0.360176        -9.8009
  66   2.0000      -0.343863        -9.3570
  67   2.0000      -0.337127        -9.1737
  68   2.0000      -0.326807        -8.8929
  69   2.0000      -0.321713        -8.7543
  70   2.0000      -0.313404        -8.5282
  71   2.0000      -0.309766        -8.4292
  72   2.0000      -0.302219        -8.2238
  73   2.0000      -0.295360        -8.0372
  74   2.0000      -0.282651        -7.6913
  75   2.0000      -0.275493        -7.4965
  76   2.0000      -0.257138        -6.9971
  77   0.0000      -0.183721        -4.9993
  78   0.0000      -0.069249        -1.8844
  79   0.0000      -0.018496        -0.5033
  80   0.0000      -0.000064        -0.0017
  81   0.0000       0.067497         1.8367

MULLIKEN ATOMIC CHARGES
-----------------------
   0 Pd:    0.381356
   1 O :   -0.537555
   2 C :    0.552243
   3 O :   -0.294307
   4 C :   -0.751591
   5 H :    0.223378
   6 H :    0.251117
   7 H :    0.256932
   8 N :   -0.476297
   9 C :   -0.525620
  10 H :    0.299472
  11 H :    0.209962
  12 H :    0.266237
  13 C :   -0.532931
  14 H :    0.285694
  15 H :    0.221783
  16 H :    0.278995
  17 C :    0.059032
  18 C :   -0.244065
  19 C :   -0.214617
  20 C :   -0.212904
  21 C :   -0.274007
  22 C :   -0.023926
  23 H :    0.240554
  24 H :    0.255145
  25 H :    0.227156
  26 H :    0.236681
  27 H :    0.109030
  28 C :   -0.337223
  29 H :    0.275283
  30 H :    0.244071
  31 O :   -0.530234
  32 C :    0.534667
  33 O :   -0.410337
  34 C :   -0.745227
  35 H :    0.232517
  36 H :    0.236443
  37 H :    0.233093
Sum of atomic charges:   -0.0000000

LOEWDIN ATOMIC CHARGES
----------------------
   0 Pd:   -0.340227
   1 O :   -0.228011
   2 C :    0.132619
   3 O :   -0.075624
   4 C :   -0.388178
   5 H :    0.140064
   6 H :    0.155482
   7 H :    0.146666
   8 N :   -0.062992
   9 C :   -0.236323
  10 H :    0.160279
  11 H :    0.114260
  12 H :    0.152042
  13 C :   -0.234307
  14 H :    0.156386
  15 H :    0.119163
  16 H :    0.157545
  17 C :   -0.053268
  18 C :   -0.121680
  19 C :   -0.122116
  20 C :   -0.117247
  21 C :   -0.105725
  22 C :    0.036687
  23 H :    0.145892
  24 H :    0.155984
  25 H :    0.143252
  26 H :    0.145348
  27 H :    0.117617
  28 C :   -0.101754
  29 H :    0.157880
  30 H :    0.136217
  31 O :   -0.214086
  32 C :    0.116259
  33 O :   -0.213920
  34 C :   -0.394819
  35 H :    0.136264
  36 H :    0.148612
  37 H :    0.135756

  Mayer bond orders larger than 0.100000
B(  0-Pd,  1-O ) :   0.7259 B(  0-Pd,  8-N ) :   0.3868 B(  0-Pd, 22-C ) :   0.3950
B(  0-Pd, 27-H ) :   0.2257 B(  0-Pd, 31-O ) :   0.6458 B(  1-O ,  2-C ) :   1.1009
B(  2-C ,  3-O ) :   1.9959 B(  2-C ,  4-C ) :   0.9258 B(  4-C ,  5-H ) :   0.9197
B(  4-C ,  6-H ) :   0.9107 B(  4-C ,  7-H ) :   0.9102 B(  8-N ,  9-C ) :   0.9260
B(  8-N , 13-C ) :   0.9212 B(  8-N , 28-C ) :   0.8826 B(  9-C , 10-H ) :   0.8849
B(  9-C , 11-H ) :   0.9044 B(  9-C , 12-H ) :   0.9071 B( 13-C , 14-H ) :   0.8947
B( 13-C , 15-H ) :   0.9039 B( 13-C , 16-H ) :   0.8962 B( 17-C , 18-C ) :   1.3776
B( 17-C , 22-C ) :   1.3528 B( 17-C , 28-C ) :   0.9570 B( 18-C , 19-C ) :   1.4490
B( 18-C , 25-H ) :   0.9100 B( 19-C , 20-C ) :   1.4189 B( 19-C , 26-H ) :   0.9102
B( 20-C , 21-C ) :   1.4103 B( 20-C , 23-H ) :   0.9065 B( 21-C , 22-C ) :   1.4166
B( 21-C , 24-H ) :   0.9028 B( 22-C , 27-H ) :   0.4528 B( 28-C , 29-H ) :   0.8955
B( 28-C , 30-H ) :   0.9064 B( 31-O , 32-C ) :   1.2483 B( 32-C , 33-O ) :   1.9308
B( 32-C , 34-C ) :   0.9110 B( 34-C , 35-H ) :   0.9192 B( 34-C , 36-H ) :   0.9171
B( 34-C , 37-H ) :   0.9162

Dispersion correction           -0.025799237
FINAL SINGLE POINT ENERGY      -988.203134129552
Dispersion correction            ... done

DIPOLE MOMENT
-------------
                                X             Y             Z
Electronic contribution:     14.98833       9.44536      -8.13889
Nuclear contribution   :    -17.65246      -9.70875       9.19249
                        -----------------------------------------
Total Dipole Moment    :     -2.66413      -0.26338       1.05359
                        -----------------------------------------
Magnitude (a.u.)       :      2.87698
Magnitude (Debye)      :      7.31271

Rotational constants in cm-1:     0.014060     0.008355     0.006363
Rotational constants in MHz :   421.496676   250.477285   190.768175

                             ****ORCA TERMINATED NORMALLY****
TOTAL RUN TIME: 0 days 0 hours 19 minutes 23 seconds 606 msec
