                         Program Version 5.0.3 -  RELEASE  -
|  1> ! EnGrad PBEh-3c
|  2> %output
|  3> xyzfile=True
|  4> end
|  5> %scf
|  6> maxiter 250
|  7> end
|  8> %output
|  9> Print[P_Hirshfeld] = 1
| 10> end
| 11> % maxcore
| 12> 4000
| 13> *xyz 0 1
| 14> Pd   0.31892773   0.25639865  -0.15835584
| 15> O    1.71202176   1.34599113   0.69526136
| 16> C    1.50793818   2.58450081   0.40667184
| 17> O    0.43396440   3.00704155  -0.04401849
| 18> C    2.64147098   3.58727297   0.62812708
| 19> H    2.21606957   4.50135431   1.06146027
| 20> H    3.12006307   3.85407380  -0.32646323
| 21> H    3.42044129   3.19966503   1.28049872
| 22> N   -1.39068052  -0.71564096  -1.02847263
| 23> C   -1.19786527  -1.87010246  -1.91793945
| 24> H   -0.62881606  -1.61027988  -2.78957726
| 25> H   -2.17646192  -2.20258792  -2.23726351
| 26> H   -0.67744506  -2.69939140  -1.45557785
| 27> C   -2.05669330   0.36760093  -1.77714099
| 28> H   -2.21801792   1.25283139  -1.15586315
| 29> H   -3.02727015   0.02708612  -2.13738940
| 30> H   -1.46552407   0.63426969  -2.64581219
| 31> C   -1.58459622  -1.01144312   1.43417005
| 32> C   -1.45914530  -2.14350352   2.27366690
| 33> C   -1.19607941  -1.97977144   3.62313678
| 34> C   -1.06473971  -0.67947399   4.12620745
| 35> C   -1.08856353   0.42768939   3.27595651
| 36> C   -1.28691863   0.27183804   1.91254415
| 37> H   -0.96436359  -0.50667350   5.19669875
| 38> H   -1.05896720   1.42148968   3.69126735
| 39> H   -1.56467567  -3.15051154   1.85344635
| 40> H   -0.94812111  -2.85994521   4.20539689
| 41> H   -1.39678436   2.64219419   1.20839990
| 42> C   -2.24476612  -1.14874214   0.09941356
| 43> H   -3.17356689  -0.57906625   0.08506201
| 44> H   -2.54070906  -2.17991314  -0.05165255
| 45> O    1.76340513   0.08260285  -1.59301609
| 46> C    2.16524822  -0.77328241  -2.46092481
| 47> O    1.55004463  -1.70891596  -2.92599381
| 48> C    3.60726084  -0.47432914  -2.97137758
| 49> H    4.05201367  -1.39902866  -3.34679117
| 50> H    4.29256778  -0.05230220  -2.22622621
| 51> H    3.62790429   0.24093436  -3.81013422
| 52> *
| 53>
| 54>                          ****END OF INPUT****

CARTESIAN COORDINATES (ANGSTROEM)
---------------------------------
  Pd     0.318928    0.256399   -0.158356
  O      1.712022    1.345991    0.695261
  C      1.507938    2.584501    0.406672
  O      0.433964    3.007042   -0.044018
  C      2.641471    3.587273    0.628127
  H      2.216070    4.501354    1.061460
  H      3.120063    3.854074   -0.326463
  H      3.420441    3.199665    1.280499
  N     -1.390681   -0.715641   -1.028473
  C     -1.197865   -1.870102   -1.917939
  H     -0.628816   -1.610280   -2.789577
  H     -2.176462   -2.202588   -2.237264
  H     -0.677445   -2.699391   -1.455578
  C     -2.056693    0.367601   -1.777141
  H     -2.218018    1.252831   -1.155863
  H     -3.027270    0.027086   -2.137389
  H     -1.465524    0.634270   -2.645812
  C     -1.584596   -1.011443    1.434170
  C     -1.459145   -2.143504    2.273667
  C     -1.196079   -1.979771    3.623137
  C     -1.064740   -0.679474    4.126207
  C     -1.088564    0.427689    3.275957
  C     -1.286919    0.271838    1.912544
  H     -0.964364   -0.506673    5.196699
  H     -1.058967    1.421490    3.691267
  H     -1.564676   -3.150512    1.853446
  H     -0.948121   -2.859945    4.205397
  H     -1.396784    2.642194    1.208400
  C     -2.244766   -1.148742    0.099414
  H     -3.173567   -0.579066    0.085062
  H     -2.540709   -2.179913   -0.051653
  O      1.763405    0.082603   -1.593016
  C      2.165248   -0.773282   -2.460925
  O      1.550045   -1.708916   -2.925994
  C      3.607261   -0.474329   -2.971378
  H      4.052014   -1.399029   -3.346791
  H      4.292568   -0.052302   -2.226226
  H      3.627904    0.240934   -3.810134

 Total Charge           Charge          ....    0
 Multiplicity           Mult            ....    1
 Number of Electrons    NEL             ....  154
 Basis Dimension        Dim             ....  339

ORBITAL ENERGIES
----------------

  NO   OCC          E(Eh)            E(eV)
   0   2.0000     -19.493768      -530.4524
   1   2.0000     -19.462448      -529.6001
   2   2.0000     -19.456005      -529.4248
   3   2.0000     -19.421610      -528.4889
   4   2.0000     -14.722568      -400.6214
   5   2.0000     -10.551790      -287.1288
   6   2.0000     -10.526197      -286.4324
   7   2.0000     -10.518255      -286.2163
   8   2.0000     -10.505071      -285.8575
   9   2.0000     -10.501146      -285.7507
  10   2.0000     -10.485552      -285.3264
  11   2.0000     -10.483422      -285.2684
  12   2.0000     -10.479606      -285.1646
  13   2.0000     -10.479184      -285.1531
  14   2.0000     -10.478522      -285.1351
  15   2.0000     -10.464381      -284.7503
  16   2.0000     -10.427925      -283.7583
  17   2.0000     -10.406826      -283.1841
  18   2.0000      -3.667707       -99.8034
  19   2.0000      -2.319884       -63.1272
  20   2.0000      -2.305866       -62.7458
  21   2.0000      -2.278919       -62.0125
  22   2.0000      -1.168175       -31.7876
  23   2.0000      -1.138029       -30.9673
  24   2.0000      -1.082125       -29.4461
  25   2.0000      -1.067096       -29.0371
  26   2.0000      -1.046653       -28.4809
  27   2.0000      -0.987460       -26.8702
  28   2.0000      -0.894477       -24.3400
  29   2.0000      -0.863700       -23.5025
  30   2.0000      -0.821678       -22.3590
  31   2.0000      -0.806497       -21.9459
  32   2.0000      -0.804198       -21.8833
  33   2.0000      -0.773837       -21.0572
  34   2.0000      -0.723494       -19.6873
  35   2.0000      -0.706721       -19.2308
  36   2.0000      -0.681442       -18.5430
  37   2.0000      -0.611797       -16.6478
  38   2.0000      -0.600680       -16.3453
  39   2.0000      -0.585797       -15.9403
  40   2.0000      -0.576367       -15.6838
  41   2.0000      -0.573433       -15.6039
  42   2.0000      -0.562893       -15.3171
  43   2.0000      -0.538462       -14.6523
  44   2.0000      -0.528039       -14.3687
  45   2.0000      -0.525158       -14.2903
  46   2.0000      -0.514108       -13.9896
  47   2.0000      -0.509708       -13.8699
  48   2.0000      -0.498812       -13.5734
  49   2.0000      -0.496508       -13.5107
  50   2.0000      -0.488769       -13.3001
  51   2.0000      -0.479436       -13.0461
  52   2.0000      -0.477513       -12.9938
  53   2.0000      -0.473868       -12.8946
  54   2.0000      -0.460591       -12.5333
  55   2.0000      -0.448603       -12.2071
  56   2.0000      -0.442869       -12.0511
  57   2.0000      -0.441923       -12.0253
  58   2.0000      -0.439039       -11.9469
  59   2.0000      -0.431924       -11.7533
  60   2.0000      -0.420852       -11.4520
  61   2.0000      -0.415973       -11.3192
  62   2.0000      -0.403645       -10.9837
  63   2.0000      -0.401475       -10.9247
  64   2.0000      -0.380947       -10.3661
  65   2.0000      -0.359520        -9.7830
  66   2.0000      -0.357467        -9.7272
  67   2.0000      -0.348372        -9.4797
  68   2.0000      -0.336382        -9.1534
  69   2.0000      -0.331405        -9.0180
  70   2.0000      -0.323291        -8.7972
  71   2.0000      -0.315899        -8.5960
  72   2.0000      -0.305892        -8.3238
  73   2.0000      -0.296947        -8.0803
  74   2.0000      -0.288598        -7.8532
  75   2.0000      -0.279671        -7.6102
  76   2.0000      -0.274389        -7.4665
  77   0.0000      -0.135589        -3.6896
  78   0.0000      -0.074992        -2.0406
  79   0.0000      -0.020948        -0.5700
  80   0.0000      -0.004554        -0.1239
  81   0.0000       0.060122         1.6360

MULLIKEN ATOMIC CHARGES
-----------------------
   0 Pd:    0.503537
   1 O :   -0.499294
   2 C :    0.604489
   3 O :   -0.473436
   4 C :   -0.743143
   5 H :    0.236629
   6 H :    0.253009
   7 H :    0.241332
   8 N :   -0.479190
   9 C :   -0.541516
  10 H :    0.314334
  11 H :    0.207990
  12 H :    0.267952
  13 C :   -0.548676
  14 H :    0.281678
  15 H :    0.233950
  16 H :    0.288834
  17 C :    0.006348
  18 C :   -0.251259
  19 C :   -0.211322
  20 C :   -0.227250
  21 C :   -0.250107
  22 C :   -0.085787
  23 H :    0.237688
  24 H :    0.247735
  25 H :    0.235559
  26 H :    0.239889
  27 H :    0.193124
  28 C :   -0.304196
  29 H :    0.265625
  30 H :    0.254464
  31 O :   -0.519389
  32 C :    0.541007
  33 O :   -0.469268
  34 C :   -0.746008
  35 H :    0.230651
  36 H :    0.234770
  37 H :    0.229248
Sum of atomic charges:    0.0000000

LOEWDIN ATOMIC CHARGES
----------------------
   0 Pd:   -0.324132
   1 O :   -0.137264
   2 C :    0.163069
   3 O :   -0.262161
   4 C :   -0.378775
   5 H :    0.146648
   6 H :    0.157805
   7 H :    0.141745
   8 N :   -0.054788
   9 C :   -0.244471
  10 H :    0.168167
  11 H :    0.111646
  12 H :    0.151128
  13 C :   -0.231830
  14 H :    0.158666
  15 H :    0.123825
  16 H :    0.160331
  17 C :   -0.039062
  18 C :   -0.120578
  19 C :   -0.115369
  20 C :   -0.121677
  21 C :   -0.115856
  22 C :   -0.026579
  23 H :    0.145951
  24 H :    0.151746
  25 H :    0.148238
  26 H :    0.148067
  27 H :    0.218632
  28 C :   -0.100962
  29 H :    0.152845
  30 H :    0.143893
  31 O :   -0.174402
  32 C :    0.118772
  33 O :   -0.285744
  34 C :   -0.394021
  35 H :    0.137070
  36 H :    0.137330
  37 H :    0.142096

  Mayer bond orders larger than 0.100000
B(  0-Pd,  1-O ) :   0.6414 B(  0-Pd,  3-O ) :   0.1197 B(  0-Pd,  8-N ) :   0.4299
B(  0-Pd, 22-C ) :   0.2560 B(  0-Pd, 27-H ) :   0.1158 B(  0-Pd, 31-O ) :   0.6196
B(  1-O ,  2-C ) :   1.3063 B(  2-C ,  3-O ) :   1.7357 B(  2-C ,  4-C ) :   0.9351
B(  4-C ,  5-H ) :   0.9172 B(  4-C ,  6-H ) :   0.9101 B(  4-C ,  7-H ) :   0.9107
B(  8-N ,  9-C ) :   0.9112 B(  8-N , 13-C ) :   0.9146 B(  8-N , 28-C ) :   0.8769
B(  9-C , 10-H ) :   0.8653 B(  9-C , 11-H ) :   0.9013 B(  9-C , 12-H ) :   0.9076
B( 13-C , 14-H ) :   0.8897 B( 13-C , 15-H ) :   0.8998 B( 13-C , 16-H ) :   0.8935
B( 17-C , 18-C ) :   1.3850 B( 17-C , 22-C ) :   1.3651 B( 17-C , 28-C ) :   0.9491
B( 18-C , 19-C ) :   1.4549 B( 18-C , 25-H ) :   0.9080 B( 19-C , 20-C ) :   1.3912
B( 19-C , 26-H ) :   0.9111 B( 20-C , 21-C ) :   1.4416 B( 20-C , 23-H ) :   0.9102
B( 21-C , 22-C ) :   1.4036 B( 21-C , 24-H ) :   0.9104 B( 22-C , 27-H ) :   0.6147
B( 28-C , 29-H ) :   0.8959 B( 28-C , 30-H ) :   0.9122 B( 31-O , 32-C ) :   1.3137
B( 31-O , 33-O ) :   0.1044 B( 32-C , 33-O ) :   1.9014 B( 32-C , 34-C ) :   0.9048
B( 34-C , 35-H ) :   0.9198 B( 34-C , 36-H ) :   0.9150 B( 34-C , 37-H ) :   0.9193

Dispersion correction           -0.026651339
FINAL SINGLE POINT ENERGY      -988.303234710197
Dispersion correction            ... done

DIPOLE MOMENT
-------------
                                X             Y             Z
Electronic contribution:     11.63151      12.46915      -6.47755
Nuclear contribution   :    -13.84913     -12.81193       8.04444
                        -----------------------------------------
Total Dipole Moment    :     -2.21762      -0.34278       1.56689
                        -----------------------------------------
Magnitude (a.u.)       :      2.73688
Magnitude (Debye)      :      6.95659

Rotational constants in cm-1:     0.013209     0.008928     0.006731
Rotational constants in MHz :   395.992483   267.656297   201.789620

                             ****ORCA TERMINATED NORMALLY****
TOTAL RUN TIME: 0 days 0 hours 11 minutes 39 seconds 670 msec
