                         Program Version 5.0.3 -  RELEASE  -
|  1> ! EnGrad PBEh-3c
|  2> %output
|  3> xyzfile=True
|  4> end
|  5> %scf
|  6> maxiter 250
|  7> end
|  8> %output
|  9> Print[P_Hirshfeld] = 1
| 10> end
| 11> % maxcore
| 12> 4000
| 13> *xyz 0 1
| 14> Pd   0.32232485   0.24236389  -0.16445297
| 15> O    1.70248422   1.35395796   0.70012137
| 16> C    1.48550787   2.59140577   0.41513760
| 17> O    0.42192906   3.02227943  -0.02836964
| 18> C    2.62473746   3.57966369   0.63101544
| 19> H    2.22138104   4.50388607   1.05676970
| 20> H    3.10017838   3.84887006  -0.32272889
| 21> H    3.40966430   3.19465688   1.28135076
| 22> N   -1.37758937  -0.70497224  -1.02501150
| 23> C   -1.20194045  -1.86533710  -1.93341308
| 24> H   -0.62348623  -1.59114106  -2.80457440
| 25> H   -2.19652812  -2.20267652  -2.24961870
| 26> H   -0.67072130  -2.68670973  -1.44166185
| 27> C   -2.05620157   0.37261993  -1.77639243
| 28> H   -2.21518222   1.25379427  -1.14793782
| 29> H   -3.03269957   0.02591886  -2.13737231
| 30> H   -1.46130423   0.65063524  -2.64567298
| 31> C   -1.60344767  -0.99933615   1.42491382
| 32> C   -1.43150073  -2.12108675   2.25648670
| 33> C   -1.14684483  -1.95989744   3.59772259
| 34> C   -1.06296680  -0.68564560   4.11779787
| 35> C   -1.09335481   0.42167603   3.27807773
| 36> C   -1.29743670   0.29476170   1.91479384
| 37> H   -0.96797102  -0.50197485   5.17523108
| 38> H   -1.04151029   1.41542183   3.68548550
| 39> H   -1.56383619  -3.13156937   1.86345702
| 40> H   -0.96251228  -2.83816485   4.21331003
| 41> H   -1.34413982   2.51403375   1.19752520
| 42> C   -2.24065727  -1.15107064   0.08742385
| 43> H   -3.17186484  -0.58665257   0.10253387
| 44> H   -2.54335452  -2.18778121  -0.04777962
| 45> O    1.75487926   0.06280384  -1.57224890
| 46> C    2.18901875  -0.76235474  -2.46583018
| 47> O    1.55820691  -1.68651546  -2.92269769
| 48> C    3.59859834  -0.48546743  -2.96223385
| 49> H    4.05874682  -1.39964216  -3.34217153
| 50> H    4.26265637  -0.06901163  -2.21521924
| 51> H    3.61771740   0.22499888  -3.79566744
| 52> *
| 53>
| 54>                          ****END OF INPUT****

CARTESIAN COORDINATES (ANGSTROEM)
---------------------------------
  Pd     0.322325    0.242364   -0.164453
  O      1.702484    1.353958    0.700121
  C      1.485508    2.591406    0.415138
  O      0.421929    3.022279   -0.028370
  C      2.624737    3.579664    0.631015
  H      2.221381    4.503886    1.056770
  H      3.100178    3.848870   -0.322729
  H      3.409664    3.194657    1.281351
  N     -1.377589   -0.704972   -1.025011
  C     -1.201940   -1.865337   -1.933413
  H     -0.623486   -1.591141   -2.804574
  H     -2.196528   -2.202677   -2.249619
  H     -0.670721   -2.686710   -1.441662
  C     -2.056202    0.372620   -1.776392
  H     -2.215182    1.253794   -1.147938
  H     -3.032700    0.025919   -2.137372
  H     -1.461304    0.650635   -2.645673
  C     -1.603448   -0.999336    1.424914
  C     -1.431501   -2.121087    2.256487
  C     -1.146845   -1.959897    3.597723
  C     -1.062967   -0.685646    4.117798
  C     -1.093355    0.421676    3.278078
  C     -1.297437    0.294762    1.914794
  H     -0.967971   -0.501975    5.175231
  H     -1.041510    1.415422    3.685485
  H     -1.563836   -3.131569    1.863457
  H     -0.962512   -2.838165    4.213310
  H     -1.344140    2.514034    1.197525
  C     -2.240657   -1.151071    0.087424
  H     -3.171865   -0.586653    0.102534
  H     -2.543355   -2.187781   -0.047780
  O      1.754879    0.062804   -1.572249
  C      2.189019   -0.762355   -2.465830
  O      1.558207   -1.686515   -2.922698
  C      3.598598   -0.485467   -2.962234
  H      4.058747   -1.399642   -3.342172
  H      4.262656   -0.069012   -2.215219
  H      3.617717    0.224999   -3.795667

 Total Charge           Charge          ....    0
 Multiplicity           Mult            ....    1
 Number of Electrons    NEL             ....  154
 Basis Dimension        Dim             ....  339

ORBITAL ENERGIES
----------------

  NO   OCC          E(Eh)            E(eV)
   0   2.0000     -19.489969      -530.3490
   1   2.0000     -19.459003      -529.5064
   2   2.0000     -19.456169      -529.4293
   3   2.0000     -19.418918      -528.4156
   4   2.0000     -14.724557      -400.6756
   5   2.0000     -10.549522      -287.0671
   6   2.0000     -10.523748      -286.3657
   7   2.0000     -10.517495      -286.1956
   8   2.0000     -10.504844      -285.8513
   9   2.0000     -10.500555      -285.7346
  10   2.0000     -10.487328      -285.3747
  11   2.0000     -10.480385      -285.1858
  12   2.0000     -10.476025      -285.0671
  13   2.0000     -10.475365      -285.0492
  14   2.0000     -10.472655      -284.9754
  15   2.0000     -10.469487      -284.8892
  16   2.0000     -10.424821      -283.6738
  17   2.0000     -10.406421      -283.1731
  18   2.0000      -3.667906       -99.8088
  19   2.0000      -2.319770       -63.1241
  20   2.0000      -2.306816       -62.7717
  21   2.0000      -2.278706       -62.0067
  22   2.0000      -1.168140       -31.7867
  23   2.0000      -1.138703       -30.9857
  24   2.0000      -1.081632       -29.4327
  25   2.0000      -1.068913       -29.0866
  26   2.0000      -1.042001       -28.3543
  27   2.0000      -0.988439       -26.8968
  28   2.0000      -0.896082       -24.3836
  29   2.0000      -0.862604       -23.4726
  30   2.0000      -0.819344       -22.2955
  31   2.0000      -0.805964       -21.9314
  32   2.0000      -0.803048       -21.8520
  33   2.0000      -0.785519       -21.3751
  34   2.0000      -0.723966       -19.7001
  35   2.0000      -0.705014       -19.1844
  36   2.0000      -0.681230       -18.5372
  37   2.0000      -0.611490       -16.6395
  38   2.0000      -0.599472       -16.3125
  39   2.0000      -0.588013       -16.0006
  40   2.0000      -0.575852       -15.6697
  41   2.0000      -0.573522       -15.6063
  42   2.0000      -0.563642       -15.3375
  43   2.0000      -0.536779       -14.6065
  44   2.0000      -0.527276       -14.3479
  45   2.0000      -0.525305       -14.2943
  46   2.0000      -0.514673       -14.0050
  47   2.0000      -0.511519       -13.9192
  48   2.0000      -0.498960       -13.5774
  49   2.0000      -0.497704       -13.5432
  50   2.0000      -0.488542       -13.2939
  51   2.0000      -0.479953       -13.0602
  52   2.0000      -0.478987       -13.0339
  53   2.0000      -0.474807       -12.9202
  54   2.0000      -0.459135       -12.4937
  55   2.0000      -0.448688       -12.2094
  56   2.0000      -0.441773       -12.0213
  57   2.0000      -0.440485       -11.9862
  58   2.0000      -0.437217       -11.8973
  59   2.0000      -0.430408       -11.7120
  60   2.0000      -0.421459       -11.4685
  61   2.0000      -0.417848       -11.3702
  62   2.0000      -0.405898       -11.0450
  63   2.0000      -0.403411       -10.9774
  64   2.0000      -0.383254       -10.4289
  65   2.0000      -0.361562        -9.8386
  66   2.0000      -0.359098        -9.7715
  67   2.0000      -0.346876        -9.4390
  68   2.0000      -0.338344        -9.2068
  69   2.0000      -0.331524        -9.0212
  70   2.0000      -0.323387        -8.7998
  71   2.0000      -0.315586        -8.5875
  72   2.0000      -0.306249        -8.3334
  73   2.0000      -0.298602        -8.1254
  74   2.0000      -0.286801        -7.8043
  75   2.0000      -0.280995        -7.6463
  76   2.0000      -0.272969        -7.4279
  77   0.0000      -0.120208        -3.2710
  78   0.0000      -0.073385        -1.9969
  79   0.0000      -0.018143        -0.4937
  80   0.0000      -0.001049        -0.0286
  81   0.0000       0.059874         1.6293

MULLIKEN ATOMIC CHARGES
-----------------------
   0 Pd:    0.522141
   1 O :   -0.502800
   2 C :    0.602247
   3 O :   -0.469099
   4 C :   -0.746196
   5 H :    0.235935
   6 H :    0.251997
   7 H :    0.240737
   8 N :   -0.485423
   9 C :   -0.532093
  10 H :    0.312924
  11 H :    0.206531
  12 H :    0.265117
  13 C :   -0.543861
  14 H :    0.279948
  15 H :    0.233595
  16 H :    0.287477
  17 C :   -0.001069
  18 C :   -0.244571
  19 C :   -0.212946
  20 C :   -0.217907
  21 C :   -0.246526
  22 C :   -0.111271
  23 H :    0.237655
  24 H :    0.247133
  25 H :    0.232119
  26 H :    0.238411
  27 H :    0.204897
  28 C :   -0.307501
  29 H :    0.266007
  30 H :    0.255359
  31 O :   -0.534971
  32 C :    0.542824
  33 O :   -0.467407
  34 C :   -0.750012
  35 H :    0.235390
  36 H :    0.241476
  37 H :    0.233737
Sum of atomic charges:    0.0000000

LOEWDIN ATOMIC CHARGES
----------------------
   0 Pd:   -0.318208
   1 O :   -0.143457
   2 C :    0.156024
   3 O :   -0.258235
   4 C :   -0.379691
   5 H :    0.145177
   6 H :    0.157013
   7 H :    0.141538
   8 N :   -0.053368
   9 C :   -0.238641
  10 H :    0.168951
  11 H :    0.112265
  12 H :    0.151310
  13 C :   -0.230626
  14 H :    0.157641
  15 H :    0.124799
  16 H :    0.160244
  17 C :   -0.038401
  18 C :   -0.121174
  19 C :   -0.112648
  20 C :   -0.124632
  21 C :   -0.115133
  22 C :   -0.044904
  23 H :    0.145689
  24 H :    0.150536
  25 H :    0.147681
  26 H :    0.146400
  27 H :    0.230112
  28 C :   -0.104185
  29 H :    0.153469
  30 H :    0.144917
  31 O :   -0.179569
  32 C :    0.113761
  33 O :   -0.282714
  34 C :   -0.388445
  35 H :    0.140636
  36 H :    0.140407
  37 H :    0.145462

  Mayer bond orders larger than 0.100000
B(  0-Pd,  1-O ) :   0.6393 B(  0-Pd,  3-O ) :   0.1129 B(  0-Pd,  8-N ) :   0.4316
B(  0-Pd, 22-C ) :   0.2370 B(  0-Pd, 27-H ) :   0.1035 B(  0-Pd, 31-O ) :   0.6301
B(  1-O ,  2-C ) :   1.3076 B(  2-C ,  3-O ) :   1.7494 B(  2-C ,  4-C ) :   0.9347
B(  4-C ,  5-H ) :   0.9172 B(  4-C ,  6-H ) :   0.9102 B(  4-C ,  7-H ) :   0.9118
B(  8-N ,  9-C ) :   0.9043 B(  8-N , 13-C ) :   0.9122 B(  8-N , 28-C ) :   0.8796
B(  9-C , 10-H ) :   0.8654 B(  9-C , 11-H ) :   0.9013 B(  9-C , 12-H ) :   0.9082
B( 13-C , 14-H ) :   0.8900 B( 13-C , 15-H ) :   0.9003 B( 13-C , 16-H ) :   0.8938
B( 17-C , 18-C ) :   1.4041 B( 17-C , 22-C ) :   1.3539 B( 17-C , 28-C ) :   0.9476
B( 18-C , 19-C ) :   1.4408 B( 18-C , 25-H ) :   0.9096 B( 19-C , 20-C ) :   1.4132
B( 19-C , 26-H ) :   0.9115 B( 20-C , 21-C ) :   1.4292 B( 20-C , 23-H ) :   0.9100
B( 21-C , 22-C ) :   1.4191 B( 21-C , 24-H ) :   0.9103 B( 22-C , 27-H ) :   0.6364
B( 28-C , 29-H ) :   0.8958 B( 28-C , 30-H ) :   0.9119 B( 31-O , 32-C ) :   1.2931
B( 31-O , 33-O ) :   0.1007 B( 32-C , 33-O ) :   1.9074 B( 32-C , 34-C ) :   0.9200
B( 34-C , 35-H ) :   0.9197 B( 34-C , 36-H ) :   0.9122 B( 34-C , 37-H ) :   0.9167

Dispersion correction           -0.026790159
FINAL SINGLE POINT ENERGY      -988.321839651038
Dispersion correction            ... done

DIPOLE MOMENT
-------------
                                X             Y             Z
Electronic contribution:     11.86107      11.57825      -6.94746
Nuclear contribution   :    -14.02898     -11.99319       8.38444
                        -----------------------------------------
Total Dipole Moment    :     -2.16791      -0.41494       1.43698
                        -----------------------------------------
Magnitude (a.u.)       :      2.63381
Magnitude (Debye)      :      6.69461

Rotational constants in cm-1:     0.013233     0.008975     0.006771
Rotational constants in MHz :   396.708186   269.074297   202.981174

                             ****ORCA TERMINATED NORMALLY****
TOTAL RUN TIME: 0 days 0 hours 11 minutes 0 seconds 345 msec
