                         Program Version 5.0.3 -  RELEASE  -
|  1> ! EnGrad PBEh-3c
|  2> %output
|  3> xyzfile=True
|  4> end
|  5> %scf
|  6> maxiter 250
|  7> end
|  8> %output
|  9> Print[P_Hirshfeld] = 1
| 10> end
| 11> % maxcore
| 12> 4000
| 13> *xyz 0 1
| 14> Pd   0.32030391   0.22935537  -0.16267699
| 15> O    1.70658120   1.37130564   0.69848224
| 16> C    1.47118045   2.60552125   0.42127708
| 17> O    0.41914711   3.03745915  -0.00878533
| 18> C    2.62481854   3.57055413   0.63827119
| 19> H    2.24592398   4.50324913   1.05159865
| 20> H    3.08822686   3.84151967  -0.31429221
| 21> H    3.41330215   3.18903842   1.28379638
| 22> N   -1.35923356  -0.70774169  -1.02275772
| 23> C   -1.19477834  -1.88232983  -1.92646288
| 24> H   -0.59196541  -1.60186457  -2.78969626
| 25> H   -2.20192505  -2.23208745  -2.24421188
| 26> H   -0.66497637  -2.68033336  -1.38204672
| 27> C   -2.04694563   0.35134668  -1.79498909
| 28> H   -2.19734894   1.23651865  -1.17721940
| 29> H   -3.02953861  -0.00409746  -2.14964986
| 30> H   -1.44056593   0.62272247  -2.65963827
| 31> C   -1.63464015  -0.98774727   1.42099010
| 32> C   -1.45063129  -2.09279709   2.24518721
| 33> C   -1.12501589  -1.94933163   3.57941105
| 34> C   -1.05906191  -0.69195620   4.11010441
| 35> C   -1.07825865   0.40743834   3.27460924
| 36> C   -1.28175866   0.30062259   1.91084394
| 37> H   -0.95308962  -0.51424084   5.15637825
| 38> H   -0.97925927   1.39412054   3.68158355
| 39> H   -1.64513325  -3.09877767   1.89183390
| 40> H   -1.05671895  -2.80763381   4.24181355
| 41> H   -1.25626499   2.41953459   1.16358851
| 42> C   -2.24750204  -1.15127892   0.08139306
| 43> H   -3.16051264  -0.56553657   0.12350453
| 44> H   -2.57520164  -2.18562949  -0.04937706
| 45> O    1.73587788   0.07769793  -1.57333838
| 46> C    2.21466850  -0.72338683  -2.44994395
| 47> O    1.60709805  -1.68184972  -2.87013954
| 48> C    3.58044563  -0.46486021  -2.98444953
| 49> H    4.03989037  -1.36642140  -3.37670588
| 50> H    4.22662593  -0.05445061  -2.24087707
| 51> H    3.55855520   0.24239068  -3.79919427
| 52> *
| 53>
| 54>                          ****END OF INPUT****

CARTESIAN COORDINATES (ANGSTROEM)
---------------------------------
  Pd     0.320304    0.229355   -0.162677
  O      1.706581    1.371306    0.698482
  C      1.471180    2.605521    0.421277
  O      0.419147    3.037459   -0.008785
  C      2.624819    3.570554    0.638271
  H      2.245924    4.503249    1.051599
  H      3.088227    3.841520   -0.314292
  H      3.413302    3.189038    1.283796
  N     -1.359234   -0.707742   -1.022758
  C     -1.194778   -1.882330   -1.926463
  H     -0.591965   -1.601865   -2.789696
  H     -2.201925   -2.232087   -2.244212
  H     -0.664976   -2.680333   -1.382047
  C     -2.046946    0.351347   -1.794989
  H     -2.197349    1.236519   -1.177219
  H     -3.029539   -0.004097   -2.149650
  H     -1.440566    0.622722   -2.659638
  C     -1.634640   -0.987747    1.420990
  C     -1.450631   -2.092797    2.245187
  C     -1.125016   -1.949332    3.579411
  C     -1.059062   -0.691956    4.110104
  C     -1.078259    0.407438    3.274609
  C     -1.281759    0.300623    1.910844
  H     -0.953090   -0.514241    5.156378
  H     -0.979259    1.394121    3.681584
  H     -1.645133   -3.098778    1.891834
  H     -1.056719   -2.807634    4.241814
  H     -1.256265    2.419535    1.163589
  C     -2.247502   -1.151279    0.081393
  H     -3.160513   -0.565537    0.123505
  H     -2.575202   -2.185629   -0.049377
  O      1.735878    0.077698   -1.573338
  C      2.214668   -0.723387   -2.449944
  O      1.607098   -1.681850   -2.870140
  C      3.580446   -0.464860   -2.984450
  H      4.039890   -1.366421   -3.376706
  H      4.226626   -0.054451   -2.240877
  H      3.558555    0.242391   -3.799194

 Total Charge           Charge          ....    0
 Multiplicity           Mult            ....    1
 Number of Electrons    NEL             ....  154
 Basis Dimension        Dim             ....  339

ORBITAL ENERGIES
----------------

  NO   OCC          E(Eh)            E(eV)
   0   2.0000     -19.487337      -530.2774
   1   2.0000     -19.460144      -529.5374
   2   2.0000     -19.457363      -529.4618
   3   2.0000     -19.410889      -528.1972
   4   2.0000     -14.727055      -400.7435
   5   2.0000     -10.548599      -287.0420
   6   2.0000     -10.517945      -286.2078
   7   2.0000     -10.515480      -286.1407
   8   2.0000     -10.505294      -285.8636
   9   2.0000     -10.498314      -285.6737
  10   2.0000     -10.488426      -285.4046
  11   2.0000     -10.476507      -285.0802
  12   2.0000     -10.473801      -285.0066
  13   2.0000     -10.472945      -284.9833
  14   2.0000     -10.472069      -284.9595
  15   2.0000     -10.467305      -284.8299
  16   2.0000     -10.421848      -283.5929
  17   2.0000     -10.401617      -283.0424
  18   2.0000      -3.669576       -99.8542
  19   2.0000      -2.320873       -63.1542
  20   2.0000      -2.309090       -62.8335
  21   2.0000      -2.280115       -62.0451
  22   2.0000      -1.172991       -31.9187
  23   2.0000      -1.140583       -31.0368
  24   2.0000      -1.081413       -29.4267
  25   2.0000      -1.073730       -29.2177
  26   2.0000      -1.038777       -28.2666
  27   2.0000      -0.990936       -26.9648
  28   2.0000      -0.899139       -24.4668
  29   2.0000      -0.861469       -23.4418
  30   2.0000      -0.818735       -22.2789
  31   2.0000      -0.806361       -21.9422
  32   2.0000      -0.803870       -21.8744
  33   2.0000      -0.794510       -21.6197
  34   2.0000      -0.724356       -19.7107
  35   2.0000      -0.704766       -19.1777
  36   2.0000      -0.681551       -18.5459
  37   2.0000      -0.612029       -16.6541
  38   2.0000      -0.599243       -16.3062
  39   2.0000      -0.589369       -16.0376
  40   2.0000      -0.576332       -15.6828
  41   2.0000      -0.573776       -15.6132
  42   2.0000      -0.565243       -15.3810
  43   2.0000      -0.535988       -14.5850
  44   2.0000      -0.527630       -14.3576
  45   2.0000      -0.526772       -14.3342
  46   2.0000      -0.517034       -14.0692
  47   2.0000      -0.514105       -13.9895
  48   2.0000      -0.500450       -13.6179
  49   2.0000      -0.499213       -13.5843
  50   2.0000      -0.489809       -13.3284
  51   2.0000      -0.484681       -13.1888
  52   2.0000      -0.478622       -13.0240
  53   2.0000      -0.474632       -12.9154
  54   2.0000      -0.458438       -12.4747
  55   2.0000      -0.449654       -12.2357
  56   2.0000      -0.441901       -12.0247
  57   2.0000      -0.440362       -11.9829
  58   2.0000      -0.435537       -11.8516
  59   2.0000      -0.429301       -11.6819
  60   2.0000      -0.422853       -11.5064
  61   2.0000      -0.419432       -11.4133
  62   2.0000      -0.409366       -11.1394
  63   2.0000      -0.407033       -11.0759
  64   2.0000      -0.385837       -10.4992
  65   2.0000      -0.364495        -9.9184
  66   2.0000      -0.360612        -9.8127
  67   2.0000      -0.345872        -9.4117
  68   2.0000      -0.342079        -9.3085
  69   2.0000      -0.332076        -9.0362
  70   2.0000      -0.323864        -8.8128
  71   2.0000      -0.316396        -8.6096
  72   2.0000      -0.306673        -8.3450
  73   2.0000      -0.300233        -8.1698
  74   2.0000      -0.287641        -7.8271
  75   2.0000      -0.282144        -7.6775
  76   2.0000      -0.266311        -7.2467
  77   0.0000      -0.108729        -2.9587
  78   0.0000      -0.073198        -1.9918
  79   0.0000      -0.015301        -0.4164
  80   0.0000       0.001205         0.0328
  81   0.0000       0.058659         1.5962

MULLIKEN ATOMIC CHARGES
-----------------------
   0 Pd:    0.527842
   1 O :   -0.501321
   2 C :    0.596468
   3 O :   -0.458653
   4 C :   -0.750484
   5 H :    0.235330
   6 H :    0.252083
   7 H :    0.242851
   8 N :   -0.490905
   9 C :   -0.522567
  10 H :    0.311495
  11 H :    0.204257
  12 H :    0.263305
  13 C :   -0.539652
  14 H :    0.278952
  15 H :    0.233712
  16 H :    0.286368
  17 C :    0.009895
  18 C :   -0.245934
  19 C :   -0.210441
  20 C :   -0.213139
  21 C :   -0.245706
  22 C :   -0.138044
  23 H :    0.238491
  24 H :    0.246507
  25 H :    0.229155
  26 H :    0.235492
  27 H :    0.219887
  28 C :   -0.315379
  29 H :    0.267601
  30 H :    0.256445
  31 O :   -0.534230
  32 C :    0.537304
  33 O :   -0.476110
  34 C :   -0.750756
  35 H :    0.241859
  36 H :    0.241300
  37 H :    0.236723
Sum of atomic charges:   -0.0000000

LOEWDIN ATOMIC CHARGES
----------------------
   0 Pd:   -0.316170
   1 O :   -0.148120
   2 C :    0.144826
   3 O :   -0.246338
   4 C :   -0.381132
   5 H :    0.143418
   6 H :    0.156484
   7 H :    0.142491
   8 N :   -0.051311
   9 C :   -0.234273
  10 H :    0.170590
  11 H :    0.113032
  12 H :    0.151482
  13 C :   -0.229970
  14 H :    0.156171
  15 H :    0.126246
  16 H :    0.159912
  17 C :   -0.039846
  18 C :   -0.121798
  19 C :   -0.110142
  20 C :   -0.126887
  21 C :   -0.113690
  22 C :   -0.058685
  23 H :    0.144744
  24 H :    0.149485
  25 H :    0.146314
  26 H :    0.145136
  27 H :    0.245726
  28 C :   -0.105264
  29 H :    0.155012
  30 H :    0.146104
  31 O :   -0.172739
  32 C :    0.101496
  33 O :   -0.291136
  34 C :   -0.383998
  35 H :    0.144404
  36 H :    0.141157
  37 H :    0.147269

  Mayer bond orders larger than 0.100000
B(  0-Pd,  1-O ) :   0.6345 B(  0-Pd,  3-O ) :   0.1028 B(  0-Pd,  8-N ) :   0.4357
B(  0-Pd, 22-C ) :   0.2435 B(  0-Pd, 27-H ) :   0.1011 B(  0-Pd, 31-O ) :   0.6248
B(  1-O ,  2-C ) :   1.3148 B(  2-C ,  3-O ) :   1.7610 B(  2-C ,  4-C ) :   0.9337
B(  4-C ,  5-H ) :   0.9167 B(  4-C ,  6-H ) :   0.9097 B(  4-C ,  7-H ) :   0.9125
B(  8-N ,  9-C ) :   0.8992 B(  8-N , 13-C ) :   0.9102 B(  8-N , 28-C ) :   0.8798
B(  9-C , 10-H ) :   0.8649 B(  9-C , 11-H ) :   0.9012 B(  9-C , 12-H ) :   0.9080
B( 13-C , 14-H ) :   0.8902 B( 13-C , 15-H ) :   0.9011 B( 13-C , 16-H ) :   0.8939
B( 17-C , 18-C ) :   1.4215 B( 17-C , 22-C ) :   1.3393 B( 17-C , 28-C ) :   0.9471
B( 18-C , 19-C ) :   1.4265 B( 18-C , 25-H ) :   0.9112 B( 19-C , 20-C ) :   1.4305
B( 19-C , 26-H ) :   0.9127 B( 20-C , 21-C ) :   1.4214 B( 20-C , 23-H ) :   0.9090
B( 21-C , 22-C ) :   1.4322 B( 21-C , 24-H ) :   0.9103 B( 22-C , 27-H ) :   0.6286
B( 28-C , 29-H ) :   0.8958 B( 28-C , 30-H ) :   0.9110 B( 31-O , 32-C ) :   1.3047
B( 32-C , 33-O ) :   1.8936 B( 32-C , 34-C ) :   0.9340 B( 34-C , 35-H ) :   0.9204
B( 34-C , 36-H ) :   0.9116 B( 34-C , 37-H ) :   0.9149

Dispersion correction           -0.026926529
FINAL SINGLE POINT ENERGY      -988.330000514024
Dispersion correction            ... done

DIPOLE MOMENT
-------------
                                X             Y             Z
Electronic contribution:     11.65914      10.81923      -6.96753
Nuclear contribution   :    -13.86583     -11.21383       8.33597
                        -----------------------------------------
Total Dipole Moment    :     -2.20670      -0.39460       1.36844
                        -----------------------------------------
Magnitude (a.u.)       :      2.62637
Magnitude (Debye)      :      6.67571

Rotational constants in cm-1:     0.013289     0.009015     0.006788
Rotational constants in MHz :   398.405114   270.264104   203.503663

                             ****ORCA TERMINATED NORMALLY****
TOTAL RUN TIME: 0 days 0 hours 9 minutes 3 seconds 646 msec
