                         Program Version 5.0.3 -  RELEASE  -
|  1> ! EnGrad PBEh-3c
|  2> %output
|  3> xyzfile=True
|  4> end
|  5> %scf
|  6> maxiter 250
|  7> end
|  8> %output
|  9> Print[P_Hirshfeld] = 1
| 10> end
| 11> % maxcore
| 12> 4000
| 13> *xyz 0 1
| 14> Pd   0.31138621   0.21927361  -0.16173486
| 15> O    1.69449858   1.38236664   0.70249554
| 16> C    1.45778746   2.61524797   0.43117203
| 17> O    0.39983327   3.05282561   0.01442906
| 18> C    2.61751623   3.57087822   0.64220135
| 19> H    2.24873406   4.50617749   1.04997261
| 20> H    3.07084667   3.83380239  -0.31368346
| 21> H    3.40304475   3.18346469   1.28325814
| 22> N   -1.35935696  -0.70920562  -1.02926731
| 23> C   -1.19395357  -1.87847801  -1.93015517
| 24> H   -0.59005328  -1.59615741  -2.79025262
| 25> H   -2.20003021  -2.23137844  -2.24885476
| 26> H   -0.66682762  -2.66608755  -1.37864421
| 27> C   -2.04558717   0.35292171  -1.79684483
| 28> H   -2.19523834   1.23459688  -1.17618446
| 29> H   -3.02639479  -0.00343423  -2.14971991
| 30> H   -1.43870688   0.63039490  -2.65691242
| 31> C   -1.62875451  -0.97498808   1.41275210
| 32> C   -1.44119145  -2.08399704   2.23817033
| 33> C   -1.10943675  -1.94817426   3.57016083
| 34> C   -1.04834907  -0.68263389   4.09929713
| 35> C   -1.07170541   0.41625340   3.26106373
| 36> C   -1.28806345   0.31880509   1.89718899
| 37> H   -0.95303422  -0.51200131   5.15357837
| 38> H   -0.95755796   1.39121088   3.67777776
| 39> H   -1.65199337  -3.08596822   1.89371945
| 40> H   -1.06730162  -2.79434221   4.24342264
| 41> H   -1.19505633   2.29606650   1.14730592
| 42> C   -2.25028933  -1.15213475   0.08224290
| 43> H   -3.16317068  -0.56377780   0.12826931
| 44> H   -2.57788373  -2.18815589  -0.05108530
| 45> O    1.74566817   0.08466794  -1.55231274
| 46> C    2.20734518  -0.72478919  -2.43685851
| 47> O    1.60541101  -1.69264422  -2.87879163
| 48> C    3.58474007  -0.46480079  -2.98257134
| 49> H    4.03682840  -1.36784724  -3.37495521
| 50> H    4.21564187  -0.05549672  -2.22647675
| 51> H    3.54421260   0.24150653  -3.79418056
| 52> *
| 53>
| 54>                          ****END OF INPUT****

CARTESIAN COORDINATES (ANGSTROEM)
---------------------------------
  Pd     0.311386    0.219274   -0.161735
  O      1.694499    1.382367    0.702496
  C      1.457787    2.615248    0.431172
  O      0.399833    3.052826    0.014429
  C      2.617516    3.570878    0.642201
  H      2.248734    4.506177    1.049973
  H      3.070847    3.833802   -0.313683
  H      3.403045    3.183465    1.283258
  N     -1.359357   -0.709206   -1.029267
  C     -1.193954   -1.878478   -1.930155
  H     -0.590053   -1.596157   -2.790253
  H     -2.200030   -2.231378   -2.248855
  H     -0.666828   -2.666088   -1.378644
  C     -2.045587    0.352922   -1.796845
  H     -2.195238    1.234597   -1.176184
  H     -3.026395   -0.003434   -2.149720
  H     -1.438707    0.630395   -2.656912
  C     -1.628755   -0.974988    1.412752
  C     -1.441191   -2.083997    2.238170
  C     -1.109437   -1.948174    3.570161
  C     -1.048349   -0.682634    4.099297
  C     -1.071705    0.416253    3.261064
  C     -1.288063    0.318805    1.897189
  H     -0.953034   -0.512001    5.153578
  H     -0.957558    1.391211    3.677778
  H     -1.651993   -3.085968    1.893719
  H     -1.067302   -2.794342    4.243423
  H     -1.195056    2.296066    1.147306
  C     -2.250289   -1.152135    0.082243
  H     -3.163171   -0.563778    0.128269
  H     -2.577884   -2.188156   -0.051085
  O      1.745668    0.084668   -1.552313
  C      2.207345   -0.724789   -2.436859
  O      1.605411   -1.692644   -2.878792
  C      3.584740   -0.464801   -2.982571
  H      4.036828   -1.367847   -3.374955
  H      4.215642   -0.055497   -2.226477
  H      3.544213    0.241507   -3.794181

 Total Charge           Charge          ....    0
 Multiplicity           Mult            ....    1
 Number of Electrons    NEL             ....  154
 Basis Dimension        Dim             ....  339

ORBITAL ENERGIES
----------------

  NO   OCC          E(Eh)            E(eV)
   0   2.0000     -19.486660      -530.2590
   1   2.0000     -19.464115      -529.6455
   2   2.0000     -19.461070      -529.5626
   3   2.0000     -19.414496      -528.2953
   4   2.0000     -14.728215      -400.7751
   5   2.0000     -10.548970      -287.0521
   6   2.0000     -10.522730      -286.3380
   7   2.0000     -10.514947      -286.1262
   8   2.0000     -10.506364      -285.8927
   9   2.0000     -10.498570      -285.6806
  10   2.0000     -10.488898      -285.4174
  11   2.0000     -10.476280      -285.0741
  12   2.0000     -10.473441      -284.9968
  13   2.0000     -10.472767      -284.9785
  14   2.0000     -10.470934      -284.9286
  15   2.0000     -10.467891      -284.8458
  16   2.0000     -10.421065      -283.5716
  17   2.0000     -10.402464      -283.0654
  18   2.0000      -3.671097       -99.8956
  19   2.0000      -2.322049       -63.1862
  20   2.0000      -2.311000       -62.8855
  21   2.0000      -2.281579       -62.0849
  22   2.0000      -1.172746       -31.9121
  23   2.0000      -1.137557       -30.9545
  24   2.0000      -1.082427       -29.4543
  25   2.0000      -1.073744       -29.2181
  26   2.0000      -1.040454       -28.3122
  27   2.0000      -0.989860       -26.9354
  28   2.0000      -0.899041       -24.4641
  29   2.0000      -0.861833       -23.4517
  30   2.0000      -0.820286       -22.3211
  31   2.0000      -0.806300       -21.9405
  32   2.0000      -0.805251       -21.9120
  33   2.0000      -0.792774       -21.5725
  34   2.0000      -0.724572       -19.7166
  35   2.0000      -0.705105       -19.1869
  36   2.0000      -0.681357       -18.5407
  37   2.0000      -0.612654       -16.6712
  38   2.0000      -0.599624       -16.3166
  39   2.0000      -0.591041       -16.0831
  40   2.0000      -0.577409       -15.7121
  41   2.0000      -0.574360       -15.6291
  42   2.0000      -0.565767       -15.3953
  43   2.0000      -0.536081       -14.5875
  44   2.0000      -0.528007       -14.3678
  45   2.0000      -0.527894       -14.3647
  46   2.0000      -0.516624       -14.0580
  47   2.0000      -0.513076       -13.9615
  48   2.0000      -0.500760       -13.6264
  49   2.0000      -0.498924       -13.5764
  50   2.0000      -0.490515       -13.3476
  51   2.0000      -0.484569       -13.1858
  52   2.0000      -0.479299       -13.0424
  53   2.0000      -0.476377       -12.9629
  54   2.0000      -0.458480       -12.4759
  55   2.0000      -0.450780       -12.2663
  56   2.0000      -0.443098       -12.0573
  57   2.0000      -0.441438       -12.0121
  58   2.0000      -0.436434       -11.8760
  59   2.0000      -0.430150       -11.7050
  60   2.0000      -0.424044       -11.5388
  61   2.0000      -0.419020       -11.4021
  62   2.0000      -0.411462       -11.1964
  63   2.0000      -0.407805       -11.0969
  64   2.0000      -0.386446       -10.5157
  65   2.0000      -0.368759       -10.0344
  66   2.0000      -0.362667        -9.8687
  67   2.0000      -0.348002        -9.4696
  68   2.0000      -0.345435        -9.3998
  69   2.0000      -0.331775        -9.0281
  70   2.0000      -0.324018        -8.8170
  71   2.0000      -0.316184        -8.6038
  72   2.0000      -0.307885        -8.3780
  73   2.0000      -0.302928        -8.2431
  74   2.0000      -0.289957        -7.8901
  75   2.0000      -0.284497        -7.7415
  76   2.0000      -0.268676        -7.3110
  77   0.0000      -0.093954        -2.5566
  78   0.0000      -0.071559        -1.9472
  79   0.0000      -0.016172        -0.4401
  80   0.0000       0.001131         0.0308
  81   0.0000       0.057709         1.5704

MULLIKEN ATOMIC CHARGES
-----------------------
   0 Pd:    0.531720
   1 O :   -0.499491
   2 C :    0.593065
   3 O :   -0.462961
   4 C :   -0.750073
   5 H :    0.236424
   6 H :    0.252570
   7 H :    0.244201
   8 N :   -0.492344
   9 C :   -0.521931
  10 H :    0.311197
  11 H :    0.204168
  12 H :    0.264245
  13 C :   -0.539320
  14 H :    0.278957
  15 H :    0.234814
  16 H :    0.286412
  17 C :    0.005915
  18 C :   -0.247062
  19 C :   -0.207247
  20 C :   -0.219487
  21 C :   -0.229441
  22 C :   -0.167166
  23 H :    0.237946
  24 H :    0.245639
  25 H :    0.228553
  26 H :    0.235396
  27 H :    0.237151
  28 C :   -0.318037
  29 H :    0.267757
  30 H :    0.257482
  31 O :   -0.530068
  32 C :    0.540984
  33 O :   -0.484053
  34 C :   -0.744508
  35 H :    0.242388
  36 H :    0.239816
  37 H :    0.236386
Sum of atomic charges:    0.0000000

LOEWDIN ATOMIC CHARGES
----------------------
   0 Pd:   -0.314501
   1 O :   -0.150421
   2 C :    0.143637
   3 O :   -0.252908
   4 C :   -0.380888
   5 H :    0.143532
   6 H :    0.156765
   7 H :    0.143333
   8 N :   -0.050201
   9 C :   -0.234842
  10 H :    0.170550
  11 H :    0.113151
  12 H :    0.151516
  13 C :   -0.229698
  14 H :    0.156065
  15 H :    0.126927
  16 H :    0.159742
  17 C :   -0.040166
  18 C :   -0.121241
  19 C :   -0.110721
  20 C :   -0.125857
  21 C :   -0.113375
  22 C :   -0.074171
  23 H :    0.144202
  24 H :    0.148432
  25 H :    0.145984
  26 H :    0.145093
  27 H :    0.260499
  28 C :   -0.103683
  29 H :    0.155418
  30 H :    0.146621
  31 O :   -0.170380
  32 C :    0.115397
  33 O :   -0.301471
  34 C :   -0.384370
  35 H :    0.144431
  36 H :    0.140762
  37 H :    0.146840

  Mayer bond orders larger than 0.100000
B(  0-Pd,  1-O ) :   0.6267 B(  0-Pd,  8-N ) :   0.4410 B(  0-Pd, 22-C ) :   0.2341
B(  0-Pd, 31-O ) :   0.6277 B(  1-O ,  2-C ) :   1.3254 B(  2-C ,  3-O ) :   1.7543
B(  2-C ,  4-C ) :   0.9343 B(  3-O , 27-H ) :   0.1075 B(  4-C ,  5-H ) :   0.9162
B(  4-C ,  6-H ) :   0.9093 B(  4-C ,  7-H ) :   0.9126 B(  8-N ,  9-C ) :   0.8998
B(  8-N , 13-C ) :   0.9097 B(  8-N , 28-C ) :   0.8776 B(  9-C , 10-H ) :   0.8644
B(  9-C , 11-H ) :   0.9014 B(  9-C , 12-H ) :   0.9075 B( 13-C , 14-H ) :   0.8904
B( 13-C , 15-H ) :   0.9010 B( 13-C , 16-H ) :   0.8938 B( 17-C , 18-C ) :   1.4173
B( 17-C , 22-C ) :   1.3461 B( 17-C , 28-C ) :   0.9453 B( 18-C , 19-C ) :   1.4327
B( 18-C , 25-H ) :   0.9115 B( 19-C , 20-C ) :   1.4256 B( 19-C , 26-H ) :   0.9126
B( 20-C , 21-C ) :   1.4299 B( 20-C , 23-H ) :   0.9093 B( 21-C , 22-C ) :   1.4218
B( 21-C , 24-H ) :   0.9108 B( 22-C , 27-H ) :   0.6362 B( 28-C , 29-H ) :   0.8962
B( 28-C , 30-H ) :   0.9110 B( 31-O , 32-C ) :   1.3038 B( 31-O , 33-O ) :   0.1001
B( 32-C , 33-O ) :   1.8804 B( 32-C , 34-C ) :   0.9324 B( 34-C , 35-H ) :   0.9203
B( 34-C , 36-H ) :   0.9123 B( 34-C , 37-H ) :   0.9154

Dispersion correction           -0.027043965
FINAL SINGLE POINT ENERGY      -988.349023004738
Dispersion correction            ... done

DIPOLE MOMENT
-------------
                                X             Y             Z
Electronic contribution:     11.20563      10.18812      -6.96952
Nuclear contribution   :    -13.40671     -10.61711       8.30393
                        -----------------------------------------
Total Dipole Moment    :     -2.20109      -0.42899       1.33441
                        -----------------------------------------
Magnitude (a.u.)       :      2.60950
Magnitude (Debye)      :      6.63281

Rotational constants in cm-1:     0.013258     0.009060     0.006810
Rotational constants in MHz :   397.476745   271.612315   204.170181

                             ****ORCA TERMINATED NORMALLY****
TOTAL RUN TIME: 0 days 0 hours 8 minutes 18 seconds 371 msec
