                         Program Version 5.0.3 -  RELEASE  -
|  1> ! EnGrad PBEh-3c
|  2> %output
|  3> xyzfile=True
|  4> end
|  5> %scf
|  6> maxiter 250
|  7> end
|  8> %output
|  9> Print[P_Hirshfeld] = 1
| 10> end
| 11> % maxcore
| 12> 4000
| 13> *xyz 0 1
| 14> Pd   0.29732406   0.22511422  -0.15185724
| 15> O    1.69391007   1.38868356   0.69992514
| 16> C    1.47768783   2.61790276   0.43840520
| 17> O    0.38130267   3.05747534   0.02083694
| 18> C    2.62558193   3.57542427   0.64325818
| 19> H    2.25109024   4.50597363   1.05261204
| 20> H    3.07359631   3.83034211  -0.31568227
| 21> H    3.40760071   3.18233554   1.28343988
| 22> N   -1.36987352  -0.72010005  -1.03330452
| 23> C   -1.18825647  -1.88267889  -1.91757918
| 24> H   -0.58494611  -1.61312016  -2.77282026
| 25> H   -2.18027146  -2.23869241  -2.23899828
| 26> H   -0.67327849  -2.66825976  -1.37644662
| 27> C   -2.04312620   0.34350089  -1.80249765
| 28> H   -2.19255922   1.22808413  -1.18960420
| 29> H   -3.01944552  -0.00775910  -2.15358465
| 30> H   -1.43537668   0.61453672  -2.65884899
| 31> C   -1.61178936  -0.97374297   1.41293308
| 32> C   -1.46795540  -2.09344819   2.24996981
| 33> C   -1.14302841  -1.95586906   3.58372749
| 34> C   -1.04131959  -0.67345429   4.09768917
| 35> C   -1.05623559   0.42821172   3.24687870
| 36> C   -1.27412295   0.31662402   1.88046663
| 37> H   -0.94461909  -0.51720352   5.16721330
| 38> H   -0.94083646   1.39486043   3.68000592
| 39> H   -1.67648013  -3.08844729   1.88819378
| 40> H   -1.08124892  -2.80303299   4.24402533
| 41> H   -1.17460343   2.28670027   1.13681915
| 42> C   -2.25724259  -1.14999036   0.09101133
| 43> H   -3.16528313  -0.54770792   0.11711106
| 44> H   -2.58393534  -2.18327766  -0.05795139
| 45> O    1.75702421   0.11722159  -1.55385847
| 46> C    2.18343049  -0.74071582  -2.43027423
| 47> O    1.60874065  -1.71875986  -2.87079054
| 48> C    3.58883411  -0.44807997  -2.98987796
| 49> H    4.02195213  -1.36245947  -3.38522705
| 50> H    4.23239617  -0.03417456  -2.23044424
| 51> H    3.52788504   0.26294618  -3.80634202
| 52> *
| 53>
| 54>                          ****END OF INPUT****

CARTESIAN COORDINATES (ANGSTROEM)
---------------------------------
  Pd     0.297324    0.225114   -0.151857
  O      1.693910    1.388684    0.699925
  C      1.477688    2.617903    0.438405
  O      0.381303    3.057475    0.020837
  C      2.625582    3.575424    0.643258
  H      2.251090    4.505974    1.052612
  H      3.073596    3.830342   -0.315682
  H      3.407601    3.182336    1.283440
  N     -1.369874   -0.720100   -1.033305
  C     -1.188256   -1.882679   -1.917579
  H     -0.584946   -1.613120   -2.772820
  H     -2.180271   -2.238692   -2.238998
  H     -0.673278   -2.668260   -1.376447
  C     -2.043126    0.343501   -1.802498
  H     -2.192559    1.228084   -1.189604
  H     -3.019446   -0.007759   -2.153585
  H     -1.435377    0.614537   -2.658849
  C     -1.611789   -0.973743    1.412933
  C     -1.467955   -2.093448    2.249970
  C     -1.143028   -1.955869    3.583727
  C     -1.041320   -0.673454    4.097689
  C     -1.056236    0.428212    3.246879
  C     -1.274123    0.316624    1.880467
  H     -0.944619   -0.517204    5.167213
  H     -0.940836    1.394860    3.680006
  H     -1.676480   -3.088447    1.888194
  H     -1.081249   -2.803033    4.244025
  H     -1.174603    2.286700    1.136819
  C     -2.257243   -1.149990    0.091011
  H     -3.165283   -0.547708    0.117111
  H     -2.583935   -2.183278   -0.057951
  O      1.757024    0.117222   -1.553858
  C      2.183430   -0.740716   -2.430274
  O      1.608741   -1.718760   -2.870791
  C      3.588834   -0.448080   -2.989878
  H      4.021952   -1.362459   -3.385227
  H      4.232396   -0.034175   -2.230444
  H      3.527885    0.262946   -3.806342

 Total Charge           Charge          ....    0
 Multiplicity           Mult            ....    1
 Number of Electrons    NEL             ....  154
 Basis Dimension        Dim             ....  339

ORBITAL ENERGIES
----------------

  NO   OCC          E(Eh)            E(eV)
   0   2.0000     -19.491270      -530.3844
   1   2.0000     -19.468781      -529.7725
   2   2.0000     -19.460506      -529.5473
   3   2.0000     -19.423945      -528.5524
   4   2.0000     -14.727048      -400.7434
   5   2.0000     -10.553164      -287.1662
   6   2.0000     -10.528390      -286.4921
   7   2.0000     -10.511478      -286.0319
   8   2.0000     -10.506329      -285.8918
   9   2.0000     -10.497369      -285.6479
  10   2.0000     -10.487142      -285.3697
  11   2.0000     -10.475989      -285.0662
  12   2.0000     -10.472771      -284.9786
  13   2.0000     -10.471569      -284.9459
  14   2.0000     -10.470206      -284.9088
  15   2.0000     -10.469964      -284.9022
  16   2.0000     -10.424796      -283.6731
  17   2.0000     -10.404882      -283.1312
  18   2.0000      -3.670252       -99.8726
  19   2.0000      -2.321211       -63.1634
  20   2.0000      -2.309925       -62.8563
  21   2.0000      -2.280769       -62.0629
  22   2.0000      -1.168062       -31.7846
  23   2.0000      -1.136493       -30.9256
  24   2.0000      -1.083542       -29.4847
  25   2.0000      -1.066389       -29.0179
  26   2.0000      -1.047345       -28.4997
  27   2.0000      -0.986239       -26.8369
  28   2.0000      -0.896140       -24.3852
  29   2.0000      -0.860662       -23.4198
  30   2.0000      -0.822714       -22.3872
  31   2.0000      -0.811214       -22.0742
  32   2.0000      -0.805222       -21.9112
  33   2.0000      -0.783403       -21.3175
  34   2.0000      -0.723590       -19.6899
  35   2.0000      -0.705018       -19.1845
  36   2.0000      -0.679283       -18.4842
  37   2.0000      -0.613018       -16.6811
  38   2.0000      -0.601492       -16.3674
  39   2.0000      -0.588321       -16.0090
  40   2.0000      -0.577553       -15.7160
  41   2.0000      -0.574231       -15.6256
  42   2.0000      -0.564725       -15.3670
  43   2.0000      -0.536236       -14.5917
  44   2.0000      -0.528013       -14.3680
  45   2.0000      -0.527152       -14.3445
  46   2.0000      -0.515869       -14.0375
  47   2.0000      -0.511235       -13.9114
  48   2.0000      -0.499868       -13.6021
  49   2.0000      -0.497413       -13.5353
  50   2.0000      -0.490552       -13.3486
  51   2.0000      -0.481202       -13.0942
  52   2.0000      -0.479805       -13.0562
  53   2.0000      -0.477106       -12.9827
  54   2.0000      -0.458987       -12.4897
  55   2.0000      -0.450892       -12.2694
  56   2.0000      -0.444903       -12.1064
  57   2.0000      -0.442786       -12.0488
  58   2.0000      -0.437293       -11.8993
  59   2.0000      -0.432517       -11.7694
  60   2.0000      -0.423607       -11.5269
  61   2.0000      -0.417910       -11.3719
  62   2.0000      -0.410054       -11.1581
  63   2.0000      -0.405657       -11.0385
  64   2.0000      -0.382746       -10.4151
  65   2.0000      -0.371348       -10.1049
  66   2.0000      -0.362880        -9.8745
  67   2.0000      -0.349839        -9.5196
  68   2.0000      -0.345561        -9.4032
  69   2.0000      -0.331457        -9.0194
  70   2.0000      -0.323752        -8.8097
  71   2.0000      -0.315015        -8.5720
  72   2.0000      -0.308072        -8.3831
  73   2.0000      -0.303132        -8.2486
  74   2.0000      -0.291772        -7.9395
  75   2.0000      -0.284090        -7.7305
  76   2.0000      -0.274687        -7.4746
  77   0.0000      -0.092640        -2.5209
  78   0.0000      -0.069864        -1.9011
  79   0.0000      -0.015801        -0.4300
  80   0.0000       0.000746         0.0203
  81   0.0000       0.058043         1.5794

MULLIKEN ATOMIC CHARGES
-----------------------
   0 Pd:    0.516456
   1 O :   -0.487531
   2 C :    0.601096
   3 O :   -0.491454
   4 C :   -0.747125
   5 H :    0.241065
   6 H :    0.256224
   7 H :    0.246108
   8 N :   -0.486897
   9 C :   -0.528125
  10 H :    0.310652
  11 H :    0.206035
  12 H :    0.266526
  13 C :   -0.542319
  14 H :    0.280901
  15 H :    0.235211
  16 H :    0.286743
  17 C :    0.012060
  18 C :   -0.252676
  19 C :   -0.206090
  20 C :   -0.226426
  21 C :   -0.226481
  22 C :   -0.176707
  23 H :    0.235816
  24 H :    0.243747
  25 H :    0.228061
  26 H :    0.237369
  27 H :    0.248316
  28 C :   -0.316692
  29 H :    0.267052
  30 H :    0.256380
  31 O :   -0.526704
  32 C :    0.543561
  33 O :   -0.470885
  34 C :   -0.739655
  35 H :    0.237070
  36 H :    0.236629
  37 H :    0.232690
Sum of atomic charges:   -0.0000000

LOEWDIN ATOMIC CHARGES
----------------------
   0 Pd:   -0.324323
   1 O :   -0.138576
   2 C :    0.159994
   3 O :   -0.286397
   4 C :   -0.377729
   5 H :    0.146579
   6 H :    0.159394
   7 H :    0.145272
   8 N :   -0.049256
   9 C :   -0.238447
  10 H :    0.169079
  11 H :    0.113144
  12 H :    0.150784
  13 C :   -0.230448
  14 H :    0.156868
  15 H :    0.126364
  16 H :    0.159578
  17 C :   -0.038863
  18 C :   -0.122403
  19 C :   -0.112304
  20 C :   -0.125241
  21 C :   -0.112782
  22 C :   -0.079690
  23 H :    0.143697
  24 H :    0.147568
  25 H :    0.145235
  26 H :    0.144809
  27 H :    0.272954
  28 C :   -0.100108
  29 H :    0.154877
  30 H :    0.145648
  31 O :   -0.179702
  32 C :    0.126251
  33 O :   -0.288145
  34 C :   -0.388523
  35 H :    0.141203
  36 H :    0.139314
  37 H :    0.144323

  Mayer bond orders larger than 0.100000
B(  0-Pd,  1-O ) :   0.6065 B(  0-Pd,  3-O ) :   0.1021 B(  0-Pd,  8-N ) :   0.4461
B(  0-Pd, 22-C ) :   0.2507 B(  0-Pd, 31-O ) :   0.6346 B(  1-O ,  2-C ) :   1.3604
B(  2-C ,  3-O ) :   1.6921 B(  2-C ,  4-C ) :   0.9397 B(  3-O , 27-H ) :   0.1318
B(  4-C ,  5-H ) :   0.9144 B(  4-C ,  6-H ) :   0.9072 B(  4-C ,  7-H ) :   0.9112
B(  8-N ,  9-C ) :   0.9062 B(  8-N , 13-C ) :   0.9115 B(  8-N , 28-C ) :   0.8733
B(  9-C , 10-H ) :   0.8659 B(  9-C , 11-H ) :   0.9019 B(  9-C , 12-H ) :   0.9070
B( 13-C , 14-H ) :   0.8901 B( 13-C , 15-H ) :   0.9006 B( 13-C , 16-H ) :   0.8939
B( 17-C , 18-C ) :   1.4074 B( 17-C , 22-C ) :   1.3550 B( 17-C , 28-C ) :   0.9446
B( 18-C , 19-C ) :   1.4455 B( 18-C , 25-H ) :   0.9113 B( 19-C , 20-C ) :   1.4150
B( 19-C , 26-H ) :   0.9114 B( 20-C , 21-C ) :   1.4398 B( 20-C , 23-H ) :   0.9102
B( 21-C , 22-C ) :   1.4053 B( 21-C , 24-H ) :   0.9123 B( 22-C , 27-H ) :   0.6078
B( 28-C , 29-H ) :   0.8967 B( 28-C , 30-H ) :   0.9116 B( 31-O , 32-C ) :   1.2923
B( 31-O , 33-O ) :   0.1040 B( 32-C , 33-O ) :   1.8947 B( 32-C , 34-C ) :   0.9190
B( 34-C , 35-H ) :   0.9205 B( 34-C , 36-H ) :   0.9145 B( 34-C , 37-H ) :   0.9177

Dispersion correction           -0.027032568
FINAL SINGLE POINT ENERGY      -988.356749682126
Dispersion correction            ... done

DIPOLE MOMENT
-------------
                                X             Y             Z
Electronic contribution:     10.53323      10.49522      -6.47274
Nuclear contribution   :    -12.67272     -10.91647       7.79541
                        -----------------------------------------
Total Dipole Moment    :     -2.13949      -0.42125       1.32267
                        -----------------------------------------
Magnitude (a.u.)       :      2.55036
Magnitude (Debye)      :      6.48249

Rotational constants in cm-1:     0.013222     0.009062     0.006796
Rotational constants in MHz :   396.384996   271.671410   203.749066

                             ****ORCA TERMINATED NORMALLY****
TOTAL RUN TIME: 0 days 0 hours 8 minutes 42 seconds 692 msec
