                         Program Version 5.0.3 -  RELEASE  -
|  1> ! EnGrad PBEh-3c
|  2> %output
|  3> xyzfile=True
|  4> end
|  5> %scf
|  6> maxiter 250
|  7> end
|  8> %output
|  9> Print[P_Hirshfeld] = 1
| 10> end
| 11> % maxcore
| 12> 4000
| 13> *xyz 0 1
| 14> Pd   0.29549564   0.22756545  -0.14416005
| 15> O    1.68558035   1.39338723   0.69967528
| 16> C    1.47147234   2.62330538   0.44789399
| 17> O    0.36460341   3.07023197   0.04150907
| 18> C    2.62518442   3.57632798   0.64600862
| 19> H    2.25802480   4.51112151   1.05428411
| 20> H    3.06701432   3.82421145  -0.31773345
| 21> H    3.40673270   3.17666376   1.28424780
| 22> N   -1.37749808  -0.72795168  -1.03733136
| 23> C   -1.18412994  -1.88841302  -1.91247245
| 24> H   -0.57399879  -1.62154743  -2.76223213
| 25> H   -2.16879334  -2.24652693  -2.23480233
| 26> H   -0.67350189  -2.66474530  -1.35905407
| 27> C   -2.03913432   0.33540807  -1.81002419
| 28> H   -2.18743751   1.22232570  -1.20070861
| 29> H   -3.01341901  -0.01722680  -2.15843344
| 30> H   -1.42756936   0.60403046  -2.66413728
| 31> C   -1.60940525  -0.96513511   1.41122060
| 32> C   -1.47856535  -2.08584261   2.25060873
| 33> C   -1.15094788  -1.94885966   3.58280907
| 34> C   -1.03213690  -0.66834752   4.09117946
| 35> C   -1.04093219   0.43026849   3.23502692
| 36> C   -1.26503346   0.33077785   1.86509466
| 37> H   -0.93736655  -0.52052722   5.16408229
| 38> H   -0.90753506   1.39349584   3.67775740
| 39> H   -1.71027837  -3.07930938   1.89065369
| 40> H   -1.11247039  -2.79640447   4.25153601
| 41> H   -1.11735233   2.19644666   1.11735750
| 42> C   -2.26267770  -1.14754795   0.08983295
| 43> H   -3.16409185  -0.53621295   0.11719419
| 44> H   -2.59419474  -2.17894281  -0.06148211
| 45> O    1.75814771   0.13148592  -1.55313767
| 46> C    2.18009241  -0.73988010  -2.41929949
| 47> O    1.62085183  -1.72661135  -2.84957540
| 48> C    3.57744455  -0.43681339  -2.99243435
| 49> H    4.01035953  -1.35348715  -3.39749498
| 50> H    4.22851390  -0.02094632  -2.23244793
| 51> H    3.50173105   0.27855994  -3.81280483
| 52> *
| 53>
| 54>                          ****END OF INPUT****

CARTESIAN COORDINATES (ANGSTROEM)
---------------------------------
  Pd     0.295496    0.227565   -0.144160
  O      1.685580    1.393387    0.699675
  C      1.471472    2.623305    0.447894
  O      0.364603    3.070232    0.041509
  C      2.625184    3.576328    0.646009
  H      2.258025    4.511122    1.054284
  H      3.067014    3.824211   -0.317733
  H      3.406733    3.176664    1.284248
  N     -1.377498   -0.727952   -1.037331
  C     -1.184130   -1.888413   -1.912472
  H     -0.573999   -1.621547   -2.762232
  H     -2.168793   -2.246527   -2.234802
  H     -0.673502   -2.664745   -1.359054
  C     -2.039134    0.335408   -1.810024
  H     -2.187438    1.222326   -1.200709
  H     -3.013419   -0.017227   -2.158433
  H     -1.427569    0.604030   -2.664137
  C     -1.609405   -0.965135    1.411221
  C     -1.478565   -2.085843    2.250609
  C     -1.150948   -1.948860    3.582809
  C     -1.032137   -0.668348    4.091179
  C     -1.040932    0.430268    3.235027
  C     -1.265033    0.330778    1.865095
  H     -0.937367   -0.520527    5.164082
  H     -0.907535    1.393496    3.677757
  H     -1.710278   -3.079309    1.890654
  H     -1.112470   -2.796404    4.251536
  H     -1.117352    2.196447    1.117358
  C     -2.262678   -1.147548    0.089833
  H     -3.164092   -0.536213    0.117194
  H     -2.594195   -2.178943   -0.061482
  O      1.758148    0.131486   -1.553138
  C      2.180092   -0.739880   -2.419299
  O      1.620852   -1.726611   -2.849575
  C      3.577445   -0.436813   -2.992434
  H      4.010360   -1.353487   -3.397495
  H      4.228514   -0.020946   -2.232448
  H      3.501731    0.278560   -3.812805

 Total Charge           Charge          ....    0
 Multiplicity           Mult            ....    1
 Number of Electrons    NEL             ....  154
 Basis Dimension        Dim             ....  339

ORBITAL ENERGIES
----------------

  NO   OCC          E(Eh)            E(eV)
   0   2.0000     -19.493978      -530.4581
   1   2.0000     -19.470022      -529.8062
   2   2.0000     -19.462549      -529.6029
   3   2.0000     -19.425544      -528.5959
   4   2.0000     -14.725788      -400.7091
   5   2.0000     -10.555956      -287.2422
   6   2.0000     -10.528661      -286.4994
   7   2.0000     -10.510823      -286.0140
   8   2.0000     -10.505978      -285.8822
   9   2.0000     -10.497450      -285.6501
  10   2.0000     -10.486692      -285.3574
  11   2.0000     -10.475590      -285.0553
  12   2.0000     -10.472551      -284.9726
  13   2.0000     -10.471748      -284.9508
  14   2.0000     -10.469597      -284.8922
  15   2.0000     -10.468798      -284.8705
  16   2.0000     -10.426781      -283.7271
  17   2.0000     -10.406031      -283.1625
  18   2.0000      -3.671116       -99.8962
  19   2.0000      -2.321938       -63.1831
  20   2.0000      -2.310874       -62.8821
  21   2.0000      -2.281643       -62.0867
  22   2.0000      -1.169120       -31.8134
  23   2.0000      -1.138236       -30.9730
  24   2.0000      -1.084658       -29.5150
  25   2.0000      -1.066445       -29.0194
  26   2.0000      -1.050072       -28.5739
  27   2.0000      -0.985530       -26.8176
  28   2.0000      -0.895544       -24.3690
  29   2.0000      -0.860100       -23.4045
  30   2.0000      -0.823953       -22.4209
  31   2.0000      -0.812796       -22.1173
  32   2.0000      -0.805430       -21.9169
  33   2.0000      -0.781726       -21.2718
  34   2.0000      -0.722718       -19.6662
  35   2.0000      -0.704492       -19.1702
  36   2.0000      -0.678478       -18.4623
  37   2.0000      -0.613875       -16.7044
  38   2.0000      -0.602545       -16.3961
  39   2.0000      -0.587983       -15.9998
  40   2.0000      -0.577901       -15.7255
  41   2.0000      -0.574552       -15.6344
  42   2.0000      -0.564764       -15.3680
  43   2.0000      -0.536338       -14.5945
  44   2.0000      -0.528957       -14.3936
  45   2.0000      -0.527130       -14.3439
  46   2.0000      -0.517090       -14.0707
  47   2.0000      -0.511991       -13.9320
  48   2.0000      -0.500824       -13.6281
  49   2.0000      -0.496345       -13.5062
  50   2.0000      -0.490567       -13.3490
  51   2.0000      -0.481713       -13.1081
  52   2.0000      -0.480645       -13.0790
  53   2.0000      -0.477229       -12.9861
  54   2.0000      -0.459444       -12.5021
  55   2.0000      -0.451828       -12.2949
  56   2.0000      -0.446098       -12.1389
  57   2.0000      -0.443219       -12.0606
  58   2.0000      -0.437523       -11.9056
  59   2.0000      -0.433215       -11.7884
  60   2.0000      -0.423458       -11.5229
  61   2.0000      -0.417171       -11.3518
  62   2.0000      -0.409679       -11.1479
  63   2.0000      -0.404665       -11.0115
  64   2.0000      -0.383441       -10.4340
  65   2.0000      -0.376337       -10.2407
  66   2.0000      -0.364001        -9.9050
  67   2.0000      -0.351447        -9.5633
  68   2.0000      -0.348153        -9.4737
  69   2.0000      -0.332037        -9.0352
  70   2.0000      -0.324473        -8.8294
  71   2.0000      -0.314898        -8.5688
  72   2.0000      -0.308860        -8.4045
  73   2.0000      -0.305239        -8.3060
  74   2.0000      -0.293270        -7.9803
  75   2.0000      -0.285757        -7.7758
  76   2.0000      -0.275590        -7.4992
  77   0.0000      -0.086287        -2.3480
  78   0.0000      -0.062362        -1.6970
  79   0.0000      -0.015148        -0.4122
  80   0.0000       0.000681         0.0185
  81   0.0000       0.057650         1.5687

MULLIKEN ATOMIC CHARGES
-----------------------
   0 Pd:    0.516887
   1 O :   -0.485077
   2 C :    0.601584
   3 O :   -0.497274
   4 C :   -0.745841
   5 H :    0.242443
   6 H :    0.257364
   7 H :    0.246857
   8 N :   -0.482673
   9 C :   -0.528305
  10 H :    0.309798
  11 H :    0.206764
  12 H :    0.266278
  13 C :   -0.542597
  14 H :    0.280472
  15 H :    0.234941
  16 H :    0.286126
  17 C :    0.012780
  18 C :   -0.252395
  19 C :   -0.206271
  20 C :   -0.225010
  21 C :   -0.218931
  22 C :   -0.204131
  23 H :    0.235576
  24 H :    0.242370
  25 H :    0.227402
  26 H :    0.236617
  27 H :    0.263436
  28 C :   -0.317933
  29 H :    0.266901
  30 H :    0.255877
  31 O :   -0.525098
  32 C :    0.544914
  33 O :   -0.466609
  34 C :   -0.738049
  35 H :    0.235378
  36 H :    0.234639
  37 H :    0.230788
Sum of atomic charges:   -0.0000000

LOEWDIN ATOMIC CHARGES
----------------------
   0 Pd:   -0.324597
   1 O :   -0.134977
   2 C :    0.164824
   3 O :   -0.295094
   4 C :   -0.376900
   5 H :    0.147225
   6 H :    0.160205
   7 H :    0.146119
   8 N :   -0.050755
   9 C :   -0.239187
  10 H :    0.168852
  11 H :    0.113120
  12 H :    0.150566
  13 C :   -0.230809
  14 H :    0.156590
  15 H :    0.126075
  16 H :    0.159357
  17 C :   -0.036196
  18 C :   -0.123685
  19 C :   -0.111664
  20 C :   -0.126878
  21 C :   -0.110129
  22 C :   -0.092456
  23 H :    0.143675
  24 H :    0.146910
  25 H :    0.145058
  26 H :    0.144568
  27 H :    0.285749
  28 C :   -0.100521
  29 H :    0.154745
  30 H :    0.145174
  31 O :   -0.180819
  32 C :    0.123597
  33 O :   -0.282971
  34 C :   -0.388167
  35 H :    0.140562
  36 H :    0.138940
  37 H :    0.143891

  Mayer bond orders larger than 0.100000
B(  0-Pd,  1-O ) :   0.6036 B(  0-Pd,  3-O ) :   0.1003 B(  0-Pd,  8-N ) :   0.4449
B(  0-Pd, 22-C ) :   0.2514 B(  0-Pd, 31-O ) :   0.6359 B(  1-O ,  2-C ) :   1.3668
B(  2-C ,  3-O ) :   1.6791 B(  2-C ,  4-C ) :   0.9401 B(  3-O , 27-H ) :   0.1428
B(  4-C ,  5-H ) :   0.9139 B(  4-C ,  6-H ) :   0.9063 B(  4-C ,  7-H ) :   0.9110
B(  8-N ,  9-C ) :   0.9089 B(  8-N , 13-C ) :   0.9131 B(  8-N , 28-C ) :   0.8735
B(  9-C , 10-H ) :   0.8667 B(  9-C , 11-H ) :   0.9017 B(  9-C , 12-H ) :   0.9072
B( 13-C , 14-H ) :   0.8906 B( 13-C , 15-H ) :   0.9008 B( 13-C , 16-H ) :   0.8942
B( 17-C , 18-C ) :   1.4097 B( 17-C , 22-C ) :   1.3534 B( 17-C , 28-C ) :   0.9441
B( 18-C , 19-C ) :   1.4445 B( 18-C , 25-H ) :   0.9116 B( 19-C , 20-C ) :   1.4157
B( 19-C , 26-H ) :   0.9114 B( 20-C , 21-C ) :   1.4417 B( 20-C , 23-H ) :   0.9104
B( 21-C , 22-C ) :   1.3974 B( 21-C , 24-H ) :   0.9130 B( 22-C , 27-H ) :   0.6052
B( 28-C , 29-H ) :   0.8971 B( 28-C , 30-H ) :   0.9116 B( 31-O , 32-C ) :   1.2913
B( 31-O , 33-O ) :   0.1044 B( 32-C , 33-O ) :   1.8995 B( 32-C , 34-C ) :   0.9167
B( 34-C , 35-H ) :   0.9209 B( 34-C , 36-H ) :   0.9152 B( 34-C , 37-H ) :   0.9183

Dispersion correction           -0.027106043
FINAL SINGLE POINT ENERGY      -988.370135363344
Dispersion correction            ... done

DIPOLE MOMENT
-------------
                                X             Y             Z
Electronic contribution:     10.49648      10.56911      -6.12268
Nuclear contribution   :    -12.59518     -10.99944       7.41907
                        -----------------------------------------
Total Dipole Moment    :     -2.09869      -0.43032       1.29638
                        -----------------------------------------
Magnitude (a.u.)       :      2.50406
Magnitude (Debye)      :      6.36481

Rotational constants in cm-1:     0.013216     0.009097     0.006809
Rotational constants in MHz :   396.198209   272.721052   204.114138

                             ****ORCA TERMINATED NORMALLY****
TOTAL RUN TIME: 0 days 0 hours 10 minutes 21 seconds 96 msec
