                         Program Version 5.0.3 -  RELEASE  -
|  1> ! EnGrad PBEh-3c
|  2> %output
|  3> xyzfile=True
|  4> end
|  5> %scf
|  6> maxiter 250
|  7> end
|  8> %output
|  9> Print[P_Hirshfeld] = 1
| 10> end
| 11> % maxcore
| 12> 4000
| 13> *xyz 0 1
| 14> Pd   0.28413976   0.23497434  -0.12354943
| 15> O    1.66972017   1.41221774   0.69845349
| 16> C    1.44349327   2.64705797   0.47025194
| 17> O    0.33093389   3.09791746   0.11006923
| 18> C    2.62749596   3.57796882   0.65399535
| 19> H    2.28375240   4.52379252   1.05937539
| 20> H    3.05284496   3.80596793  -0.32237941
| 21> H    3.41055360   3.16153944   1.28652079
| 22> N   -1.39057479  -0.74505529  -1.03858200
| 23> C   -1.16816248  -1.91004475  -1.88949360
| 24> H   -0.53256028  -1.65608854  -2.72411540
| 25> H   -2.13558842  -2.28212016  -2.21971472
| 26> H   -0.67225066  -2.66364153  -1.29591140
| 27> C   -2.02568754   0.30361955  -1.83618490
| 28> H   -2.16925116   1.20023436  -1.24361162
| 29> H   -2.99796012  -0.05189570  -2.17930618
| 30> H   -1.39962584   0.55939455  -2.68502983
| 31> C   -1.60804492  -0.94768024   1.40434993
| 32> C   -1.52927736  -2.06221673   2.25347563
| 33> C   -1.18814574  -1.93045982   3.58678711
| 34> C   -1.00816413  -0.65431712   4.07568903
| 35> C   -0.98658560   0.43604810   3.20421762
| 36> C   -1.22303274   0.37059756   1.82059119
| 37> H   -0.90929856  -0.53318352   5.15204532
| 38> H   -0.79881813   1.38885202   3.67032158
| 39> H   -1.82963267  -3.04938196   1.90027327
| 40> H   -1.22211714  -2.77796031   4.27690930
| 41> H   -0.94810900   1.94479263   1.05683515
| 42> C   -2.27940261  -1.13818260   0.08589999
| 43> H   -3.15907972  -0.49335595   0.11440248
| 44> H   -2.63189872  -2.16396287  -0.07267498
| 45> O    1.75213631   0.17809287  -1.56059147
| 46> C    2.18096544  -0.72706786  -2.39319738
| 47> O    1.66183951  -1.75439403  -2.76332814
| 48> C    3.54138897  -0.39297677  -3.00738081
| 49> H    3.96558549  -1.31346638  -3.44147215
| 50> H    4.21806243   0.02686928  -2.25541591
| 51> H    3.41302115   0.33098076  -3.83224193
| 52> *
| 53>
| 54>                          ****END OF INPUT****

CARTESIAN COORDINATES (ANGSTROEM)
---------------------------------
  Pd     0.284140    0.234974   -0.123549
  O      1.669720    1.412218    0.698453
  C      1.443493    2.647058    0.470252
  O      0.330934    3.097917    0.110069
  C      2.627496    3.577969    0.653995
  H      2.283752    4.523793    1.059375
  H      3.052845    3.805968   -0.322379
  H      3.410554    3.161539    1.286521
  N     -1.390575   -0.745055   -1.038582
  C     -1.168162   -1.910045   -1.889494
  H     -0.532560   -1.656089   -2.724115
  H     -2.135588   -2.282120   -2.219715
  H     -0.672251   -2.663642   -1.295911
  C     -2.025688    0.303620   -1.836185
  H     -2.169251    1.200234   -1.243612
  H     -2.997960   -0.051896   -2.179306
  H     -1.399626    0.559395   -2.685030
  C     -1.608045   -0.947680    1.404350
  C     -1.529277   -2.062217    2.253476
  C     -1.188146   -1.930460    3.586787
  C     -1.008164   -0.654317    4.075689
  C     -0.986586    0.436048    3.204218
  C     -1.223033    0.370598    1.820591
  H     -0.909299   -0.533184    5.152045
  H     -0.798818    1.388852    3.670322
  H     -1.829633   -3.049382    1.900273
  H     -1.222117   -2.777960    4.276909
  H     -0.948109    1.944793    1.056835
  C     -2.279403   -1.138183    0.085900
  H     -3.159080   -0.493356    0.114402
  H     -2.631899   -2.163963   -0.072675
  O      1.752136    0.178093   -1.560591
  C      2.180965   -0.727068   -2.393197
  O      1.661840   -1.754394   -2.763328
  C      3.541389   -0.392977   -3.007381
  H      3.965585   -1.313466   -3.441472
  H      4.218062    0.026869   -2.255416
  H      3.413021    0.330981   -3.832242

 Total Charge           Charge          ....    0
 Multiplicity           Mult            ....    1
 Number of Electrons    NEL             ....  154
 Basis Dimension        Dim             ....  339

ORBITAL ENERGIES
----------------

  NO   OCC          E(Eh)            E(eV)
   0   2.0000     -19.494785      -530.4801
   1   2.0000     -19.470674      -529.8240
   2   2.0000     -19.465704      -529.6887
   3   2.0000     -19.427509      -528.6494
   4   2.0000     -14.723957      -400.6592
   5   2.0000     -10.557446      -287.2827
   6   2.0000     -10.528142      -286.4853
   7   2.0000     -10.513441      -286.0853
   8   2.0000     -10.506620      -285.8997
   9   2.0000     -10.500436      -285.7314
  10   2.0000     -10.486278      -285.3461
  11   2.0000     -10.476667      -285.0846
  12   2.0000     -10.475954      -285.0652
  13   2.0000     -10.475057      -285.0408
  14   2.0000     -10.470090      -284.9056
  15   2.0000     -10.467862      -284.8450
  16   2.0000     -10.428334      -283.7694
  17   2.0000     -10.408623      -283.2330
  18   2.0000      -3.673737       -99.9675
  19   2.0000      -2.323934       -63.2375
  20   2.0000      -2.313679       -62.9584
  21   2.0000      -2.284573       -62.1664
  22   2.0000      -1.172261       -31.8988
  23   2.0000      -1.139489       -31.0071
  24   2.0000      -1.088138       -29.6097
  25   2.0000      -1.070968       -29.1425
  26   2.0000      -1.051850       -28.6223
  27   2.0000      -0.984300       -26.7842
  28   2.0000      -0.895705       -24.3734
  29   2.0000      -0.859717       -23.3941
  30   2.0000      -0.826322       -22.4854
  31   2.0000      -0.812052       -22.0971
  32   2.0000      -0.806592       -21.9485
  33   2.0000      -0.780793       -21.2465
  34   2.0000      -0.721913       -19.6443
  35   2.0000      -0.704202       -19.1623
  36   2.0000      -0.678616       -18.4661
  37   2.0000      -0.614704       -16.7269
  38   2.0000      -0.602755       -16.4018
  39   2.0000      -0.585729       -15.9385
  40   2.0000      -0.579111       -15.7584
  41   2.0000      -0.576439       -15.6857
  42   2.0000      -0.565222       -15.3805
  43   2.0000      -0.537933       -14.6379
  44   2.0000      -0.532305       -14.4848
  45   2.0000      -0.526311       -14.3217
  46   2.0000      -0.518497       -14.1090
  47   2.0000      -0.512868       -13.9558
  48   2.0000      -0.502813       -13.6822
  49   2.0000      -0.495216       -13.4755
  50   2.0000      -0.490506       -13.3473
  51   2.0000      -0.482930       -13.1412
  52   2.0000      -0.481546       -13.1035
  53   2.0000      -0.480062       -13.0631
  54   2.0000      -0.460823       -12.5396
  55   2.0000      -0.455965       -12.4074
  56   2.0000      -0.447051       -12.1649
  57   2.0000      -0.443519       -12.0688
  58   2.0000      -0.437866       -11.9149
  59   2.0000      -0.433794       -11.8041
  60   2.0000      -0.422591       -11.4993
  61   2.0000      -0.415974       -11.3192
  62   2.0000      -0.410355       -11.1663
  63   2.0000      -0.404925       -11.0186
  64   2.0000      -0.393650       -10.7118
  65   2.0000      -0.383164       -10.4264
  66   2.0000      -0.366030        -9.9602
  67   2.0000      -0.355175        -9.6648
  68   2.0000      -0.352637        -9.5957
  69   2.0000      -0.332788        -9.0556
  70   2.0000      -0.325423        -8.8552
  71   2.0000      -0.315686        -8.5902
  72   2.0000      -0.312699        -8.5090
  73   2.0000      -0.308286        -8.3889
  74   2.0000      -0.296033        -8.0555
  75   2.0000      -0.289846        -7.8871
  76   2.0000      -0.276926        -7.5355
  77   0.0000      -0.083874        -2.2823
  78   0.0000      -0.025783        -0.7016
  79   0.0000      -0.013477        -0.3667
  80   0.0000      -0.000678        -0.0185
  81   0.0000       0.057152         1.5552

MULLIKEN ATOMIC CHARGES
-----------------------
   0 Pd:    0.507794
   1 O :   -0.484992
   2 C :    0.595170
   3 O :   -0.491056
   4 C :   -0.743782
   5 H :    0.242042
   6 H :    0.257287
   7 H :    0.247872
   8 N :   -0.475410
   9 C :   -0.528308
  10 H :    0.308685
  11 H :    0.208226
  12 H :    0.265358
  13 C :   -0.543628
  14 H :    0.279840
  15 H :    0.234409
  16 H :    0.285052
  17 C :    0.024941
  18 C :   -0.253371
  19 C :   -0.206319
  20 C :   -0.219386
  21 C :   -0.201414
  22 C :   -0.273402
  23 H :    0.236722
  24 H :    0.241368
  25 H :    0.227062
  26 H :    0.235970
  27 H :    0.299770
  28 C :   -0.322122
  29 H :    0.267289
  30 H :    0.255080
  31 O :   -0.521446
  32 C :    0.549141
  33 O :   -0.462508
  34 C :   -0.734179
  35 H :    0.232674
  36 H :    0.232554
  37 H :    0.227018
Sum of atomic charges:    0.0000000

LOEWDIN ATOMIC CHARGES
----------------------
   0 Pd:   -0.333986
   1 O :   -0.137217
   2 C :    0.161397
   3 O :   -0.291979
   4 C :   -0.376698
   5 H :    0.146329
   6 H :    0.160222
   7 H :    0.147462
   8 N :   -0.053253
   9 C :   -0.239881
  10 H :    0.169095
  11 H :    0.113215
  12 H :    0.150209
  13 C :   -0.232028
  14 H :    0.155605
  15 H :    0.125828
  16 H :    0.159278
  17 C :   -0.026519
  18 C :   -0.127445
  19 C :   -0.107730
  20 C :   -0.131246
  21 C :   -0.099562
  22 C :   -0.112841
  23 H :    0.144487
  24 H :    0.147225
  25 H :    0.145059
  26 H :    0.144717
  27 H :    0.310621
  28 C :   -0.102157
  29 H :    0.154999
  30 H :    0.144567
  31 O :   -0.186733
  32 C :    0.118443
  33 O :   -0.277342
  34 C :   -0.385672
  35 H :    0.139981
  36 H :    0.139975
  37 H :    0.143577

  Mayer bond orders larger than 0.100000
B(  0-Pd,  1-O ) :   0.6103 B(  0-Pd,  8-N ) :   0.4395 B(  0-Pd, 22-C ) :   0.2612
B(  0-Pd, 31-O ) :   0.6374 B(  1-O ,  2-C ) :   1.3566 B(  2-C ,  3-O ) :   1.6949
B(  2-C ,  4-C ) :   0.9366 B(  3-O , 27-H ) :   0.1531 B(  4-C ,  5-H ) :   0.9136
B(  4-C ,  6-H ) :   0.9061 B(  4-C ,  7-H ) :   0.9120 B(  8-N ,  9-C ) :   0.9125
B(  8-N , 13-C ) :   0.9164 B(  8-N , 28-C ) :   0.8740 B(  9-C , 10-H ) :   0.8678
B(  9-C , 11-H ) :   0.9011 B(  9-C , 12-H ) :   0.9077 B( 13-C , 14-H ) :   0.8913
B( 13-C , 15-H ) :   0.9011 B( 13-C , 16-H ) :   0.8949 B( 17-C , 18-C ) :   1.4247
B( 17-C , 22-C ) :   1.3171 B( 17-C , 28-C ) :   0.9410 B( 18-C , 19-C ) :   1.4316
B( 18-C , 25-H ) :   0.9126 B( 19-C , 20-C ) :   1.4228 B( 19-C , 26-H ) :   0.9109
B( 20-C , 21-C ) :   1.4359 B( 20-C , 23-H ) :   0.9105 B( 21-C , 22-C ) :   1.3828
B( 21-C , 24-H ) :   0.9134 B( 22-C , 27-H ) :   0.6070 B( 28-C , 29-H ) :   0.8976
B( 28-C , 30-H ) :   0.9111 B( 31-O , 32-C ) :   1.2891 B( 31-O , 33-O ) :   0.1048
B( 32-C , 33-O ) :   1.9039 B( 32-C , 34-C ) :   0.9151 B( 34-C , 35-H ) :   0.9217
B( 34-C , 36-H ) :   0.9161 B( 34-C , 37-H ) :   0.9190

Dispersion correction           -0.027268743
FINAL SINGLE POINT ENERGY      -988.404890814361
Dispersion correction            ... done

DIPOLE MOMENT
-------------
                                X             Y             Z
Electronic contribution:      9.93897      10.73105      -5.21694
Nuclear contribution   :    -12.02642     -11.25045       6.45047
                        -----------------------------------------
Total Dipole Moment    :     -2.08744      -0.51940       1.23353
                        -----------------------------------------
Magnitude (a.u.)       :      2.47968
Magnitude (Debye)      :      6.30284

Rotational constants in cm-1:     0.013217     0.009194     0.006835
Rotational constants in MHz :   396.237788   275.622994   204.909494

                             ****ORCA TERMINATED NORMALLY****
TOTAL RUN TIME: 0 days 0 hours 8 minutes 11 seconds 454 msec
