                         Program Version 5.0.3 -  RELEASE  -
|  1> ! EnGrad PBEh-3c
|  2> %output
|  3> xyzfile=True
|  4> end
|  5> %scf
|  6> maxiter 250
|  7> end
|  8> %output
|  9> Print[P_Hirshfeld] = 1
| 10> end
| 11> % maxcore
| 12> 4000
| 13> *xyz 0 1
| 14> Pd   0.28534357   0.24240077  -0.11994794
| 15> O    1.66105805   1.41530110   0.69953175
| 16> C    1.42030053   2.65903151   0.47717840
| 17> O    0.32608326   3.10193026   0.14862999
| 18> C    2.62598169   3.58031867   0.65557283
| 19> H    2.29220029   4.53148281   1.06394412
| 20> H    3.04977396   3.79800558  -0.32707323
| 21> H    3.41047935   3.15546837   1.28520368
| 22> N   -1.39463827  -0.74698942  -1.03659251
| 23> C   -1.15891800  -1.91806479  -1.87708979
| 24> H   -0.51712131  -1.67120814  -2.70973389
| 25> H   -2.12082842  -2.29536741  -2.21647016
| 26> H   -0.66976502  -2.66874190  -1.27648666
| 27> C   -2.02173077   0.29459004  -1.84564764
| 28> H   -2.16578760   1.19442973  -1.25759223
| 29> H   -2.99317724  -0.06275601  -2.18977634
| 30> H   -1.39021209   0.54267164  -2.69399735
| 31> C   -1.60462855  -0.93900415   1.39975793
| 32> C   -1.55114135  -2.05469562   2.25526651
| 33> C   -1.21558937  -1.92550234   3.59364862
| 34> C   -0.99946570  -0.64608300   4.06955706
| 35> C   -0.95851081   0.44592675   3.19252876
| 36> C   -1.19961969   0.38888168   1.80324271
| 37> H   -0.89740645  -0.53288890   5.14549579
| 38> H   -0.75555111   1.39153035   3.66396358
| 39> H   -1.86911334  -3.03750551   1.89843944
| 40> H   -1.25384149  -2.77164956   4.27937815
| 41> H   -0.89113732   1.82014867   1.04096354
| 42> C   -2.28519178  -1.13098897   0.08341750
| 43> H   -3.15925600  -0.47906432   0.10566795
| 44> H   -2.64288782  -2.15488447  -0.07589169
| 45> O    1.74530194   0.18888862  -1.57027674
| 46> C    2.18352121  -0.71805053  -2.38217480
| 47> O    1.66603940  -1.76835051  -2.72077912
| 48> C    3.52648451  -0.37520152  -3.01272869
| 49> H    3.94469327  -1.29463736  -3.45241675
| 50> H    4.21725955   0.04534300  -2.26738342
| 51> H    3.38322591   0.34826929  -3.83468017
| 52> *
| 53>
| 54>                          ****END OF INPUT****

CARTESIAN COORDINATES (ANGSTROEM)
---------------------------------
  Pd     0.285344    0.242401   -0.119948
  O      1.661058    1.415301    0.699532
  C      1.420301    2.659032    0.477178
  O      0.326083    3.101930    0.148630
  C      2.625982    3.580319    0.655573
  H      2.292200    4.531483    1.063944
  H      3.049774    3.798006   -0.327073
  H      3.410479    3.155468    1.285204
  N     -1.394638   -0.746989   -1.036593
  C     -1.158918   -1.918065   -1.877090
  H     -0.517121   -1.671208   -2.709734
  H     -2.120828   -2.295367   -2.216470
  H     -0.669765   -2.668742   -1.276487
  C     -2.021731    0.294590   -1.845648
  H     -2.165788    1.194430   -1.257592
  H     -2.993177   -0.062756   -2.189776
  H     -1.390212    0.542672   -2.693997
  C     -1.604629   -0.939004    1.399758
  C     -1.551141   -2.054696    2.255267
  C     -1.215589   -1.925502    3.593649
  C     -0.999466   -0.646083    4.069557
  C     -0.958511    0.445927    3.192529
  C     -1.199620    0.388882    1.803243
  H     -0.897406   -0.532889    5.145496
  H     -0.755551    1.391530    3.663964
  H     -1.869113   -3.037506    1.898439
  H     -1.253841   -2.771650    4.279378
  H     -0.891137    1.820149    1.040964
  C     -2.285192   -1.130989    0.083417
  H     -3.159256   -0.479064    0.105668
  H     -2.642888   -2.154884   -0.075892
  O      1.745302    0.188889   -1.570277
  C      2.183521   -0.718051   -2.382175
  O      1.666039   -1.768351   -2.720779
  C      3.526485   -0.375202   -3.012729
  H      3.944693   -1.294637   -3.452417
  H      4.217260    0.045343   -2.267383
  H      3.383226    0.348269   -3.834680

 Total Charge           Charge          ....    0
 Multiplicity           Mult            ....    1
 Number of Electrons    NEL             ....  154
 Basis Dimension        Dim             ....  339

ORBITAL ENERGIES
----------------

  NO   OCC          E(Eh)            E(eV)
   0   2.0000     -19.491684      -530.3957
   1   2.0000     -19.470051      -529.8070
   2   2.0000     -19.465935      -529.6950
   3   2.0000     -19.424328      -528.5628
   4   2.0000     -14.722837      -400.6288
   5   2.0000     -10.554875      -287.2128
   6   2.0000     -10.526815      -286.4492
   7   2.0000     -10.517086      -286.1845
   8   2.0000     -10.507134      -285.9137
   9   2.0000     -10.503950      -285.8270
  10   2.0000     -10.486623      -285.3555
  11   2.0000     -10.479740      -285.1682
  12   2.0000     -10.479030      -285.1489
  13   2.0000     -10.477683      -285.1122
  14   2.0000     -10.472605      -284.9741
  15   2.0000     -10.467010      -284.8218
  16   2.0000     -10.427564      -283.7485
  17   2.0000     -10.408729      -283.2359
  18   2.0000      -3.675133      -100.0055
  19   2.0000      -2.325097       -63.2691
  20   2.0000      -2.315187       -62.9994
  21   2.0000      -2.286260       -62.2123
  22   2.0000      -1.176268       -32.0079
  23   2.0000      -1.137522       -30.9536
  24   2.0000      -1.088866       -29.6295
  25   2.0000      -1.076369       -29.2895
  26   2.0000      -1.049197       -28.5501
  27   2.0000      -0.983682       -26.7673
  28   2.0000      -0.895791       -24.3757
  29   2.0000      -0.861592       -23.4451
  30   2.0000      -0.826379       -22.4869
  31   2.0000      -0.807949       -21.9854
  32   2.0000      -0.806909       -21.9571
  33   2.0000      -0.781892       -21.2764
  34   2.0000      -0.722151       -19.6507
  35   2.0000      -0.705586       -19.2000
  36   2.0000      -0.680412       -18.5149
  37   2.0000      -0.614480       -16.7208
  38   2.0000      -0.602059       -16.3828
  39   2.0000      -0.585884       -15.9427
  40   2.0000      -0.579565       -15.7708
  41   2.0000      -0.577383       -15.7114
  42   2.0000      -0.565419       -15.3858
  43   2.0000      -0.539854       -14.6902
  44   2.0000      -0.534283       -14.5386
  45   2.0000      -0.527864       -14.3639
  46   2.0000      -0.518687       -14.1142
  47   2.0000      -0.512850       -13.9554
  48   2.0000      -0.503468       -13.7001
  49   2.0000      -0.495475       -13.4826
  50   2.0000      -0.490946       -13.3593
  51   2.0000      -0.484671       -13.1886
  52   2.0000      -0.482739       -13.1360
  53   2.0000      -0.480054       -13.0629
  54   2.0000      -0.461067       -12.5463
  55   2.0000      -0.458565       -12.4782
  56   2.0000      -0.446295       -12.1443
  57   2.0000      -0.443548       -12.0696
  58   2.0000      -0.438142       -11.9225
  59   2.0000      -0.433527       -11.7969
  60   2.0000      -0.422254       -11.4901
  61   2.0000      -0.416725       -11.3397
  62   2.0000      -0.413942       -11.2639
  63   2.0000      -0.405961       -11.0468
  64   2.0000      -0.398861       -10.8536
  65   2.0000      -0.384675       -10.4675
  66   2.0000      -0.366121        -9.9626
  67   2.0000      -0.356556        -9.7024
  68   2.0000      -0.353361        -9.6154
  69   2.0000      -0.332900        -9.0587
  70   2.0000      -0.325141        -8.8475
  71   2.0000      -0.317413        -8.6373
  72   2.0000      -0.314028        -8.5451
  73   2.0000      -0.307711        -8.3732
  74   2.0000      -0.296367        -8.0646
  75   2.0000      -0.291127        -7.9220
  76   2.0000      -0.275422        -7.4946
  77   0.0000      -0.084183        -2.2907
  78   0.0000      -0.022043        -0.5998
  79   0.0000      -0.005137        -0.1398
  80   0.0000       0.004488         0.1221
  81   0.0000       0.057800         1.5728

MULLIKEN ATOMIC CHARGES
-----------------------
   0 Pd:    0.504064
   1 O :   -0.495449
   2 C :    0.586728
   3 O :   -0.467598
   4 C :   -0.743558
   5 H :    0.238773
   6 H :    0.254624
   7 H :    0.247232
   8 N :   -0.473877
   9 C :   -0.529332
  10 H :    0.309610
  11 H :    0.207065
  12 H :    0.265743
  13 C :   -0.543615
  14 H :    0.278442
  15 H :    0.234109
  16 H :    0.284944
  17 C :    0.032051
  18 C :   -0.252369
  19 C :   -0.206151
  20 C :   -0.218827
  21 C :   -0.193578
  22 C :   -0.296681
  23 H :    0.237207
  24 H :    0.243216
  25 H :    0.227813
  26 H :    0.238949
  27 H :    0.311043
  28 C :   -0.323336
  29 H :    0.267463
  30 H :    0.255441
  31 O :   -0.515027
  32 C :    0.550063
  33 O :   -0.474431
  34 C :   -0.734025
  35 H :    0.233669
  36 H :    0.232256
  37 H :    0.227349
Sum of atomic charges:    0.0000000

LOEWDIN ATOMIC CHARGES
----------------------
   0 Pd:   -0.336511
   1 O :   -0.147449
   2 C :    0.149384
   3 O :   -0.265732
   4 C :   -0.378340
   5 H :    0.144363
   6 H :    0.158670
   7 H :    0.146990
   8 N :   -0.055413
   9 C :   -0.240375
  10 H :    0.169657
  11 H :    0.112344
  12 H :    0.150176
  13 C :   -0.232261
  14 H :    0.154841
  15 H :    0.125652
  16 H :    0.159439
  17 C :   -0.020403
  18 C :   -0.128087
  19 C :   -0.105752
  20 C :   -0.131590
  21 C :   -0.094217
  22 C :   -0.112278
  23 H :    0.145005
  24 H :    0.148562
  25 H :    0.145411
  26 H :    0.145455
  27 H :    0.310205
  28 C :   -0.103483
  29 H :    0.154684
  30 H :    0.144614
  31 O :   -0.181533
  32 C :    0.117583
  33 O :   -0.290415
  34 C :   -0.384437
  35 H :    0.140497
  36 H :    0.140907
  37 H :    0.143833

  Mayer bond orders larger than 0.100000
B(  0-Pd,  1-O ) :   0.6317 B(  0-Pd,  8-N ) :   0.4325 B(  0-Pd, 22-C ) :   0.2611
B(  0-Pd, 31-O ) :   0.6308 B(  1-O ,  2-C ) :   1.3188 B(  2-C ,  3-O ) :   1.7511
B(  2-C ,  4-C ) :   0.9313 B(  3-O , 27-H ) :   0.1338 B(  4-C ,  5-H ) :   0.9148
B(  4-C ,  6-H ) :   0.9078 B(  4-C ,  7-H ) :   0.9129 B(  8-N ,  9-C ) :   0.9126
B(  8-N , 13-C ) :   0.9177 B(  8-N , 28-C ) :   0.8755 B(  9-C , 10-H ) :   0.8669
B(  9-C , 11-H ) :   0.9011 B(  9-C , 12-H ) :   0.9075 B( 13-C , 14-H ) :   0.8919
B( 13-C , 15-H ) :   0.9012 B( 13-C , 16-H ) :   0.8951 B( 17-C , 18-C ) :   1.4277
B( 17-C , 22-C ) :   1.2932 B( 17-C , 28-C ) :   0.9398 B( 18-C , 19-C ) :   1.4280
B( 18-C , 25-H ) :   0.9130 B( 19-C , 20-C ) :   1.4236 B( 19-C , 26-H ) :   0.9096
B( 20-C , 21-C ) :   1.4331 B( 20-C , 23-H ) :   0.9109 B( 21-C , 22-C ) :   1.3768
B( 21-C , 24-H ) :   0.9127 B( 22-C , 27-H ) :   0.6300 B( 28-C , 29-H ) :   0.8975
B( 28-C , 30-H ) :   0.9107 B( 31-O , 32-C ) :   1.3024 B( 31-O , 33-O ) :   0.1047
B( 32-C , 33-O ) :   1.8887 B( 32-C , 34-C ) :   0.9167 B( 34-C , 35-H ) :   0.9213
B( 34-C , 36-H ) :   0.9163 B( 34-C , 37-H ) :   0.9186

Dispersion correction           -0.027265340
FINAL SINGLE POINT ENERGY      -988.422345435213
Dispersion correction            ... done

DIPOLE MOMENT
-------------
                                X             Y             Z
Electronic contribution:      9.97507      11.05012      -5.07582
Nuclear contribution   :    -12.12034     -11.59436       6.32967
                        -----------------------------------------
Total Dipole Moment    :     -2.14527      -0.54424       1.25385
                        -----------------------------------------
Magnitude (a.u.)       :      2.54372
Magnitude (Debye)      :      6.46561

Rotational constants in cm-1:     0.013227     0.009239     0.006848
Rotational constants in MHz :   396.521331   276.984889   205.301821

                             ****ORCA TERMINATED NORMALLY****
TOTAL RUN TIME: 0 days 0 hours 8 minutes 37 seconds 37 msec
