                         Program Version 5.0.3 -  RELEASE  -
|  1> ! EnGrad PBEh-3c
|  2> %output
|  3> xyzfile=True
|  4> end
|  5> %scf
|  6> maxiter 250
|  7> end
|  8> %output
|  9> Print[P_Hirshfeld] = 1
| 10> end
| 11> % maxcore
| 12> 4000
| 13> *xyz 0 1
| 14> Pd   0.29433683   0.25020838  -0.12355513
| 15> O    1.64614338   1.42104478   0.70253821
| 16> C    1.40507232   2.67041902   0.49711243
| 17> O    0.30163473   3.11543861   0.20659992
| 18> C    2.61707552   3.58253088   0.65653100
| 19> H    2.30673016   4.54384497   1.07064010
| 20> H    3.04335505   3.78471935  -0.33330111
| 21> H    3.40628928   3.14610199   1.28059777
| 22> N   -1.39230948  -0.74395672  -1.03230603
| 23> C   -1.14377353  -1.92876033  -1.85892090
| 24> H   -0.49269245  -1.69191450  -2.69048342
| 25> H   -2.10235700  -2.31594684  -2.21627538
| 26> H   -0.66204408  -2.67876986  -1.24668303
| 27> C   -2.01667299   0.28422769  -1.86015641
| 28> H   -2.16295826   1.18789088  -1.27624500
| 29> H   -2.98826419  -0.07788273  -2.20808887
| 30> H   -1.37696622   0.52019360  -2.70807870
| 31> C   -1.60399029  -0.92168357   1.39088695
| 32> C   -1.58103534  -2.03766545   2.25521105
| 33> C   -1.25498849  -1.91150194   3.59725727
| 34> C   -0.98922629  -0.63582048   4.05601716
| 35> C   -0.91337717   0.46153208   3.17605917
| 36> C   -1.15985640   0.41715720   1.78107618
| 37> H   -0.87901193  -0.52608951   5.13060338
| 38> H   -0.68586481   1.39745228   3.65054998
| 39> H   -1.92309293  -3.01320293   1.89527973
| 40> H   -1.29762969  -2.75846981   4.28073367
| 41> H   -0.81662226   1.59087348   1.03013224
| 42> C   -2.29099974  -1.11736961   0.07729790
| 43> H   -3.16119297  -0.46144040   0.09092316
| 44> H   -2.65769354  -2.14015014  -0.07791716
| 45> O    1.72709192   0.20212047  -1.58296704
| 46> C    2.18725222  -0.70939327  -2.36931772
| 47> O    1.67255908  -1.77796126  -2.64445272
| 48> C    3.50539167  -0.35030866  -3.02026822
| 49> H    3.91185831  -1.26258931  -3.46410599
| 50> H    4.20951496   0.06843934  -2.28959766
| 51> H    3.34024504   0.36823831  -3.83152810
| 52> *
| 53>
| 54>                          ****END OF INPUT****

CARTESIAN COORDINATES (ANGSTROEM)
---------------------------------
  Pd     0.294337    0.250208   -0.123555
  O      1.646143    1.421045    0.702538
  C      1.405072    2.670419    0.497112
  O      0.301635    3.115439    0.206600
  C      2.617076    3.582531    0.656531
  H      2.306730    4.543845    1.070640
  H      3.043355    3.784719   -0.333301
  H      3.406289    3.146102    1.280598
  N     -1.392309   -0.743957   -1.032306
  C     -1.143774   -1.928760   -1.858921
  H     -0.492692   -1.691914   -2.690483
  H     -2.102357   -2.315947   -2.216275
  H     -0.662044   -2.678770   -1.246683
  C     -2.016673    0.284228   -1.860156
  H     -2.162958    1.187891   -1.276245
  H     -2.988264   -0.077883   -2.208089
  H     -1.376966    0.520194   -2.708079
  C     -1.603990   -0.921684    1.390887
  C     -1.581035   -2.037665    2.255211
  C     -1.254988   -1.911502    3.597257
  C     -0.989226   -0.635820    4.056017
  C     -0.913377    0.461532    3.176059
  C     -1.159856    0.417157    1.781076
  H     -0.879012   -0.526090    5.130603
  H     -0.685865    1.397452    3.650550
  H     -1.923093   -3.013203    1.895280
  H     -1.297630   -2.758470    4.280734
  H     -0.816622    1.590873    1.030132
  C     -2.291000   -1.117370    0.077298
  H     -3.161193   -0.461440    0.090923
  H     -2.657694   -2.140150   -0.077917
  O      1.727092    0.202120   -1.582967
  C      2.187252   -0.709393   -2.369318
  O      1.672559   -1.777961   -2.644453
  C      3.505392   -0.350309   -3.020268
  H      3.911858   -1.262589   -3.464106
  H      4.209515    0.068439   -2.289598
  H      3.340245    0.368238   -3.831528

 Total Charge           Charge          ....    0
 Multiplicity           Mult            ....    1
 Number of Electrons    NEL             ....  154
 Basis Dimension        Dim             ....  339

ORBITAL ENERGIES
----------------

  NO   OCC          E(Eh)            E(eV)
   0   2.0000     -19.489173      -530.3274
   1   2.0000     -19.468814      -529.7734
   2   2.0000     -19.456631      -529.4418
   3   2.0000     -19.423368      -528.5367
   4   2.0000     -14.722853      -400.6292
   5   2.0000     -10.550107      -287.0830
   6   2.0000     -10.525976      -286.4264
   7   2.0000     -10.517221      -286.1881
   8   2.0000     -10.508032      -285.9381
   9   2.0000     -10.507696      -285.9289
  10   2.0000     -10.487580      -285.3816
  11   2.0000     -10.484045      -285.2854
  12   2.0000     -10.481204      -285.2081
  13   2.0000     -10.480244      -285.1819
  14   2.0000     -10.474977      -285.0386
  15   2.0000     -10.468453      -284.8611
  16   2.0000     -10.425971      -283.7051
  17   2.0000     -10.408688      -283.2348
  18   2.0000      -3.677670      -100.0745
  19   2.0000      -2.327285       -63.3286
  20   2.0000      -2.318586       -63.0919
  21   2.0000      -2.288738       -62.2797
  22   2.0000      -1.171384       -31.8750
  23   2.0000      -1.140895       -31.0453
  24   2.0000      -1.089435       -29.6450
  25   2.0000      -1.071084       -29.1457
  26   2.0000      -1.048530       -28.5320
  27   2.0000      -0.983119       -26.7520
  28   2.0000      -0.895996       -24.3813
  29   2.0000      -0.864796       -23.5323
  30   2.0000      -0.825606       -22.4659
  31   2.0000      -0.807438       -21.9715
  32   2.0000      -0.804334       -21.8870
  33   2.0000      -0.787616       -21.4321
  34   2.0000      -0.723659       -19.6918
  35   2.0000      -0.707322       -19.2472
  36   2.0000      -0.683311       -18.5938
  37   2.0000      -0.615980       -16.7617
  38   2.0000      -0.601507       -16.3678
  39   2.0000      -0.587714       -15.9925
  40   2.0000      -0.581501       -15.8234
  41   2.0000      -0.578027       -15.7289
  42   2.0000      -0.566481       -15.4147
  43   2.0000      -0.544177       -14.8078
  44   2.0000      -0.534866       -14.5544
  45   2.0000      -0.527666       -14.3585
  46   2.0000      -0.514126       -13.9901
  47   2.0000      -0.511852       -13.9282
  48   2.0000      -0.508420       -13.8348
  49   2.0000      -0.496951       -13.5227
  50   2.0000      -0.492486       -13.4012
  51   2.0000      -0.488222       -13.2852
  52   2.0000      -0.486174       -13.2295
  53   2.0000      -0.481701       -13.1078
  54   2.0000      -0.464653       -12.6439
  55   2.0000      -0.460048       -12.5185
  56   2.0000      -0.443757       -12.0753
  57   2.0000      -0.441934       -12.0256
  58   2.0000      -0.437984       -11.9182
  59   2.0000      -0.434322       -11.8185
  60   2.0000      -0.426034       -11.5930
  61   2.0000      -0.420675       -11.4471
  62   2.0000      -0.417250       -11.3539
  63   2.0000      -0.409287       -11.1373
  64   2.0000      -0.400206       -10.8902
  65   2.0000      -0.386046       -10.5048
  66   2.0000      -0.367055        -9.9881
  67   2.0000      -0.359269        -9.7762
  68   2.0000      -0.354620        -9.6497
  69   2.0000      -0.332542        -9.0489
  70   2.0000      -0.324504        -8.8302
  71   2.0000      -0.316282        -8.6065
  72   2.0000      -0.314128        -8.5479
  73   2.0000      -0.306057        -8.3282
  74   2.0000      -0.295604        -8.0438
  75   2.0000      -0.291521        -7.9327
  76   2.0000      -0.276457        -7.5228
  77   0.0000      -0.084745        -2.3060
  78   0.0000      -0.024291        -0.6610
  79   0.0000      -0.006344        -0.1726
  80   0.0000       0.045074         1.2265
  81   0.0000       0.059587         1.6214

MULLIKEN ATOMIC CHARGES
-----------------------
   0 Pd:    0.499835
   1 O :   -0.503476
   2 C :    0.583897
   3 O :   -0.467533
   4 C :   -0.743656
   5 H :    0.238156
   6 H :    0.252436
   7 H :    0.244018
   8 N :   -0.474149
   9 C :   -0.529087
  10 H :    0.309597
  11 H :    0.205458
  12 H :    0.266037
  13 C :   -0.542668
  14 H :    0.279000
  15 H :    0.233506
  16 H :    0.284331
  17 C :    0.039893
  18 C :   -0.248149
  19 C :   -0.205620
  20 C :   -0.216097
  21 C :   -0.191269
  22 C :   -0.317118
  23 H :    0.237517
  24 H :    0.246433
  25 H :    0.228099
  26 H :    0.241869
  27 H :    0.328328
  28 C :   -0.326873
  29 H :    0.268466
  30 H :    0.256207
  31 O :   -0.514007
  32 C :    0.546738
  33 O :   -0.475173
  34 C :   -0.737141
  35 H :    0.236114
  36 H :    0.235451
  37 H :    0.230632
Sum of atomic charges:   -0.0000000

LOEWDIN ATOMIC CHARGES
----------------------
   0 Pd:   -0.334146
   1 O :   -0.151674
   2 C :    0.145897
   3 O :   -0.269123
   4 C :   -0.378834
   5 H :    0.143942
   6 H :    0.157945
   7 H :    0.145773
   8 N :   -0.057309
   9 C :   -0.239995
  10 H :    0.169768
  11 H :    0.111468
  12 H :    0.150361
  13 C :   -0.231987
  14 H :    0.155029
  15 H :    0.125610
  16 H :    0.159529
  17 C :   -0.012636
  18 C :   -0.129012
  19 C :   -0.103921
  20 C :   -0.131700
  21 C :   -0.085951
  22 C :   -0.108084
  23 H :    0.145400
  24 H :    0.150863
  25 H :    0.145339
  26 H :    0.146500
  27 H :    0.296082
  28 C :   -0.106100
  29 H :    0.154484
  30 H :    0.144945
  31 O :   -0.178014
  32 C :    0.112836
  33 O :   -0.290074
  34 C :   -0.383490
  35 H :    0.141493
  36 H :    0.143572
  37 H :    0.145213

  Mayer bond orders larger than 0.100000
B(  0-Pd,  1-O ) :   0.6464 B(  0-Pd,  8-N ) :   0.4263 B(  0-Pd, 22-C ) :   0.2591
B(  0-Pd, 31-O ) :   0.6345 B(  1-O ,  2-C ) :   1.2917 B(  2-C ,  3-O ) :   1.7858
B(  2-C ,  4-C ) :   0.9304 B(  3-O , 27-H ) :   0.1073 B(  4-C ,  5-H ) :   0.9157
B(  4-C ,  6-H ) :   0.9086 B(  4-C ,  7-H ) :   0.9137 B(  8-N ,  9-C ) :   0.9114
B(  8-N , 13-C ) :   0.9176 B(  8-N , 28-C ) :   0.8774 B(  9-C , 10-H ) :   0.8669
B(  9-C , 11-H ) :   0.9014 B(  9-C , 12-H ) :   0.9071 B( 13-C , 14-H ) :   0.8919
B( 13-C , 15-H ) :   0.9012 B( 13-C , 16-H ) :   0.8955 B( 17-C , 18-C ) :   1.4315
B( 17-C , 22-C ) :   1.2475 B( 17-C , 28-C ) :   0.9385 B( 18-C , 19-C ) :   1.4196
B( 18-C , 25-H ) :   0.9143 B( 19-C , 20-C ) :   1.4270 B( 19-C , 26-H ) :   0.9085
B( 20-C , 21-C ) :   1.4236 B( 20-C , 23-H ) :   0.9117 B( 21-C , 22-C ) :   1.3791
B( 21-C , 24-H ) :   0.9113 B( 22-C , 27-H ) :   0.6624 B( 28-C , 29-H ) :   0.8968
B( 28-C , 30-H ) :   0.9100 B( 31-O , 32-C ) :   1.2999 B( 31-O , 33-O ) :   0.1022
B( 32-C , 33-O ) :   1.8896 B( 32-C , 34-C ) :   0.9212 B( 34-C , 35-H ) :   0.9203
B( 34-C , 36-H ) :   0.9159 B( 34-C , 37-H ) :   0.9173

Dispersion correction           -0.026818128
FINAL SINGLE POINT ENERGY      -988.452691603504
Dispersion correction            ... done

DIPOLE MOMENT
-------------
                                X             Y             Z
Electronic contribution:     10.52223      11.18532      -5.44459
Nuclear contribution   :    -12.65315     -11.90546       6.64039
                        -----------------------------------------
Total Dipole Moment    :     -2.13091      -0.72014       1.19579
                        -----------------------------------------
Magnitude (a.u.)       :      2.54741
Magnitude (Debye)      :      6.47501

Rotational constants in cm-1:     0.013254     0.009317     0.006879
Rotational constants in MHz :   397.354540   279.310113   206.221938

                             ****ORCA TERMINATED NORMALLY****
TOTAL RUN TIME: 0 days 0 hours 8 minutes 46 seconds 856 msec
