                         Program Version 5.0.3 -  RELEASE  -
|  1> ! EnGrad PBEh-3c
|  2> %output
|  3> xyzfile=True
|  4> end
|  5> %scf
|  6> maxiter 250
|  7> end
|  8> %output
|  9> Print[P_Hirshfeld] = 1
| 10> end
| 11> % maxcore
| 12> 4000
| 13> *xyz 0 1
| 14> Pd   0.31409201   0.25625733  -0.14425291
| 15> O    1.64149455   1.41917320   0.70672611
| 16> C    1.38879411   2.68616690   0.51826176
| 17> O    0.28959930   3.12342038   0.26780029
| 18> C    2.61125356   3.58543654   0.65614507
| 19> H    2.32446109   4.55409996   1.07746152
| 20> H    3.04148623   3.77065081  -0.33778341
| 21> H    3.39989077   3.13956220   1.26980104
| 22> N   -1.37704979  -0.73692883  -1.02960223
| 23> C   -1.12568209  -1.94225111  -1.83597876
| 24> H   -0.46494204  -1.71956184  -2.66585787
| 25> H   -2.07869870  -2.33920162  -2.21637942
| 26> H   -0.64892153  -2.69876763  -1.21638921
| 27> C   -2.01197168   0.27478302  -1.87723833
| 28> H   -2.16480878   1.18358537  -1.29858261
| 29> H   -2.98362111  -0.09331117  -2.23249790
| 30> H   -1.36571025   0.49271550  -2.72562484
| 31> C   -1.60524443  -0.89938697   1.38632192
| 32> C   -1.62342741  -2.01425951   2.25319406
| 33> C   -1.30998326  -1.89170812   3.59746014
| 34> C   -0.98593232  -0.62209639   4.04016825
| 35> C   -0.86015501   0.47589373   3.16119693
| 36> C   -1.10228925   0.42325618   1.76223461
| 37> H   -0.85550629  -0.50984913   5.11238142
| 38> H   -0.60712715   1.41007487   3.63293429
| 39> H   -1.97456308  -2.98217936   1.88840047
| 40> H   -1.33676709  -2.74539424   4.27598656
| 41> H   -0.79423298   1.33578709   1.05759775
| 42> C   -2.29101984  -1.09675481   0.07184791
| 43> H   -3.16686996  -0.44445106   0.06538256
| 44> H   -2.66946447  -2.11864405  -0.07625180
| 45> O    1.69326414   0.23097599  -1.60043312
| 46> C    2.18497739  -0.70286640  -2.35535685
| 47> O    1.67811435  -1.78999592  -2.54266521
| 48> C    3.48301194  -0.32285726  -3.02971047
| 49> H    3.87388576  -1.22459470  -3.47523462
| 50> H    4.20185963   0.09346343  -2.32725449
| 51> H    3.29930729   0.39000572  -3.82685986
| 52> *
| 53>
| 54>                          ****END OF INPUT****

CARTESIAN COORDINATES (ANGSTROEM)
---------------------------------
  Pd     0.314092    0.256257   -0.144253
  O      1.641495    1.419173    0.706726
  C      1.388794    2.686167    0.518262
  O      0.289599    3.123420    0.267800
  C      2.611254    3.585437    0.656145
  H      2.324461    4.554100    1.077462
  H      3.041486    3.770651   -0.337783
  H      3.399891    3.139562    1.269801
  N     -1.377050   -0.736929   -1.029602
  C     -1.125682   -1.942251   -1.835979
  H     -0.464942   -1.719562   -2.665858
  H     -2.078699   -2.339202   -2.216379
  H     -0.648922   -2.698768   -1.216389
  C     -2.011972    0.274783   -1.877238
  H     -2.164809    1.183585   -1.298583
  H     -2.983621   -0.093311   -2.232498
  H     -1.365710    0.492715   -2.725625
  C     -1.605244   -0.899387    1.386322
  C     -1.623427   -2.014260    2.253194
  C     -1.309983   -1.891708    3.597460
  C     -0.985932   -0.622096    4.040168
  C     -0.860155    0.475894    3.161197
  C     -1.102289    0.423256    1.762235
  H     -0.855506   -0.509849    5.112381
  H     -0.607127    1.410075    3.632934
  H     -1.974563   -2.982179    1.888400
  H     -1.336767   -2.745394    4.275987
  H     -0.794233    1.335787    1.057598
  C     -2.291020   -1.096755    0.071848
  H     -3.166870   -0.444451    0.065383
  H     -2.669464   -2.118644   -0.076252
  O      1.693264    0.230976   -1.600433
  C      2.184977   -0.702866   -2.355357
  O      1.678114   -1.789996   -2.542665
  C      3.483012   -0.322857   -3.029710
  H      3.873886   -1.224595   -3.475235
  H      4.201860    0.093463   -2.327254
  H      3.299307    0.390006   -3.826860

 Total Charge           Charge          ....    0
 Multiplicity           Mult            ....    1
 Number of Electrons    NEL             ....  154
 Basis Dimension        Dim             ....  339

ORBITAL ENERGIES
----------------

  NO   OCC          E(Eh)            E(eV)
   0   2.0000     -19.481614      -530.1217
   1   2.0000     -19.468656      -529.7691
   2   2.0000     -19.449563      -529.2495
   3   2.0000     -19.427053      -528.6370
   4   2.0000     -14.722411      -400.6172
   5   2.0000     -10.543751      -286.9101
   6   2.0000     -10.528997      -286.5086
   7   2.0000     -10.508348      -285.9467
   8   2.0000     -10.507484      -285.9232
   9   2.0000     -10.506974      -285.9093
  10   2.0000     -10.488469      -285.4057
  11   2.0000     -10.486495      -285.3520
  12   2.0000     -10.481497      -285.2160
  13   2.0000     -10.480429      -285.1870
  14   2.0000     -10.475631      -285.0564
  15   2.0000     -10.469955      -284.9020
  16   2.0000     -10.422066      -283.5988
  17   2.0000     -10.409524      -283.2576
  18   2.0000      -3.676339      -100.0383
  19   2.0000      -2.325368       -63.2765
  20   2.0000      -2.319035       -63.1041
  21   2.0000      -2.287116       -62.2356
  22   2.0000      -1.165605       -31.7177
  23   2.0000      -1.144080       -31.1320
  24   2.0000      -1.087669       -29.5970
  25   2.0000      -1.065316       -28.9887
  26   2.0000      -1.048353       -28.5271
  27   2.0000      -0.983505       -26.7625
  28   2.0000      -0.895378       -24.3645
  29   2.0000      -0.869028       -23.6474
  30   2.0000      -0.823624       -22.4120
  31   2.0000      -0.807076       -21.9617
  32   2.0000      -0.800142       -21.7730
  33   2.0000      -0.795196       -21.6384
  34   2.0000      -0.727616       -19.7994
  35   2.0000      -0.709753       -19.3134
  36   2.0000      -0.686453       -18.6793
  37   2.0000      -0.619433       -16.8556
  38   2.0000      -0.598172       -16.2771
  39   2.0000      -0.591113       -16.0850
  40   2.0000      -0.585211       -15.9244
  41   2.0000      -0.576881       -15.6977
  42   2.0000      -0.570316       -15.5191
  43   2.0000      -0.550824       -14.9887
  44   2.0000      -0.536370       -14.5954
  45   2.0000      -0.525616       -14.3027
  46   2.0000      -0.516772       -14.0621
  47   2.0000      -0.512273       -13.9397
  48   2.0000      -0.507520       -13.8103
  49   2.0000      -0.496807       -13.5188
  50   2.0000      -0.492931       -13.4133
  51   2.0000      -0.490469       -13.3463
  52   2.0000      -0.488349       -13.2886
  53   2.0000      -0.484243       -13.1769
  54   2.0000      -0.467772       -12.7287
  55   2.0000      -0.459377       -12.5003
  56   2.0000      -0.443552       -12.0697
  57   2.0000      -0.438214       -11.9244
  58   2.0000      -0.436572       -11.8797
  59   2.0000      -0.435090       -11.8394
  60   2.0000      -0.430165       -11.7054
  61   2.0000      -0.423019       -11.5109
  62   2.0000      -0.417315       -11.3557
  63   2.0000      -0.412590       -11.2271
  64   2.0000      -0.400504       -10.8983
  65   2.0000      -0.387828       -10.5533
  66   2.0000      -0.365599        -9.9485
  67   2.0000      -0.361441        -9.8353
  68   2.0000      -0.355248        -9.6668
  69   2.0000      -0.330522        -8.9940
  70   2.0000      -0.325200        -8.8492
  71   2.0000      -0.313322        -8.5259
  72   2.0000      -0.311387        -8.4733
  73   2.0000      -0.304504        -8.2860
  74   2.0000      -0.294043        -8.0013
  75   2.0000      -0.290050        -7.8927
  76   2.0000      -0.279851        -7.6151
  77   0.0000      -0.081450        -2.2164
  78   0.0000      -0.023968        -0.6522
  79   0.0000      -0.006691        -0.1821
  80   0.0000       0.057163         1.5555
  81   0.0000       0.065505         1.7825

MULLIKEN ATOMIC CHARGES
-----------------------
   0 Pd:    0.497063
   1 O :   -0.523189
   2 C :    0.578497
   3 O :   -0.451285
   4 C :   -0.745038
   5 H :    0.235032
   6 H :    0.249597
   7 H :    0.243087
   8 N :   -0.478800
   9 C :   -0.528924
  10 H :    0.307550
  11 H :    0.204468
  12 H :    0.266495
  13 C :   -0.540393
  14 H :    0.278828
  15 H :    0.232557
  16 H :    0.282989
  17 C :    0.047589
  18 C :   -0.246503
  19 C :   -0.205519
  20 C :   -0.214291
  21 C :   -0.203564
  22 C :   -0.304460
  23 H :    0.236788
  24 H :    0.247777
  25 H :    0.227825
  26 H :    0.243131
  27 H :    0.340993
  28 C :   -0.333875
  29 H :    0.267815
  30 H :    0.256795
  31 O :   -0.522537
  32 C :    0.544823
  33 O :   -0.467605
  34 C :   -0.741299
  35 H :    0.239233
  36 H :    0.242927
  37 H :    0.235421
Sum of atomic charges:   -0.0000000

LOEWDIN ATOMIC CHARGES
----------------------
   0 Pd:   -0.325800
   1 O :   -0.169355
   2 C :    0.141665
   3 O :   -0.251001
   4 C :   -0.380742
   5 H :    0.142264
   6 H :    0.156580
   7 H :    0.144758
   8 N :   -0.059909
   9 C :   -0.240185
  10 H :    0.168499
  11 H :    0.110618
  12 H :    0.150982
  13 C :   -0.231148
  14 H :    0.155102
  15 H :    0.125235
  16 H :    0.158941
  17 C :   -0.007418
  18 C :   -0.130168
  19 C :   -0.103067
  20 C :   -0.131410
  21 C :   -0.077098
  22 C :   -0.098500
  23 H :    0.145021
  24 H :    0.153251
  25 H :    0.144678
  26 H :    0.147258
  27 H :    0.257281
  28 C :   -0.107402
  29 H :    0.153400
  30 H :    0.145055
  31 O :   -0.178816
  32 C :    0.119350
  33 O :   -0.281060
  34 C :   -0.383596
  35 H :    0.142475
  36 H :    0.147408
  37 H :    0.146853

  Mayer bond orders larger than 0.100000
B(  0-Pd,  1-O ) :   0.6677 B(  0-Pd,  8-N ) :   0.4159 B(  0-Pd, 22-C ) :   0.2449
B(  0-Pd, 31-O ) :   0.6523 B(  1-O ,  2-C ) :   1.2443 B(  2-C ,  3-O ) :   1.8460
B(  2-C ,  4-C ) :   0.9304 B(  4-C ,  5-H ) :   0.9174 B(  4-C ,  6-H ) :   0.9099
B(  4-C ,  7-H ) :   0.9137 B(  8-N ,  9-C ) :   0.9108 B(  8-N , 13-C ) :   0.9168
B(  8-N , 28-C ) :   0.8792 B(  9-C , 10-H ) :   0.8686 B(  9-C , 11-H ) :   0.9018
B(  9-C , 12-H ) :   0.9067 B( 13-C , 14-H ) :   0.8924 B( 13-C , 15-H ) :   0.9012
B( 13-C , 16-H ) :   0.8961 B( 17-C , 18-C ) :   1.4237 B( 17-C , 22-C ) :   1.2354
B( 17-C , 28-C ) :   0.9382 B( 18-C , 19-C ) :   1.4174 B( 18-C , 25-H ) :   0.9161
B( 19-C , 20-C ) :   1.4231 B( 19-C , 26-H ) :   0.9084 B( 20-C , 21-C ) :   1.4214
B( 20-C , 23-H ) :   0.9128 B( 21-C , 22-C ) :   1.3873 B( 21-C , 24-H ) :   0.9114
B( 22-C , 27-H ) :   0.7059 B( 28-C , 29-H ) :   0.8959 B( 28-C , 30-H ) :   0.9096
B( 31-O , 32-C ) :   1.2730 B( 32-C , 33-O ) :   1.8996 B( 32-C , 34-C ) :   0.9281
B( 34-C , 35-H ) :   0.9187 B( 34-C , 36-H ) :   0.9139 B( 34-C , 37-H ) :   0.9154

Dispersion correction           -0.026509418
FINAL SINGLE POINT ENERGY      -988.483140950011
Dispersion correction            ... done

DIPOLE MOMENT
-------------
                                X             Y             Z
Electronic contribution:     11.64152      11.24793      -6.85567
Nuclear contribution   :    -13.74502     -12.11537       7.88584
                        -----------------------------------------
Total Dipole Moment    :     -2.10350      -0.86744       1.03018
                        -----------------------------------------
Magnitude (a.u.)       :      2.49768
Magnitude (Debye)      :      6.34860

Rotational constants in cm-1:     0.013312     0.009403     0.006912
Rotational constants in MHz :   399.075053   281.898592   207.230865

                             ****ORCA TERMINATED NORMALLY****
TOTAL RUN TIME: 0 days 0 hours 8 minutes 37 seconds 696 msec
