                         Program Version 5.0.3 -  RELEASE  -
|  1> ! EnGrad PBEh-3c
|  2> %output
|  3> xyzfile=True
|  4> end
|  5> %scf
|  6> maxiter 250
|  7> end
|  8> %output
|  9> Print[P_Hirshfeld] = 1
| 10> end
| 11> % maxcore
| 12> 4000
| 13> *xyz 0 1
| 14> Pd   0.40017357   0.16313787  -0.19576286
| 15> O    1.96919085   1.34083571   0.63295259
| 16> C    1.76759813   2.59921576   0.35674077
| 17> O    0.72125174   2.97659224  -0.15189247
| 18> C    2.88094483   3.58280044   0.64705997
| 19> H    2.48798663   4.50384173   1.08689943
| 20> H    3.34505747   3.86702328  -0.29799970
| 21> H    3.64233559   3.17286453   1.29140418
| 22> N   -1.31534992  -0.85476422  -0.95141767
| 23> C   -1.03313152  -2.16816115  -1.54715099
| 24> H   -0.31876095  -2.11187161  -2.34866324
| 25> H   -1.91592026  -2.61778571  -2.02414814
| 26> H   -0.63069183  -2.83920238  -0.80139744
| 27> C   -1.90109837  -0.03149426  -2.01652142
| 28> H   -2.01370664   0.98988260  -1.68776667
| 29> H   -2.87488105  -0.42531017  -2.32409304
| 30> H   -1.28019396  -0.03419514  -2.90728672
| 31> C   -1.70278566  -1.15466261   1.47283055
| 32> C   -2.04455348  -2.13332002   2.42237712
| 33> C   -1.70216248  -1.98991978   3.75516016
| 34> C   -1.00279735  -0.87829949   4.17071830
| 35> C   -0.81670031   0.17656735   3.27419446
| 36> C   -1.15600670   0.02554479   1.93961774
| 37> H   -0.76309680  -0.74734077   5.21938403
| 38> H   -0.54430537   1.11146537   3.72572284
| 39> H   -2.73272070  -2.92667054   2.17951538
| 40> H   -2.05388111  -2.70711429   4.48724667
| 41> H   -1.26360277   3.78758503   0.98167452
| 42> C   -2.33712701  -1.07183739   0.12745954
| 43> H   -3.06882537  -0.25470536   0.12828487
| 44> H   -2.96838724  -1.95181991  -0.03662794
| 45> O    1.51282871   0.50182241  -1.90931813
| 46> C    2.25132609  -0.44679988  -2.39105084
| 47> O    2.18259980  -1.57535156  -1.98907120
| 48> C    3.33560674  -0.03941109  -3.40132001
| 49> H    3.71033775  -0.90158314  -3.94585399
| 50> H    4.18313942   0.35875557  -2.83637251
| 51> H    3.05056576   0.70408174  -4.13672903
| 52> *
| 53>
| 54>                          ****END OF INPUT****

CARTESIAN COORDINATES (ANGSTROEM)
---------------------------------
  Pd     0.400174    0.163138   -0.195763
  O      1.969191    1.340836    0.632953
  C      1.767598    2.599216    0.356741
  O      0.721252    2.976592   -0.151892
  C      2.880945    3.582800    0.647060
  H      2.487987    4.503842    1.086899
  H      3.345057    3.867023   -0.298000
  H      3.642336    3.172865    1.291404
  N     -1.315350   -0.854764   -0.951418
  C     -1.033132   -2.168161   -1.547151
  H     -0.318761   -2.111872   -2.348663
  H     -1.915920   -2.617786   -2.024148
  H     -0.630692   -2.839202   -0.801397
  C     -1.901098   -0.031494   -2.016521
  H     -2.013707    0.989883   -1.687767
  H     -2.874881   -0.425310   -2.324093
  H     -1.280194   -0.034195   -2.907287
  C     -1.702786   -1.154663    1.472831
  C     -2.044553   -2.133320    2.422377
  C     -1.702162   -1.989920    3.755160
  C     -1.002797   -0.878299    4.170718
  C     -0.816700    0.176567    3.274194
  C     -1.156007    0.025545    1.939618
  H     -0.763097   -0.747341    5.219384
  H     -0.544305    1.111465    3.725723
  H     -2.732721   -2.926671    2.179515
  H     -2.053881   -2.707114    4.487247
  H     -1.263603    3.787585    0.981675
  C     -2.337127   -1.071837    0.127460
  H     -3.068825   -0.254705    0.128285
  H     -2.968387   -1.951820   -0.036628
  O      1.512829    0.501822   -1.909318
  C      2.251326   -0.446800   -2.391051
  O      2.182600   -1.575352   -1.989071
  C      3.335607   -0.039411   -3.401320
  H      3.710338   -0.901583   -3.945854
  H      4.183139    0.358756   -2.836373
  H      3.050566    0.704082   -4.136729

 Total Charge           Charge          ....    0
 Multiplicity           Mult            ....    1
 Number of Electrons    NEL             ....  154
 Basis Dimension        Dim             ....  339

ORBITAL ENERGIES
----------------

  NO   OCC          E(Eh)            E(eV)
   0   2.0000     -19.486833      -530.2637
   1   2.0000     -19.462406      -529.5990
   2   2.0000     -19.461091      -529.5632
   3   2.0000     -19.420650      -528.4627
   4   2.0000     -14.728472      -400.7821
   5   2.0000     -10.545196      -286.9494
   6   2.0000     -10.521598      -286.3072
   7   2.0000     -10.506923      -285.9079
   8   2.0000     -10.493219      -285.5350
   9   2.0000     -10.485894      -285.3357
  10   2.0000     -10.482024      -285.2304
  11   2.0000     -10.474068      -285.0139
  12   2.0000     -10.473186      -284.9899
  13   2.0000     -10.470491      -284.9165
  14   2.0000     -10.469566      -284.8914
  15   2.0000     -10.467346      -284.8310
  16   2.0000     -10.424011      -283.6518
  17   2.0000     -10.411990      -283.3246
  18   2.0000      -3.660649       -99.6113
  19   2.0000      -2.309116       -62.8342
  20   2.0000      -2.300430       -62.5979
  21   2.0000      -2.271776       -61.8182
  22   2.0000      -1.161917       -31.6174
  23   2.0000      -1.144810       -31.1519
  24   2.0000      -1.081586       -29.4315
  25   2.0000      -1.057013       -28.7628
  26   2.0000      -1.040086       -28.3022
  27   2.0000      -0.983234       -26.7552
  28   2.0000      -0.893757       -24.3204
  29   2.0000      -0.852463       -23.1967
  30   2.0000      -0.819702       -22.3052
  31   2.0000      -0.807316       -21.9682
  32   2.0000      -0.805095       -21.9078
  33   2.0000      -0.787571       -21.4309
  34   2.0000      -0.724583       -19.7169
  35   2.0000      -0.701699       -19.0942
  36   2.0000      -0.671897       -18.2833
  37   2.0000      -0.604153       -16.4398
  38   2.0000      -0.589381       -16.0379
  39   2.0000      -0.577961       -15.7271
  40   2.0000      -0.576494       -15.6872
  41   2.0000      -0.573335       -15.6012
  42   2.0000      -0.559072       -15.2131
  43   2.0000      -0.538537       -14.6543
  44   2.0000      -0.521060       -14.1788
  45   2.0000      -0.515497       -14.0274
  46   2.0000      -0.508583       -13.8392
  47   2.0000      -0.503983       -13.7141
  48   2.0000      -0.496225       -13.5030
  49   2.0000      -0.493520       -13.4294
  50   2.0000      -0.484126       -13.1737
  51   2.0000      -0.482117       -13.1191
  52   2.0000      -0.479095       -13.0368
  53   2.0000      -0.470438       -12.8013
  54   2.0000      -0.456963       -12.4346
  55   2.0000      -0.444615       -12.0986
  56   2.0000      -0.442298       -12.0355
  57   2.0000      -0.441563       -12.0155
  58   2.0000      -0.427991       -11.6462
  59   2.0000      -0.427687       -11.6380
  60   2.0000      -0.419789       -11.4230
  61   2.0000      -0.418790       -11.3958
  62   2.0000      -0.407028       -11.0758
  63   2.0000      -0.402356       -10.9487
  64   2.0000      -0.369582       -10.0568
  65   2.0000      -0.361023        -9.8239
  66   2.0000      -0.353511        -9.6195
  67   2.0000      -0.338205        -9.2030
  68   2.0000      -0.328243        -8.9319
  69   2.0000      -0.317340        -8.6353
  70   2.0000      -0.314972        -8.5708
  71   2.0000      -0.309765        -8.4291
  72   2.0000      -0.307229        -8.3601
  73   2.0000      -0.294019        -8.0007
  74   2.0000      -0.284114        -7.7311
  75   2.0000      -0.269413        -7.3311
  76   2.0000      -0.256849        -6.9892
  77   0.0000      -0.182529        -4.9669
  78   0.0000      -0.077400        -2.1062
  79   0.0000      -0.014524        -0.3952
  80   0.0000       0.004115         0.1120
  81   0.0000       0.066367         1.8059

MULLIKEN ATOMIC CHARGES
-----------------------
   0 Pd:    0.417160
   1 O :   -0.484309
   2 C :    0.595718
   3 O :   -0.422234
   4 C :   -0.747794
   5 H :    0.235044
   6 H :    0.253248
   7 H :    0.245599
   8 N :   -0.482435
   9 C :   -0.537613
  10 H :    0.301266
  11 H :    0.215430
  12 H :    0.273035
  13 C :   -0.538507
  14 H :    0.288771
  15 H :    0.227456
  16 H :    0.281966
  17 C :    0.041098
  18 C :   -0.255620
  19 C :   -0.218900
  20 C :   -0.206193
  21 C :   -0.275699
  22 C :   -0.024873
  23 H :    0.236348
  24 H :    0.246967
  25 H :    0.222442
  26 H :    0.235560
  27 H :    0.145005
  28 C :   -0.332639
  29 H :    0.278011
  30 H :    0.245574
  31 O :   -0.515609
  32 C :    0.536231
  33 O :   -0.446262
  34 C :   -0.744917
  35 H :    0.236958
  36 H :    0.243527
  37 H :    0.231191
Sum of atomic charges:   -0.0000000

LOEWDIN ATOMIC CHARGES
----------------------
   0 Pd:   -0.310087
   1 O :   -0.160376
   2 C :    0.147035
   3 O :   -0.208293
   4 C :   -0.382528
   5 H :    0.145043
   6 H :    0.157923
   7 H :    0.143330
   8 N :   -0.043919
   9 C :   -0.238207
  10 H :    0.161929
  11 H :    0.117597
  12 H :    0.153299
  13 C :   -0.233722
  14 H :    0.158131
  15 H :    0.122635
  16 H :    0.157759
  17 C :   -0.059528
  18 C :   -0.123830
  19 C :   -0.124536
  20 C :   -0.118261
  21 C :   -0.113248
  22 C :    0.014205
  23 H :    0.143881
  24 H :    0.152761
  25 H :    0.141105
  26 H :    0.143588
  27 H :    0.153781
  28 C :   -0.102815
  29 H :    0.157091
  30 H :    0.136738
  31 O :   -0.189295
  32 C :    0.110514
  33 O :   -0.251689
  34 C :   -0.387127
  35 H :    0.139973
  36 H :    0.152380
  37 H :    0.136767

  Mayer bond orders larger than 0.100000
B(  0-Pd,  1-O ) :   0.5953 B(  0-Pd,  3-O ) :   0.1219 B(  0-Pd,  8-N ) :   0.4240
B(  0-Pd, 22-C ) :   0.4006 B(  0-Pd, 27-H ) :   0.1889 B(  0-Pd, 31-O ) :   0.6353
B(  1-O ,  2-C ) :   1.3297 B(  2-C ,  3-O ) :   1.7256 B(  2-C ,  4-C ) :   0.9398
B(  3-O , 27-H ) :   0.1617 B(  4-C ,  5-H ) :   0.9173 B(  4-C ,  6-H ) :   0.9086
B(  4-C ,  7-H ) :   0.9118 B(  8-N ,  9-C ) :   0.9189 B(  8-N , 13-C ) :   0.9161
B(  8-N , 28-C ) :   0.8808 B(  9-C , 10-H ) :   0.8833 B(  9-C , 11-H ) :   0.9026
B(  9-C , 12-H ) :   0.9036 B( 13-C , 14-H ) :   0.8935 B( 13-C , 15-H ) :   0.9018
B( 13-C , 16-H ) :   0.8950 B( 17-C , 18-C ) :   1.3914 B( 17-C , 22-C ) :   1.3457
B( 17-C , 28-C ) :   0.9532 B( 18-C , 19-C ) :   1.4476 B( 18-C , 25-H ) :   0.9120
B( 19-C , 20-C ) :   1.4227 B( 19-C , 26-H ) :   0.9108 B( 20-C , 21-C ) :   1.4104
B( 20-C , 23-H ) :   0.9082 B( 21-C , 22-C ) :   1.4158 B( 21-C , 24-H ) :   0.9056
B( 22-C , 27-H ) :   0.4151 B( 28-C , 29-H ) :   0.8955 B( 28-C , 30-H ) :   0.9056
B( 31-O , 32-C ) :   1.2806 B( 32-C , 33-O ) :   1.8811 B( 32-C , 34-C ) :   0.9237
B( 34-C , 35-H ) :   0.9183 B( 34-C , 36-H ) :   0.9133 B( 34-C , 37-H ) :   0.9153

Dispersion correction           -0.025820511
FINAL SINGLE POINT ENERGY      -988.232350755844
Dispersion correction            ... done

DIPOLE MOMENT
-------------
                                X             Y             Z
Electronic contribution:     14.66054       7.52313      -9.81059
Nuclear contribution   :    -17.21722      -7.73397      10.67853
                        -----------------------------------------
Total Dipole Moment    :     -2.55668      -0.21084       0.86795
                        -----------------------------------------
Magnitude (a.u.)       :      2.70821
Magnitude (Debye)      :      6.88372

Rotational constants in cm-1:     0.014134     0.008357     0.006369
Rotational constants in MHz :   423.728418   250.527102   190.938031

                             ****ORCA TERMINATED NORMALLY****
TOTAL RUN TIME: 0 days 0 hours 23 minutes 11 seconds 448 msec
