                         Program Version 5.0.3 -  RELEASE  -
|  1> ! EnGrad PBEh-3c
|  2> %output
|  3> xyzfile=True
|  4> end
|  5> %scf
|  6> maxiter 250
|  7> end
|  8> %output
|  9> Print[P_Hirshfeld] = 1
| 10> end
| 11> % maxcore
| 12> 4000
| 13> *xyz 0 1
| 14> Pd   0.34141939   0.25373464  -0.17821985
| 15> O    1.65137129   1.41603062   0.70842362
| 16> C    1.39214646   2.68068103   0.53272215
| 17> O    0.28569238   3.12317216   0.29443517
| 18> C    2.60810148   3.58901924   0.65383089
| 19> H    2.33101626   4.55460890   1.07996774
| 20> H    3.04321943   3.76346131  -0.33740410
| 21> H    3.39129770   3.13929550   1.25882678
| 22> N   -1.35910039  -0.72926833  -1.03502762
| 23> C   -1.11590259  -1.95003059  -1.82521575
| 24> H   -0.45579764  -1.73515500  -2.65404390
| 25> H   -2.06573607  -2.34563393  -2.21828955
| 26> H   -0.63827440  -2.71687493  -1.21385700
| 27> C   -2.01103196   0.27682494  -1.88508356
| 28> H   -2.17414360   1.18907863  -1.30770802
| 29> H   -2.98190520  -0.09313748  -2.24779068
| 30> H   -1.36713305   0.48417461  -2.73479495
| 31> C   -1.60507759  -0.88396176   1.38804726
| 32> C   -1.65031021  -1.99301976   2.24909954
| 33> C   -1.34480745  -1.87574517   3.59080814
| 34> C   -0.99312095  -0.60518652   4.03191913
| 35> C   -0.82878459   0.48516604   3.15772855
| 36> C   -1.06800500   0.37091089   1.78076614
| 37> H   -0.84065051  -0.48512515   5.09819938
| 38> H   -0.57190631   1.42810507   3.61848558
| 39> H   -1.97813090  -2.96109346   1.87530870
| 40> H   -1.33423500  -2.73747267   4.25867336
| 41> H   -0.86227071   1.19803371   1.12516167
| 42> C   -2.28114588  -1.07645988   0.07012212
| 43> H   -3.17370925  -0.44229863   0.04015611
| 44> H   -2.66278087  -2.09993709  -0.06705024
| 45> O    1.67142598   0.24928362  -1.62213399
| 46> C    2.17265496  -0.69055925  -2.33476834
| 47> O    1.66785996  -1.80746286  -2.48906325
| 48> C    3.46983014  -0.31629837  -3.03098339
| 49> H    3.86290093  -1.20989556  -3.47518859
| 50> H    4.20257104   0.10333733  -2.35231207
| 51> H    3.29423274   0.39905887  -3.82046042
| 52> *
| 53>
| 54>                          ****END OF INPUT****

CARTESIAN COORDINATES (ANGSTROEM)
---------------------------------
  Pd     0.341419    0.253735   -0.178220
  O      1.651371    1.416031    0.708424
  C      1.392146    2.680681    0.532722
  O      0.285692    3.123172    0.294435
  C      2.608101    3.589019    0.653831
  H      2.331016    4.554609    1.079968
  H      3.043219    3.763461   -0.337404
  H      3.391298    3.139295    1.258827
  N     -1.359100   -0.729268   -1.035028
  C     -1.115903   -1.950031   -1.825216
  H     -0.455798   -1.735155   -2.654044
  H     -2.065736   -2.345634   -2.218290
  H     -0.638274   -2.716875   -1.213857
  C     -2.011032    0.276825   -1.885084
  H     -2.174144    1.189079   -1.307708
  H     -2.981905   -0.093137   -2.247791
  H     -1.367133    0.484175   -2.734795
  C     -1.605078   -0.883962    1.388047
  C     -1.650310   -1.993020    2.249100
  C     -1.344807   -1.875745    3.590808
  C     -0.993121   -0.605187    4.031919
  C     -0.828785    0.485166    3.157729
  C     -1.068005    0.370911    1.780766
  H     -0.840651   -0.485125    5.098199
  H     -0.571906    1.428105    3.618486
  H     -1.978131   -2.961093    1.875309
  H     -1.334235   -2.737473    4.258673
  H     -0.862271    1.198034    1.125162
  C     -2.281146   -1.076460    0.070122
  H     -3.173709   -0.442299    0.040156
  H     -2.662781   -2.099937   -0.067050
  O      1.671426    0.249284   -1.622134
  C      2.172655   -0.690559   -2.334768
  O      1.667860   -1.807463   -2.489063
  C      3.469830   -0.316298   -3.030983
  H      3.862901   -1.209896   -3.475189
  H      4.202571    0.103337   -2.352312
  H      3.294233    0.399059   -3.820460

 Total Charge           Charge          ....    0
 Multiplicity           Mult            ....    1
 Number of Electrons    NEL             ....  154
 Basis Dimension        Dim             ....  339

ORBITAL ENERGIES
----------------

  NO   OCC          E(Eh)            E(eV)
   0   2.0000     -19.479920      -530.0756
   1   2.0000     -19.477386      -530.0066
   2   2.0000     -19.444874      -529.1219
   3   2.0000     -19.426936      -528.6338
   4   2.0000     -14.724067      -400.6622
   5   2.0000     -10.541168      -286.8398
   6   2.0000     -10.533804      -286.6394
   7   2.0000     -10.509700      -285.9835
   8   2.0000     -10.501046      -285.7480
   9   2.0000     -10.491520      -285.4888
  10   2.0000     -10.490023      -285.4480
  11   2.0000     -10.483642      -285.2744
  12   2.0000     -10.480538      -285.1899
  13   2.0000     -10.477789      -285.1151
  14   2.0000     -10.474768      -285.0329
  15   2.0000     -10.469987      -284.9028
  16   2.0000     -10.418656      -283.5060
  17   2.0000     -10.410632      -283.2877
  18   2.0000      -3.676335      -100.0382
  19   2.0000      -2.325162       -63.2709
  20   2.0000      -2.320131       -63.1340
  21   2.0000      -2.286592       -62.2213
  22   2.0000      -1.160512       -31.5791
  23   2.0000      -1.147909       -31.2362
  24   2.0000      -1.086512       -29.5655
  25   2.0000      -1.061737       -28.8913
  26   2.0000      -1.049353       -28.5543
  27   2.0000      -0.989373       -26.9222
  28   2.0000      -0.896553       -24.3964
  29   2.0000      -0.874417       -23.7941
  30   2.0000      -0.823341       -22.4042
  31   2.0000      -0.808398       -21.9976
  32   2.0000      -0.799015       -21.7423
  33   2.0000      -0.797394       -21.6982
  34   2.0000      -0.731934       -19.9169
  35   2.0000      -0.712327       -19.3834
  36   2.0000      -0.690623       -18.7928
  37   2.0000      -0.625292       -17.0151
  38   2.0000      -0.602995       -16.4083
  39   2.0000      -0.595672       -16.2090
  40   2.0000      -0.585823       -15.9411
  41   2.0000      -0.576807       -15.6957
  42   2.0000      -0.571735       -15.5577
  43   2.0000      -0.552270       -15.0280
  44   2.0000      -0.537482       -14.6256
  45   2.0000      -0.525016       -14.2864
  46   2.0000      -0.519370       -14.1328
  47   2.0000      -0.512482       -13.9454
  48   2.0000      -0.504739       -13.7346
  49   2.0000      -0.497388       -13.5346
  50   2.0000      -0.495186       -13.4747
  51   2.0000      -0.492853       -13.4112
  52   2.0000      -0.489580       -13.3221
  53   2.0000      -0.486476       -13.2377
  54   2.0000      -0.466976       -12.7071
  55   2.0000      -0.461001       -12.5445
  56   2.0000      -0.444678       -12.1003
  57   2.0000      -0.437207       -11.8970
  58   2.0000      -0.436698       -11.8831
  59   2.0000      -0.434959       -11.8358
  60   2.0000      -0.432163       -11.7598
  61   2.0000      -0.425558       -11.5800
  62   2.0000      -0.418707       -11.3936
  63   2.0000      -0.415413       -11.3039
  64   2.0000      -0.400710       -10.9039
  65   2.0000      -0.389159       -10.5896
  66   2.0000      -0.366109        -9.9623
  67   2.0000      -0.361752        -9.8438
  68   2.0000      -0.355436        -9.6719
  69   2.0000      -0.330193        -8.9850
  70   2.0000      -0.327194        -8.9034
  71   2.0000      -0.313257        -8.5242
  72   2.0000      -0.309755        -8.4289
  73   2.0000      -0.304130        -8.2758
  74   2.0000      -0.295219        -8.0333
  75   2.0000      -0.288422        -7.8484
  76   2.0000      -0.280657        -7.6371
  77   0.0000      -0.080166        -2.1814
  78   0.0000      -0.020556        -0.5594
  79   0.0000      -0.006480        -0.1763
  80   0.0000       0.057024         1.5517
  81   0.0000       0.064969         1.7679

MULLIKEN ATOMIC CHARGES
-----------------------
   0 Pd:    0.521636
   1 O :   -0.527662
   2 C :    0.574716
   3 O :   -0.455982
   4 C :   -0.745720
   5 H :    0.235319
   6 H :    0.248520
   7 H :    0.241937
   8 N :   -0.484208
   9 C :   -0.530705
  10 H :    0.307431
  11 H :    0.204538
  12 H :    0.268476
  13 C :   -0.539944
  14 H :    0.279363
  15 H :    0.233009
  16 H :    0.282490
  17 C :    0.085271
  18 C :   -0.259885
  19 C :   -0.200089
  20 C :   -0.227693
  21 C :   -0.206780
  22 C :   -0.315090
  23 H :    0.235348
  24 H :    0.249401
  25 H :    0.226656
  26 H :    0.241713
  27 H :    0.348879
  28 C :   -0.344541
  29 H :    0.266612
  30 H :    0.258538
  31 O :   -0.512298
  32 C :    0.545802
  33 O :   -0.485867
  34 C :   -0.744184
  35 H :    0.243092
  36 H :    0.244449
  37 H :    0.237452
Sum of atomic charges:   -0.0000000

LOEWDIN ATOMIC CHARGES
----------------------
   0 Pd:   -0.295650
   1 O :   -0.172937
   2 C :    0.142171
   3 O :   -0.257084
   4 C :   -0.381957
   5 H :    0.141960
   6 H :    0.155806
   7 H :    0.143424
   8 N :   -0.060634
   9 C :   -0.241632
  10 H :    0.167848
  11 H :    0.110238
  12 H :    0.152267
  13 C :   -0.230612
  14 H :    0.155855
  15 H :    0.125315
  16 H :    0.158174
  17 C :   -0.013909
  18 C :   -0.127336
  19 C :   -0.105339
  20 C :   -0.126833
  21 C :   -0.076915
  22 C :   -0.099135
  23 H :    0.143283
  24 H :    0.156060
  25 H :    0.143307
  26 H :    0.147560
  27 H :    0.226668
  28 C :   -0.105148
  29 H :    0.152476
  30 H :    0.145777
  31 O :   -0.154568
  32 C :    0.130324
  33 O :   -0.302089
  34 C :   -0.384180
  35 H :    0.143247
  36 H :    0.147458
  37 H :    0.146742

  Mayer bond orders larger than 0.100000
B(  0-Pd,  1-O ) :   0.6647 B(  0-Pd,  3-O ) :   0.1043 B(  0-Pd,  8-N ) :   0.4154
B(  0-Pd, 22-C ) :   0.2126 B(  0-Pd, 31-O ) :   0.6529 B(  1-O ,  2-C ) :   1.2436
B(  2-C ,  3-O ) :   1.8532 B(  2-C ,  4-C ) :   0.9327 B(  4-C ,  5-H ) :   0.9181
B(  4-C ,  6-H ) :   0.9106 B(  4-C ,  7-H ) :   0.9133 B(  8-N ,  9-C ) :   0.9090
B(  8-N , 13-C ) :   0.9155 B(  8-N , 28-C ) :   0.8800 B(  9-C , 10-H ) :   0.8677
B(  9-C , 11-H ) :   0.9017 B(  9-C , 12-H ) :   0.9059 B( 13-C , 14-H ) :   0.8924
B( 13-C , 15-H ) :   0.9006 B( 13-C , 16-H ) :   0.8962 B( 17-C , 18-C ) :   1.4044
B( 17-C , 22-C ) :   1.2759 B( 17-C , 28-C ) :   0.9347 B( 18-C , 19-C ) :   1.4296
B( 18-C , 25-H ) :   0.9175 B( 19-C , 20-C ) :   1.4085 B( 19-C , 26-H ) :   0.9103
B( 20-C , 21-C ) :   1.4351 B( 20-C , 23-H ) :   0.9136 B( 21-C , 22-C ) :   1.3952
B( 21-C , 24-H ) :   0.9120 B( 22-C , 27-H ) :   0.7395 B( 28-C , 29-H ) :   0.8955
B( 28-C , 30-H ) :   0.9095 B( 31-O , 32-C ) :   1.2860 B( 32-C , 33-O ) :   1.8721
B( 32-C , 34-C ) :   0.9303 B( 34-C , 35-H ) :   0.9177 B( 34-C , 36-H ) :   0.9126
B( 34-C , 37-H ) :   0.9143

Dispersion correction           -0.026588019
FINAL SINGLE POINT ENERGY      -988.498315028407
Dispersion correction            ... done

DIPOLE MOMENT
-------------
                                X             Y             Z
Electronic contribution:     13.12904      11.05897      -8.81229
Nuclear contribution   :    -15.21522     -11.94708       9.76500
                        -----------------------------------------
Total Dipole Moment    :     -2.08618      -0.88810       0.95271
                        -----------------------------------------
Magnitude (a.u.)       :      2.45938
Magnitude (Debye)      :      6.25125

Rotational constants in cm-1:     0.013364     0.009447     0.006929
Rotational constants in MHz :   400.632562   283.217587   207.732273

                             ****ORCA TERMINATED NORMALLY****
TOTAL RUN TIME: 0 days 0 hours 9 minutes 1 seconds 951 msec
