                         Program Version 5.0.3 -  RELEASE  -
|  1> ! EnGrad PBEh-3c
|  2> %output
|  3> xyzfile=True
|  4> end
|  5> %scf
|  6> maxiter 250
|  7> end
|  8> %output
|  9> Print[P_Hirshfeld] = 1
| 10> end
| 11> % maxcore
| 12> 4000
| 13> *xyz 0 1
| 14> Pd   0.41510774   0.21772057  -0.15843475
| 15> O    1.95444620   1.30502412   0.62405388
| 16> C    1.71224527   2.61946259   0.34648145
| 17> O    0.71642308   2.96905432  -0.14208521
| 18> C    2.88520906   3.58138926   0.64901026
| 19> H    2.47505613   4.49964096   1.08435371
| 20> H    3.33940987   3.86962289  -0.29863098
| 21> H    3.64414309   3.17854780   1.29580706
| 22> N   -1.33786936  -0.87597982  -0.98756342
| 23> C   -1.03146456  -2.17828206  -1.57849479
| 24> H   -0.32062951  -2.08303984  -2.36361634
| 25> H   -1.93443237  -2.59328462  -2.01431830
| 26> H   -0.63503673  -2.84142957  -0.81633498
| 27> C   -1.91551049  -0.00617962  -2.01698375
| 28> H   -2.02222413   1.00594458  -1.66796389
| 29> H   -2.88148417  -0.41052180  -2.30987514
| 30> H   -1.27581452  -0.01317231  -2.89509932
| 31> C   -1.74222740  -1.11781592   1.48737228
| 32> C   -2.03032304  -2.14029155   2.41967061
| 33> C   -1.67340908  -2.00262429   3.74414150
| 34> C   -1.02508941  -0.86310231   4.17153990
| 35> C   -0.83552199   0.20205977   3.27931875
| 36> C   -1.10932079   0.01443782   1.94185310
| 37> H   -0.76051028  -0.73986099   5.21796048
| 38> H   -0.55807110   1.12902760   3.71941688
| 39> H   -2.69001823  -2.94575939   2.16119505
| 40> H   -2.01749929  -2.71966354   4.47858232
| 41> H   -1.26359987   3.75468247   0.98699673
| 42> C   -2.33766544  -1.08243556   0.14006605
| 43> H   -3.05832010  -0.25972778   0.13115973
| 44> H   -2.94605738  -1.96651039  -0.05206330
| 45> O    1.50046252   0.51477824  -1.92280161
| 46> C    2.25513228  -0.46033520  -2.35881315
| 47> O    2.17249922  -1.62453453  -2.03895489
| 48> C    3.35124611  -0.05260151  -3.39734741
| 49> H    3.72738337  -0.92201802  -3.92425634
| 50> H    4.18857934   0.34589492  -2.81613299
| 51> H    3.06572090   0.69283747  -4.12300655
| 52> *
| 53>
| 54>                          ****END OF INPUT****

CARTESIAN COORDINATES (ANGSTROEM)
---------------------------------
  Pd     0.415108    0.217721   -0.158435
  O      1.954446    1.305024    0.624054
  C      1.712245    2.619463    0.346481
  O      0.716423    2.969054   -0.142085
  C      2.885209    3.581389    0.649010
  H      2.475056    4.499641    1.084354
  H      3.339410    3.869623   -0.298631
  H      3.644143    3.178548    1.295807
  N     -1.337869   -0.875980   -0.987563
  C     -1.031465   -2.178282   -1.578495
  H     -0.320630   -2.083040   -2.363616
  H     -1.934432   -2.593285   -2.014318
  H     -0.635037   -2.841430   -0.816335
  C     -1.915510   -0.006180   -2.016984
  H     -2.022224    1.005945   -1.667964
  H     -2.881484   -0.410522   -2.309875
  H     -1.275815   -0.013172   -2.895099
  C     -1.742227   -1.117816    1.487372
  C     -2.030323   -2.140292    2.419671
  C     -1.673409   -2.002624    3.744141
  C     -1.025089   -0.863102    4.171540
  C     -0.835522    0.202060    3.279319
  C     -1.109321    0.014438    1.941853
  H     -0.760510   -0.739861    5.217960
  H     -0.558071    1.129028    3.719417
  H     -2.690018   -2.945759    2.161195
  H     -2.017499   -2.719664    4.478582
  H     -1.263600    3.754682    0.986997
  C     -2.337665   -1.082436    0.140066
  H     -3.058320   -0.259728    0.131160
  H     -2.946057   -1.966510   -0.052063
  O      1.500463    0.514778   -1.922802
  C      2.255132   -0.460335   -2.358813
  O      2.172499   -1.624535   -2.038955
  C      3.351246   -0.052602   -3.397347
  H      3.727383   -0.922018   -3.924256
  H      4.188579    0.345895   -2.816133
  H      3.065721    0.692837   -4.123007

 Total Charge           Charge          ....    0
 Multiplicity           Mult            ....    1
 Number of Electrons    NEL             ....  154
 Basis Dimension        Dim             ....  339

ORBITAL ENERGIES
----------------

  NO   OCC          E(Eh)            E(eV)
   0   2.0000     -19.487077      -530.2703
   1   2.0000     -19.472693      -529.8789
   2   2.0000     -19.464562      -529.6577
   3   2.0000     -19.424541      -528.5686
   4   2.0000     -14.718484      -400.5103
   5   2.0000     -10.549565      -287.0682
   6   2.0000     -10.525594      -286.4160
   7   2.0000     -10.505790      -285.8771
   8   2.0000     -10.500868      -285.7431
   9   2.0000     -10.490504      -285.4611
  10   2.0000     -10.478880      -285.1448
  11   2.0000     -10.476327      -285.0754
  12   2.0000     -10.475717      -285.0587
  13   2.0000     -10.474145      -285.0160
  14   2.0000     -10.471172      -284.9351
  15   2.0000     -10.469358      -284.8857
  16   2.0000     -10.427274      -283.7405
  17   2.0000     -10.408216      -283.2220
  18   2.0000      -3.660289       -99.6015
  19   2.0000      -2.308726       -62.8236
  20   2.0000      -2.298725       -62.5515
  21   2.0000      -2.272733       -61.8442
  22   2.0000      -1.187338       -32.3091
  23   2.0000      -1.134853       -30.8809
  24   2.0000      -1.072337       -29.1798
  25   2.0000      -1.055130       -28.7115
  26   2.0000      -1.040067       -28.3017
  27   2.0000      -0.988423       -26.8963
  28   2.0000      -0.897229       -24.4149
  29   2.0000      -0.859735       -23.3946
  30   2.0000      -0.819686       -22.3048
  31   2.0000      -0.805836       -21.9279
  32   2.0000      -0.804181       -21.8829
  33   2.0000      -0.779333       -21.2067
  34   2.0000      -0.719869       -19.5886
  35   2.0000      -0.708151       -19.2698
  36   2.0000      -0.673156       -18.3175
  37   2.0000      -0.606828       -16.5126
  38   2.0000      -0.590824       -16.0771
  39   2.0000      -0.574796       -15.6410
  40   2.0000      -0.573002       -15.5922
  41   2.0000      -0.569162       -15.4877
  42   2.0000      -0.559806       -15.2331
  43   2.0000      -0.540845       -14.7172
  44   2.0000      -0.525197       -14.2913
  45   2.0000      -0.524738       -14.2788
  46   2.0000      -0.512973       -13.9587
  47   2.0000      -0.506527       -13.7833
  48   2.0000      -0.496771       -13.5178
  49   2.0000      -0.493451       -13.4275
  50   2.0000      -0.485808       -13.2195
  51   2.0000      -0.478019       -13.0076
  52   2.0000      -0.475982       -12.9521
  53   2.0000      -0.471980       -12.8432
  54   2.0000      -0.462560       -12.5869
  55   2.0000      -0.447301       -12.1717
  56   2.0000      -0.445956       -12.1351
  57   2.0000      -0.443528       -12.0690
  58   2.0000      -0.432664       -11.7734
  59   2.0000      -0.429981       -11.7004
  60   2.0000      -0.427461       -11.6318
  61   2.0000      -0.421643       -11.4735
  62   2.0000      -0.406954       -11.0738
  63   2.0000      -0.396929       -10.8010
  64   2.0000      -0.374955       -10.2030
  65   2.0000      -0.361012        -9.8236
  66   2.0000      -0.347539        -9.4570
  67   2.0000      -0.339774        -9.2457
  68   2.0000      -0.330165        -8.9843
  69   2.0000      -0.324589        -8.8325
  70   2.0000      -0.317396        -8.6368
  71   2.0000      -0.312165        -8.4944
  72   2.0000      -0.308292        -8.3891
  73   2.0000      -0.295236        -8.0338
  74   2.0000      -0.282785        -7.6950
  75   2.0000      -0.273531        -7.4432
  76   2.0000      -0.257911        -7.0181
  77   0.0000      -0.183921        -5.0047
  78   0.0000      -0.072661        -1.9772
  79   0.0000      -0.015313        -0.4167
  80   0.0000      -0.000943        -0.0257
  81   0.0000       0.066531         1.8104

MULLIKEN ATOMIC CHARGES
-----------------------
   0 Pd:    0.401704
   1 O :   -0.518408
   2 C :    0.579570
   3 O :   -0.359640
   4 C :   -0.749229
   5 H :    0.229853
   6 H :    0.253362
   7 H :    0.250752
   8 N :   -0.470741
   9 C :   -0.524230
  10 H :    0.299976
  11 H :    0.208826
  12 H :    0.266107
  13 C :   -0.532603
  14 H :    0.284356
  15 H :    0.222630
  16 H :    0.278952
  17 C :    0.065020
  18 C :   -0.244743
  19 C :   -0.214804
  20 C :   -0.214422
  21 C :   -0.278528
  22 C :   -0.031020
  23 H :    0.239572
  24 H :    0.253554
  25 H :    0.225365
  26 H :    0.236938
  27 H :    0.125660
  28 C :   -0.336091
  29 H :    0.274104
  30 H :    0.243100
  31 O :   -0.521660
  32 C :    0.545229
  33 O :   -0.451098
  34 C :   -0.740976
  35 H :    0.236027
  36 H :    0.236548
  37 H :    0.230990
Sum of atomic charges:   -0.0000000

LOEWDIN ATOMIC CHARGES
----------------------
   0 Pd:   -0.323985
   1 O :   -0.186994
   2 C :    0.149407
   3 O :   -0.141022
   4 C :   -0.386133
   5 H :    0.142550
   6 H :    0.156639
   7 H :    0.144852
   8 N :   -0.064703
   9 C :   -0.236289
  10 H :    0.161707
  11 H :    0.113828
  12 H :    0.151972
  13 C :   -0.234325
  14 H :    0.156687
  15 H :    0.119553
  16 H :    0.157474
  17 C :   -0.052759
  18 C :   -0.122860
  19 C :   -0.121413
  20 C :   -0.118562
  21 C :   -0.108790
  22 C :    0.031664
  23 H :    0.145214
  24 H :    0.155479
  25 H :    0.142727
  26 H :    0.145318
  27 H :    0.134657
  28 C :   -0.103174
  29 H :    0.157467
  30 H :    0.135979
  31 O :   -0.203311
  32 C :    0.130552
  33 O :   -0.260596
  34 C :   -0.391409
  35 H :    0.138472
  36 H :    0.148380
  37 H :    0.135747

  Mayer bond orders larger than 0.100000
B(  0-Pd,  1-O ) :   0.6870 B(  0-Pd,  3-O ) :   0.1085 B(  0-Pd,  8-N ) :   0.3927
B(  0-Pd, 22-C ) :   0.4131 B(  0-Pd, 27-H ) :   0.2252 B(  0-Pd, 31-O ) :   0.6249
B(  1-O ,  2-C ) :   1.1856 B(  2-C ,  3-O ) :   1.8769 B(  2-C ,  4-C ) :   0.9313
B(  4-C ,  5-H ) :   0.9182 B(  4-C ,  6-H ) :   0.9096 B(  4-C ,  7-H ) :   0.9110
B(  8-N ,  9-C ) :   0.9250 B(  8-N , 13-C ) :   0.9211 B(  8-N , 28-C ) :   0.8847
B(  9-C , 10-H ) :   0.8838 B(  9-C , 11-H ) :   0.9040 B(  9-C , 12-H ) :   0.9074
B( 13-C , 14-H ) :   0.8952 B( 13-C , 15-H ) :   0.9037 B( 13-C , 16-H ) :   0.8963
B( 17-C , 18-C ) :   1.3868 B( 17-C , 22-C ) :   1.3410 B( 17-C , 28-C ) :   0.9582
B( 18-C , 19-C ) :   1.4426 B( 18-C , 25-H ) :   0.9109 B( 19-C , 20-C ) :   1.4204
B( 19-C , 26-H ) :   0.9104 B( 20-C , 21-C ) :   1.4112 B( 20-C , 23-H ) :   0.9070
B( 21-C , 22-C ) :   1.4190 B( 21-C , 24-H ) :   0.9033 B( 22-C , 27-H ) :   0.4307
B( 28-C , 29-H ) :   0.8959 B( 28-C , 30-H ) :   0.9064 B( 31-O , 32-C ) :   1.2803
B( 31-O , 33-O ) :   0.1027 B( 32-C , 33-O ) :   1.8778 B( 32-C , 34-C ) :   0.9167
B( 34-C , 35-H ) :   0.9190 B( 34-C , 36-H ) :   0.9158 B( 34-C , 37-H ) :   0.9160

Dispersion correction           -0.025789097
FINAL SINGLE POINT ENERGY      -988.234419830091
Dispersion correction            ... done

DIPOLE MOMENT
-------------
                                X             Y             Z
Electronic contribution:     15.49236      10.56623      -7.47042
Nuclear contribution   :    -18.09440     -10.71524       8.60332
                        -----------------------------------------
Total Dipole Moment    :     -2.60204      -0.14901       1.13290
                        -----------------------------------------
Magnitude (a.u.)       :      2.84188
Magnitude (Debye)      :      7.22348

Rotational constants in cm-1:     0.014029     0.008359     0.006366
Rotational constants in MHz :   420.564901   250.607380   190.851260

                             ****ORCA TERMINATED NORMALLY****
TOTAL RUN TIME: 0 days 0 hours 15 minutes 20 seconds 732 msec
