                         Program Version 5.0.3 -  RELEASE  -
|  1> ! EnGrad PBEh-3c
|  2> %output
|  3> xyzfile=True
|  4> end
|  5> %scf
|  6> maxiter 250
|  7> end
|  8> %output
|  9> Print[P_Hirshfeld] = 1
| 10> end
| 11> % maxcore
| 12> 4000
| 13> *xyz 0 1
| 14> Pd   0.43740444   0.31761645  -0.09291678
| 15> O    1.91110134   1.25433979   0.60479108
| 16> C    1.73232780   2.61114694   0.37843395
| 17> O    0.60019825   2.99188178  -0.17163501
| 18> C    2.86824113   3.57511477   0.64873128
| 19> H    2.44819585   4.49080160   1.07897985
| 20> H    3.32590237   3.87474048  -0.30051990
| 21> H    3.64630642   3.18882926   1.30643214
| 22> N   -1.37187773  -0.89415586  -1.02221191
| 23> C   -1.03972039  -2.18499098  -1.63110098
| 24> H   -0.32194170  -2.01971792  -2.41177100
| 25> H   -1.98282762  -2.54894804  -2.00708019
| 26> H   -0.64472206  -2.84382631  -0.86106345
| 27> C   -1.94106921   0.03513045  -2.01265555
| 28> H   -2.04242764   1.04542573  -1.61731746
| 29> H   -2.90549407  -0.37122562  -2.28478029
| 30> H   -1.27232343   0.04187367  -2.86848210
| 31> C   -1.80491681  -1.06574104   1.52229535
| 32> C   -1.99498730  -2.14061797   2.40560179
| 33> C   -1.60689849  -2.02249517   3.72636582
| 34> C   -1.06837215  -0.82635176   4.17354886
| 35> C   -0.87696979   0.24202427   3.29590929
| 36> C   -1.02386000   0.00349621   1.93998368
| 37> H   -0.75992317  -0.72137884   5.21250821
| 38> H   -0.59378076   1.17958614   3.71139834
| 39> H   -2.58738364  -2.99392673   2.11708545
| 40> H   -1.92542469  -2.75227234   4.45782101
| 41> H   -1.27384213   3.67681700   1.00403542
| 42> C   -2.33759160  -1.09839464   0.13686391
| 43> H   -3.04173030  -0.27461099   0.13340991
| 44> H   -2.89924380  -2.00381967  -0.07788199
| 45> O    1.49309914   0.50988704  -1.93365931
| 46> C    2.25749898  -0.51326651  -2.31957946
| 47> O    2.13723661  -1.68295218  -2.15419647
| 48> C    3.38588809  -0.08643158  -3.36040180
| 49> H    3.76661081  -0.97313815  -3.87266089
| 50> H    4.20547812   0.31446895  -2.76933359
| 51> H    3.10420949   0.66514290  -4.09370043
| 52> *
| 53>
| 54>                          ****END OF INPUT****

CARTESIAN COORDINATES (ANGSTROEM)
---------------------------------
  Pd     0.437404    0.317616   -0.092917
  O      1.911101    1.254340    0.604791
  C      1.732328    2.611147    0.378434
  O      0.600198    2.991882   -0.171635
  C      2.868241    3.575115    0.648731
  H      2.448196    4.490802    1.078980
  H      3.325902    3.874740   -0.300520
  H      3.646306    3.188829    1.306432
  N     -1.371878   -0.894156   -1.022212
  C     -1.039720   -2.184991   -1.631101
  H     -0.321942   -2.019718   -2.411771
  H     -1.982828   -2.548948   -2.007080
  H     -0.644722   -2.843826   -0.861063
  C     -1.941069    0.035130   -2.012656
  H     -2.042428    1.045426   -1.617317
  H     -2.905494   -0.371226   -2.284780
  H     -1.272323    0.041874   -2.868482
  C     -1.804917   -1.065741    1.522295
  C     -1.994987   -2.140618    2.405602
  C     -1.606898   -2.022495    3.726366
  C     -1.068372   -0.826352    4.173549
  C     -0.876970    0.242024    3.295909
  C     -1.023860    0.003496    1.939984
  H     -0.759923   -0.721379    5.212508
  H     -0.593781    1.179586    3.711398
  H     -2.587384   -2.993927    2.117085
  H     -1.925425   -2.752272    4.457821
  H     -1.273842    3.676817    1.004035
  C     -2.337592   -1.098395    0.136864
  H     -3.041730   -0.274611    0.133410
  H     -2.899244   -2.003820   -0.077882
  O      1.493099    0.509887   -1.933659
  C      2.257499   -0.513267   -2.319579
  O      2.137237   -1.682952   -2.154196
  C      3.385888   -0.086432   -3.360402
  H      3.766611   -0.973138   -3.872661
  H      4.205478    0.314469   -2.769334
  H      3.104209    0.665143   -4.093700

 Total Charge           Charge          ....    0
 Multiplicity           Mult            ....    1
 Number of Electrons    NEL             ....  154
 Basis Dimension        Dim             ....  339

ORBITAL ENERGIES
----------------

  NO   OCC          E(Eh)            E(eV)
   0   2.0000     -19.526320      -531.3382
   1   2.0000     -19.493731      -530.4514
   2   2.0000     -19.461089      -529.5632
   3   2.0000     -19.432821      -528.7939
   4   2.0000     -14.702256      -400.0687
   5   2.0000     -10.589652      -288.1591
   6   2.0000     -10.527374      -286.4644
   7   2.0000     -10.496690      -285.6295
   8   2.0000     -10.496619      -285.6275
   9   2.0000     -10.485132      -285.3150
  10   2.0000     -10.473082      -284.9870
  11   2.0000     -10.471595      -284.9466
  12   2.0000     -10.470460      -284.9157
  13   2.0000     -10.468451      -284.8610
  14   2.0000     -10.466855      -284.8176
  15   2.0000     -10.465002      -284.7672
  16   2.0000     -10.454619      -284.4846
  17   2.0000     -10.402836      -283.0756
  18   2.0000      -3.664402       -99.7135
  19   2.0000      -2.316334       -63.0307
  20   2.0000      -2.299954       -62.5849
  21   2.0000      -2.276911       -61.9579
  22   2.0000      -1.149507       -31.2797
  23   2.0000      -1.138453       -30.9789
  24   2.0000      -1.059514       -28.8308
  25   2.0000      -1.056560       -28.7504
  26   2.0000      -1.040685       -28.3185
  27   2.0000      -0.982541       -26.7363
  28   2.0000      -0.888268       -24.1710
  29   2.0000      -0.854964       -23.2647
  30   2.0000      -0.834752       -22.7147
  31   2.0000      -0.812832       -22.1183
  32   2.0000      -0.798436       -21.7265
  33   2.0000      -0.767674       -20.8895
  34   2.0000      -0.707691       -19.2572
  35   2.0000      -0.700551       -19.0630
  36   2.0000      -0.665312       -18.1040
  37   2.0000      -0.628276       -17.0963
  38   2.0000      -0.599549       -16.3146
  39   2.0000      -0.567213       -15.4347
  40   2.0000      -0.563550       -15.3350
  41   2.0000      -0.560625       -15.2554
  42   2.0000      -0.550517       -14.9803
  43   2.0000      -0.538533       -14.6542
  44   2.0000      -0.530683       -14.4406
  45   2.0000      -0.520837       -14.1727
  46   2.0000      -0.519409       -14.1338
  47   2.0000      -0.510560       -13.8931
  48   2.0000      -0.493002       -13.4153
  49   2.0000      -0.485833       -13.2202
  50   2.0000      -0.481132       -13.0923
  51   2.0000      -0.477485       -12.9930
  52   2.0000      -0.472953       -12.8697
  53   2.0000      -0.468630       -12.7521
  54   2.0000      -0.461257       -12.5514
  55   2.0000      -0.460223       -12.5233
  56   2.0000      -0.445398       -12.1199
  57   2.0000      -0.443324       -12.0635
  58   2.0000      -0.435805       -11.8589
  59   2.0000      -0.431371       -11.7382
  60   2.0000      -0.419700       -11.4206
  61   2.0000      -0.418081       -11.3766
  62   2.0000      -0.414486       -11.2787
  63   2.0000      -0.400585       -10.9005
  64   2.0000      -0.378548       -10.3008
  65   2.0000      -0.364009        -9.9052
  66   2.0000      -0.344701        -9.3798
  67   2.0000      -0.341271        -9.2864
  68   2.0000      -0.338308        -9.2058
  69   2.0000      -0.330166        -8.9843
  70   2.0000      -0.322384        -8.7725
  71   2.0000      -0.309566        -8.4237
  72   2.0000      -0.304891        -8.2965
  73   2.0000      -0.296127        -8.0580
  74   2.0000      -0.280044        -7.6204
  75   2.0000      -0.274868        -7.4795
  76   2.0000      -0.253026        -6.8852
  77   0.0000      -0.176063        -4.7909
  78   0.0000      -0.065379        -1.7790
  79   0.0000      -0.006421        -0.1747
  80   0.0000      -0.001691        -0.0460
  81   0.0000       0.022589         0.6147

MULLIKEN ATOMIC CHARGES
-----------------------
   0 Pd:    0.442791
   1 O :   -0.520799
   2 C :    0.634197
   3 O :   -0.445875
   4 C :   -0.744998
   5 H :    0.252497
   6 H :    0.274178
   7 H :    0.257783
   8 N :   -0.456784
   9 C :   -0.507973
  10 H :    0.292527
  11 H :    0.201091
  12 H :    0.259789
  13 C :   -0.525761
  14 H :    0.276920
  15 H :    0.217284
  16 H :    0.274541
  17 C :    0.074080
  18 C :   -0.242804
  19 C :   -0.208733
  20 C :   -0.222001
  21 C :   -0.287079
  22 C :   -0.055344
  23 H :    0.236182
  24 H :    0.249583
  25 H :    0.225462
  26 H :    0.232201
  27 H :    0.125844
  28 C :   -0.331282
  29 H :    0.267289
  30 H :    0.233259
  31 O :   -0.537556
  32 C :    0.539793
  33 O :   -0.419679
  34 C :   -0.741622
  35 H :    0.228255
  36 H :    0.224661
  37 H :    0.228085
Sum of atomic charges:   -0.0000000

LOEWDIN ATOMIC CHARGES
----------------------
   0 Pd:   -0.330545
   1 O :   -0.140703
   2 C :    0.261238
   3 O :   -0.242114
   4 C :   -0.374662
   5 H :    0.156682
   6 H :    0.169996
   7 H :    0.152699
   8 N :   -0.094191
   9 C :   -0.233824
  10 H :    0.162397
  11 H :    0.111269
  12 H :    0.149323
  13 C :   -0.235436
  14 H :    0.155699
  15 H :    0.116445
  16 H :    0.156490
  17 C :   -0.047724
  18 C :   -0.126689
  19 C :   -0.122580
  20 C :   -0.127030
  21 C :   -0.113120
  22 C :    0.027583
  23 H :    0.143462
  24 H :    0.152555
  25 H :    0.141516
  26 H :    0.144553
  27 H :    0.136510
  28 C :   -0.109591
  29 H :    0.155889
  30 H :    0.132772
  31 O :   -0.237385
  32 C :    0.132643
  33 O :   -0.231736
  34 C :   -0.400843
  35 H :    0.134362
  36 H :    0.139317
  37 H :    0.134773

  Mayer bond orders larger than 0.100000
B(  0-Pd,  1-O ) :   0.6744 B(  0-Pd,  3-O ) :   0.1291 B(  0-Pd,  8-N ) :   0.3658
B(  0-Pd, 22-C ) :   0.4862 B(  0-Pd, 27-H ) :   0.2482 B(  0-Pd, 31-O ) :   0.6107
B(  1-O ,  2-C ) :   1.2187 B(  2-C ,  3-O ) :   1.6616 B(  2-C ,  4-C ) :   0.9554
B(  3-O , 27-H ) :   0.1724 B(  4-C ,  5-H ) :   0.9061 B(  4-C ,  6-H ) :   0.8955
B(  4-C ,  7-H ) :   0.9038 B(  8-N ,  9-C ) :   0.9283 B(  8-N , 13-C ) :   0.9252
B(  8-N , 28-C ) :   0.8950 B(  9-C , 10-H ) :   0.8873 B(  9-C , 11-H ) :   0.9055
B(  9-C , 12-H ) :   0.9104 B( 13-C , 14-H ) :   0.8983 B( 13-C , 15-H ) :   0.9059
B( 13-C , 16-H ) :   0.8982 B( 17-C , 18-C ) :   1.3958 B( 17-C , 22-C ) :   1.3137
B( 17-C , 28-C ) :   0.9700 B( 18-C , 19-C ) :   1.4234 B( 18-C , 25-H ) :   0.9125
B( 19-C , 20-C ) :   1.4163 B( 19-C , 26-H ) :   0.9131 B( 20-C , 21-C ) :   1.4120
B( 20-C , 23-H ) :   0.9095 B( 21-C , 22-C ) :   1.4123 B( 21-C , 24-H ) :   0.9063
B( 22-C , 27-H ) :   0.3383 B( 28-C , 29-H ) :   0.8962 B( 28-C , 30-H ) :   0.9074
B( 31-O , 32-C ) :   1.2599 B( 31-O , 33-O ) :   0.1030 B( 32-C , 33-O ) :   1.9283
B( 32-C , 34-C ) :   0.9032 B( 34-C , 35-H ) :   0.9222 B( 34-C , 36-H ) :   0.9198
B( 34-C , 37-H ) :   0.9190

Dispersion correction           -0.025718941
FINAL SINGLE POINT ENERGY      -988.215796250427
Dispersion correction            ... done

DIPOLE MOMENT
-------------
                                X             Y             Z
Electronic contribution:     17.58575      16.41197      -3.49734
Nuclear contribution   :    -19.50275     -16.13198       4.93703
                        -----------------------------------------
Total Dipole Moment    :     -1.91701       0.27999       1.43969
                        -----------------------------------------
Magnitude (a.u.)       :      2.41371
Magnitude (Debye)      :      6.13518

Rotational constants in cm-1:     0.013797     0.008372     0.006372
Rotational constants in MHz :   413.635212   251.000098   191.034313

                             ****ORCA TERMINATED NORMALLY****
TOTAL RUN TIME: 0 days 0 hours 19 minutes 12 seconds 356 msec
