                         Program Version 5.0.3 -  RELEASE  -
|  1> ! EnGrad PBEh-3c
|  2> %output
|  3> xyzfile=True
|  4> end
|  5> %scf
|  6> maxiter 250
|  7> end
|  8> %output
|  9> Print[P_Hirshfeld] = 1
| 10> end
| 11> % maxcore
| 12> 4000
| 13> *xyz 0 1
| 14> Pd   0.42152568   0.24647486  -0.13957589
| 15> O    1.94196971   1.29043501   0.61850923
| 16> C    1.71802588   2.61706899   0.35567874
| 17> O    0.68296863   2.97562504  -0.15059090
| 18> C    2.88032497   3.57958319   0.64892996
| 19> H    2.46732459   4.49709661   1.08280688
| 20> H    3.33552183   3.87109595  -0.29917469
| 21> H    3.64476579   3.18150724   1.29886541
| 22> N   -1.34765841  -0.88121166  -0.99753673
| 23> C   -1.03384094  -2.18021317  -1.59363709
| 24> H   -0.32100721  -2.06481310  -2.37747730
| 25> H   -1.94836258  -2.58052267  -2.01223486
| 26> H   -0.63782458  -2.84211946  -0.82920974
| 27> C   -1.92286738   0.00571117  -2.01573791
| 28> H   -2.02803956   1.01730894  -1.65338569
| 29> H   -2.88839524  -0.39921068  -2.30265178
| 30> H   -1.27480963   0.00267226  -2.88743775
| 31> C   -1.76027208  -1.10282655   1.49742463
| 32> C   -2.02015191  -2.14038551   2.41562101
| 33> C   -1.65426450  -2.00834397   3.73902490
| 34> C   -1.03754802  -0.85252394   4.17211816
| 35> C   -0.84745243   0.21356326   3.28409421
| 36> C   -1.08472154   0.01128836   1.94131500
| 37> H   -0.76034128  -0.73454104   5.21639108
| 38> H   -0.56834986   1.14358050   3.71710880
| 39> H   -2.66047563  -2.95962400   2.14849843
| 40> H   -1.99099630  -2.72904974   4.47260633
| 41> H   -1.26654803   3.73226948   0.99190119
| 42> C   -2.33764419  -1.08702927   0.13914433
| 43> H   -3.05354484  -0.26401180   0.13180743
| 44> H   -2.93258244  -1.97724959  -0.05949502
| 45> O    1.49834303   0.51337034  -1.92592692
| 46> C    2.25581351  -0.47557108  -2.34752002
| 47> O    2.16234914  -1.64134962  -2.07212632
| 48> C    3.36121755  -0.06233925  -3.38671289
| 49> H    3.73867469  -0.93673257  -3.90940497
| 50> H    4.19344353   0.33684919  -2.80266213
| 51> H    3.07679955   0.68486579  -4.11457100
| 52> *
| 53>
| 54>                          ****END OF INPUT****

CARTESIAN COORDINATES (ANGSTROEM)
---------------------------------
  Pd     0.421526    0.246475   -0.139576
  O      1.941970    1.290435    0.618509
  C      1.718026    2.617069    0.355679
  O      0.682969    2.975625   -0.150591
  C      2.880325    3.579583    0.648930
  H      2.467325    4.497097    1.082807
  H      3.335522    3.871096   -0.299175
  H      3.644766    3.181507    1.298865
  N     -1.347658   -0.881212   -0.997537
  C     -1.033841   -2.180213   -1.593637
  H     -0.321007   -2.064813   -2.377477
  H     -1.948363   -2.580523   -2.012235
  H     -0.637825   -2.842119   -0.829210
  C     -1.922867    0.005711   -2.015738
  H     -2.028040    1.017309   -1.653386
  H     -2.888395   -0.399211   -2.302652
  H     -1.274810    0.002672   -2.887438
  C     -1.760272   -1.102827    1.497425
  C     -2.020152   -2.140386    2.415621
  C     -1.654265   -2.008344    3.739025
  C     -1.037548   -0.852524    4.172118
  C     -0.847452    0.213563    3.284094
  C     -1.084722    0.011288    1.941315
  H     -0.760341   -0.734541    5.216391
  H     -0.568350    1.143581    3.717109
  H     -2.660476   -2.959624    2.148498
  H     -1.990996   -2.729050    4.472606
  H     -1.266548    3.732269    0.991901
  C     -2.337644   -1.087029    0.139144
  H     -3.053545   -0.264012    0.131807
  H     -2.932582   -1.977250   -0.059495
  O      1.498343    0.513370   -1.925927
  C      2.255814   -0.475571   -2.347520
  O      2.162349   -1.641350   -2.072126
  C      3.361218   -0.062339   -3.386713
  H      3.738675   -0.936733   -3.909405
  H      4.193444    0.336849   -2.802662
  H      3.076800    0.684866   -4.114571

 Total Charge           Charge          ....    0
 Multiplicity           Mult            ....    1
 Number of Electrons    NEL             ....  154
 Basis Dimension        Dim             ....  339

ORBITAL ENERGIES
----------------

  NO   OCC          E(Eh)            E(eV)
   0   2.0000     -19.498162      -530.5720
   1   2.0000     -19.478153      -530.0275
   2   2.0000     -19.463530      -529.6296
   3   2.0000     -19.427052      -528.6369
   4   2.0000     -14.714022      -400.3889
   5   2.0000     -10.561118      -287.3826
   6   2.0000     -10.525863      -286.4233
   7   2.0000     -10.503153      -285.8053
   8   2.0000     -10.499088      -285.6947
   9   2.0000     -10.488601      -285.4093
  10   2.0000     -10.477187      -285.0987
  11   2.0000     -10.474401      -285.0229
  12   2.0000     -10.474286      -285.0198
  13   2.0000     -10.472295      -284.9656
  14   2.0000     -10.469884      -284.9000
  15   2.0000     -10.468062      -284.8505
  16   2.0000     -10.435315      -283.9594
  17   2.0000     -10.406553      -283.1767
  18   2.0000      -3.661043       -99.6220
  19   2.0000      -2.310122       -62.8616
  20   2.0000      -2.298771       -62.5527
  21   2.0000      -2.273546       -61.8663
  22   2.0000      -1.170919       -31.8623
  23   2.0000      -1.135981       -30.9116
  24   2.0000      -1.068143       -29.0656
  25   2.0000      -1.058565       -28.8050
  26   2.0000      -1.041594       -28.3432
  27   2.0000      -0.986946       -26.8562
  28   2.0000      -0.894815       -24.3492
  29   2.0000      -0.858561       -23.3626
  30   2.0000      -0.817812       -22.2538
  31   2.0000      -0.812685       -22.1143
  32   2.0000      -0.803931       -21.8761
  33   2.0000      -0.775876       -21.1127
  34   2.0000      -0.716381       -19.4937
  35   2.0000      -0.706373       -19.2214
  36   2.0000      -0.671076       -18.2609
  37   2.0000      -0.606185       -16.4951
  38   2.0000      -0.599605       -16.3161
  39   2.0000      -0.572262       -15.5720
  40   2.0000      -0.570547       -15.5254
  41   2.0000      -0.566342       -15.4109
  42   2.0000      -0.557535       -15.1713
  43   2.0000      -0.538269       -14.6470
  44   2.0000      -0.526747       -14.3335
  45   2.0000      -0.523672       -14.2499
  46   2.0000      -0.513664       -13.9775
  47   2.0000      -0.505849       -13.7649
  48   2.0000      -0.493993       -13.4422
  49   2.0000      -0.492694       -13.4069
  50   2.0000      -0.484836       -13.1931
  51   2.0000      -0.478061       -13.0087
  52   2.0000      -0.475085       -12.9277
  53   2.0000      -0.471113       -12.8196
  54   2.0000      -0.462167       -12.5762
  55   2.0000      -0.450758       -12.2658
  56   2.0000      -0.445517       -12.1231
  57   2.0000      -0.441883       -12.0243
  58   2.0000      -0.434063       -11.8115
  59   2.0000      -0.431391       -11.7387
  60   2.0000      -0.425001       -11.5649
  61   2.0000      -0.421114       -11.4591
  62   2.0000      -0.405017       -11.0211
  63   2.0000      -0.399485       -10.8705
  64   2.0000      -0.376851       -10.2546
  65   2.0000      -0.361499        -9.8369
  66   2.0000      -0.346091        -9.4176
  67   2.0000      -0.340972        -9.2783
  68   2.0000      -0.332703        -9.0533
  69   2.0000      -0.327990        -8.9251
  70   2.0000      -0.319643        -8.6979
  71   2.0000      -0.311517        -8.4768
  72   2.0000      -0.307952        -8.3798
  73   2.0000      -0.296181        -8.0595
  74   2.0000      -0.281313        -7.6549
  75   2.0000      -0.275368        -7.4931
  76   2.0000      -0.256554        -6.9812
  77   0.0000      -0.181732        -4.9452
  78   0.0000      -0.070558        -1.9200
  79   0.0000      -0.011680        -0.3178
  80   0.0000      -0.001134        -0.0309
  81   0.0000       0.063456         1.7267

MULLIKEN ATOMIC CHARGES
-----------------------
   0 Pd:    0.410623
   1 O :   -0.518266
   2 C :    0.600338
   3 O :   -0.392193
   4 C :   -0.746586
   5 H :    0.236532
   6 H :    0.259393
   7 H :    0.252638
   8 N :   -0.465498
   9 C :   -0.519244
  10 H :    0.297634
  11 H :    0.206602
  12 H :    0.264121
  13 C :   -0.530482
  14 H :    0.282447
  15 H :    0.220983
  16 H :    0.277640
  17 C :    0.071819
  18 C :   -0.242938
  19 C :   -0.213646
  20 C :   -0.216633
  21 C :   -0.283727
  22 C :   -0.038984
  23 H :    0.238677
  24 H :    0.252441
  25 H :    0.224826
  26 H :    0.235496
  27 H :    0.126510
  28 C :   -0.335112
  29 H :    0.272045
  30 H :    0.240390
  31 O :   -0.526632
  32 C :    0.543852
  33 O :   -0.440765
  34 C :   -0.741203
  35 H :    0.233709
  36 H :    0.233074
  37 H :    0.230119
Sum of atomic charges:   -0.0000000

LOEWDIN ATOMIC CHARGES
----------------------
   0 Pd:   -0.326245
   1 O :   -0.173818
   2 C :    0.184704
   3 O :   -0.176090
   4 C :   -0.381893
   5 H :    0.146642
   6 H :    0.160444
   7 H :    0.147008
   8 N :   -0.072460
   9 C :   -0.235325
  10 H :    0.161746
  11 H :    0.112946
  12 H :    0.151211
  13 C :   -0.234551
  14 H :    0.156534
  15 H :    0.118582
  16 H :    0.157169
  17 C :   -0.051209
  18 C :   -0.124284
  19 C :   -0.121179
  20 C :   -0.121195
  21 C :   -0.109653
  22 C :    0.029953
  23 H :    0.144651
  24 H :    0.154674
  25 H :    0.142275
  26 H :    0.145067
  27 H :    0.135994
  28 C :   -0.104726
  29 H :    0.157055
  30 H :    0.135056
  31 O :   -0.212744
  32 C :    0.129929
  33 O :   -0.250601
  34 C :   -0.394067
  35 H :    0.137239
  36 H :    0.145743
  37 H :    0.135417

  Mayer bond orders larger than 0.100000
B(  0-Pd,  1-O ) :   0.6834 B(  0-Pd,  3-O ) :   0.1143 B(  0-Pd,  8-N ) :   0.3861
B(  0-Pd, 22-C ) :   0.4354 B(  0-Pd, 27-H ) :   0.2326 B(  0-Pd, 31-O ) :   0.6221
B(  1-O ,  2-C ) :   1.1952 B(  2-C ,  3-O ) :   1.8111 B(  2-C ,  4-C ) :   0.9395
B(  3-O , 27-H ) :   0.1184 B(  4-C ,  5-H ) :   0.9150 B(  4-C ,  6-H ) :   0.9058
B(  4-C ,  7-H ) :   0.9090 B(  8-N ,  9-C ) :   0.9262 B(  8-N , 13-C ) :   0.9223
B(  8-N , 28-C ) :   0.8874 B(  9-C , 10-H ) :   0.8850 B(  9-C , 11-H ) :   0.9045
B(  9-C , 12-H ) :   0.9084 B( 13-C , 14-H ) :   0.8961 B( 13-C , 15-H ) :   0.9043
B( 13-C , 16-H ) :   0.8969 B( 17-C , 18-C ) :   1.3911 B( 17-C , 22-C ) :   1.3314
B( 17-C , 28-C ) :   0.9610 B( 18-C , 19-C ) :   1.4362 B( 18-C , 25-H ) :   0.9114
B( 19-C , 20-C ) :   1.4209 B( 19-C , 26-H ) :   0.9113 B( 20-C , 21-C ) :   1.4112
B( 20-C , 23-H ) :   0.9076 B( 21-C , 22-C ) :   1.4196 B( 21-C , 24-H ) :   0.9041
B( 22-C , 27-H ) :   0.4048 B( 28-C , 29-H ) :   0.8962 B( 28-C , 30-H ) :   0.9068
B( 31-O , 32-C ) :   1.2738 B( 31-O , 33-O ) :   0.1028 B( 32-C , 33-O ) :   1.8950
B( 32-C , 34-C ) :   0.9125 B( 34-C , 35-H ) :   0.9200 B( 34-C , 36-H ) :   0.9171
B( 34-C , 37-H ) :   0.9170

Dispersion correction           -0.025771953
FINAL SINGLE POINT ENERGY      -988.240991578793
Dispersion correction            ... done

DIPOLE MOMENT
-------------
                                X             Y             Z
Electronic contribution:     16.09409      12.24108      -6.32445
Nuclear contribution   :    -18.49978     -12.27441       7.54801
                        -----------------------------------------
Total Dipole Moment    :     -2.40569      -0.03333       1.22356
                        -----------------------------------------
Magnitude (a.u.)       :      2.69918
Magnitude (Debye)      :      6.86077

Rotational constants in cm-1:     0.013966     0.008364     0.006369
Rotational constants in MHz :   418.701121   250.741672   190.934252

                             ****ORCA TERMINATED NORMALLY****
TOTAL RUN TIME: 0 days 0 hours 14 minutes 10 seconds 760 msec
