                         Program Version 5.0.3 -  RELEASE  -
|  1> ! EnGrad PBEh-3c
|  2> %output
|  3> xyzfile=True
|  4> end
|  5> %scf
|  6> maxiter 250
|  7> end
|  8> %output
|  9> Print[P_Hirshfeld] = 1
| 10> end
| 11> % maxcore
| 12> 4000
| 13> *xyz 0 1
| 14> Pd   0.41665115   0.22463551  -0.15389950
| 15> O    1.95144581   1.30151567   0.62272048
| 16> C    1.71363541   2.61888697   0.34869325
| 17> O    0.70837783   2.97063447  -0.14413069
| 18> C    2.88403452   3.58095493   0.64899095
| 19> H    2.47319682   4.49902908   1.08398172
| 20> H    3.33847486   3.86997713  -0.29876174
| 21> H    3.64429283   3.17925950   1.29654255
| 22> N   -1.34022347  -0.87723799  -0.98996184
| 23> C   -1.03203604  -2.17874646  -1.58213627
| 24> H   -0.32072034  -2.07865660  -2.36694967
| 25> H   -1.93778236  -2.59021558  -2.01381726
| 26> H   -0.63570716  -2.84159548  -0.81943115
| 27> C   -1.91727970  -0.00332008  -2.01668414
| 28> H   -2.02362264   1.00867752  -1.66445807
| 29> H   -2.88314617  -0.40780166  -2.30813804
| 30> H   -1.27557286  -0.00936195  -2.89325684
| 31> C   -1.74656685  -1.11421122   1.48978971
| 32> C   -2.02787705  -2.14031415   2.41869675
| 33> C   -1.66880512  -2.00399978   3.74291104
| 34> C   -1.02808550  -0.86055838   4.17167896
| 35> C   -0.83839106   0.20482617   3.28046717
| 36> C   -1.10340507   0.01368043   1.94172370
| 37> H   -0.76046964  -0.73858163   5.21758306
| 38> H   -0.56054298   1.13252734   3.71886182
| 39> H   -2.68291371  -2.94909361   2.15814172
| 40> H   -2.01112576  -2.72192077   4.47714519
| 41> H   -1.26430886   3.74929251   0.98817617
| 42> C   -2.33766033  -1.08354027   0.13984439
| 43> H   -3.05717173  -0.26075802   0.13131549
| 44> H   -2.94281688  -1.96909299  -0.05385050
| 45> O    1.49995282   0.51443966  -1.92355319
| 46> C    2.25529610  -0.46399918  -2.35609733
| 47> O    2.17005829  -1.62857828  -2.04693208
| 48> C    3.35364408  -0.05494328  -3.39478998
| 49> H    3.73009875  -0.92555663  -3.92068483
| 50> H    4.18974910   0.34371957  -2.81289347
| 51> H    3.06838514   0.69092041  -4.12097794
| 52> *
| 53>
| 54>                          ****END OF INPUT****

CARTESIAN COORDINATES (ANGSTROEM)
---------------------------------
  Pd     0.416651    0.224636   -0.153899
  O      1.951446    1.301516    0.622720
  C      1.713635    2.618887    0.348693
  O      0.708378    2.970634   -0.144131
  C      2.884035    3.580955    0.648991
  H      2.473197    4.499029    1.083982
  H      3.338475    3.869977   -0.298762
  H      3.644293    3.179260    1.296543
  N     -1.340223   -0.877238   -0.989962
  C     -1.032036   -2.178746   -1.582136
  H     -0.320720   -2.078657   -2.366950
  H     -1.937782   -2.590216   -2.013817
  H     -0.635707   -2.841595   -0.819431
  C     -1.917280   -0.003320   -2.016684
  H     -2.023623    1.008678   -1.664458
  H     -2.883146   -0.407802   -2.308138
  H     -1.275573   -0.009362   -2.893257
  C     -1.746567   -1.114211    1.489790
  C     -2.027877   -2.140314    2.418697
  C     -1.668805   -2.004000    3.742911
  C     -1.028085   -0.860558    4.171679
  C     -0.838391    0.204826    3.280467
  C     -1.103405    0.013680    1.941724
  H     -0.760470   -0.738582    5.217583
  H     -0.560543    1.132527    3.718862
  H     -2.682914   -2.949094    2.158142
  H     -2.011126   -2.721921    4.477145
  H     -1.264309    3.749293    0.988176
  C     -2.337660   -1.083540    0.139844
  H     -3.057172   -0.260758    0.131315
  H     -2.942817   -1.969093   -0.053851
  O      1.499953    0.514440   -1.923553
  C      2.255296   -0.463999   -2.356097
  O      2.170058   -1.628578   -2.046932
  C      3.353644   -0.054943   -3.394790
  H      3.730099   -0.925557   -3.920685
  H      4.189749    0.343720   -2.812893
  H      3.068385    0.690920   -4.120978

 Total Charge           Charge          ....    0
 Multiplicity           Mult            ....    1
 Number of Electrons    NEL             ....  154
 Basis Dimension        Dim             ....  339

ORBITAL ENERGIES
----------------

  NO   OCC          E(Eh)            E(eV)
   0   2.0000     -19.489720      -530.3422
   1   2.0000     -19.473946      -529.9130
   2   2.0000     -19.464313      -529.6509
   3   2.0000     -19.425153      -528.5853
   4   2.0000     -14.717428      -400.4816
   5   2.0000     -10.552315      -287.1431
   6   2.0000     -10.525641      -286.4173
   7   2.0000     -10.505156      -285.8598
   8   2.0000     -10.500403      -285.7305
   9   2.0000     -10.490023      -285.4480
  10   2.0000     -10.478472      -285.1337
  11   2.0000     -10.475813      -285.0614
  12   2.0000     -10.475392      -285.0499
  13   2.0000     -10.473687      -285.0035
  14   2.0000     -10.470859      -284.9266
  15   2.0000     -10.469043      -284.8771
  16   2.0000     -10.429217      -283.7934
  17   2.0000     -10.407810      -283.2109
  18   2.0000      -3.660444       -99.6057
  19   2.0000      -2.309011       -62.8314
  20   2.0000      -2.298719       -62.5513
  21   2.0000      -2.272904       -61.8489
  22   2.0000      -1.183039       -32.1921
  23   2.0000      -1.135110       -30.8879
  24   2.0000      -1.071329       -29.1523
  25   2.0000      -1.056081       -28.7374
  26   2.0000      -1.040549       -28.3148
  27   2.0000      -0.988085       -26.8872
  28   2.0000      -0.896664       -24.3995
  29   2.0000      -0.859468       -23.3873
  30   2.0000      -0.819243       -22.2927
  31   2.0000      -0.806204       -21.9379
  32   2.0000      -0.805389       -21.9157
  33   2.0000      -0.778495       -21.1839
  34   2.0000      -0.719033       -19.5659
  35   2.0000      -0.707756       -19.2590
  36   2.0000      -0.672671       -18.3043
  37   2.0000      -0.606522       -16.5043
  38   2.0000      -0.593017       -16.1368
  39   2.0000      -0.574178       -15.6242
  40   2.0000      -0.572432       -15.5767
  41   2.0000      -0.568455       -15.4684
  42   2.0000      -0.559295       -15.2192
  43   2.0000      -0.540241       -14.7007
  44   2.0000      -0.525153       -14.2901
  45   2.0000      -0.524719       -14.2783
  46   2.0000      -0.513048       -13.9608
  47   2.0000      -0.506219       -13.7749
  48   2.0000      -0.496057       -13.4984
  49   2.0000      -0.493274       -13.4227
  50   2.0000      -0.485587       -13.2135
  51   2.0000      -0.478036       -13.0080
  52   2.0000      -0.475761       -12.9461
  53   2.0000      -0.471778       -12.8377
  54   2.0000      -0.462475       -12.5846
  55   2.0000      -0.448001       -12.1907
  56   2.0000      -0.445983       -12.1358
  57   2.0000      -0.443161       -12.0590
  58   2.0000      -0.432890       -11.7795
  59   2.0000      -0.430349       -11.7104
  60   2.0000      -0.426930       -11.6174
  61   2.0000      -0.421534       -11.4705
  62   2.0000      -0.406466       -11.0605
  63   2.0000      -0.397267       -10.8102
  64   2.0000      -0.375475       -10.2172
  65   2.0000      -0.361105        -9.8262
  66   2.0000      -0.347322        -9.4511
  67   2.0000      -0.340056        -9.2534
  68   2.0000      -0.330859        -9.0031
  69   2.0000      -0.325365        -8.8536
  70   2.0000      -0.318014        -8.6536
  71   2.0000      -0.312024        -8.4906
  72   2.0000      -0.308295        -8.3891
  73   2.0000      -0.295520        -8.0415
  74   2.0000      -0.282453        -7.6859
  75   2.0000      -0.274025        -7.4566
  76   2.0000      -0.257590        -7.0094
  77   0.0000      -0.183402        -4.9906
  78   0.0000      -0.072155        -1.9634
  79   0.0000      -0.014383        -0.3914
  80   0.0000      -0.000970        -0.0264
  81   0.0000       0.066466         1.8086

MULLIKEN ATOMIC CHARGES
-----------------------
   0 Pd:    0.403644
   1 O :   -0.518316
   2 C :    0.584858
   3 O :   -0.368012
   4 C :   -0.748473
   5 H :    0.231468
   6 H :    0.254811
   7 H :    0.251191
   8 N :   -0.469384
   9 C :   -0.523004
  10 H :    0.299399
  11 H :    0.208294
  12 H :    0.265613
  13 C :   -0.532081
  14 H :    0.283913
  15 H :    0.222227
  16 H :    0.278636
  17 C :    0.066955
  18 C :   -0.244230
  19 C :   -0.214575
  20 C :   -0.214956
  21 C :   -0.279923
  22 C :   -0.033027
  23 H :    0.239363
  24 H :    0.253288
  25 H :    0.225195
  26 H :    0.236590
  27 H :    0.125935
  28 C :   -0.335888
  29 H :    0.273601
  30 H :    0.242462
  31 O :   -0.522882
  32 C :    0.544910
  33 O :   -0.448532
  34 C :   -0.741023
  35 H :    0.235465
  36 H :    0.235711
  37 H :    0.230778
Sum of atomic charges:    0.0000000

LOEWDIN ATOMIC CHARGES
----------------------
   0 Pd:   -0.324524
   1 O :   -0.183857
   2 C :    0.158084
   3 O :   -0.149899
   4 C :   -0.385035
   5 H :    0.143534
   6 H :    0.157549
   7 H :    0.145361
   8 N :   -0.066512
   9 C :   -0.236039
  10 H :    0.161705
  11 H :    0.113606
  12 H :    0.151789
  13 C :   -0.234372
  14 H :    0.156659
  15 H :    0.119315
  16 H :    0.157400
  17 C :   -0.052380
  18 C :   -0.123225
  19 C :   -0.121318
  20 C :   -0.119208
  21 C :   -0.108968
  22 C :    0.031219
  23 H :    0.145075
  24 H :    0.155289
  25 H :    0.142611
  26 H :    0.145256
  27 H :    0.135051
  28 C :   -0.103527
  29 H :    0.157371
  30 H :    0.135758
  31 O :   -0.205545
  32 C :    0.130313
  33 O :   -0.258080
  34 C :   -0.392038
  35 H :    0.138173
  36 H :    0.147745
  37 H :    0.135664

  Mayer bond orders larger than 0.100000
B(  0-Pd,  1-O ) :   0.6861 B(  0-Pd,  3-O ) :   0.1099 B(  0-Pd,  8-N ) :   0.3912
B(  0-Pd, 22-C ) :   0.4185 B(  0-Pd, 27-H ) :   0.2270 B(  0-Pd, 31-O ) :   0.6243
B(  1-O ,  2-C ) :   1.1879 B(  2-C ,  3-O ) :   1.8608 B(  2-C ,  4-C ) :   0.9334
B(  3-O , 27-H ) :   0.1039 B(  4-C ,  5-H ) :   0.9174 B(  4-C ,  6-H ) :   0.9087
B(  4-C ,  7-H ) :   0.9105 B(  8-N ,  9-C ) :   0.9253 B(  8-N , 13-C ) :   0.9214
B(  8-N , 28-C ) :   0.8853 B(  9-C , 10-H ) :   0.8841 B(  9-C , 11-H ) :   0.9041
B(  9-C , 12-H ) :   0.9077 B( 13-C , 14-H ) :   0.8954 B( 13-C , 15-H ) :   0.9039
B( 13-C , 16-H ) :   0.8964 B( 17-C , 18-C ) :   1.3880 B( 17-C , 22-C ) :   1.3386
B( 17-C , 28-C ) :   0.9588 B( 18-C , 19-C ) :   1.4410 B( 18-C , 25-H ) :   0.9110
B( 19-C , 20-C ) :   1.4206 B( 19-C , 26-H ) :   0.9106 B( 20-C , 21-C ) :   1.4112
B( 20-C , 23-H ) :   0.9071 B( 21-C , 22-C ) :   1.4193 B( 21-C , 24-H ) :   0.9034
B( 22-C , 27-H ) :   0.4246 B( 28-C , 29-H ) :   0.8960 B( 28-C , 30-H ) :   0.9065
B( 31-O , 32-C ) :   1.2787 B( 31-O , 33-O ) :   0.1028 B( 32-C , 33-O ) :   1.8821
B( 32-C , 34-C ) :   0.9157 B( 34-C , 35-H ) :   0.9192 B( 34-C , 36-H ) :   0.9161
B( 34-C , 37-H ) :   0.9162

Dispersion correction           -0.025785186
FINAL SINGLE POINT ENERGY      -988.237036733618
Dispersion correction            ... done

DIPOLE MOMENT
-------------
                                X             Y             Z
Electronic contribution:     15.63688      10.96838      -7.19465
Nuclear contribution   :    -18.19188     -11.09019       8.34954
                        -----------------------------------------
Total Dipole Moment    :     -2.55500      -0.12182       1.15489
                        -----------------------------------------
Magnitude (a.u.)       :      2.80653
Magnitude (Debye)      :      7.13364

Rotational constants in cm-1:     0.014014     0.008360     0.006367
Rotational constants in MHz :   420.126692   250.641236   190.873449

                             ****ORCA TERMINATED NORMALLY****
TOTAL RUN TIME: 0 days 0 hours 14 minutes 40 seconds 178 msec
