                         Program Version 5.0.3 -  RELEASE  -
|  1> ! EnGrad PBEh-3c
|  2> %output
|  3> xyzfile=True
|  4> end
|  5> %scf
|  6> maxiter 250
|  7> end
|  8> %output
|  9> Print[P_Hirshfeld] = 1
| 10> end
| 11> % maxcore
| 12> 4000
| 13> *xyz 0 1
| 14> Pd   0.41986834   0.23904948  -0.14444592
| 15> O    1.94519158   1.29420244   0.61994105
| 16> C    1.71653312   2.61768710   0.35330367
| 17> O    0.69160775   2.97392825  -0.14839443
| 18> C    2.88158622   3.58004958   0.64895070
| 19> H    2.46932115   4.49775365   1.08320633
| 20> H    3.33652586   3.87071555  -0.29903429
| 21> H    3.64460498   3.18074301   1.29807564
| 22> N   -1.34513053  -0.87986061  -0.99496127
| 23> C   -1.03322728  -2.17971449  -1.58972681
| 24> H   -0.32090967  -2.06951989  -2.37389790
| 25> H   -1.94476531  -2.58381826  -2.01277288
| 26> H   -0.63710466  -2.84194131  -0.82588502
| 27> C   -1.92096757   0.00264055  -2.01605963
| 28> H   -2.02653781   1.01437426  -1.65715030
| 29> H   -2.88661055  -0.40213162  -2.30451711
| 30> H   -1.27506913  -0.00141937  -2.88941624
| 31> C   -1.75561230  -1.10669734   1.49482875
| 32> C   -2.02277846  -2.14036125   2.41666676
| 33> C   -1.65920831  -2.00686695   3.74034619
| 34> C   -1.03433077  -0.85525565   4.17196883
| 35> C   -0.84437156   0.21059265   3.28286102
| 36> C   -1.09107394   0.01210166   1.94145396
| 37> H   -0.76038492  -0.73591484   5.21679635
| 38> H   -0.56569552   1.13982243   3.71770483
| 39> H   -2.66810457  -2.95604367   2.15177715
| 40> H   -1.99784032  -2.72662589   4.47414954
| 41> H   -1.26578671   3.73805731   0.99063468
| 42> C   -2.33764968  -1.08584301   0.13938235
| 43> H   -3.05477798  -0.26290552   0.13164017
| 44> H   -2.93606215  -1.97447635  -0.05757588
| 45> O    1.49889035   0.51373391  -1.92511985
| 46> C    2.25563760  -0.47163664  -2.35043631
| 47> O    2.16497025  -1.63700736  -2.06356028
| 48> C    3.35864257  -0.05982462  -3.38945910
| 49> H    3.73575887  -0.93293275  -3.91324012
| 50> H    4.19218742   0.33918512  -2.80614078
| 51> H    3.07393865   0.68692436  -4.11674936
| 52> *
| 53>
| 54>                          ****END OF INPUT****

CARTESIAN COORDINATES (ANGSTROEM)
---------------------------------
  Pd     0.419868    0.239049   -0.144446
  O      1.945192    1.294202    0.619941
  C      1.716533    2.617687    0.353304
  O      0.691608    2.973928   -0.148394
  C      2.881586    3.580050    0.648951
  H      2.469321    4.497754    1.083206
  H      3.336526    3.870716   -0.299034
  H      3.644605    3.180743    1.298076
  N     -1.345131   -0.879861   -0.994961
  C     -1.033227   -2.179714   -1.589727
  H     -0.320910   -2.069520   -2.373898
  H     -1.944765   -2.583818   -2.012773
  H     -0.637105   -2.841941   -0.825885
  C     -1.920968    0.002641   -2.016060
  H     -2.026538    1.014374   -1.657150
  H     -2.886611   -0.402132   -2.304517
  H     -1.275069   -0.001419   -2.889416
  C     -1.755612   -1.106697    1.494829
  C     -2.022778   -2.140361    2.416667
  C     -1.659208   -2.006867    3.740346
  C     -1.034331   -0.855256    4.171969
  C     -0.844372    0.210593    3.282861
  C     -1.091074    0.012102    1.941454
  H     -0.760385   -0.735915    5.216796
  H     -0.565696    1.139822    3.717705
  H     -2.668105   -2.956044    2.151777
  H     -1.997840   -2.726626    4.474150
  H     -1.265787    3.738057    0.990635
  C     -2.337650   -1.085843    0.139382
  H     -3.054778   -0.262906    0.131640
  H     -2.936062   -1.974476   -0.057576
  O      1.498890    0.513734   -1.925120
  C      2.255638   -0.471637   -2.350436
  O      2.164970   -1.637007   -2.063560
  C      3.358643   -0.059825   -3.389459
  H      3.735759   -0.932933   -3.913240
  H      4.192187    0.339185   -2.806141
  H      3.073939    0.686924   -4.116749

 Total Charge           Charge          ....    0
 Multiplicity           Mult            ....    1
 Number of Electrons    NEL             ....  154
 Basis Dimension        Dim             ....  339

ORBITAL ENERGIES
----------------

  NO   OCC          E(Eh)            E(eV)
   0   2.0000     -19.495277      -530.4935
   1   2.0000     -19.476684      -529.9875
   2   2.0000     -19.463795      -529.6368
   3   2.0000     -19.426412      -528.6195
   4   2.0000     -14.715192      -400.4207
   5   2.0000     -10.558110      -287.3008
   6   2.0000     -10.525775      -286.4209
   7   2.0000     -10.503834      -285.8239
   8   2.0000     -10.499508      -285.7061
   9   2.0000     -10.489067      -285.4220
  10   2.0000     -10.477623      -285.1106
  11   2.0000     -10.474794      -285.0336
  12   2.0000     -10.474727      -285.0318
  13   2.0000     -10.472759      -284.9782
  14   2.0000     -10.470214      -284.9090
  15   2.0000     -10.468394      -284.8595
  16   2.0000     -10.433249      -283.9031
  17   2.0000     -10.406975      -283.1882
  18   2.0000      -3.660821       -99.6160
  19   2.0000      -2.309709       -62.8504
  20   2.0000      -2.298741       -62.5519
  21   2.0000      -2.273311       -61.8599
  22   2.0000      -1.174781       -31.9674
  23   2.0000      -1.135678       -30.9034
  24   2.0000      -1.069225       -29.0951
  25   2.0000      -1.057821       -28.7848
  26   2.0000      -1.041317       -28.3357
  27   2.0000      -0.987346       -26.8670
  28   2.0000      -0.895454       -24.3665
  29   2.0000      -0.858880       -23.3713
  30   2.0000      -0.818304       -22.2672
  31   2.0000      -0.810460       -22.0537
  32   2.0000      -0.804441       -21.8900
  33   2.0000      -0.776762       -21.1368
  34   2.0000      -0.717285       -19.5183
  35   2.0000      -0.706866       -19.2348
  36   2.0000      -0.671628       -18.2759
  37   2.0000      -0.606095       -16.4927
  38   2.0000      -0.597528       -16.2596
  39   2.0000      -0.572901       -15.5894
  40   2.0000      -0.571203       -15.5432
  41   2.0000      -0.567039       -15.4299
  42   2.0000      -0.558159       -15.1883
  43   2.0000      -0.538947       -14.6655
  44   2.0000      -0.526073       -14.3152
  45   2.0000      -0.524047       -14.2600
  46   2.0000      -0.513385       -13.9699
  47   2.0000      -0.505875       -13.7655
  48   2.0000      -0.494622       -13.4593
  49   2.0000      -0.492938       -13.4135
  50   2.0000      -0.485103       -13.2003
  51   2.0000      -0.478059       -13.0086
  52   2.0000      -0.475312       -12.9339
  53   2.0000      -0.471344       -12.8259
  54   2.0000      -0.462278       -12.5792
  55   2.0000      -0.449793       -12.2395
  56   2.0000      -0.445704       -12.1282
  57   2.0000      -0.442336       -12.0366
  58   2.0000      -0.433561       -11.7978
  59   2.0000      -0.431091       -11.7306
  60   2.0000      -0.425687       -11.5835
  61   2.0000      -0.421270       -11.4633
  62   2.0000      -0.405484       -11.0338
  63   2.0000      -0.398547       -10.8450
  64   2.0000      -0.376431       -10.2432
  65   2.0000      -0.361348        -9.8328
  66   2.0000      -0.346606        -9.4316
  67   2.0000      -0.340662        -9.2699
  68   2.0000      -0.332124        -9.0376
  69   2.0000      -0.327085        -8.9004
  70   2.0000      -0.319142        -8.6843
  71   2.0000      -0.311697        -8.4817
  72   2.0000      -0.308121        -8.3844
  73   2.0000      -0.295996        -8.0545
  74   2.0000      -0.281709        -7.6657
  75   2.0000      -0.274951        -7.4818
  76   2.0000      -0.256910        -6.9909
  77   0.0000      -0.182305        -4.9608
  78   0.0000      -0.071101        -1.9348
  79   0.0000      -0.012558        -0.3417
  80   0.0000      -0.001066        -0.0290
  81   0.0000       0.066052         1.7974

MULLIKEN ATOMIC CHARGES
-----------------------
   0 Pd:    0.408099
   1 O :   -0.518240
   2 C :    0.595298
   3 O :   -0.384365
   4 C :   -0.747144
   5 H :    0.234817
   6 H :    0.257834
   7 H :    0.252136
   8 N :   -0.466752
   9 C :   -0.520505
  10 H :    0.298224
  11 H :    0.207179
  12 H :    0.264618
  13 C :   -0.531018
  14 H :    0.282957
  15 H :    0.221402
  16 H :    0.277978
  17 C :    0.070383
  18 C :   -0.243314
  19 C :   -0.213998
  20 C :   -0.216064
  21 C :   -0.282550
  22 C :   -0.037022
  23 H :    0.238916
  24 H :    0.252731
  25 H :    0.224922
  26 H :    0.235867
  27 H :    0.126365
  28 C :   -0.335397
  29 H :    0.272568
  30 H :    0.241103
  31 O :   -0.525376
  32 C :    0.544219
  33 O :   -0.443346
  34 C :   -0.741138
  35 H :    0.234303
  36 H :    0.233969
  37 H :    0.230342
Sum of atomic charges:    0.0000000

LOEWDIN ATOMIC CHARGES
----------------------
   0 Pd:   -0.325663
   1 O :   -0.177250
   2 C :    0.175795
   3 O :   -0.167501
   4 C :   -0.382907
   5 H :    0.145585
   6 H :    0.159456
   7 H :    0.146442
   8 N :   -0.070398
   9 C :   -0.235555
  10 H :    0.161724
  11 H :    0.113164
  12 H :    0.151408
  13 C :   -0.234485
  14 H :    0.156583
  15 H :    0.118828
  16 H :    0.157246
  17 C :   -0.051604
  18 C :   -0.123940
  19 C :   -0.121199
  20 C :   -0.120529
  21 C :   -0.109399
  22 C :    0.030359
  23 H :    0.144793
  24 H :    0.154886
  25 H :    0.142384
  26 H :    0.145130
  27 H :    0.135724
  28 C :   -0.104304
  29 H :    0.157165
  30 H :    0.135296
  31 O :   -0.210273
  32 C :    0.129996
  33 O :   -0.253063
  34 C :   -0.393370
  35 H :    0.137554
  36 H :    0.146422
  37 H :    0.135499

  Mayer bond orders larger than 0.100000
B(  0-Pd,  1-O ) :   0.6844 B(  0-Pd,  3-O ) :   0.1128 B(  0-Pd,  8-N ) :   0.3879
B(  0-Pd, 22-C ) :   0.4297 B(  0-Pd, 27-H ) :   0.2308 B(  0-Pd, 31-O ) :   0.6229
B(  1-O ,  2-C ) :   1.1927 B(  2-C ,  3-O ) :   1.8278 B(  2-C ,  4-C ) :   0.9375
B(  3-O , 27-H ) :   0.1133 B(  4-C ,  5-H ) :   0.9158 B(  4-C ,  6-H ) :   0.9068
B(  4-C ,  7-H ) :   0.9095 B(  8-N ,  9-C ) :   0.9259 B(  8-N , 13-C ) :   0.9220
B(  8-N , 28-C ) :   0.8867 B(  9-C , 10-H ) :   0.8847 B(  9-C , 11-H ) :   0.9044
B(  9-C , 12-H ) :   0.9082 B( 13-C , 14-H ) :   0.8958 B( 13-C , 15-H ) :   0.9042
B( 13-C , 16-H ) :   0.8967 B( 17-C , 18-C ) :   1.3901 B( 17-C , 22-C ) :   1.3338
B( 17-C , 28-C ) :   0.9603 B( 18-C , 19-C ) :   1.4378 B( 18-C , 25-H ) :   0.9113
B( 19-C , 20-C ) :   1.4209 B( 19-C , 26-H ) :   0.9111 B( 20-C , 21-C ) :   1.4112
B( 20-C , 23-H ) :   0.9074 B( 21-C , 22-C ) :   1.4196 B( 21-C , 24-H ) :   0.9038
B( 22-C , 27-H ) :   0.4116 B( 28-C , 29-H ) :   0.8962 B( 28-C , 30-H ) :   0.9067
B( 31-O , 32-C ) :   1.2754 B( 31-O , 33-O ) :   0.1028 B( 32-C , 33-O ) :   1.8907
B( 32-C , 34-C ) :   0.9136 B( 34-C , 35-H ) :   0.9197 B( 34-C , 36-H ) :   0.9167
B( 34-C , 37-H ) :   0.9167

Dispersion correction           -0.025776608
FINAL SINGLE POINT ENERGY      -988.240350836603
Dispersion correction            ... done

DIPOLE MOMENT
-------------
                                X             Y             Z
Electronic contribution:     15.93852      11.80793      -6.62018
Nuclear contribution   :    -18.39510     -11.87177       7.82053
                        -----------------------------------------
Total Dipole Moment    :     -2.45657      -0.06385       1.20035
                        -----------------------------------------
Magnitude (a.u.)       :      2.73490
Magnitude (Debye)      :      6.95156

Rotational constants in cm-1:     0.013983     0.008363     0.006368
Rotational constants in MHz :   419.192849   250.708631   190.915161

                             ****ORCA TERMINATED NORMALLY****
TOTAL RUN TIME: 0 days 0 hours 20 minutes 25 seconds 909 msec
