                         Program Version 5.0.3 -  RELEASE  -
|  1> ! EnGrad PBEh-3c
|  2> %output
|  3> xyzfile=True
|  4> end
|  5> %scf
|  6> maxiter 250
|  7> end
|  8> %output
|  9> Print[P_Hirshfeld] = 1
| 10> end
| 11> % maxcore
| 12> 4000
| 13> *xyz 0 1
| 14> Pd   0.44136198   0.41961379  -0.03045179
| 15> O    1.86390552   1.24544684   0.58500599
| 16> C    1.62096618   2.61331067   0.34775306
| 17> O    0.59843995   2.96995901  -0.13294511
| 18> C    2.84334705   3.56568688   0.65043755
| 19> H    2.41295599   4.47882596   1.07174496
| 20> H    3.30536807   3.87947203  -0.30145176
| 21> H    3.64325864   3.20344136   1.31647546
| 22> N   -1.39884449  -0.89385675  -1.03537905
| 23> C   -1.05611204  -2.17571872  -1.69122068
| 24> H   -0.32934752  -1.94085180  -2.47884556
| 25> H   -2.04770664  -2.49984708  -2.01008153
| 26> H   -0.65641119  -2.84571772  -0.92771960
| 27> C   -1.96928572   0.08321597  -1.99724619
| 28> H   -2.06874172   1.09254335  -1.54925158
| 29> H   -2.94270107  -0.31550873  -2.25831360
| 30> H   -1.27351121   0.11909891  -2.83531022
| 31> C   -1.85806425  -1.01943670   1.55508137
| 32> C   -1.95086818  -2.13634114   2.38870643
| 33> C   -1.52332793  -2.04065534   3.70665089
| 34> C   -1.11704967  -0.78129981   4.18004315
| 35> C   -0.92595235   0.28697135   3.31584492
| 36> C   -0.93391137   0.00221096   1.92983049
| 37> H   -0.76487782  -0.69564460   5.20506772
| 38> H   -0.64584609   1.24857636   3.70474698
| 39> H   -2.44696566  -3.05732612   2.05880394
| 40> H   -1.79633826  -2.79807280   4.42945793
| 41> H   -1.28983893   3.57167328   1.02795467
| 42> C   -2.33330658  -1.11414784   0.12269611
| 43> H   -3.02909174  -0.29587600   0.13119549
| 44> H   -2.84196830  -2.05438268  -0.10425075
| 45> O    1.50171953   0.47416518  -1.92806112
| 46> C    2.25820800  -0.53917804  -2.31601607
| 47> O    2.07606401  -1.77615122  -2.28602396
| 48> C    3.42880144  -0.13458751  -3.30058426
| 49> H    3.81652110  -1.03948051  -3.80112429
| 50> H    4.23391787   0.27314604  -2.70471506
| 51> H    3.15953011   0.62302305  -4.05276402
| 52> *
| 53>
| 54>                          ****END OF INPUT****

CARTESIAN COORDINATES (ANGSTROEM)
---------------------------------
  Pd     0.441362    0.419614   -0.030452
  O      1.863906    1.245447    0.585006
  C      1.620966    2.613311    0.347753
  O      0.598440    2.969959   -0.132945
  C      2.843347    3.565687    0.650438
  H      2.412956    4.478826    1.071745
  H      3.305368    3.879472   -0.301452
  H      3.643259    3.203441    1.316475
  N     -1.398844   -0.893857   -1.035379
  C     -1.056112   -2.175719   -1.691221
  H     -0.329348   -1.940852   -2.478846
  H     -2.047707   -2.499847   -2.010082
  H     -0.656411   -2.845718   -0.927720
  C     -1.969286    0.083216   -1.997246
  H     -2.068742    1.092543   -1.549252
  H     -2.942701   -0.315509   -2.258314
  H     -1.273511    0.119099   -2.835310
  C     -1.858064   -1.019437    1.555081
  C     -1.950868   -2.136341    2.388706
  C     -1.523328   -2.040655    3.706651
  C     -1.117050   -0.781300    4.180043
  C     -0.925952    0.286971    3.315845
  C     -0.933911    0.002211    1.929830
  H     -0.764878   -0.695645    5.205068
  H     -0.645846    1.248576    3.704747
  H     -2.446966   -3.057326    2.058804
  H     -1.796338   -2.798073    4.429458
  H     -1.289839    3.571673    1.027955
  C     -2.333307   -1.114148    0.122696
  H     -3.029092   -0.295876    0.131195
  H     -2.841968   -2.054383   -0.104251
  O      1.501720    0.474165   -1.928061
  C      2.258208   -0.539178   -2.316016
  O      2.076064   -1.776151   -2.286024
  C      3.428801   -0.134588   -3.300584
  H      3.816521   -1.039481   -3.801124
  H      4.233918    0.273146   -2.704715
  H      3.159530    0.623023   -4.052764

 Total Charge           Charge          ....    0
 Multiplicity           Mult            ....    1
 Number of Electrons    NEL             ....  154
 Basis Dimension        Dim             ....  339

ORBITAL ENERGIES
----------------

  NO   OCC          E(Eh)            E(eV)
   0   2.0000     -19.530284      -531.4460
   1   2.0000     -19.510419      -530.9055
   2   2.0000     -19.461189      -529.5659
   3   2.0000     -19.423558      -528.5419
   4   2.0000     -14.691012      -399.7628
   5   2.0000     -10.588577      -288.1298
   6   2.0000     -10.529036      -286.5096
   7   2.0000     -10.517920      -286.2072
   8   2.0000     -10.496942      -285.6363
   9   2.0000     -10.496046      -285.6119
  10   2.0000     -10.483786      -285.2783
  11   2.0000     -10.479488      -285.1614
  12   2.0000     -10.477497      -285.1072
  13   2.0000     -10.475539      -285.0539
  14   2.0000     -10.474551      -285.0270
  15   2.0000     -10.465408      -284.7782
  16   2.0000     -10.455947      -284.5208
  17   2.0000     -10.401826      -283.0481
  18   2.0000      -3.677417      -100.0676
  19   2.0000      -2.335035       -63.5395
  20   2.0000      -2.308992       -62.8309
  21   2.0000      -2.291226       -62.3474
  22   2.0000      -1.211243       -32.9596
  23   2.0000      -1.109209       -30.1831
  24   2.0000      -1.098005       -29.8782
  25   2.0000      -1.048721       -28.5372
  26   2.0000      -1.029569       -28.0160
  27   2.0000      -0.986214       -26.8362
  28   2.0000      -0.887547       -24.1514
  29   2.0000      -0.859031       -23.3754
  30   2.0000      -0.820818       -22.3356
  31   2.0000      -0.805974       -21.9317
  32   2.0000      -0.798422       -21.7262
  33   2.0000      -0.763661       -20.7803
  34   2.0000      -0.704864       -19.1803
  35   2.0000      -0.699217       -19.0267
  36   2.0000      -0.665769       -18.1165
  37   2.0000      -0.638039       -17.3619
  38   2.0000      -0.600631       -16.3440
  39   2.0000      -0.568363       -15.4659
  40   2.0000      -0.565038       -15.3755
  41   2.0000      -0.561423       -15.2771
  42   2.0000      -0.557006       -15.1569
  43   2.0000      -0.547430       -14.8963
  44   2.0000      -0.542128       -14.7520
  45   2.0000      -0.531658       -14.4672
  46   2.0000      -0.527291       -14.3483
  47   2.0000      -0.520293       -14.1579
  48   2.0000      -0.486517       -13.2388
  49   2.0000      -0.484106       -13.1732
  50   2.0000      -0.478588       -13.0231
  51   2.0000      -0.469743       -12.7824
  52   2.0000      -0.468528       -12.7493
  53   2.0000      -0.465801       -12.6751
  54   2.0000      -0.463534       -12.6134
  55   2.0000      -0.460057       -12.5188
  56   2.0000      -0.453599       -12.3431
  57   2.0000      -0.440059       -11.9746
  58   2.0000      -0.436192       -11.8694
  59   2.0000      -0.435841       -11.8598
  60   2.0000      -0.432813       -11.7774
  61   2.0000      -0.420718       -11.4483
  62   2.0000      -0.414099       -11.2682
  63   2.0000      -0.411472       -11.1967
  64   2.0000      -0.388387       -10.5685
  65   2.0000      -0.376368       -10.2415
  66   2.0000      -0.361841        -9.8462
  67   2.0000      -0.356483        -9.7004
  68   2.0000      -0.343186        -9.3386
  69   2.0000      -0.326701        -8.8900
  70   2.0000      -0.316591        -8.6149
  71   2.0000      -0.310193        -8.4408
  72   2.0000      -0.302371        -8.2279
  73   2.0000      -0.290241        -7.8979
  74   2.0000      -0.285302        -7.7635
  75   2.0000      -0.265833        -7.2337
  76   2.0000      -0.257570        -7.0088
  77   0.0000      -0.180468        -4.9108
  78   0.0000      -0.062063        -1.6888
  79   0.0000      -0.022921        -0.6237
  80   0.0000      -0.008178        -0.2225
  81   0.0000       0.039740         1.0814

MULLIKEN ATOMIC CHARGES
-----------------------
   0 Pd:    0.484965
   1 O :   -0.549968
   2 C :    0.600047
   3 O :   -0.352759
   4 C :   -0.752440
   5 H :    0.243924
   6 H :    0.265670
   7 H :    0.255816
   8 N :   -0.452763
   9 C :   -0.496737
  10 H :    0.293357
  11 H :    0.191046
  12 H :    0.255066
  13 C :   -0.524169
  14 H :    0.263956
  15 H :    0.216096
  16 H :    0.274300
  17 C :    0.060385
  18 C :   -0.244008
  19 C :   -0.195906
  20 C :   -0.223388
  21 C :   -0.270076
  22 C :   -0.062369
  23 H :    0.240915
  24 H :    0.256155
  25 H :    0.235981
  26 H :    0.235547
  27 H :    0.100156
  28 C :   -0.319280
  29 H :    0.263228
  30 H :    0.225666
  31 O :   -0.536059
  32 C :    0.553180
  33 O :   -0.478220
  34 C :   -0.732052
  35 H :    0.230536
  36 H :    0.221809
  37 H :    0.222396
Sum of atomic charges:    0.0000000

LOEWDIN ATOMIC CHARGES
----------------------
   0 Pd:   -0.321912
   1 O :   -0.135623
   2 C :    0.212970
   3 O :   -0.123022
   4 C :   -0.382828
   5 H :    0.149158
   6 H :    0.163030
   7 H :    0.151120
   8 N :   -0.123960
   9 C :   -0.232213
  10 H :    0.168780
  11 H :    0.108896
  12 H :    0.146380
  13 C :   -0.236898
  14 H :    0.151405
  15 H :    0.115914
  16 H :    0.157190
  17 C :   -0.034296
  18 C :   -0.126482
  19 C :   -0.113539
  20 C :   -0.133414
  21 C :   -0.109599
  22 C :    0.056278
  23 H :    0.146784
  24 H :    0.155385
  25 H :    0.145129
  26 H :    0.147299
  27 H :    0.111825
  28 C :   -0.119439
  29 H :    0.154834
  30 H :    0.131698
  31 O :   -0.245310
  32 C :    0.158253
  33 O :   -0.303664
  34 C :   -0.396582
  35 H :    0.136621
  36 H :    0.135392
  37 H :    0.134441

  Mayer bond orders larger than 0.100000
B(  0-Pd,  1-O ) :   0.7628 B(  0-Pd,  3-O ) :   0.1199 B(  0-Pd,  8-N ) :   0.3190
B(  0-Pd, 22-C ) :   0.5263 B(  0-Pd, 27-H ) :   0.3070 B(  0-Pd, 31-O ) :   0.5599
B(  1-O ,  2-C ) :   1.0789 B(  2-C ,  3-O ) :   1.8775 B(  2-C ,  4-C ) :   0.9331
B(  4-C ,  5-H ) :   0.9091 B(  4-C ,  6-H ) :   0.9022 B(  4-C ,  7-H ) :   0.9075
B(  8-N ,  9-C ) :   0.9220 B(  8-N , 13-C ) :   0.9282 B(  8-N , 28-C ) :   0.9120
B(  9-C , 10-H ) :   0.8828 B(  9-C , 11-H ) :   0.9061 B(  9-C , 12-H ) :   0.9117
B( 13-C , 14-H ) :   0.9019 B( 13-C , 15-H ) :   0.9069 B( 13-C , 16-H ) :   0.8982
B( 17-C , 18-C ) :   1.4003 B( 17-C , 22-C ) :   1.2806 B( 17-C , 28-C ) :   0.9757
B( 18-C , 19-C ) :   1.4025 B( 18-C , 25-H ) :   0.9109 B( 19-C , 20-C ) :   1.3905
B( 19-C , 26-H ) :   0.9124 B( 20-C , 21-C ) :   1.4209 B( 20-C , 23-H ) :   0.9094
B( 21-C , 22-C ) :   1.3702 B( 21-C , 24-H ) :   0.9059 B( 22-C , 27-H ) :   0.3209
B( 28-C , 29-H ) :   0.8942 B( 28-C , 30-H ) :   0.9071 B( 31-O , 32-C ) :   1.3104
B( 31-O , 33-O ) :   0.1072 B( 32-C , 33-O ) :   1.8494 B( 32-C , 34-C ) :   0.9102
B( 34-C , 35-H ) :   0.9232 B( 34-C , 36-H ) :   0.9180 B( 34-C , 37-H ) :   0.9202

Dispersion correction           -0.025660604
FINAL SINGLE POINT ENERGY      -988.174649489889
Dispersion correction            ... done

DIPOLE MOMENT
-------------
                                X             Y             Z
Electronic contribution:     17.91560      22.11593       0.33681
Nuclear contribution   :    -19.88089     -21.68738       1.47614
                        -----------------------------------------
Total Dipole Moment    :     -1.96529       0.42855       1.81295
                        -----------------------------------------
Magnitude (a.u.)       :      2.70792
Magnitude (Debye)      :      6.88298

Rotational constants in cm-1:     0.013580     0.008430     0.006382
Rotational constants in MHz :   407.118100   252.735683   191.326052

                             ****ORCA TERMINATED NORMALLY****
TOTAL RUN TIME: 0 days 0 hours 12 minutes 53 seconds 790 msec
