                         Program Version 5.0.3 -  RELEASE  -
|  1> ! EnGrad PBEh-3c
|  2> %output
|  3> xyzfile=True
|  4> end
|  5> %scf
|  6> maxiter 250
|  7> end
|  8> %output
|  9> Print[P_Hirshfeld] = 1
| 10> end
| 11> % maxcore
| 12> 4000
| 13> *xyz 0 1
| 14> Pd   0.42677857   0.29710114  -0.10779666
| 15> O    1.91905801   1.27852745   0.60870938
| 16> C    1.68580823   2.61628007   0.35151914
| 17> O    0.66165418   2.97265213  -0.14342745
| 18> C    2.86929227   3.57543195   0.64942872
| 19> H    2.45119968   4.49166837   1.07952148
| 20> H    3.32650859   3.87353077  -0.29981151
| 21> H    3.64417213   3.18804056   1.30399121
| 22> N   -1.36239964  -0.88436039  -1.00795563
| 23> C   -1.04058476  -2.17842984  -1.62235722
| 24> H   -0.32362245  -2.02815293  -2.40763871
| 25> H   -1.97786108  -2.55682141  -2.01190761
| 26> H   -0.64331174  -2.84315543  -0.85862497
| 27> C   -1.93650192   0.02854565  -2.01001108
| 28> H   -2.04010642   1.03950572  -1.62246072
| 29> H   -2.90464373  -0.37428225  -2.28966262
| 30> H   -1.27456826   0.03732742  -2.87202108
| 31> C   -1.78855074  -1.07864293   1.51420005
| 32> C   -1.99965921  -2.13906878   2.40767748
| 33> C   -1.61552259  -2.01772996   3.72951311
| 34> C   -1.06092500  -0.83147875   4.17456474
| 35> C   -0.87059989   0.23514850   3.29346539
| 36> C   -1.04054596   0.00892179   1.93771700
| 37> H   -0.76182940  -0.72296791   5.21302558
| 38> H   -0.59146403   1.17478696   3.71353886
| 39> H   -2.59700812  -2.98860611   2.12188614
| 40> H   -1.93305714  -2.74959617   4.45978113
| 41> H   -1.27351953   3.68456462   1.00263311
| 42> C   -2.33625337  -1.09494305   0.13401770
| 43> H   -3.04651982  -0.27350557   0.13149721
| 44> H   -2.90581085  -2.00016634  -0.07258191
| 45> O    1.49979994   0.50101251  -1.92606547
| 46> C    2.25646398  -0.49335129  -2.33937016
| 47> O    2.13638678  -1.68174229  -2.13508265
| 48> C    3.38119874  -0.08386099  -3.36088572
| 49> H    3.76172403  -0.96718799  -3.87719473
| 50> H    4.20560382   0.31795347  -2.77353228
| 51> H    3.10145642   0.66638001  -4.09617799
| 52> *
| 53>
| 54>                          ****END OF INPUT****

CARTESIAN COORDINATES (ANGSTROEM)
---------------------------------
  Pd     0.426779    0.297101   -0.107797
  O      1.919058    1.278527    0.608709
  C      1.685808    2.616280    0.351519
  O      0.661654    2.972652   -0.143427
  C      2.869292    3.575432    0.649429
  H      2.451200    4.491668    1.079521
  H      3.326509    3.873531   -0.299812
  H      3.644172    3.188041    1.303991
  N     -1.362400   -0.884360   -1.007956
  C     -1.040585   -2.178430   -1.622357
  H     -0.323622   -2.028153   -2.407639
  H     -1.977861   -2.556821   -2.011908
  H     -0.643312   -2.843155   -0.858625
  C     -1.936502    0.028546   -2.010011
  H     -2.040106    1.039506   -1.622461
  H     -2.904644   -0.374282   -2.289663
  H     -1.274568    0.037327   -2.872021
  C     -1.788551   -1.078643    1.514200
  C     -1.999659   -2.139069    2.407677
  C     -1.615523   -2.017730    3.729513
  C     -1.060925   -0.831479    4.174565
  C     -0.870600    0.235149    3.293465
  C     -1.040546    0.008922    1.937717
  H     -0.761829   -0.722968    5.213026
  H     -0.591464    1.174787    3.713539
  H     -2.597008   -2.988606    2.121886
  H     -1.933057   -2.749596    4.459781
  H     -1.273520    3.684565    1.002633
  C     -2.336253   -1.094943    0.134018
  H     -3.046520   -0.273506    0.131497
  H     -2.905811   -2.000166   -0.072582
  O      1.499800    0.501013   -1.926065
  C      2.256464   -0.493351   -2.339370
  O      2.136387   -1.681742   -2.135083
  C      3.381199   -0.083861   -3.360886
  H      3.761724   -0.967188   -3.877195
  H      4.205604    0.317953   -2.773532
  H      3.101456    0.666380   -4.096178

 Total Charge           Charge          ....    0
 Multiplicity           Mult            ....    1
 Number of Electrons    NEL             ....  154
 Basis Dimension        Dim             ....  339

ORBITAL ENERGIES
----------------

  NO   OCC          E(Eh)            E(eV)
   0   2.0000     -19.505750      -530.7785
   1   2.0000     -19.486703      -530.2601
   2   2.0000     -19.462698      -529.6069
   3   2.0000     -19.425963      -528.6073
   4   2.0000     -14.707891      -400.2221
   5   2.0000     -10.567549      -287.5576
   6   2.0000     -10.526122      -286.4303
   7   2.0000     -10.503725      -285.8209
   8   2.0000     -10.501251      -285.7536
   9   2.0000     -10.490332      -285.4564
  10   2.0000     -10.476902      -285.0910
  11   2.0000     -10.476582      -285.0823
  12   2.0000     -10.474891      -285.0363
  13   2.0000     -10.472771      -284.9786
  14   2.0000     -10.471596      -284.9466
  15   2.0000     -10.467315      -284.8301
  16   2.0000     -10.440279      -284.0944
  17   2.0000     -10.404685      -283.1259
  18   2.0000      -3.664677       -99.7209
  19   2.0000      -2.315132       -62.9980
  20   2.0000      -2.300806       -62.6081
  21   2.0000      -2.277772       -61.9813
  22   2.0000      -1.185326       -32.2544
  23   2.0000      -1.129244       -30.7283
  24   2.0000      -1.068942       -29.0874
  25   2.0000      -1.062466       -28.9112
  26   2.0000      -1.039574       -28.2883
  27   2.0000      -0.987556       -26.8728
  28   2.0000      -0.893242       -24.3063
  29   2.0000      -0.859537       -23.3892
  30   2.0000      -0.814688       -22.1688
  31   2.0000      -0.813407       -22.1339
  32   2.0000      -0.803194       -21.8560
  33   2.0000      -0.772277       -21.0147
  34   2.0000      -0.712733       -19.3945
  35   2.0000      -0.705795       -19.2056
  36   2.0000      -0.670435       -18.2435
  37   2.0000      -0.610483       -16.6121
  38   2.0000      -0.602841       -16.4041
  39   2.0000      -0.570533       -15.5250
  40   2.0000      -0.568089       -15.4585
  41   2.0000      -0.564254       -15.3541
  42   2.0000      -0.554794       -15.0967
  43   2.0000      -0.537818       -14.6348
  44   2.0000      -0.534607       -14.5474
  45   2.0000      -0.523966       -14.2578
  46   2.0000      -0.521970       -14.2035
  47   2.0000      -0.510803       -13.8996
  48   2.0000      -0.491988       -13.3877
  49   2.0000      -0.490419       -13.3450
  50   2.0000      -0.483624       -13.1601
  51   2.0000      -0.475489       -12.9387
  52   2.0000      -0.473277       -12.8785
  53   2.0000      -0.470135       -12.7930
  54   2.0000      -0.462276       -12.5792
  55   2.0000      -0.454864       -12.3775
  56   2.0000      -0.444316       -12.0904
  57   2.0000      -0.441125       -12.0036
  58   2.0000      -0.438703       -11.9377
  59   2.0000      -0.433721       -11.8022
  60   2.0000      -0.422659       -11.5011
  61   2.0000      -0.419254       -11.4085
  62   2.0000      -0.407187       -11.0801
  63   2.0000      -0.404866       -11.0170
  64   2.0000      -0.382490       -10.4081
  65   2.0000      -0.363658        -9.8956
  66   2.0000      -0.346117        -9.4183
  67   2.0000      -0.341960        -9.3052
  68   2.0000      -0.336848        -9.1661
  69   2.0000      -0.332720        -9.0538
  70   2.0000      -0.322281        -8.7697
  71   2.0000      -0.311987        -8.4896
  72   2.0000      -0.307674        -8.3722
  73   2.0000      -0.294960        -8.0263
  74   2.0000      -0.281890        -7.6706
  75   2.0000      -0.273668        -7.4469
  76   2.0000      -0.257698        -7.0123
  77   0.0000      -0.182167        -4.9570
  78   0.0000      -0.068043        -1.8515
  79   0.0000      -0.010106        -0.2750
  80   0.0000      -0.005078        -0.1382
  81   0.0000       0.059598         1.6217

MULLIKEN ATOMIC CHARGES
-----------------------
   0 Pd:    0.425007
   1 O :   -0.527630
   2 C :    0.599514
   3 O :   -0.374966
   4 C :   -0.748771
   5 H :    0.237515
   6 H :    0.260315
   7 H :    0.253292
   8 N :   -0.459977
   9 C :   -0.512247
  10 H :    0.296070
  11 H :    0.202033
  12 H :    0.261287
  13 C :   -0.528333
  14 H :    0.277271
  15 H :    0.219339
  16 H :    0.276697
  17 C :    0.077818
  18 C :   -0.242394
  19 C :   -0.208727
  20 C :   -0.218883
  21 C :   -0.287062
  22 C :   -0.046526
  23 H :    0.239860
  24 H :    0.253634
  25 H :    0.227314
  26 H :    0.234880
  27 H :    0.120667
  28 C :   -0.331657
  29 H :    0.269441
  30 H :    0.236493
  31 O :   -0.529678
  32 C :    0.547527
  33 O :   -0.449823
  34 C :   -0.739301
  35 H :    0.232554
  36 H :    0.230055
  37 H :    0.227387
Sum of atomic charges:   -0.0000000

LOEWDIN ATOMIC CHARGES
----------------------
   0 Pd:   -0.328914
   1 O :   -0.163973
   2 C :    0.188795
   3 O :   -0.154460
   4 C :   -0.382832
   5 H :    0.146642
   6 H :    0.160567
   7 H :    0.147764
   8 N :   -0.086209
   9 C :   -0.233762
  10 H :    0.163466
  11 H :    0.111459
  12 H :    0.149827
  13 C :   -0.235057
  14 H :    0.155196
  15 H :    0.117682
  16 H :    0.157196
  17 C :   -0.045656
  18 C :   -0.125578
  19 C :   -0.118201
  20 C :   -0.124943
  21 C :   -0.108788
  22 C :    0.036901
  23 H :    0.145238
  24 H :    0.155040
  25 H :    0.142883
  26 H :    0.145656
  27 H :    0.130778
  28 C :   -0.108392
  29 H :    0.156449
  30 H :    0.134176
  31 O :   -0.221187
  32 C :    0.135765
  33 O :   -0.263465
  34 C :   -0.394814
  35 H :    0.136930
  36 H :    0.142911
  37 H :    0.134910

  Mayer bond orders larger than 0.100000
B(  0-Pd,  1-O ) :   0.7132 B(  0-Pd,  3-O ) :   0.1140 B(  0-Pd,  8-N ) :   0.3672
B(  0-Pd, 22-C ) :   0.4657 B(  0-Pd, 27-H ) :   0.2582 B(  0-Pd, 31-O ) :   0.6055
B(  1-O ,  2-C ) :   1.1533 B(  2-C ,  3-O ) :   1.8452 B(  2-C ,  4-C ) :   0.9363
B(  3-O , 27-H ) :   0.1054 B(  4-C ,  5-H ) :   0.9139 B(  4-C ,  6-H ) :   0.9054
B(  4-C ,  7-H ) :   0.9088 B(  8-N ,  9-C ) :   0.9258 B(  8-N , 13-C ) :   0.9241
B(  8-N , 28-C ) :   0.8942 B(  9-C , 10-H ) :   0.8850 B(  9-C , 11-H ) :   0.9049
B(  9-C , 12-H ) :   0.9097 B( 13-C , 14-H ) :   0.8978 B( 13-C , 15-H ) :   0.9051
B( 13-C , 16-H ) :   0.8973 B( 17-C , 18-C ) :   1.3988 B( 17-C , 22-C ) :   1.3131
B( 17-C , 28-C ) :   0.9648 B( 18-C , 19-C ) :   1.4236 B( 18-C , 25-H ) :   0.9116
B( 19-C , 20-C ) :   1.4176 B( 19-C , 26-H ) :   0.9119 B( 20-C , 21-C ) :   1.4109
B( 20-C , 23-H ) :   0.9079 B( 21-C , 22-C ) :   1.4141 B( 21-C , 24-H ) :   0.9046
B( 22-C , 27-H ) :   0.3831 B( 28-C , 29-H ) :   0.8959 B( 28-C , 30-H ) :   0.9071
B( 31-O , 32-C ) :   1.2846 B( 31-O , 33-O ) :   0.1037 B( 32-C , 33-O ) :   1.8867
B( 32-C , 34-C ) :   0.9112 B( 34-C , 35-H ) :   0.9212 B( 34-C , 36-H ) :   0.9174
B( 34-C , 37-H ) :   0.9181

Dispersion correction           -0.025756813
FINAL SINGLE POINT ENERGY      -988.236570281467
Dispersion correction            ... done

DIPOLE MOMENT
-------------
                                X             Y             Z
Electronic contribution:     16.55584      15.11645      -4.39334
Nuclear contribution   :    -18.87278     -15.02750       5.78080
                        -----------------------------------------
Total Dipole Moment    :     -2.31694       0.08895       1.38746
                        -----------------------------------------
Magnitude (a.u.)       :      2.70207
Magnitude (Debye)      :      6.86811

Rotational constants in cm-1:     0.013867     0.008387     0.006376
Rotational constants in MHz :   415.710423   251.426395   191.151648

                             ****ORCA TERMINATED NORMALLY****
TOTAL RUN TIME: 0 days 0 hours 15 minutes 17 seconds 356 msec
