                         Program Version 5.0.3 -  RELEASE  -
|  1> ! EnGrad PBEh-3c
|  2> %output
|  3> xyzfile=True
|  4> end
|  5> %scf
|  6> maxiter 250
|  7> end
|  8> %output
|  9> Print[P_Hirshfeld] = 1
| 10> end
| 11> % maxcore
| 12> 4000
| 13> *xyz 0 1
| 14> Pd   0.65941362   0.59260128  -0.55956865
| 15> O    2.28471067   1.61221126   0.28709315
| 16> C    1.71676157   2.71991951   0.25199813
| 17> O    0.49284998   2.74433663  -0.08278713
| 18> C    2.43324011   3.99059898   0.54578659
| 19> H    1.78142285   4.71040548   1.03619101
| 20> H    2.77394825   4.42825001  -0.39426872
| 21> H    3.30961319   3.81059427   1.16323945
| 22> N   -1.16778667  -0.25296201  -1.14325974
| 23> C   -1.25675368  -0.82348863  -2.50311013
| 24> H   -0.95150952  -0.10470782  -3.26036185
| 25> H   -2.27719426  -1.14883668  -2.74060751
| 26> H   -0.62110129  -1.69516786  -2.60527568
| 27> C   -2.10028065   0.88297462  -1.17835200
| 28> H   -2.05946371   1.43293691  -0.24924235
| 29> H   -3.13138439   0.56295232  -1.36078571
| 30> H   -1.81766174   1.60244748  -1.94618118
| 31> C   -1.42155943  -0.94704242   1.27737208
| 32> C   -0.36812288  -1.56527214   1.95868619
| 33> C   -0.23698053  -1.51104926   3.33754976
| 34> C   -1.18614135  -0.82404859   4.07202896
| 35> C   -2.35689059  -0.45028970   3.42770073
| 36> C   -2.36920103  -0.25600659   2.04377730
| 37> H   -1.09868074  -0.78774866   5.15049233
| 38> H   -3.19286844  -0.23174063   4.08401046
| 39> H    0.36108765  -2.17848822   1.44293974
| 40> H    0.59489457  -1.98493219   3.84166320
| 41> H   -3.73605917   0.85503942   1.76994139
| 42> C   -1.61518165  -1.28176073  -0.17844068
| 43> H   -2.68677303  -1.48677584  -0.30022577
| 44> H   -1.10251846  -2.21199793  -0.43238659
| 45> O    1.71080273  -1.00138912  -1.06479418
| 46> C    2.26916327  -0.89536093  -2.23244007
| 47> O    1.97045423  -0.05525353  -3.05990113
| 48> C    3.37207582  -1.87515982  -2.55008761
| 49> H    3.07870296  -2.90012564  -2.33005860
| 50> H    4.24480354  -1.65334876  -1.93132149
| 51> H    3.70016558  -1.82231445  -3.58699628
| 52> *
| 53>
| 54>                          ****END OF INPUT****

CARTESIAN COORDINATES (ANGSTROEM)
---------------------------------
  Pd     0.659414    0.592601   -0.559569
  O      2.284711    1.612211    0.287093
  C      1.716762    2.719920    0.251998
  O      0.492850    2.744337   -0.082787
  C      2.433240    3.990599    0.545787
  H      1.781423    4.710405    1.036191
  H      2.773948    4.428250   -0.394269
  H      3.309613    3.810594    1.163239
  N     -1.167787   -0.252962   -1.143260
  C     -1.256754   -0.823489   -2.503110
  H     -0.951510   -0.104708   -3.260362
  H     -2.277194   -1.148837   -2.740608
  H     -0.621101   -1.695168   -2.605276
  C     -2.100281    0.882975   -1.178352
  H     -2.059464    1.432937   -0.249242
  H     -3.131384    0.562952   -1.360786
  H     -1.817662    1.602447   -1.946181
  C     -1.421559   -0.947042    1.277372
  C     -0.368123   -1.565272    1.958686
  C     -0.236981   -1.511049    3.337550
  C     -1.186141   -0.824049    4.072029
  C     -2.356891   -0.450290    3.427701
  C     -2.369201   -0.256007    2.043777
  H     -1.098681   -0.787749    5.150492
  H     -3.192868   -0.231741    4.084010
  H      0.361088   -2.178488    1.442940
  H      0.594895   -1.984932    3.841663
  H     -3.736059    0.855039    1.769941
  C     -1.615182   -1.281761   -0.178441
  H     -2.686773   -1.486776   -0.300226
  H     -1.102518   -2.211998   -0.432387
  O      1.710803   -1.001389   -1.064794
  C      2.269163   -0.895361   -2.232440
  O      1.970454   -0.055254   -3.059901
  C      3.372076   -1.875160   -2.550088
  H      3.078703   -2.900126   -2.330059
  H      4.244804   -1.653349   -1.931321
  H      3.700166   -1.822314   -3.586996

 Total Charge           Charge          ....    0
 Multiplicity           Mult            ....    1
 Number of Electrons    NEL             ....  154
 Basis Dimension        Dim             ....  339

ORBITAL ENERGIES
----------------

  NO   OCC          E(Eh)            E(eV)
   0   2.0000     -19.493342      -530.4408
   1   2.0000     -19.479469      -530.0633
   2   2.0000     -19.479336      -530.0597
   3   2.0000     -19.429995      -528.7171
   4   2.0000     -14.727468      -400.7548
   5   2.0000     -10.560348      -287.3617
   6   2.0000     -10.531981      -286.5898
   7   2.0000     -10.517324      -286.1909
   8   2.0000     -10.504275      -285.8359
   9   2.0000     -10.487036      -285.3668
  10   2.0000     -10.480640      -285.1927
  11   2.0000     -10.480028      -285.1761
  12   2.0000     -10.466488      -284.8076
  13   2.0000     -10.462632      -284.7027
  14   2.0000     -10.461222      -284.6643
  15   2.0000     -10.458081      -284.5789
  16   2.0000     -10.435183      -283.9558
  17   2.0000     -10.415926      -283.4317
  18   2.0000      -3.660226       -99.5998
  19   2.0000      -2.307561       -62.7919
  20   2.0000      -2.305628       -62.7393
  21   2.0000      -2.268623       -61.7324
  22   2.0000      -1.194743       -32.5106
  23   2.0000      -1.152113       -31.3506
  24   2.0000      -1.083260       -29.4770
  25   2.0000      -1.073532       -29.2123
  26   2.0000      -1.053523       -28.6678
  27   2.0000      -0.977754       -26.6060
  28   2.0000      -0.886789       -24.1308
  29   2.0000      -0.846262       -23.0280
  30   2.0000      -0.828079       -22.5332
  31   2.0000      -0.820072       -22.3153
  32   2.0000      -0.805084       -21.9075
  33   2.0000      -0.798557       -21.7299
  34   2.0000      -0.723077       -19.6759
  35   2.0000      -0.691531       -18.8175
  36   2.0000      -0.670855       -18.2549
  37   2.0000      -0.607074       -16.5193
  38   2.0000      -0.594836       -16.1863
  39   2.0000      -0.591634       -16.0992
  40   2.0000      -0.581250       -15.8166
  41   2.0000      -0.574481       -15.6324
  42   2.0000      -0.556240       -15.1361
  43   2.0000      -0.537478       -14.6255
  44   2.0000      -0.535368       -14.5681
  45   2.0000      -0.532886       -14.5006
  46   2.0000      -0.521132       -14.1807
  47   2.0000      -0.517069       -14.0702
  48   2.0000      -0.512325       -13.9411
  49   2.0000      -0.496644       -13.5144
  50   2.0000      -0.490902       -13.3581
  51   2.0000      -0.489921       -13.3314
  52   2.0000      -0.477035       -12.9808
  53   2.0000      -0.468768       -12.7558
  54   2.0000      -0.456305       -12.4167
  55   2.0000      -0.452693       -12.3184
  56   2.0000      -0.442973       -12.0539
  57   2.0000      -0.441965       -12.0265
  58   2.0000      -0.437673       -11.9097
  59   2.0000      -0.434699       -11.8288
  60   2.0000      -0.432291       -11.7632
  61   2.0000      -0.420108       -11.4317
  62   2.0000      -0.415897       -11.3171
  63   2.0000      -0.405576       -11.0363
  64   2.0000      -0.385592       -10.4925
  65   2.0000      -0.372255       -10.1296
  66   2.0000      -0.359963        -9.7951
  67   2.0000      -0.357838        -9.7373
  68   2.0000      -0.348756        -9.4901
  69   2.0000      -0.340659        -9.2698
  70   2.0000      -0.320406        -8.7187
  71   2.0000      -0.314628        -8.5615
  72   2.0000      -0.307106        -8.3568
  73   2.0000      -0.300588        -8.1794
  74   2.0000      -0.296911        -8.0794
  75   2.0000      -0.294378        -8.0104
  76   2.0000      -0.271710        -7.3936
  77   0.0000      -0.054547        -1.4843
  78   0.0000      -0.036039        -0.9807
  79   0.0000      -0.009018        -0.2454
  80   0.0000       0.002505         0.0682
  81   0.0000       0.055175         1.5014

MULLIKEN ATOMIC CHARGES
-----------------------
   0 Pd:    0.530878
   1 O :   -0.468162
   2 C :    0.655572
   3 O :   -0.518049
   4 C :   -0.768089
   5 H :    0.252505
   6 H :    0.260214
   7 H :    0.251487
   8 N :   -0.489522
   9 C :   -0.529816
  10 H :    0.290096
  11 H :    0.223697
  12 H :    0.269636
  13 C :   -0.551095
  14 H :    0.297940
  15 H :    0.229242
  16 H :    0.282539
  17 C :    0.014815
  18 C :   -0.226167
  19 C :   -0.219310
  20 C :   -0.208603
  21 C :   -0.222609
  22 C :   -0.141568
  23 H :    0.230394
  24 H :    0.239423
  25 H :    0.258553
  26 H :    0.237184
  27 H :    0.100088
  28 C :   -0.337768
  29 H :    0.249161
  30 H :    0.276562
  31 O :   -0.553785
  32 C :    0.565903
  33 O :   -0.452400
  34 C :   -0.744015
  35 H :    0.225460
  36 H :    0.244656
  37 H :    0.244952
Sum of atomic charges:    0.0000000

LOEWDIN ATOMIC CHARGES
----------------------
   0 Pd:   -0.265588
   1 O :   -0.139929
   2 C :    0.170351
   3 O :   -0.216070
   4 C :   -0.377066
   5 H :    0.154006
   6 H :    0.164413
   7 H :    0.151989
   8 N :   -0.039620
   9 C :   -0.233328
  10 H :    0.161697
  11 H :    0.122027
  12 H :    0.148191
  13 C :   -0.237205
  14 H :    0.162696
  15 H :    0.125932
  16 H :    0.158058
  17 C :   -0.064810
  18 C :   -0.102510
  19 C :   -0.126108
  20 C :   -0.126788
  21 C :   -0.136717
  22 C :   -0.067325
  23 H :    0.140377
  24 H :    0.142309
  25 H :    0.162448
  26 H :    0.143268
  27 H :    0.087832
  28 C :   -0.102854
  29 H :    0.139900
  30 H :    0.157937
  31 O :   -0.189648
  32 C :    0.128059
  33 O :   -0.249186
  34 C :   -0.381341
  35 H :    0.138790
  36 H :    0.151866
  37 H :    0.143947

  Mayer bond orders larger than 0.100000
B(  0-Pd,  1-O ) :   0.5451 B(  0-Pd,  3-O ) :   0.4691 B(  0-Pd,  8-N ) :   0.4308
B(  0-Pd, 31-O ) :   0.6579 B(  0-Pd, 33-O ) :   0.1129 B(  1-O ,  2-C ) :   1.4629
B(  1-O ,  3-O ) :   0.1008 B(  2-C ,  3-O ) :   1.4909 B(  2-C ,  4-C ) :   0.9548
B(  4-C ,  5-H ) :   0.9107 B(  4-C ,  6-H ) :   0.9031 B(  4-C ,  7-H ) :   0.9097
B(  8-N ,  9-C ) :   0.9189 B(  8-N , 13-C ) :   0.9150 B(  8-N , 28-C ) :   0.8965
B(  9-C , 10-H ) :   0.8949 B(  9-C , 11-H ) :   0.9007 B(  9-C , 12-H ) :   0.9038
B( 13-C , 14-H ) :   0.8830 B( 13-C , 15-H ) :   0.9029 B( 13-C , 16-H ) :   0.8955
B( 17-C , 18-C ) :   1.3970 B( 17-C , 22-C ) :   1.4076 B( 17-C , 28-C ) :   0.9538
B( 18-C , 19-C ) :   1.4384 B( 18-C , 25-H ) :   0.8978 B( 19-C , 20-C ) :   1.4217
B( 19-C , 26-H ) :   0.9109 B( 20-C , 21-C ) :   1.4165 B( 20-C , 23-H ) :   0.9134
B( 21-C , 22-C ) :   1.4235 B( 21-C , 24-H ) :   0.9123 B( 22-C , 27-H ) :   0.9020
B( 28-C , 29-H ) :   0.8983 B( 28-C , 30-H ) :   0.9023 B( 31-O , 32-C ) :   1.2427
B( 32-C , 33-O ) :   1.8752 B( 32-C , 34-C ) :   0.9394 B( 34-C , 35-H ) :   0.9166
B( 34-C , 36-H ) :   0.9109 B( 34-C , 37-H ) :   0.9188

Dispersion correction           -0.026257362
FINAL SINGLE POINT ENERGY      -988.414838382767
Dispersion correction            ... done

DIPOLE MOMENT
-------------
                                X             Y             Z
Electronic contribution:     28.82818      29.00320     -28.12142
Nuclear contribution   :    -30.60658     -29.62243      29.00918
                        -----------------------------------------
Total Dipole Moment    :     -1.77841      -0.61924       0.88776
                        -----------------------------------------
Magnitude (a.u.)       :      2.08190
Magnitude (Debye)      :      5.29176

Rotational constants in cm-1:     0.013273     0.008316     0.007087
Rotational constants in MHz :   397.919765   249.293194   212.466700

                             ****ORCA TERMINATED NORMALLY****
TOTAL RUN TIME: 0 days 0 hours 13 minutes 26 seconds 652 msec
