                         Program Version 5.0.3 -  RELEASE  -
|  1> ! EnGrad PBEh-3c
|  2> %output
|  3> xyzfile=True
|  4> end
|  5> %scf
|  6> maxiter 250
|  7> end
|  8> %output
|  9> Print[P_Hirshfeld] = 1
| 10> end
| 11> % maxcore
| 12> 4000
| 13> *xyz 0 1
| 14> Pd   0.71894531   0.57802590  -0.52479584
| 15> O    2.22473445   1.53417249   0.27748539
| 16> C    1.63647292   2.67250171   0.26104674
| 17> O    0.43476776   2.70651529  -0.07102425
| 18> C    2.46389503   3.91633149   0.55829036
| 19> H    1.85234917   4.68140063   1.03448507
| 20> H    2.82516950   4.34391373  -0.38430757
| 21> H    3.34034284   3.71449511   1.17943310
| 22> N   -1.22968829  -0.30562733  -1.19199413
| 23> C   -1.24803258  -1.01236058  -2.49606611
| 24> H   -0.92414515  -0.30825940  -3.25839274
| 25> H   -2.28634823  -1.31418579  -2.69763890
| 26> H   -0.59247399  -1.88257004  -2.49480465
| 27> C   -2.14815573   0.83816211  -1.25784093
| 28> H   -2.15732340   1.40531630  -0.32541503
| 29> H   -3.16098679   0.46913992  -1.46791515
| 30> H   -1.81778867   1.45132631  -2.09537405
| 31> C   -1.52874817  -0.84910719   1.33174793
| 32> C   -0.51606296  -1.63458190   1.97907586
| 33> C   -0.28994835  -1.53708075   3.35620968
| 34> C   -1.28153984  -0.93577697   4.09185568
| 35> C   -2.29704131  -0.16342643   3.48038572
| 36> C   -2.42852395   0.01115673   2.12889674
| 37> H   -1.16046672  -0.80238800   5.16471952
| 38> H   -3.17109402   0.08547625   4.05208369
| 39> H    0.16323282  -2.30960507   1.42300803
| 40> H    0.49116764  -2.11319635   3.85953777
| 41> H   -2.77813219   0.98354722   1.92636760
| 42> C   -1.70558764  -1.25007354  -0.13850155
| 43> H   -2.77495542  -1.43535538  -0.29028277
| 44> H   -1.22810996  -2.22706076  -0.32972728
| 45> O    1.75923524  -1.01046671  -1.10666214
| 46> C    2.25993330  -0.80478171  -2.29909840
| 47> O    1.85015947   0.01800181  -3.09937448
| 48> C    3.45115729  -1.71865642  -2.58899046
| 49> H    3.22178948  -2.77239283  -2.41571909
| 50> H    4.29925431  -1.45626234  -1.95334704
| 51> H    3.74075067  -1.58217006  -3.63025100
| 52> *
| 53>
| 54>                          ****END OF INPUT****

CARTESIAN COORDINATES (ANGSTROEM)
---------------------------------
  Pd     0.718945    0.578026   -0.524796
  O      2.224734    1.534172    0.277485
  C      1.636473    2.672502    0.261047
  O      0.434768    2.706515   -0.071024
  C      2.463895    3.916331    0.558290
  H      1.852349    4.681401    1.034485
  H      2.825169    4.343914   -0.384308
  H      3.340343    3.714495    1.179433
  N     -1.229688   -0.305627   -1.191994
  C     -1.248033   -1.012361   -2.496066
  H     -0.924145   -0.308259   -3.258393
  H     -2.286348   -1.314186   -2.697639
  H     -0.592474   -1.882570   -2.494805
  C     -2.148156    0.838162   -1.257841
  H     -2.157323    1.405316   -0.325415
  H     -3.160987    0.469140   -1.467915
  H     -1.817789    1.451326   -2.095374
  C     -1.528748   -0.849107    1.331748
  C     -0.516063   -1.634582    1.979076
  C     -0.289948   -1.537081    3.356210
  C     -1.281540   -0.935777    4.091856
  C     -2.297041   -0.163426    3.480386
  C     -2.428524    0.011157    2.128897
  H     -1.160467   -0.802388    5.164720
  H     -3.171094    0.085476    4.052084
  H      0.163233   -2.309605    1.423008
  H      0.491168   -2.113196    3.859538
  H     -2.778132    0.983547    1.926368
  C     -1.705588   -1.250074   -0.138502
  H     -2.774955   -1.435355   -0.290283
  H     -1.228110   -2.227061   -0.329727
  O      1.759235   -1.010467   -1.106662
  C      2.259933   -0.804782   -2.299098
  O      1.850159    0.018002   -3.099374
  C      3.451157   -1.718656   -2.588990
  H      3.221789   -2.772393   -2.415719
  H      4.299254   -1.456262   -1.953347
  H      3.740751   -1.582170   -3.630251

 Total Charge           Charge          ....    0
 Multiplicity           Mult            ....    1
 Number of Electrons    NEL             ....  154
 Basis Dimension        Dim             ....  339

ORBITAL ENERGIES
----------------

  NO   OCC          E(Eh)            E(eV)
   0   2.0000     -19.506506      -530.7990
   1   2.0000     -19.500764      -530.6428
   2   2.0000     -19.475567      -529.9571
   3   2.0000     -19.437317      -528.9163
   4   2.0000     -14.710609      -400.2960
   5   2.0000     -10.577784      -287.8361
   6   2.0000     -10.535145      -286.6759
   7   2.0000     -10.497413      -285.6491
   8   2.0000     -10.489198      -285.4256
   9   2.0000     -10.481021      -285.2031
  10   2.0000     -10.476611      -285.0831
  11   2.0000     -10.467318      -284.8302
  12   2.0000     -10.466270      -284.8017
  13   2.0000     -10.459210      -284.6096
  14   2.0000     -10.458045      -284.5779
  15   2.0000     -10.457081      -284.5516
  16   2.0000     -10.446438      -284.2620
  17   2.0000     -10.416343      -283.4431
  18   2.0000      -3.657559       -99.5273
  19   2.0000      -2.306768       -62.7703
  20   2.0000      -2.302202       -62.6461
  21   2.0000      -2.265942       -61.6594
  22   2.0000      -1.207599       -32.8604
  23   2.0000      -1.148155       -31.2429
  24   2.0000      -1.091704       -29.7068
  25   2.0000      -1.065944       -29.0058
  26   2.0000      -1.052776       -28.6475
  27   2.0000      -0.962407       -26.1884
  28   2.0000      -0.868460       -23.6320
  29   2.0000      -0.856474       -23.3058
  30   2.0000      -0.828980       -22.5577
  31   2.0000      -0.815134       -22.1809
  32   2.0000      -0.794314       -21.6144
  33   2.0000      -0.789893       -21.4941
  34   2.0000      -0.712946       -19.4003
  35   2.0000      -0.685950       -18.6656
  36   2.0000      -0.669156       -18.2087
  37   2.0000      -0.619477       -16.8568
  38   2.0000      -0.594193       -16.1688
  39   2.0000      -0.586868       -15.9695
  40   2.0000      -0.568389       -15.4667
  41   2.0000      -0.562605       -15.3093
  42   2.0000      -0.555821       -15.1247
  43   2.0000      -0.552040       -15.0218
  44   2.0000      -0.548458       -14.9243
  45   2.0000      -0.529288       -14.4026
  46   2.0000      -0.525017       -14.2864
  47   2.0000      -0.521436       -14.1890
  48   2.0000      -0.507944       -13.8219
  49   2.0000      -0.495384       -13.4801
  50   2.0000      -0.493358       -13.4249
  51   2.0000      -0.488748       -13.2995
  52   2.0000      -0.476545       -12.9674
  53   2.0000      -0.471832       -12.8392
  54   2.0000      -0.460735       -12.5372
  55   2.0000      -0.451526       -12.2866
  56   2.0000      -0.449954       -12.2439
  57   2.0000      -0.448812       -12.2128
  58   2.0000      -0.441094       -12.0028
  59   2.0000      -0.431276       -11.7356
  60   2.0000      -0.429788       -11.6951
  61   2.0000      -0.419390       -11.4122
  62   2.0000      -0.410573       -11.1722
  63   2.0000      -0.397919       -10.8279
  64   2.0000      -0.394061       -10.7229
  65   2.0000      -0.385893       -10.5007
  66   2.0000      -0.377098       -10.2614
  67   2.0000      -0.362742        -9.8707
  68   2.0000      -0.350426        -9.5356
  69   2.0000      -0.344989        -9.3876
  70   2.0000      -0.316420        -8.6102
  71   2.0000      -0.314273        -8.5518
  72   2.0000      -0.306008        -8.3269
  73   2.0000      -0.299840        -8.1591
  74   2.0000      -0.297868        -8.1054
  75   2.0000      -0.288686        -7.8556
  76   2.0000      -0.272022        -7.4021
  77   0.0000      -0.047860        -1.3023
  78   0.0000      -0.021979        -0.5981
  79   0.0000      -0.000597        -0.0162
  80   0.0000       0.043202         1.1756
  81   0.0000       0.067633         1.8404

MULLIKEN ATOMIC CHARGES
-----------------------
   0 Pd:    0.536652
   1 O :   -0.498647
   2 C :    0.662663
   3 O :   -0.486692
   4 C :   -0.767922
   5 H :    0.249912
   6 H :    0.262788
   7 H :    0.259200
   8 N :   -0.466035
   9 C :   -0.513657
  10 H :    0.281011
  11 H :    0.212140
  12 H :    0.266719
  13 C :   -0.521375
  14 H :    0.273894
  15 H :    0.218360
  16 H :    0.269113
  17 C :    0.012837
  18 C :   -0.247906
  19 C :   -0.190109
  20 C :   -0.225196
  21 C :   -0.220288
  22 C :   -0.250568
  23 H :    0.223632
  24 H :    0.231411
  25 H :    0.258337
  26 H :    0.229840
  27 H :    0.246299
  28 C :   -0.342917
  29 H :    0.236525
  30 H :    0.263212
  31 O :   -0.552446
  32 C :    0.566756
  33 O :   -0.449519
  34 C :   -0.740812
  35 H :    0.230400
  36 H :    0.246305
  37 H :    0.236086
Sum of atomic charges:    0.0000000

LOEWDIN ATOMIC CHARGES
----------------------
   0 Pd:   -0.264457
   1 O :   -0.138350
   2 C :    0.198055
   3 O :   -0.177456
   4 C :   -0.379109
   5 H :    0.151160
   6 H :    0.164591
   7 H :    0.155620
   8 N :   -0.072793
   9 C :   -0.231893
  10 H :    0.158143
  11 H :    0.117480
  12 H :    0.150496
  13 C :   -0.231602
  14 H :    0.154908
  15 H :    0.119773
  16 H :    0.153333
  17 C :   -0.038240
  18 C :   -0.106737
  19 C :   -0.122741
  20 C :   -0.136198
  21 C :   -0.130484
  22 C :   -0.147976
  23 H :    0.139421
  24 H :    0.141851
  25 H :    0.159053
  26 H :    0.143969
  27 H :    0.157703
  28 C :   -0.115308
  29 H :    0.130060
  30 H :    0.150935
  31 O :   -0.198989
  32 C :    0.140681
  33 O :   -0.245151
  34 C :   -0.383942
  35 H :    0.142078
  36 H :    0.151782
  37 H :    0.140332

  Mayer bond orders larger than 0.100000
B(  0-Pd,  1-O ) :   0.6149 B(  0-Pd,  3-O ) :   0.4366 B(  0-Pd,  8-N ) :   0.3822
B(  0-Pd, 31-O ) :   0.6672 B(  0-Pd, 33-O ) :   0.1110 B(  1-O ,  2-C ) :   1.3576
B(  1-O ,  3-O ) :   0.1029 B(  2-C ,  3-O ) :   1.5558 B(  2-C ,  4-C ) :   0.9512
B(  4-C ,  5-H ) :   0.9093 B(  4-C ,  6-H ) :   0.9014 B(  4-C ,  7-H ) :   0.9076
B(  8-N ,  9-C ) :   0.9223 B(  8-N , 13-C ) :   0.9284 B(  8-N , 28-C ) :   0.8994
B(  9-C , 10-H ) :   0.8971 B(  9-C , 11-H ) :   0.9042 B(  9-C , 12-H ) :   0.9049
B( 13-C , 14-H ) :   0.8944 B( 13-C , 15-H ) :   0.9037 B( 13-C , 16-H ) :   0.9042
B( 17-C , 18-C ) :   1.4406 B( 17-C , 22-C ) :   1.3293 B( 17-C , 28-C ) :   0.9609
B( 18-C , 19-C ) :   1.3770 B( 18-C , 25-H ) :   0.9000 B( 19-C , 20-C ) :   1.4583
B( 19-C , 26-H ) :   0.9153 B( 20-C , 21-C ) :   1.3766 B( 20-C , 23-H ) :   0.9168
B( 21-C , 22-C ) :   1.4855 B( 21-C , 24-H ) :   0.9108 B( 22-C , 27-H ) :   0.9055
B( 28-C , 29-H ) :   0.8964 B( 28-C , 30-H ) :   0.9079 B( 31-O , 32-C ) :   1.2334
B( 32-C , 33-O ) :   1.8812 B( 32-C , 34-C ) :   0.9303 B( 34-C , 35-H ) :   0.9168
B( 34-C , 36-H ) :   0.9115 B( 34-C , 37-H ) :   0.9198

Dispersion correction           -0.025637343
FINAL SINGLE POINT ENERGY      -988.498715174843
Dispersion correction            ... done

DIPOLE MOMENT
-------------
                                X             Y             Z
Electronic contribution:     32.81990      28.55048     -26.21866
Nuclear contribution   :    -34.30112     -28.76373      27.09381
                        -----------------------------------------
Total Dipole Moment    :     -1.48122      -0.21326       0.87514
                        -----------------------------------------
Magnitude (a.u.)       :      1.73360
Magnitude (Debye)      :      4.40646

Rotational constants in cm-1:     0.013438     0.008204     0.007002
Rotational constants in MHz :   402.874616   245.958073   209.917889

                             ****ORCA TERMINATED NORMALLY****
TOTAL RUN TIME: 0 days 0 hours 16 minutes 27 seconds 650 msec
