                         Program Version 5.0.3 -  RELEASE  -
|  1> ! EnGrad PBEh-3c
|  2> %output
|  3> xyzfile=True
|  4> end
|  5> %scf
|  6> maxiter 250
|  7> end
|  8> %output
|  9> Print[P_Hirshfeld] = 1
| 10> end
| 11> % maxcore
| 12> 4000
| 13> *xyz 0 1
| 14> Pd   0.69375273   0.52111044  -0.52732641
| 15> O    2.18309081   1.50909431   0.27944513
| 16> C    1.61647880   2.62756404   0.27617031
| 17> O    0.38794769   2.66097254  -0.05125318
| 18> C    2.47713221   3.83515793   0.56523949
| 19> H    1.92311138   4.64972488   1.03253582
| 20> H    2.87293744   4.25226794  -0.37079674
| 21> H    3.35785419   3.61223110   1.18863636
| 22> N   -1.25324502  -0.37005521  -1.18172191
| 23> C   -1.24840691  -1.16899244  -2.45871667
| 24> H   -0.89313704  -0.51437048  -3.26364808
| 25> H   -2.28852558  -1.48521787  -2.66577419
| 26> H   -0.57366108  -2.05146748  -2.38006076
| 27> C   -2.18460346   0.77268289  -1.35117535
| 28> H   -2.24322034   1.37563084  -0.41889263
| 29> H   -3.19268730   0.38650931  -1.57391463
| 30> H   -1.82532796   1.32410297  -2.22790984
| 31> C   -1.60907877  -0.76908439   1.39138616
| 32> C   -0.67705050  -1.66003236   1.98686777
| 33> C   -0.39226728  -1.61113458   3.36537300
| 34> C   -1.37295058  -0.94138010   4.11942034
| 35> C   -2.24209924   0.01641045   3.55310508
| 36> C   -2.20830632   0.13182000   2.18977481
| 37> H   -1.22663011  -0.83831367   5.17906419
| 38> H   -3.12384516   0.45031206   4.06710484
| 39> H   -0.06500119  -2.41167939   1.41223390
| 40> H    0.38279831  -2.22578977   3.86792054
| 41> H   -2.04325948   1.16052466   1.98565884
| 42> C   -1.79832528  -1.21153922  -0.09264107
| 43> H   -2.86676581  -1.37934981  -0.28197977
| 44> H   -1.35422474  -2.22071878  -0.22105110
| 45> O    1.80538433  -0.99801094  -1.15331628
| 46> C    2.25004366  -0.73042693  -2.34990821
| 47> O    1.74900105   0.06526195  -3.11903316
| 48> C    3.51157767  -1.54818907  -2.64339966
| 49> H    3.35800960  -2.63447202  -2.50148723
| 50> H    4.34468060  -1.26314042  -1.97652792
| 51> H    3.78757640  -1.35144712  -3.67332803
| 52> *
| 53>
| 54>                          ****END OF INPUT****

CARTESIAN COORDINATES (ANGSTROEM)
---------------------------------
  Pd     0.693753    0.521110   -0.527326
  O      2.183091    1.509094    0.279445
  C      1.616479    2.627564    0.276170
  O      0.387948    2.660973   -0.051253
  C      2.477132    3.835158    0.565239
  H      1.923111    4.649725    1.032536
  H      2.872937    4.252268   -0.370797
  H      3.357854    3.612231    1.188636
  N     -1.253245   -0.370055   -1.181722
  C     -1.248407   -1.168992   -2.458717
  H     -0.893137   -0.514370   -3.263648
  H     -2.288526   -1.485218   -2.665774
  H     -0.573661   -2.051467   -2.380061
  C     -2.184603    0.772683   -1.351175
  H     -2.243220    1.375631   -0.418893
  H     -3.192687    0.386509   -1.573915
  H     -1.825328    1.324103   -2.227910
  C     -1.609079   -0.769084    1.391386
  C     -0.677050   -1.660032    1.986868
  C     -0.392267   -1.611135    3.365373
  C     -1.372951   -0.941380    4.119420
  C     -2.242099    0.016410    3.553105
  C     -2.208306    0.131820    2.189775
  H     -1.226630   -0.838314    5.179064
  H     -3.123845    0.450312    4.067105
  H     -0.065001   -2.411679    1.412234
  H      0.382798   -2.225790    3.867921
  H     -2.043259    1.160525    1.985659
  C     -1.798325   -1.211539   -0.092641
  H     -2.866766   -1.379350   -0.281980
  H     -1.354225   -2.220719   -0.221051
  O      1.805384   -0.998011   -1.153316
  C      2.250044   -0.730427   -2.349908
  O      1.749001    0.065262   -3.119033
  C      3.511578   -1.548189   -2.643400
  H      3.358010   -2.634472   -2.501487
  H      4.344681   -1.263140   -1.976528
  H      3.787576   -1.351447   -3.673328

 Total Charge           Charge          ....    0
 Multiplicity           Mult            ....    1
 Number of Electrons    NEL             ....  154
 Basis Dimension        Dim             ....  339

ORBITAL ENERGIES
----------------

  NO   OCC          E(Eh)            E(eV)
   0   2.0000     -19.509633      -530.8841
   1   2.0000     -19.495206      -530.4915
   2   2.0000     -19.476731      -529.9888
   3   2.0000     -19.441038      -529.0175
   4   2.0000     -14.712958      -400.3600
   5   2.0000     -10.576967      -287.8139
   6   2.0000     -10.536874      -286.7229
   7   2.0000     -10.502272      -285.7813
   8   2.0000     -10.483981      -285.2836
   9   2.0000     -10.483633      -285.2742
  10   2.0000     -10.476351      -285.0760
  11   2.0000     -10.467031      -284.8224
  12   2.0000     -10.463272      -284.7201
  13   2.0000     -10.462787      -284.7069
  14   2.0000     -10.458943      -284.6023
  15   2.0000     -10.447557      -284.2925
  16   2.0000     -10.447470      -284.2901
  17   2.0000     -10.419652      -283.5332
  18   2.0000      -3.659108       -99.5694
  19   2.0000      -2.308035       -62.8048
  20   2.0000      -2.303828       -62.6903
  21   2.0000      -2.267567       -61.7036
  22   2.0000      -1.209615       -32.9153
  23   2.0000      -1.153908       -31.3994
  24   2.0000      -1.087876       -29.6026
  25   2.0000      -1.063252       -28.9325
  26   2.0000      -1.057346       -28.7718
  27   2.0000      -0.973734       -26.4966
  28   2.0000      -0.869411       -23.6579
  29   2.0000      -0.852942       -23.2097
  30   2.0000      -0.830697       -22.6044
  31   2.0000      -0.809512       -22.0279
  32   2.0000      -0.794256       -21.6128
  33   2.0000      -0.793186       -21.5837
  34   2.0000      -0.710870       -19.3437
  35   2.0000      -0.688956       -18.7475
  36   2.0000      -0.670589       -18.2476
  37   2.0000      -0.622523       -16.9397
  38   2.0000      -0.592225       -16.1153
  39   2.0000      -0.587526       -15.9874
  40   2.0000      -0.563467       -15.3327
  41   2.0000      -0.561201       -15.2710
  42   2.0000      -0.552786       -15.0421
  43   2.0000      -0.552016       -15.0211
  44   2.0000      -0.547864       -14.9081
  45   2.0000      -0.529805       -14.4167
  46   2.0000      -0.527029       -14.3412
  47   2.0000      -0.521703       -14.1963
  48   2.0000      -0.509974       -13.8771
  49   2.0000      -0.498773       -13.5723
  50   2.0000      -0.491756       -13.3814
  51   2.0000      -0.486790       -13.2462
  52   2.0000      -0.477748       -13.0002
  53   2.0000      -0.473197       -12.8763
  54   2.0000      -0.458143       -12.4667
  55   2.0000      -0.451601       -12.2887
  56   2.0000      -0.449639       -12.2353
  57   2.0000      -0.447011       -12.1638
  58   2.0000      -0.445960       -12.1352
  59   2.0000      -0.434178       -11.8146
  60   2.0000      -0.425968       -11.5912
  61   2.0000      -0.418931       -11.3997
  62   2.0000      -0.410934       -11.1821
  63   2.0000      -0.398951       -10.8560
  64   2.0000      -0.386770       -10.5245
  65   2.0000      -0.378676       -10.3043
  66   2.0000      -0.375623       -10.2212
  67   2.0000      -0.364012        -9.9053
  68   2.0000      -0.349455        -9.5092
  69   2.0000      -0.347360        -9.4521
  70   2.0000      -0.319675        -8.6988
  71   2.0000      -0.315924        -8.5967
  72   2.0000      -0.306513        -8.3406
  73   2.0000      -0.300566        -8.1788
  74   2.0000      -0.293820        -7.9952
  75   2.0000      -0.281298        -7.6545
  76   2.0000      -0.274655        -7.4737
  77   0.0000      -0.051677        -1.4062
  78   0.0000      -0.026437        -0.7194
  79   0.0000      -0.003088        -0.0840
  80   0.0000       0.042108         1.1458
  81   0.0000       0.063910         1.7391

MULLIKEN ATOMIC CHARGES
-----------------------
   0 Pd:    0.534773
   1 O :   -0.478982
   2 C :    0.661693
   3 O :   -0.508026
   4 C :   -0.775370
   5 H :    0.251115
   6 H :    0.264735
   7 H :    0.259256
   8 N :   -0.467025
   9 C :   -0.516144
  10 H :    0.284323
  11 H :    0.213948
  12 H :    0.263220
  13 C :   -0.516706
  14 H :    0.273245
  15 H :    0.219676
  16 H :    0.266453
  17 C :    0.100544
  18 C :   -0.264351
  19 C :   -0.203668
  20 C :   -0.234837
  21 C :   -0.235052
  22 C :   -0.293961
  23 H :    0.220094
  24 H :    0.244499
  25 H :    0.246729
  26 H :    0.234168
  27 H :    0.255945
  28 C :   -0.344592
  29 H :    0.238857
  30 H :    0.260523
  31 O :   -0.546617
  32 C :    0.568335
  33 O :   -0.447268
  34 C :   -0.740825
  35 H :    0.230321
  36 H :    0.245654
  37 H :    0.235317
Sum of atomic charges:    0.0000000

LOEWDIN ATOMIC CHARGES
----------------------
   0 Pd:   -0.260470
   1 O :   -0.116412
   2 C :    0.193200
   3 O :   -0.206326
   4 C :   -0.380094
   5 H :    0.150286
   6 H :    0.165487
   7 H :    0.156962
   8 N :   -0.076285
   9 C :   -0.232152
  10 H :    0.160705
  11 H :    0.118986
  12 H :    0.151508
  13 C :   -0.229173
  14 H :    0.157298
  15 H :    0.119881
  16 H :    0.153128
  17 C :   -0.052235
  18 C :   -0.100730
  19 C :   -0.131671
  20 C :   -0.131636
  21 C :   -0.133120
  22 C :   -0.163597
  23 H :    0.136666
  24 H :    0.153297
  25 H :    0.153489
  26 H :    0.146363
  27 H :    0.170740
  28 C :   -0.108863
  29 H :    0.129913
  30 H :    0.148431
  31 O :   -0.192371
  32 C :    0.136975
  33 O :   -0.239668
  34 C :   -0.383727
  35 H :    0.143728
  36 H :    0.152195
  37 H :    0.139294

  Mayer bond orders larger than 0.100000
B(  0-Pd,  1-O ) :   0.5973 B(  0-Pd,  3-O ) :   0.4435 B(  0-Pd,  8-N ) :   0.3851
B(  0-Pd, 31-O ) :   0.6717 B(  0-Pd, 33-O ) :   0.1124 B(  1-O ,  2-C ) :   1.3963
B(  1-O ,  3-O ) :   0.1020 B(  2-C ,  3-O ) :   1.5276 B(  2-C ,  4-C ) :   0.9510
B(  4-C ,  5-H ) :   0.9086 B(  4-C ,  6-H ) :   0.8994 B(  4-C ,  7-H ) :   0.9074
B(  8-N ,  9-C ) :   0.9146 B(  8-N , 13-C ) :   0.9232 B(  8-N , 28-C ) :   0.9026
B(  9-C , 10-H ) :   0.8933 B(  9-C , 11-H ) :   0.9033 B(  9-C , 12-H ) :   0.9055
B( 13-C , 14-H ) :   0.8957 B( 13-C , 15-H ) :   0.9024 B( 13-C , 16-H ) :   0.9058
B( 17-C , 18-C ) :   1.3813 B( 17-C , 22-C ) :   1.4022 B( 17-C , 28-C ) :   0.9450
B( 18-C , 19-C ) :   1.4156 B( 18-C , 25-H ) :   0.9018 B( 19-C , 20-C ) :   1.4034
B( 19-C , 26-H ) :   0.9153 B( 20-C , 21-C ) :   1.4312 B( 20-C , 23-H ) :   0.9183
B( 21-C , 22-C ) :   1.4022 B( 21-C , 24-H ) :   0.9081 B( 22-C , 27-H ) :   0.8983
B( 28-C , 29-H ) :   0.8925 B( 28-C , 30-H ) :   0.9098 B( 31-O , 32-C ) :   1.2346
B( 32-C , 33-O ) :   1.8830 B( 32-C , 34-C ) :   0.9253 B( 34-C , 35-H ) :   0.9172
B( 34-C , 36-H ) :   0.9121 B( 34-C , 37-H ) :   0.9182

Dispersion correction           -0.025670052
FINAL SINGLE POINT ENERGY      -988.454000638787
Dispersion correction            ... done

DIPOLE MOMENT
-------------
                                X             Y             Z
Electronic contribution:     32.00679      25.39522     -26.45410
Nuclear contribution   :    -33.26232     -25.70773      27.25483
                        -----------------------------------------
Total Dipole Moment    :     -1.25553      -0.31251       0.80073
                        -----------------------------------------
Magnitude (a.u.)       :      1.52157
Magnitude (Debye)      :      3.86753

Rotational constants in cm-1:     0.013700     0.008180     0.006946
Rotational constants in MHz :   410.707479   245.225896   208.222231

                             ****ORCA TERMINATED NORMALLY****
TOTAL RUN TIME: 0 days 0 hours 18 minutes 8 seconds 369 msec
