                         Program Version 5.0.3 -  RELEASE  -
|  1> ! EnGrad PBEh-3c
|  2> %output
|  3> xyzfile=True
|  4> end
|  5> %scf
|  6> maxiter 250
|  7> end
|  8> %output
|  9> Print[P_Hirshfeld] = 1
| 10> end
| 11> % maxcore
| 12> 4000
| 13> *xyz 0 1
| 14> Pd   0.70823962   0.55383944  -0.52587122
| 15> O    2.20703782   1.52351541   0.27831819
| 16> C    1.62797634   2.65340526   0.26747356
| 17> O    0.41487139   2.68716171  -0.06262245
| 18> C    2.46952022   3.88183646   0.56124342
| 19> H    1.88241986   4.66793989   1.03365673
| 20> H    2.84546868   4.30496848  -0.37856609
| 21> H    3.34778436   3.67103760   1.18334407
| 22> N   -1.23969882  -0.33300622  -1.18762891
| 23> C   -1.24819166  -1.07892192  -2.48019431
| 24> H   -0.91096813  -0.39584714  -3.26062602
| 25> H   -2.28727350  -1.38686656  -2.68409787
| 26> H   -0.58447937  -1.95434369  -2.44604377
| 27> C   -2.16364434   0.81033645  -1.29750377
| 28> H   -2.19382565   1.39270134  -0.36513871
| 29> H   -3.17445805   0.43402571  -1.51296006
| 30> H   -1.82099252   1.39726224  -2.15169567
| 31> C   -1.56288498  -0.81510118   1.35709143
| 32> C   -0.58447526  -1.64539718   1.98238707
| 33> C   -0.33342919  -1.56855023   3.36010367
| 34> C   -1.32038520  -0.93815805   4.10356940
| 35> C   -2.27369345  -0.08700402   3.51128811
| 36> C   -2.33494158   0.06243307   2.15476712
| 37> H   -1.18858312  -0.81765476   5.17081535
| 38> H   -3.15101543   0.24051470   4.05846699
| 39> H    0.06624385  -2.35298197   1.41842952
| 40> H    0.44511566  -2.16104338   3.86310006
| 41> H   -2.46584506   1.05875450   1.95156365
| 42> C   -1.74499687  -1.23369823  -0.11901295
| 43> H   -2.81397062  -1.41155558  -0.28675438
| 44> H   -1.28170295  -2.22436571  -0.28354490
| 45> O    1.77884648  -1.00517358  -1.12648801
| 46> C    2.25573066  -0.77318435  -2.32069023
| 47> O    1.80717179   0.03808520  -3.10772851
| 48> C    3.47683317  -1.64621563  -2.61211187
| 49> H    3.27967677  -2.71378283  -2.45216661
| 50> H    4.31855839  -1.37419440  -1.96319785
| 51> H    3.76064945  -1.48412341  -3.64855676
| 52> *
| 53>
| 54>                          ****END OF INPUT****

CARTESIAN COORDINATES (ANGSTROEM)
---------------------------------
  Pd     0.708240    0.553839   -0.525871
  O      2.207038    1.523515    0.278318
  C      1.627976    2.653405    0.267474
  O      0.414871    2.687162   -0.062622
  C      2.469520    3.881836    0.561243
  H      1.882420    4.667940    1.033657
  H      2.845469    4.304968   -0.378566
  H      3.347784    3.671038    1.183344
  N     -1.239699   -0.333006   -1.187629
  C     -1.248192   -1.078922   -2.480194
  H     -0.910968   -0.395847   -3.260626
  H     -2.287273   -1.386867   -2.684098
  H     -0.584479   -1.954344   -2.446044
  C     -2.163644    0.810336   -1.297504
  H     -2.193826    1.392701   -0.365139
  H     -3.174458    0.434026   -1.512960
  H     -1.820993    1.397262   -2.151696
  C     -1.562885   -0.815101    1.357091
  C     -0.584475   -1.645397    1.982387
  C     -0.333429   -1.568550    3.360104
  C     -1.320385   -0.938158    4.103569
  C     -2.273693   -0.087004    3.511288
  C     -2.334942    0.062433    2.154767
  H     -1.188583   -0.817655    5.170815
  H     -3.151015    0.240515    4.058467
  H      0.066244   -2.352982    1.418430
  H      0.445116   -2.161043    3.863100
  H     -2.465845    1.058755    1.951564
  C     -1.744997   -1.233698   -0.119013
  H     -2.813971   -1.411556   -0.286754
  H     -1.281703   -2.224366   -0.283545
  O      1.778846   -1.005174   -1.126488
  C      2.255731   -0.773184   -2.320690
  O      1.807172    0.038085   -3.107729
  C      3.476833   -1.646216   -2.612112
  H      3.279677   -2.713783   -2.452167
  H      4.318558   -1.374194   -1.963198
  H      3.760649   -1.484123   -3.648557

 Total Charge           Charge          ....    0
 Multiplicity           Mult            ....    1
 Number of Electrons    NEL             ....  154
 Basis Dimension        Dim             ....  339

ORBITAL ENERGIES
----------------

  NO   OCC          E(Eh)            E(eV)
   0   2.0000     -19.507736      -530.8325
   1   2.0000     -19.498252      -530.5744
   2   2.0000     -19.475941      -529.9673
   3   2.0000     -19.438771      -528.9559
   4   2.0000     -14.711599      -400.3230
   5   2.0000     -10.577351      -287.8244
   6   2.0000     -10.535558      -286.6871
   7   2.0000     -10.499203      -285.6978
   8   2.0000     -10.482474      -285.2426
   9   2.0000     -10.482416      -285.2410
  10   2.0000     -10.479458      -285.1605
  11   2.0000     -10.465851      -284.7903
  12   2.0000     -10.460988      -284.6579
  13   2.0000     -10.458629      -284.5938
  14   2.0000     -10.457057      -284.5510
  15   2.0000     -10.454692      -284.4866
  16   2.0000     -10.446730      -284.2700
  17   2.0000     -10.417379      -283.4713
  18   2.0000      -3.658173       -99.5439
  19   2.0000      -2.307257       -62.7837
  20   2.0000      -2.302863       -62.6641
  21   2.0000      -2.266582       -61.6768
  22   2.0000      -1.207658       -32.8620
  23   2.0000      -1.151077       -31.3224
  24   2.0000      -1.090513       -29.6744
  25   2.0000      -1.065403       -28.9911
  26   2.0000      -1.055047       -28.7093
  27   2.0000      -0.967776       -26.3345
  28   2.0000      -0.869173       -23.6514
  29   2.0000      -0.856547       -23.3078
  30   2.0000      -0.829727       -22.5780
  31   2.0000      -0.813150       -22.1269
  32   2.0000      -0.794306       -21.6142
  33   2.0000      -0.791905       -21.5488
  34   2.0000      -0.712562       -19.3898
  35   2.0000      -0.687423       -18.7057
  36   2.0000      -0.672182       -18.2910
  37   2.0000      -0.620625       -16.8881
  38   2.0000      -0.594798       -16.1853
  39   2.0000      -0.587249       -15.9799
  40   2.0000      -0.566668       -15.4198
  41   2.0000      -0.562513       -15.3068
  42   2.0000      -0.555256       -15.1093
  43   2.0000      -0.551599       -15.0098
  44   2.0000      -0.548519       -14.9260
  45   2.0000      -0.529275       -14.4023
  46   2.0000      -0.525960       -14.3121
  47   2.0000      -0.523158       -14.2358
  48   2.0000      -0.509066       -13.8524
  49   2.0000      -0.496906       -13.5215
  50   2.0000      -0.492021       -13.3886
  51   2.0000      -0.489313       -13.3149
  52   2.0000      -0.477420       -12.9913
  53   2.0000      -0.472838       -12.8666
  54   2.0000      -0.459652       -12.5078
  55   2.0000      -0.451121       -12.2756
  56   2.0000      -0.449404       -12.2289
  57   2.0000      -0.447973       -12.1900
  58   2.0000      -0.444208       -12.0875
  59   2.0000      -0.432514       -11.7693
  60   2.0000      -0.428727       -11.6662
  61   2.0000      -0.419330       -11.4106
  62   2.0000      -0.411008       -11.1841
  63   2.0000      -0.398712       -10.8495
  64   2.0000      -0.389817       -10.6075
  65   2.0000      -0.385706       -10.4956
  66   2.0000      -0.376430       -10.2432
  67   2.0000      -0.363470        -9.8905
  68   2.0000      -0.350005        -9.5241
  69   2.0000      -0.346146        -9.4191
  70   2.0000      -0.317769        -8.6469
  71   2.0000      -0.315007        -8.5718
  72   2.0000      -0.306192        -8.3319
  73   2.0000      -0.299754        -8.1567
  74   2.0000      -0.294193        -8.0054
  75   2.0000      -0.290551        -7.9063
  76   2.0000      -0.273279        -7.4363
  77   0.0000      -0.049318        -1.3420
  78   0.0000      -0.022150        -0.6027
  79   0.0000      -0.001450        -0.0394
  80   0.0000       0.042814         1.1650
  81   0.0000       0.066196         1.8013

MULLIKEN ATOMIC CHARGES
-----------------------
   0 Pd:    0.536934
   1 O :   -0.490651
   2 C :    0.662923
   3 O :   -0.496274
   4 C :   -0.771052
   5 H :    0.250508
   6 H :    0.263552
   7 H :    0.259202
   8 N :   -0.466286
   9 C :   -0.515090
  10 H :    0.282580
  11 H :    0.212941
  12 H :    0.265436
  13 C :   -0.518881
  14 H :    0.272473
  15 H :    0.219159
  16 H :    0.268074
  17 C :    0.041308
  18 C :   -0.254716
  19 C :   -0.196061
  20 C :   -0.227168
  21 C :   -0.231747
  22 C :   -0.259299
  23 H :    0.221501
  24 H :    0.237406
  25 H :    0.253001
  26 H :    0.231559
  27 H :    0.252506
  28 C :   -0.343650
  29 H :    0.237465
  30 H :    0.261916
  31 O :   -0.549887
  32 C :    0.567344
  33 O :   -0.448076
  34 C :   -0.741185
  35 H :    0.230506
  36 H :    0.245975
  37 H :    0.235750
Sum of atomic charges:   -0.0000000

LOEWDIN ATOMIC CHARGES
----------------------
   0 Pd:   -0.261652
   1 O :   -0.129216
   2 C :    0.196176
   3 O :   -0.189912
   4 C :   -0.379501
   5 H :    0.150774
   6 H :    0.164954
   7 H :    0.156196
   8 N :   -0.074007
   9 C :   -0.231983
  10 H :    0.159219
  11 H :    0.118141
  12 H :    0.150940
  13 C :   -0.230093
  14 H :    0.155172
  15 H :    0.120016
  16 H :    0.153275
  17 C :   -0.043744
  18 C :   -0.103881
  19 C :   -0.124877
  20 C :   -0.134087
  21 C :   -0.129945
  22 C :   -0.154989
  23 H :    0.138022
  24 H :    0.146364
  25 H :    0.156262
  26 H :    0.144823
  27 H :    0.159400
  28 C :   -0.112617
  29 H :    0.129821
  30 H :    0.149851
  31 O :   -0.195657
  32 C :    0.137967
  33 O :   -0.242050
  34 C :   -0.383811
  35 H :    0.142793
  36 H :    0.151965
  37 H :    0.139892

  Mayer bond orders larger than 0.100000
B(  0-Pd,  1-O ) :   0.6073 B(  0-Pd,  3-O ) :   0.4398 B(  0-Pd,  8-N ) :   0.3830
B(  0-Pd, 31-O ) :   0.6696 B(  0-Pd, 33-O ) :   0.1116 B(  1-O ,  2-C ) :   1.3740
B(  1-O ,  3-O ) :   0.1026 B(  2-C ,  3-O ) :   1.5434 B(  2-C ,  4-C ) :   0.9513
B(  4-C ,  5-H ) :   0.9090 B(  4-C ,  6-H ) :   0.9006 B(  4-C ,  7-H ) :   0.9075
B(  8-N ,  9-C ) :   0.9192 B(  8-N , 13-C ) :   0.9266 B(  8-N , 28-C ) :   0.9013
B(  9-C , 10-H ) :   0.8955 B(  9-C , 11-H ) :   0.9038 B(  9-C , 12-H ) :   0.9051
B( 13-C , 14-H ) :   0.8955 B( 13-C , 15-H ) :   0.9031 B( 13-C , 16-H ) :   0.9050
B( 17-C , 18-C ) :   1.4139 B( 17-C , 22-C ) :   1.3707 B( 17-C , 28-C ) :   0.9558
B( 18-C , 19-C ) :   1.3967 B( 18-C , 25-H ) :   0.9015 B( 19-C , 20-C ) :   1.4324
B( 19-C , 26-H ) :   0.9155 B( 20-C , 21-C ) :   1.4046 B( 20-C , 23-H ) :   0.9177
B( 21-C , 22-C ) :   1.4525 B( 21-C , 24-H ) :   0.9093 B( 22-C , 27-H ) :   0.9016
B( 28-C , 29-H ) :   0.8949 B( 28-C , 30-H ) :   0.9090 B( 31-O , 32-C ) :   1.2340
B( 32-C , 33-O ) :   1.8830 B( 32-C , 34-C ) :   0.9284 B( 34-C , 35-H ) :   0.9169
B( 34-C , 36-H ) :   0.9118 B( 34-C , 37-H ) :   0.9192

Dispersion correction           -0.025668802
FINAL SINGLE POINT ENERGY      -988.488021051238
Dispersion correction            ... done

DIPOLE MOMENT
-------------
                                X             Y             Z
Electronic contribution:     32.47440      27.21365     -26.31902
Nuclear contribution   :    -33.85968     -27.46507      27.16223
                        -----------------------------------------
Total Dipole Moment    :     -1.38528      -0.25142       0.84322
                        -----------------------------------------
Magnitude (a.u.)       :      1.64111
Magnitude (Debye)      :      4.17136

Rotational constants in cm-1:     0.013558     0.008196     0.006981
Rotational constants in MHz :   406.454038   245.715215   209.288992

                             ****ORCA TERMINATED NORMALLY****
TOTAL RUN TIME: 0 days 0 hours 14 minutes 22 seconds 255 msec
