                         Program Version 5.0.3 -  RELEASE  -
|  1> ! EnGrad PBEh-3c
|  2> %output
|  3> xyzfile=True
|  4> end
|  5> %scf
|  6> maxiter 250
|  7> end
|  8> %output
|  9> Print[P_Hirshfeld] = 1
| 10> end
| 11> % maxcore
| 12> 4000
| 13> *xyz 0 1
| 14> Pd   0.67237242   0.51850728  -0.53716165
| 15> O    2.19603794   1.51640871   0.27756581
| 16> C    1.62802203   2.63313927   0.27367562
| 17> O    0.39963910   2.66200883  -0.04617653
| 18> C    2.47106544   3.84741815   0.56380447
| 19> H    1.91384790   4.65144453   1.03336440
| 20> H    2.86511022   4.25744125  -0.37142457
| 21> H    3.34816084   3.61835475   1.18446218
| 22> N   -1.24368425  -0.36255188  -1.17263132
| 23> C   -1.24949558  -1.14272726  -2.45134164
| 24> H   -0.89629736  -0.49825930  -3.26189568
| 25> H   -2.28055790  -1.46919130  -2.67086597
| 26> H   -0.58225917  -2.02413734  -2.39039708
| 27> C   -2.17663908   0.77374482  -1.34738759
| 28> H   -2.23101049   1.37638958  -0.42125172
| 29> H   -3.18723585   0.39888178  -1.56202185
| 30> H   -1.82916249   1.34528430  -2.20622691
| 31> C   -1.55773774  -0.82609082   1.37282509
| 32> C   -0.65142968  -1.66084015   1.99059438
| 33> C   -0.40735862  -1.61359226   3.36264493
| 34> C   -1.35405286  -0.91221830   4.12845196
| 35> C   -2.24826218  -0.05084687   3.56700116
| 36> C   -2.20409912   0.09153625   2.17402369
| 37> H   -1.22452164  -0.84639062   5.18467094
| 38> H   -3.10989887   0.42839045   4.07407740
| 39> H   -0.05663937  -2.38403562   1.41641573
| 40> H    0.38565142  -2.20322371   3.85647325
| 41> H   -2.16175740   1.19614176   1.94091531
| 42> C   -1.78745729  -1.21205973  -0.09618996
| 43> H   -2.85941097  -1.38197050  -0.28347097
| 44> H   -1.34160191  -2.20864531  -0.22565304
| 45> O    1.79462805  -0.99296989  -1.14860572
| 46> C    2.25654526  -0.75404725  -2.32717343
| 47> O    1.76350556   0.06155112  -3.12079509
| 48> C    3.50103714  -1.56260886  -2.64399873
| 49> H    3.34233323  -2.64195711  -2.49289627
| 50> H    4.33396646  -1.28266683  -1.97679814
| 51> H    3.78737370  -1.37876344  -3.66985133
| 52> *
| 53>
| 54>                          ****END OF INPUT****

CARTESIAN COORDINATES (ANGSTROEM)
---------------------------------
  Pd     0.672372    0.518507   -0.537162
  O      2.196038    1.516409    0.277566
  C      1.628022    2.633139    0.273676
  O      0.399639    2.662009   -0.046177
  C      2.471065    3.847418    0.563804
  H      1.913848    4.651445    1.033364
  H      2.865110    4.257441   -0.371425
  H      3.348161    3.618355    1.184462
  N     -1.243684   -0.362552   -1.172631
  C     -1.249496   -1.142727   -2.451342
  H     -0.896297   -0.498259   -3.261896
  H     -2.280558   -1.469191   -2.670866
  H     -0.582259   -2.024137   -2.390397
  C     -2.176639    0.773745   -1.347388
  H     -2.231010    1.376390   -0.421252
  H     -3.187236    0.398882   -1.562022
  H     -1.829162    1.345284   -2.206227
  C     -1.557738   -0.826091    1.372825
  C     -0.651430   -1.660840    1.990594
  C     -0.407359   -1.613592    3.362645
  C     -1.354053   -0.912218    4.128452
  C     -2.248262   -0.050847    3.567001
  C     -2.204099    0.091536    2.174024
  H     -1.224522   -0.846391    5.184671
  H     -3.109899    0.428390    4.074077
  H     -0.056639   -2.384036    1.416416
  H      0.385651   -2.203224    3.856473
  H     -2.161757    1.196142    1.940915
  C     -1.787457   -1.212060   -0.096190
  H     -2.859411   -1.381970   -0.283471
  H     -1.341602   -2.208645   -0.225653
  O      1.794628   -0.992970   -1.148606
  C      2.256545   -0.754047   -2.327173
  O      1.763506    0.061551   -3.120795
  C      3.501037   -1.562609   -2.643999
  H      3.342333   -2.641957   -2.492896
  H      4.333966   -1.282667   -1.976798
  H      3.787374   -1.378763   -3.669851

 Total Charge           Charge          ....    0
 Multiplicity           Mult            ....    1
 Number of Electrons    NEL             ....  154
 Basis Dimension        Dim             ....  339

ORBITAL ENERGIES
----------------

  NO   OCC          E(Eh)            E(eV)
   0   2.0000     -19.505931      -530.7834
   1   2.0000     -19.492402      -530.4152
   2   2.0000     -19.480425      -530.0893
   3   2.0000     -19.433874      -528.8226
   4   2.0000     -14.717275      -400.4774
   5   2.0000     -10.573584      -287.7218
   6   2.0000     -10.535904      -286.6965
   7   2.0000     -10.500964      -285.7458
   8   2.0000     -10.483787      -285.2784
   9   2.0000     -10.482425      -285.2413
  10   2.0000     -10.473440      -284.9968
  11   2.0000     -10.461428      -284.6699
  12   2.0000     -10.460729      -284.6509
  13   2.0000     -10.460466      -284.6437
  14   2.0000     -10.458705      -284.5958
  15   2.0000     -10.454687      -284.4865
  16   2.0000     -10.444417      -284.2070
  17   2.0000     -10.418633      -283.5054
  18   2.0000      -3.660429       -99.6053
  19   2.0000      -2.308741       -62.8240
  20   2.0000      -2.305572       -62.7378
  21   2.0000      -2.268685       -61.7341
  22   2.0000      -1.206332       -32.8260
  23   2.0000      -1.151070       -31.3222
  24   2.0000      -1.084870       -29.5208
  25   2.0000      -1.070053       -29.1176
  26   2.0000      -1.050184       -28.5770
  27   2.0000      -0.975432       -26.5429
  28   2.0000      -0.878803       -23.9134
  29   2.0000      -0.846016       -23.0213
  30   2.0000      -0.830725       -22.6052
  31   2.0000      -0.813097       -22.1255
  32   2.0000      -0.799396       -21.7527
  33   2.0000      -0.797053       -21.6889
  34   2.0000      -0.715474       -19.4690
  35   2.0000      -0.689394       -18.7594
  36   2.0000      -0.672068       -18.2879
  37   2.0000      -0.619092       -16.8464
  38   2.0000      -0.596108       -16.2209
  39   2.0000      -0.591150       -16.0860
  40   2.0000      -0.567114       -15.4320
  41   2.0000      -0.565920       -15.3995
  42   2.0000      -0.554106       -15.0780
  43   2.0000      -0.548773       -14.9329
  44   2.0000      -0.545415       -14.8415
  45   2.0000      -0.527928       -14.3657
  46   2.0000      -0.525984       -14.3127
  47   2.0000      -0.523187       -14.2366
  48   2.0000      -0.509495       -13.8641
  49   2.0000      -0.497659       -13.5420
  50   2.0000      -0.491583       -13.3767
  51   2.0000      -0.487067       -13.2538
  52   2.0000      -0.481245       -13.0954
  53   2.0000      -0.475484       -12.9386
  54   2.0000      -0.457834       -12.4583
  55   2.0000      -0.454304       -12.3622
  56   2.0000      -0.451734       -12.2923
  57   2.0000      -0.446036       -12.1373
  58   2.0000      -0.444343       -12.0912
  59   2.0000      -0.433553       -11.7976
  60   2.0000      -0.426706       -11.6113
  61   2.0000      -0.419562       -11.4169
  62   2.0000      -0.411587       -11.1999
  63   2.0000      -0.401352       -10.9214
  64   2.0000      -0.388158       -10.5623
  65   2.0000      -0.384727       -10.4689
  66   2.0000      -0.373270       -10.1572
  67   2.0000      -0.361075        -9.8253
  68   2.0000      -0.350844        -9.5469
  69   2.0000      -0.347640        -9.4598
  70   2.0000      -0.320444        -8.7197
  71   2.0000      -0.317928        -8.6513
  72   2.0000      -0.308159        -8.3854
  73   2.0000      -0.298634        -8.1262
  74   2.0000      -0.298307        -8.1174
  75   2.0000      -0.280151        -7.6233
  76   2.0000      -0.272562        -7.4168
  77   0.0000      -0.054457        -1.4819
  78   0.0000      -0.027265        -0.7419
  79   0.0000       0.006130         0.1668
  80   0.0000       0.045247         1.2312
  81   0.0000       0.065098         1.7714

MULLIKEN ATOMIC CHARGES
-----------------------
   0 Pd:    0.537809
   1 O :   -0.475721
   2 C :    0.660233
   3 O :   -0.509442
   4 C :   -0.774388
   5 H :    0.251748
   6 H :    0.264597
   7 H :    0.258174
   8 N :   -0.471851
   9 C :   -0.521494
  10 H :    0.288441
  11 H :    0.216038
  12 H :    0.264951
  13 C :   -0.522154
  14 H :    0.273054
  15 H :    0.222823
  16 H :    0.271753
  17 C :    0.106255
  18 C :   -0.257261
  19 C :   -0.208929
  20 C :   -0.225647
  21 C :   -0.220911
  22 C :   -0.303588
  23 H :    0.223517
  24 H :    0.239984
  25 H :    0.246442
  26 H :    0.232099
  27 H :    0.240416
  28 C :   -0.346098
  29 H :    0.242282
  30 H :    0.260958
  31 O :   -0.537445
  32 C :    0.572905
  33 O :   -0.474751
  34 C :   -0.741260
  35 H :    0.229530
  36 H :    0.245300
  37 H :    0.241629
Sum of atomic charges:   -0.0000000

LOEWDIN ATOMIC CHARGES
----------------------
   0 Pd:   -0.256509
   1 O :   -0.122764
   2 C :    0.188415
   3 O :   -0.207440
   4 C :   -0.379778
   5 H :    0.150392
   6 H :    0.165441
   7 H :    0.156506
   8 N :   -0.065848
   9 C :   -0.233079
  10 H :    0.162093
  11 H :    0.119492
  12 H :    0.150784
  13 C :   -0.229371
  14 H :    0.155996
  15 H :    0.121609
  16 H :    0.154242
  17 C :   -0.060269
  18 C :   -0.104413
  19 C :   -0.127730
  20 C :   -0.132171
  21 C :   -0.134293
  22 C :   -0.140911
  23 H :    0.138059
  24 H :    0.148974
  25 H :    0.152167
  26 H :    0.145129
  27 H :    0.163549
  28 C :   -0.109322
  29 H :    0.132831
  30 H :    0.149086
  31 O :   -0.177338
  32 C :    0.140588
  33 O :   -0.271152
  34 C :   -0.380993
  35 H :    0.143257
  36 H :    0.152598
  37 H :    0.142174

  Mayer bond orders larger than 0.100000
B(  0-Pd,  1-O ) :   0.5895 B(  0-Pd,  3-O ) :   0.4481 B(  0-Pd,  8-N ) :   0.3965
B(  0-Pd, 31-O ) :   0.6574 B(  0-Pd, 33-O ) :   0.1189 B(  1-O ,  2-C ) :   1.4066
B(  1-O ,  3-O ) :   0.1015 B(  2-C ,  3-O ) :   1.5241 B(  2-C ,  4-C ) :   0.9524
B(  4-C ,  5-H ) :   0.9088 B(  4-C ,  6-H ) :   0.8998 B(  4-C ,  7-H ) :   0.9079
B(  8-N ,  9-C ) :   0.9155 B(  8-N , 13-C ) :   0.9223 B(  8-N , 28-C ) :   0.9018
B(  9-C , 10-H ) :   0.8915 B(  9-C , 11-H ) :   0.9026 B(  9-C , 12-H ) :   0.9053
B( 13-C , 14-H ) :   0.8957 B( 13-C , 15-H ) :   0.9022 B( 13-C , 16-H ) :   0.9036
B( 17-C , 18-C ) :   1.3982 B( 17-C , 22-C ) :   1.3836 B( 17-C , 28-C ) :   0.9485
B( 18-C , 19-C ) :   1.4291 B( 18-C , 25-H ) :   0.9011 B( 19-C , 20-C ) :   1.3996
B( 19-C , 22-C ) :   0.1112 B( 19-C , 26-H ) :   0.9161 B( 20-C , 21-C ) :   1.4516
B( 20-C , 23-H ) :   0.9176 B( 21-C , 22-C ) :   1.3932 B( 21-C , 24-H ) :   0.9105
B( 22-C , 27-H ) :   0.9069 B( 28-C , 29-H ) :   0.8935 B( 28-C , 30-H ) :   0.9097
B( 31-O , 32-C ) :   1.2619 B( 31-O , 33-O ) :   0.1002 B( 32-C , 33-O ) :   1.8441
B( 32-C , 34-C ) :   0.9324 B( 34-C , 35-H ) :   0.9162 B( 34-C , 36-H ) :   0.9114
B( 34-C , 37-H ) :   0.9174

Dispersion correction           -0.025730450
FINAL SINGLE POINT ENERGY      -988.485663912515
Dispersion correction            ... done

DIPOLE MOMENT
-------------
                                X             Y             Z
Electronic contribution:     30.66273      25.27235     -26.94321
Nuclear contribution   :    -32.03352     -25.62444      27.80089
                        -----------------------------------------
Total Dipole Moment    :     -1.37079      -0.35209       0.85768
                        -----------------------------------------
Magnitude (a.u.)       :      1.65488
Magnitude (Debye)      :      4.20638

Rotational constants in cm-1:     0.013707     0.008193     0.006958
Rotational constants in MHz :   410.913361   245.631495   208.581369

                             ****ORCA TERMINATED NORMALLY****
TOTAL RUN TIME: 0 days 0 hours 13 minutes 49 seconds 101 msec
