                         Program Version 5.0.3 -  RELEASE  -
|  1> ! EnGrad PBEh-3c
|  2> %output
|  3> xyzfile=True
|  4> end
|  5> %scf
|  6> maxiter 250
|  7> end
|  8> %output
|  9> Print[P_Hirshfeld] = 1
| 10> end
| 11> % maxcore
| 12> 4000
| 13> *xyz 0 1
| 14> Pd   0.64791256   0.51322447  -0.54765589
| 15> O    2.20814907   1.52041864   0.27563166
| 16> C    1.63858241   2.63900383   0.27237327
| 17> O    0.40915995   2.66069126  -0.04000509
| 18> C    2.46605222   3.85372565   0.56246143
| 19> H    1.90776768   4.65192208   1.03438887
| 20> H    2.85999218   4.25764280  -0.37172470
| 21> H    3.33891636   3.61884670   1.18057668
| 22> N   -1.23467953  -0.35824077  -1.16180440
| 23> C   -1.24980574  -1.12467305  -2.44142978
| 24> H   -0.89751096  -0.49291178  -3.26006382
| 25> H   -2.27299177  -1.46243047  -2.67412874
| 26> H   -0.59025595  -2.00496692  -2.39380377
| 27> C   -2.17008012   0.77115469  -1.34693966
| 28> H   -2.22248390   1.37545965  -0.42956885
| 29> H   -3.18371959   0.40658722  -1.55631854
| 30> H   -1.83295569   1.36113731  -2.19187516
| 31> C   -1.52498611  -0.86284009   1.35758151
| 32> C   -0.63202205  -1.66699339   1.99776267
| 33> C   -0.42667408  -1.62209174   3.36305472
| 34> C   -1.33396114  -0.88771768   4.14092023
| 35> C   -2.26010662  -0.09775789   3.56571060
| 36> C   -2.16635734   0.07890485   2.16357061
| 37> H   -1.22511091  -0.85711491   5.19378345
| 38> H   -3.08878956   0.42560286   4.08421199
| 39> H   -0.05857842  -2.36469039   1.41970459
| 40> H    0.38127784  -2.18679899   3.84568403
| 41> H   -2.25834347   1.20869361   1.90127458
| 42> C   -1.78065539  -1.21344539  -0.09694386
| 43> H   -2.85608854  -1.38043609  -0.28328340
| 44> H   -1.33584540  -2.19743541  -0.22609982
| 45> O    1.78564312  -0.98876561  -1.14244826
| 46> C    2.25534976  -0.75875390  -2.32359171
| 47> O    1.78008171   0.04663280  -3.11065705
| 48> C    3.49403284  -1.56869380  -2.64563093
| 49> H    3.33375020  -2.64139226  -2.48939782
| 50> H    4.32504022  -1.29198298  -1.97880804
| 51> H    3.78957411  -1.39322549  -3.66954957
| 52> *
| 53>
| 54>                          ****END OF INPUT****

CARTESIAN COORDINATES (ANGSTROEM)
---------------------------------
  Pd     0.647913    0.513224   -0.547656
  O      2.208149    1.520419    0.275632
  C      1.638582    2.639004    0.272373
  O      0.409160    2.660691   -0.040005
  C      2.466052    3.853726    0.562461
  H      1.907768    4.651922    1.034389
  H      2.859992    4.257643   -0.371725
  H      3.338916    3.618847    1.180577
  N     -1.234680   -0.358241   -1.161804
  C     -1.249806   -1.124673   -2.441430
  H     -0.897511   -0.492912   -3.260064
  H     -2.272992   -1.462430   -2.674129
  H     -0.590256   -2.004967   -2.393804
  C     -2.170080    0.771155   -1.346940
  H     -2.222484    1.375460   -0.429569
  H     -3.183720    0.406587   -1.556319
  H     -1.832956    1.361137   -2.191875
  C     -1.524986   -0.862840    1.357582
  C     -0.632022   -1.666993    1.997763
  C     -0.426674   -1.622092    3.363055
  C     -1.333961   -0.887718    4.140920
  C     -2.260107   -0.097758    3.565711
  C     -2.166357    0.078905    2.163571
  H     -1.225111   -0.857115    5.193783
  H     -3.088790    0.425603    4.084212
  H     -0.058578   -2.364690    1.419705
  H      0.381278   -2.186799    3.845684
  H     -2.258343    1.208694    1.901275
  C     -1.780655   -1.213445   -0.096944
  H     -2.856089   -1.380436   -0.283283
  H     -1.335845   -2.197435   -0.226100
  O      1.785643   -0.988766   -1.142448
  C      2.255350   -0.758754   -2.323592
  O      1.780082    0.046633   -3.110657
  C      3.494033   -1.568694   -2.645631
  H      3.333750   -2.641392   -2.489398
  H      4.325040   -1.291983   -1.978808
  H      3.789574   -1.393225   -3.669550

 Total Charge           Charge          ....    0
 Multiplicity           Mult            ....    1
 Number of Electrons    NEL             ....  154
 Basis Dimension        Dim             ....  339

ORBITAL ENERGIES
----------------

  NO   OCC          E(Eh)            E(eV)
   0   2.0000     -19.500348      -530.6315
   1   2.0000     -19.488233      -530.3018
   2   2.0000     -19.478987      -530.0502
   3   2.0000     -19.434079      -528.8282
   4   2.0000     -14.721365      -400.5887
   5   2.0000     -10.569306      -287.6054
   6   2.0000     -10.533689      -286.6362
   7   2.0000     -10.500660      -285.7375
   8   2.0000     -10.484247      -285.2909
   9   2.0000     -10.482358      -285.2395
  10   2.0000     -10.471538      -284.9450
  11   2.0000     -10.469645      -284.8935
  12   2.0000     -10.460149      -284.6351
  13   2.0000     -10.455305      -284.5033
  14   2.0000     -10.452409      -284.4245
  15   2.0000     -10.452165      -284.4179
  16   2.0000     -10.441259      -284.1211
  17   2.0000     -10.416621      -283.4507
  18   2.0000      -3.659805       -99.5883
  19   2.0000      -2.307539       -62.7913
  20   2.0000      -2.305181       -62.7272
  21   2.0000      -2.268163       -61.7199
  22   2.0000      -1.200323       -32.6624
  23   2.0000      -1.154319       -31.4106
  24   2.0000      -1.079498       -29.3746
  25   2.0000      -1.076345       -29.2888
  26   2.0000      -1.054916       -28.7057
  27   2.0000      -0.976762       -26.5790
  28   2.0000      -0.884232       -24.0612
  29   2.0000      -0.842574       -22.9276
  30   2.0000      -0.830962       -22.6116
  31   2.0000      -0.816605       -22.2210
  32   2.0000      -0.802693       -21.8424
  33   2.0000      -0.797568       -21.7029
  34   2.0000      -0.719679       -19.5835
  35   2.0000      -0.690609       -18.7924
  36   2.0000      -0.672526       -18.3004
  37   2.0000      -0.615077       -16.7371
  38   2.0000      -0.599025       -16.3003
  39   2.0000      -0.590387       -16.0653
  40   2.0000      -0.571137       -15.5414
  41   2.0000      -0.570608       -15.5270
  42   2.0000      -0.558006       -15.1841
  43   2.0000      -0.544043       -14.8042
  44   2.0000      -0.541449       -14.7336
  45   2.0000      -0.526441       -14.3252
  46   2.0000      -0.524604       -14.2752
  47   2.0000      -0.522834       -14.2270
  48   2.0000      -0.511690       -13.9238
  49   2.0000      -0.498317       -13.5599
  50   2.0000      -0.493245       -13.4219
  51   2.0000      -0.490539       -13.3482
  52   2.0000      -0.480382       -13.0719
  53   2.0000      -0.477840       -13.0027
  54   2.0000      -0.458214       -12.4686
  55   2.0000      -0.455955       -12.4072
  56   2.0000      -0.450597       -12.2614
  57   2.0000      -0.443860       -12.0780
  58   2.0000      -0.442907       -12.0521
  59   2.0000      -0.434446       -11.8219
  60   2.0000      -0.429835       -11.6964
  61   2.0000      -0.419185       -11.4066
  62   2.0000      -0.413108       -11.2412
  63   2.0000      -0.403817       -10.9884
  64   2.0000      -0.391316       -10.6482
  65   2.0000      -0.385895       -10.5007
  66   2.0000      -0.372677       -10.1410
  67   2.0000      -0.360270        -9.8035
  68   2.0000      -0.351931        -9.5765
  69   2.0000      -0.344842        -9.3836
  70   2.0000      -0.320065        -8.7094
  71   2.0000      -0.318002        -8.6533
  72   2.0000      -0.308516        -8.3951
  73   2.0000      -0.299861        -8.1596
  74   2.0000      -0.298386        -8.1195
  75   2.0000      -0.278733        -7.5847
  76   2.0000      -0.272612        -7.4182
  77   0.0000      -0.054741        -1.4896
  78   0.0000      -0.023827        -0.6484
  79   0.0000       0.010027         0.2728
  80   0.0000       0.048155         1.3104
  81   0.0000       0.066833         1.8186

MULLIKEN ATOMIC CHARGES
-----------------------
   0 Pd:    0.535023
   1 O :   -0.475117
   2 C :    0.658678
   3 O :   -0.512514
   4 C :   -0.773955
   5 H :    0.251833
   6 H :    0.263945
   7 H :    0.258016
   8 N :   -0.477748
   9 C :   -0.527983
  10 H :    0.290380
  11 H :    0.218611
  12 H :    0.267931
  13 C :   -0.528267
  14 H :    0.274234
  15 H :    0.225615
  16 H :    0.275976
  17 C :    0.106481
  18 C :   -0.247198
  19 C :   -0.212674
  20 C :   -0.219934
  21 C :   -0.217436
  22 C :   -0.305409
  23 H :    0.227549
  24 H :    0.235296
  25 H :    0.244488
  26 H :    0.228840
  27 H :    0.232666
  28 C :   -0.345979
  29 H :    0.244834
  30 H :    0.262902
  31 O :   -0.541815
  32 C :    0.570379
  33 O :   -0.460651
  34 C :   -0.743949
  35 H :    0.229758
  36 H :    0.245622
  37 H :    0.241572
Sum of atomic charges:    0.0000000

LOEWDIN ATOMIC CHARGES
----------------------
   0 Pd:   -0.258797
   1 O :   -0.132683
   2 C :    0.184532
   3 O :   -0.210913
   4 C :   -0.379263
   5 H :    0.150502
   6 H :    0.165329
   7 H :    0.156492
   8 N :   -0.056525
   9 C :   -0.234338
  10 H :    0.162382
  11 H :    0.120362
  12 H :    0.150522
  13 C :   -0.229795
  14 H :    0.155046
  15 H :    0.123091
  16 H :    0.155215
  17 C :   -0.065134
  18 C :   -0.105965
  19 C :   -0.130231
  20 C :   -0.130520
  21 C :   -0.134443
  22 C :   -0.120709
  23 H :    0.138839
  24 H :    0.145231
  25 H :    0.151259
  26 H :    0.143451
  27 H :    0.156614
  28 C :   -0.109257
  29 H :    0.135204
  30 H :    0.150589
  31 O :   -0.179861
  32 C :    0.131442
  33 O :   -0.253625
  34 C :   -0.381442
  35 H :    0.142731
  36 H :    0.152610
  37 H :    0.142058

  Mayer bond orders larger than 0.100000
B(  0-Pd,  1-O ) :   0.5800 B(  0-Pd,  3-O ) :   0.4469 B(  0-Pd,  8-N ) :   0.4054
B(  0-Pd, 31-O ) :   0.6649 B(  0-Pd, 33-O ) :   0.1170 B(  1-O ,  2-C ) :   1.4148
B(  1-O ,  3-O ) :   0.1011 B(  2-C ,  3-O ) :   1.5230 B(  2-C ,  4-C ) :   0.9541
B(  4-C ,  5-H ) :   0.9091 B(  4-C ,  6-H ) :   0.9002 B(  4-C ,  7-H ) :   0.9080
B(  8-N ,  9-C ) :   0.9165 B(  8-N , 13-C ) :   0.9212 B(  8-N , 28-C ) :   0.9009
B(  9-C , 10-H ) :   0.8911 B(  9-C , 11-H ) :   0.9020 B(  9-C , 12-H ) :   0.9041
B( 13-C , 14-H ) :   0.8950 B( 13-C , 15-H ) :   0.9019 B( 13-C , 16-H ) :   0.9018
B( 17-C , 18-C ) :   1.4047 B( 17-C , 22-C ) :   1.3831 B( 17-C , 28-C ) :   0.9524
B( 18-C , 19-C ) :   1.4417 B( 18-C , 25-H ) :   0.9012 B( 19-C , 20-C ) :   1.4015
B( 19-C , 22-C ) :   0.1115 B( 19-C , 26-H ) :   0.9169 B( 20-C , 21-C ) :   1.4580
B( 20-C , 23-H ) :   0.9158 B( 21-C , 22-C ) :   1.3926 B( 21-C , 24-H ) :   0.9136
B( 22-C , 27-H ) :   0.9116 B( 28-C , 29-H ) :   0.8939 B( 28-C , 30-H ) :   0.9087
B( 31-O , 32-C ) :   1.2507 B( 32-C , 33-O ) :   1.8638 B( 32-C , 34-C ) :   0.9332
B( 34-C , 35-H ) :   0.9161 B( 34-C , 36-H ) :   0.9114 B( 34-C , 37-H ) :   0.9180

Dispersion correction           -0.025800071
FINAL SINGLE POINT ENERGY      -988.497660327034
Dispersion correction            ... done

DIPOLE MOMENT
-------------
                                X             Y             Z
Electronic contribution:     29.13404      25.04465     -27.61459
Nuclear contribution   :    -30.64475     -25.38837      28.39136
                        -----------------------------------------
Total Dipole Moment    :     -1.51072      -0.34372       0.77677
                        -----------------------------------------
Magnitude (a.u.)       :      1.73314
Magnitude (Debye)      :      4.40529

Rotational constants in cm-1:     0.013725     0.008213     0.006972
Rotational constants in MHz :   411.459689   246.219895   209.025560

                             ****ORCA TERMINATED NORMALLY****
TOTAL RUN TIME: 0 days 0 hours 8 minutes 13 seconds 752 msec
