                         Program Version 5.0.3 -  RELEASE  -
|  1> ! EnGrad PBEh-3c
|  2> %output
|  3> xyzfile=True
|  4> end
|  5> %scf
|  6> maxiter 250
|  7> end
|  8> %output
|  9> Print[P_Hirshfeld] = 1
| 10> end
| 11> % maxcore
| 12> 4000
| 13> *xyz 0 1
| 14> Pd   0.63291446   0.50511953  -0.55164608
| 15> O    2.20971051   1.51004303   0.27091389
| 16> C    1.63225813   2.63319678   0.27209174
| 17> O    0.40986988   2.65249203  -0.03011368
| 18> C    2.46773224   3.84520820   0.56360168
| 19> H    1.91461642   4.64703112   1.03542368
| 20> H    2.86485812   4.24077150  -0.37059707
| 21> H    3.33433001   3.59963677   1.17933604
| 22> N   -1.23755158  -0.36321156  -1.16009552
| 23> C   -1.24659580  -1.14410987  -2.42864671
| 24> H   -0.89282855  -0.52731537  -3.25729886
| 25> H   -2.26685645  -1.48824793  -2.66858441
| 26> H   -0.59378396  -2.02036596  -2.37387329
| 27> C   -2.17188098   0.75978108  -1.35959230
| 28> H   -2.23192602   1.36893820  -0.45527055
| 29> H   -3.18602586   0.39569602  -1.57230945
| 30> H   -1.83640062   1.34991242  -2.20664710
| 31> C   -1.52303926  -0.86380212   1.35411691
| 32> C   -0.64041272  -1.68946605   2.01249660
| 33> C   -0.45700548  -1.63803462   3.37258840
| 34> C   -1.32533253  -0.88841763   4.15675158
| 35> C   -2.26649389  -0.08045277   3.56028096
| 36> C   -2.11981253   0.12235898   2.17045811
| 37> H   -1.23716707  -0.87257331   5.21118503
| 38> H   -3.05596876   0.48779677   4.09063061
| 39> H   -0.09708466  -2.37511399   1.41780816
| 40> H    0.35456854  -2.19552809   3.83797315
| 41> H   -2.18975969   1.22791357   1.88592838
| 42> C   -1.79158706  -1.21034753  -0.08853900
| 43> H   -2.86895016  -1.36688874  -0.27980029
| 44> H   -1.35427791  -2.19085760  -0.20783738
| 45> O    1.78456268  -0.98651569  -1.14257589
| 46> C    2.25367553  -0.74747795  -2.33212720
| 47> O    1.77278183   0.04660479  -3.10957645
| 48> C    3.50236682  -1.54386813  -2.65312374
| 49> H    3.35263119  -2.61464126  -2.50337680
| 50> H    4.32517399  -1.26241750  -1.98597882
| 51> H    3.80035698  -1.36029247  -3.67920862
| 52> *
| 53>
| 54>                          ****END OF INPUT****

CARTESIAN COORDINATES (ANGSTROEM)
---------------------------------
  Pd     0.632914    0.505120   -0.551646
  O      2.209711    1.510043    0.270914
  C      1.632258    2.633197    0.272092
  O      0.409870    2.652492   -0.030114
  C      2.467732    3.845208    0.563602
  H      1.914616    4.647031    1.035424
  H      2.864858    4.240771   -0.370597
  H      3.334330    3.599637    1.179336
  N     -1.237552   -0.363212   -1.160096
  C     -1.246596   -1.144110   -2.428647
  H     -0.892829   -0.527315   -3.257299
  H     -2.266856   -1.488248   -2.668584
  H     -0.593784   -2.020366   -2.373873
  C     -2.171881    0.759781   -1.359592
  H     -2.231926    1.368938   -0.455271
  H     -3.186026    0.395696   -1.572309
  H     -1.836401    1.349912   -2.206647
  C     -1.523039   -0.863802    1.354117
  C     -0.640413   -1.689466    2.012497
  C     -0.457005   -1.638035    3.372588
  C     -1.325333   -0.888418    4.156752
  C     -2.266494   -0.080453    3.560281
  C     -2.119813    0.122359    2.170458
  H     -1.237167   -0.872573    5.211185
  H     -3.055969    0.487797    4.090631
  H     -0.097085   -2.375114    1.417808
  H      0.354569   -2.195528    3.837973
  H     -2.189760    1.227914    1.885928
  C     -1.791587   -1.210348   -0.088539
  H     -2.868950   -1.366889   -0.279800
  H     -1.354278   -2.190858   -0.207837
  O      1.784563   -0.986516   -1.142576
  C      2.253676   -0.747478   -2.332127
  O      1.772782    0.046605   -3.109576
  C      3.502367   -1.543868   -2.653124
  H      3.352631   -2.614641   -2.503377
  H      4.325174   -1.262417   -1.985979
  H      3.800357   -1.360292   -3.679209

 Total Charge           Charge          ....    0
 Multiplicity           Mult            ....    1
 Number of Electrons    NEL             ....  154
 Basis Dimension        Dim             ....  339

ORBITAL ENERGIES
----------------

  NO   OCC          E(Eh)            E(eV)
   0   2.0000     -19.496978      -530.5398
   1   2.0000     -19.488350      -530.3050
   2   2.0000     -19.477613      -530.0128
   3   2.0000     -19.436228      -528.8867
   4   2.0000     -14.722488      -400.6193
   5   2.0000     -10.567858      -287.5660
   6   2.0000     -10.533580      -286.6333
   7   2.0000     -10.500790      -285.7410
   8   2.0000     -10.484401      -285.2951
   9   2.0000     -10.482045      -285.2309
  10   2.0000     -10.472924      -284.9827
  11   2.0000     -10.470508      -284.9170
  12   2.0000     -10.463123      -284.7160
  13   2.0000     -10.454989      -284.4947
  14   2.0000     -10.451434      -284.3980
  15   2.0000     -10.450748      -284.3793
  16   2.0000     -10.439845      -284.0826
  17   2.0000     -10.416069      -283.4356
  18   2.0000      -3.659070       -99.5684
  19   2.0000      -2.306676       -62.7679
  20   2.0000      -2.304481       -62.7081
  21   2.0000      -2.267537       -61.7028
  22   2.0000      -1.198123       -32.6026
  23   2.0000      -1.155468       -31.4419
  24   2.0000      -1.079376       -29.3713
  25   2.0000      -1.077845       -29.3297
  26   2.0000      -1.056830       -28.7578
  27   2.0000      -0.973905       -26.5013
  28   2.0000      -0.882984       -24.0272
  29   2.0000      -0.843620       -22.9561
  30   2.0000      -0.829780       -22.5795
  31   2.0000      -0.818309       -22.2673
  32   2.0000      -0.802280       -21.8312
  33   2.0000      -0.797793       -21.7090
  34   2.0000      -0.721254       -19.6263
  35   2.0000      -0.689952       -18.7746
  36   2.0000      -0.672672       -18.3043
  37   2.0000      -0.613230       -16.6868
  38   2.0000      -0.599740       -16.3198
  39   2.0000      -0.589015       -16.0279
  40   2.0000      -0.572904       -15.5895
  41   2.0000      -0.571986       -15.5645
  42   2.0000      -0.561534       -15.2801
  43   2.0000      -0.542308       -14.7569
  44   2.0000      -0.540220       -14.7001
  45   2.0000      -0.526033       -14.3141
  46   2.0000      -0.523627       -14.2486
  47   2.0000      -0.522081       -14.2066
  48   2.0000      -0.512691       -13.9510
  49   2.0000      -0.498593       -13.5674
  50   2.0000      -0.493128       -13.4187
  51   2.0000      -0.490503       -13.3473
  52   2.0000      -0.483054       -13.1446
  53   2.0000      -0.478582       -13.0229
  54   2.0000      -0.459394       -12.5007
  55   2.0000      -0.455970       -12.4076
  56   2.0000      -0.449953       -12.2438
  57   2.0000      -0.443585       -12.0706
  58   2.0000      -0.442311       -12.0359
  59   2.0000      -0.434594       -11.8259
  60   2.0000      -0.431328       -11.7370
  61   2.0000      -0.419238       -11.4081
  62   2.0000      -0.416452       -11.3322
  63   2.0000      -0.407350       -11.0845
  64   2.0000      -0.390086       -10.6148
  65   2.0000      -0.385724       -10.4961
  66   2.0000      -0.373313       -10.1584
  67   2.0000      -0.360454        -9.8085
  68   2.0000      -0.351766        -9.5720
  69   2.0000      -0.344067        -9.3625
  70   2.0000      -0.319136        -8.6841
  71   2.0000      -0.316511        -8.6127
  72   2.0000      -0.308485        -8.3943
  73   2.0000      -0.298373        -8.1191
  74   2.0000      -0.297583        -8.0976
  75   2.0000      -0.278767        -7.5856
  76   2.0000      -0.272356        -7.4112
  77   0.0000      -0.054224        -1.4755
  78   0.0000      -0.022266        -0.6059
  79   0.0000       0.006090         0.1657
  80   0.0000       0.049752         1.3538
  81   0.0000       0.067479         1.8362

MULLIKEN ATOMIC CHARGES
-----------------------
   0 Pd:    0.531853
   1 O :   -0.479862
   2 C :    0.655673
   3 O :   -0.506862
   4 C :   -0.772672
   5 H :    0.250243
   6 H :    0.263136
   7 H :    0.258958
   8 N :   -0.480829
   9 C :   -0.531151
  10 H :    0.290844
  11 H :    0.218830
  12 H :    0.270512
  13 C :   -0.530616
  14 H :    0.275243
  15 H :    0.226022
  16 H :    0.276857
  17 C :    0.088692
  18 C :   -0.237695
  19 C :   -0.207946
  20 C :   -0.223806
  21 C :   -0.222034
  22 C :   -0.300578
  23 H :    0.230399
  24 H :    0.234403
  25 H :    0.243480
  26 H :    0.226623
  27 H :    0.240184
  28 C :   -0.344207
  29 H :    0.246041
  30 H :    0.263607
  31 O :   -0.547092
  32 C :    0.569371
  33 O :   -0.448873
  34 C :   -0.744924
  35 H :    0.231150
  36 H :    0.247521
  37 H :    0.239506
Sum of atomic charges:   -0.0000000

LOEWDIN ATOMIC CHARGES
----------------------
   0 Pd:   -0.262143
   1 O :   -0.142280
   2 C :    0.182697
   3 O :   -0.204111
   4 C :   -0.379628
   5 H :    0.149634
   6 H :    0.164722
   7 H :    0.156597
   8 N :   -0.054325
   9 C :   -0.235116
  10 H :    0.162302
  11 H :    0.120425
  12 H :    0.150610
  13 C :   -0.230406
  14 H :    0.154308
  15 H :    0.123261
  16 H :    0.155511
  17 C :   -0.063161
  18 C :   -0.106161
  19 C :   -0.135197
  20 C :   -0.127987
  21 C :   -0.132788
  22 C :   -0.116580
  23 H :    0.139706
  24 H :    0.144273
  25 H :    0.150463
  26 H :    0.142432
  27 H :    0.155895
  28 C :   -0.110036
  29 H :    0.136305
  30 H :    0.151145
  31 O :   -0.186246
  32 C :    0.130181
  33 O :   -0.239945
  34 C :   -0.382027
  35 H :    0.143016
  36 H :    0.152944
  37 H :    0.141710

  Mayer bond orders larger than 0.100000
B(  0-Pd,  1-O ) :   0.5833 B(  0-Pd,  3-O ) :   0.4377 B(  0-Pd,  8-N ) :   0.4071
B(  0-Pd, 31-O ) :   0.6734 B(  0-Pd, 33-O ) :   0.1150 B(  1-O ,  2-C ) :   1.4036
B(  1-O ,  3-O ) :   0.1011 B(  2-C ,  3-O ) :   1.5386 B(  2-C ,  4-C ) :   0.9539
B(  4-C ,  5-H ) :   0.9099 B(  4-C ,  6-H ) :   0.9008 B(  4-C ,  7-H ) :   0.9077
B(  8-N ,  9-C ) :   0.9171 B(  8-N , 13-C ) :   0.9219 B(  8-N , 28-C ) :   0.8977
B(  9-C , 10-H ) :   0.8908 B(  9-C , 11-H ) :   0.9023 B(  9-C , 12-H ) :   0.9029
B( 13-C , 14-H ) :   0.8946 B( 13-C , 15-H ) :   0.9020 B( 13-C , 16-H ) :   0.9015
B( 17-C , 18-C ) :   1.4193 B( 17-C , 22-C ) :   1.3731 B( 17-C , 28-C ) :   0.9582
B( 18-C , 19-C ) :   1.4302 B( 18-C , 25-H ) :   0.9012 B( 19-C , 20-C ) :   1.4209
B( 19-C , 22-C ) :   0.1014 B( 19-C , 26-H ) :   0.9178 B( 20-C , 21-C ) :   1.4307
B( 20-C , 23-H ) :   0.9150 B( 21-C , 22-C ) :   1.4197 B( 21-C , 24-H ) :   0.9145
B( 22-C , 27-H ) :   0.9092 B( 28-C , 29-H ) :   0.8927 B( 28-C , 30-H ) :   0.9081
B( 31-O , 32-C ) :   1.2360 B( 32-C , 33-O ) :   1.8796 B( 32-C , 34-C ) :   0.9330
B( 34-C , 35-H ) :   0.9156 B( 34-C , 36-H ) :   0.9108 B( 34-C , 37-H ) :   0.9191

Dispersion correction           -0.025827614
FINAL SINGLE POINT ENERGY      -988.500643374551
Dispersion correction            ... done

DIPOLE MOMENT
-------------
                                X             Y             Z
Electronic contribution:     28.29334      24.64825     -27.91602
Nuclear contribution   :    -29.85175     -24.97566      28.62638
                        -----------------------------------------
Total Dipole Moment    :     -1.55842      -0.32742       0.71036
                        -----------------------------------------
Magnitude (a.u.)       :      1.74370
Magnitude (Debye)      :      4.43213

Rotational constants in cm-1:     0.013758     0.008212     0.006970
Rotational constants in MHz :   412.446737   246.199988   208.955364

                             ****ORCA TERMINATED NORMALLY****
TOTAL RUN TIME: 0 days 0 hours 14 minutes 50 seconds 601 msec
