                         Program Version 5.0.3 -  RELEASE  -
|  1> ! EnGrad PBEh-3c
|  2> %output
|  3> xyzfile=True
|  4> end
|  5> %scf
|  6> maxiter 250
|  7> end
|  8> %output
|  9> Print[P_Hirshfeld] = 1
| 10> end
| 11> % maxcore
| 12> 4000
| 13> *xyz 0 1
| 14> Pd   0.61038548   0.49328128  -0.55483286
| 15> O    2.20931112   1.48253751   0.25499469
| 16> C    1.62183681   2.61405043   0.27264436
| 17> O    0.40416621   2.63700416  -0.00804120
| 18> C    2.47016788   3.82568445   0.56559628
| 19> H    1.92780952   4.63678612   1.03843089
| 20> H    2.87583536   4.20350386  -0.37030662
| 21> H    3.32443851   3.55539171   1.17793117
| 22> N   -1.24903361  -0.37366627  -1.16300918
| 23> C   -1.23973530  -1.18794760  -2.40352950
| 24> H   -0.88203291  -0.60369284  -3.24814628
| 25> H   -2.25144764  -1.54452954  -2.65305512
| 26> H   -0.59975898  -2.05568993  -2.32616860
| 27> C   -2.17734888   0.73684995  -1.39016400
| 28> H   -2.25222363   1.35700807  -0.51110069
| 29> H   -3.18921035   0.37006894  -1.60863991
| 30> H   -1.84333276   1.32567448  -2.23918657
| 31> C   -1.51467815  -0.85075494   1.36740553
| 32> C   -0.68165135  -1.72831459   2.03803513
| 33> C   -0.51061331  -1.67600313   3.40473125
| 34> C   -1.33185320  -0.88524742   4.17761269
| 35> C   -2.25624388  -0.03538571   3.54714512
| 36> C   -2.02659660   0.22384542   2.17915307
| 37> H   -1.26263617  -0.90850157   5.25912620
| 38> H   -2.97240761   0.62366452   4.10160956
| 39> H   -0.17042928  -2.41472699   1.40823617
| 40> H    0.29484454  -2.21887168   3.82397726
| 41> H   -2.04775792   1.25583262   1.84981626
| 42> C   -1.81560168  -1.20189534  -0.07150704
| 43> H   -2.89482042  -1.33401886  -0.26874655
| 44> H   -1.39306788  -2.18423959  -0.17087510
| 45> O    1.78032000  -0.98366787  -1.14592737
| 46> C    2.25431465  -0.73162888  -2.33716730
| 47> O    1.75046368   0.05709029  -3.11880156
| 48> C    3.52156880  -1.48795363  -2.67134647
| 49> H    3.39410879  -2.55638741  -2.53509633
| 50> H    4.32554240  -1.19463516  -2.00158570
| 51> H    3.82431591  -1.28640012  -3.69977186
| 52> *
| 53>
| 54>                          ****END OF INPUT****

CARTESIAN COORDINATES (ANGSTROEM)
---------------------------------
  Pd     0.610385    0.493281   -0.554833
  O      2.209311    1.482538    0.254995
  C      1.621837    2.614050    0.272644
  O      0.404166    2.637004   -0.008041
  C      2.470168    3.825684    0.565596
  H      1.927810    4.636786    1.038431
  H      2.875835    4.203504   -0.370307
  H      3.324439    3.555392    1.177931
  N     -1.249034   -0.373666   -1.163009
  C     -1.239735   -1.187948   -2.403529
  H     -0.882033   -0.603693   -3.248146
  H     -2.251448   -1.544530   -2.653055
  H     -0.599759   -2.055690   -2.326169
  C     -2.177349    0.736850   -1.390164
  H     -2.252224    1.357008   -0.511101
  H     -3.189210    0.370069   -1.608640
  H     -1.843333    1.325674   -2.239187
  C     -1.514678   -0.850755    1.367406
  C     -0.681651   -1.728315    2.038035
  C     -0.510613   -1.676003    3.404731
  C     -1.331853   -0.885247    4.177613
  C     -2.256244   -0.035386    3.547145
  C     -2.026597    0.223845    2.179153
  H     -1.262636   -0.908502    5.259126
  H     -2.972408    0.623665    4.101610
  H     -0.170429   -2.414727    1.408236
  H      0.294845   -2.218872    3.823977
  H     -2.047758    1.255833    1.849816
  C     -1.815602   -1.201895   -0.071507
  H     -2.894820   -1.334019   -0.268747
  H     -1.393068   -2.184240   -0.170875
  O      1.780320   -0.983668   -1.145927
  C      2.254315   -0.731629   -2.337167
  O      1.750464    0.057090   -3.118802
  C      3.521569   -1.487954   -2.671346
  H      3.394109   -2.556387   -2.535096
  H      4.325542   -1.194635   -2.001586
  H      3.824316   -1.286400   -3.699772

 Total Charge           Charge          ....    0
 Multiplicity           Mult            ....    1
 Number of Electrons    NEL             ....  154
 Basis Dimension        Dim             ....  339

ORBITAL ENERGIES
----------------

  NO   OCC          E(Eh)            E(eV)
   0   2.0000     -19.495609      -530.5025
   1   2.0000     -19.490865      -530.3734
   2   2.0000     -19.478200      -530.0288
   3   2.0000     -19.435674      -528.8716
   4   2.0000     -14.723253      -400.6401
   5   2.0000     -10.568585      -287.5858
   6   2.0000     -10.534731      -286.6646
   7   2.0000     -10.501889      -285.7709
   8   2.0000     -10.483770      -285.2779
   9   2.0000     -10.479680      -285.1666
  10   2.0000     -10.475521      -285.0534
  11   2.0000     -10.470455      -284.9156
  12   2.0000     -10.467815      -284.8437
  13   2.0000     -10.460311      -284.6395
  14   2.0000     -10.451913      -284.4110
  15   2.0000     -10.446442      -284.2621
  16   2.0000     -10.439573      -284.0752
  17   2.0000     -10.415863      -283.4301
  18   2.0000      -3.659191       -99.5716
  19   2.0000      -2.306903       -62.7740
  20   2.0000      -2.304576       -62.7107
  21   2.0000      -2.267652       -61.7060
  22   2.0000      -1.197014       -32.5724
  23   2.0000      -1.151051       -31.3217
  24   2.0000      -1.080734       -29.4083
  25   2.0000      -1.079049       -29.3624
  26   2.0000      -1.053139       -28.6574
  27   2.0000      -0.970189       -26.4002
  28   2.0000      -0.880515       -23.9600
  29   2.0000      -0.844507       -22.9802
  30   2.0000      -0.828673       -22.5493
  31   2.0000      -0.821636       -22.3578
  32   2.0000      -0.800899       -21.7936
  33   2.0000      -0.799298       -21.7500
  34   2.0000      -0.722312       -19.6551
  35   2.0000      -0.690059       -18.7775
  36   2.0000      -0.671067       -18.2607
  37   2.0000      -0.612753       -16.6739
  38   2.0000      -0.601498       -16.3676
  39   2.0000      -0.588847       -16.0233
  40   2.0000      -0.575200       -15.6520
  41   2.0000      -0.571871       -15.5614
  42   2.0000      -0.565342       -15.3837
  43   2.0000      -0.541754       -14.7419
  44   2.0000      -0.540198       -14.6995
  45   2.0000      -0.528216       -14.3735
  46   2.0000      -0.523015       -14.2320
  47   2.0000      -0.519030       -14.1235
  48   2.0000      -0.511757       -13.9256
  49   2.0000      -0.497513       -13.5380
  50   2.0000      -0.492375       -13.3982
  51   2.0000      -0.488977       -13.3057
  52   2.0000      -0.488306       -13.2875
  53   2.0000      -0.479003       -13.0343
  54   2.0000      -0.459681       -12.5086
  55   2.0000      -0.457037       -12.4366
  56   2.0000      -0.451195       -12.2776
  57   2.0000      -0.445053       -12.1105
  58   2.0000      -0.443017       -12.0551
  59   2.0000      -0.433918       -11.8075
  60   2.0000      -0.432828       -11.7778
  61   2.0000      -0.419686       -11.4202
  62   2.0000      -0.416682       -11.3385
  63   2.0000      -0.408538       -11.1169
  64   2.0000      -0.391248       -10.6464
  65   2.0000      -0.385518       -10.4905
  66   2.0000      -0.372955       -10.1486
  67   2.0000      -0.360624        -9.8131
  68   2.0000      -0.351763        -9.5720
  69   2.0000      -0.344309        -9.3691
  70   2.0000      -0.318950        -8.6791
  71   2.0000      -0.315723        -8.5913
  72   2.0000      -0.308873        -8.4048
  73   2.0000      -0.297408        -8.0929
  74   2.0000      -0.294282        -8.0078
  75   2.0000      -0.279255        -7.5989
  76   2.0000      -0.270729        -7.3669
  77   0.0000      -0.054390        -1.4800
  78   0.0000      -0.023023        -0.6265
  79   0.0000       0.003196         0.0870
  80   0.0000       0.050046         1.3618
  81   0.0000       0.067989         1.8501

MULLIKEN ATOMIC CHARGES
-----------------------
   0 Pd:    0.530692
   1 O :   -0.486382
   2 C :    0.653238
   3 O :   -0.498917
   4 C :   -0.769840
   5 H :    0.248624
   6 H :    0.262780
   7 H :    0.259997
   8 N :   -0.483553
   9 C :   -0.536086
  10 H :    0.293313
  11 H :    0.218584
  12 H :    0.274146
  13 C :   -0.534163
  14 H :    0.275397
  15 H :    0.226193
  16 H :    0.279172
  17 C :    0.063346
  18 C :   -0.238937
  19 C :   -0.194134
  20 C :   -0.235016
  21 C :   -0.224436
  22 C :   -0.289174
  23 H :    0.231124
  24 H :    0.227622
  25 H :    0.242031
  26 H :    0.228680
  27 H :    0.257919
  28 C :   -0.339344
  29 H :    0.247521
  30 H :    0.262673
  31 O :   -0.548916
  32 C :    0.572744
  33 O :   -0.455670
  34 C :   -0.743758
  35 H :    0.232851
  36 H :    0.250140
  37 H :    0.239539
Sum of atomic charges:   -0.0000000

LOEWDIN ATOMIC CHARGES
----------------------
   0 Pd:   -0.265234
   1 O :   -0.152849
   2 C :    0.184910
   3 O :   -0.195341
   4 C :   -0.380026
   5 H :    0.148899
   6 H :    0.164350
   7 H :    0.156766
   8 N :   -0.052785
   9 C :   -0.236751
  10 H :    0.162672
  11 H :    0.120043
  12 H :    0.150505
  13 C :   -0.232034
  14 H :    0.152465
  15 H :    0.123157
  16 H :    0.156088
  17 C :   -0.057900
  18 C :   -0.109543
  19 C :   -0.142113
  20 C :   -0.125672
  21 C :   -0.130204
  22 C :   -0.109776
  23 H :    0.141629
  24 H :    0.142047
  25 H :    0.150050
  26 H :    0.141766
  27 H :    0.155572
  28 C :   -0.109522
  29 H :    0.137317
  30 H :    0.151077
  31 O :   -0.188808
  32 C :    0.139014
  33 O :   -0.248263
  34 C :   -0.381220
  35 H :    0.143519
  36 H :    0.153361
  37 H :    0.142832

  Mayer bond orders larger than 0.100000
B(  0-Pd,  1-O ) :   0.5911 B(  0-Pd,  3-O ) :   0.4285 B(  0-Pd,  8-N ) :   0.4088
B(  0-Pd, 31-O ) :   0.6730 B(  0-Pd, 33-O ) :   0.1170 B(  1-O ,  2-C ) :   1.3845
B(  1-O ,  3-O ) :   0.1012 B(  2-C ,  3-O ) :   1.5567 B(  2-C ,  4-C ) :   0.9532
B(  4-C ,  5-H ) :   0.9109 B(  4-C ,  6-H ) :   0.9012 B(  4-C ,  7-H ) :   0.9069
B(  8-N ,  9-C ) :   0.9185 B(  8-N , 13-C ) :   0.9245 B(  8-N , 28-C ) :   0.8915
B(  9-C , 10-H ) :   0.8893 B(  9-C , 11-H ) :   0.9030 B(  9-C , 12-H ) :   0.9012
B( 13-C , 14-H ) :   0.8950 B( 13-C , 15-H ) :   0.9023 B( 13-C , 16-H ) :   0.9008
B( 17-C , 18-C ) :   1.4447 B( 17-C , 22-C ) :   1.3467 B( 17-C , 28-C ) :   0.9647
B( 18-C , 19-C ) :   1.4052 B( 18-C , 25-H ) :   0.9016 B( 19-C , 20-C ) :   1.4483
B( 19-C , 26-H ) :   0.9162 B( 20-C , 21-C ) :   1.3869 B( 20-C , 23-H ) :   0.9153
B( 21-C , 22-C ) :   1.4609 B( 21-C , 24-H ) :   0.9168 B( 22-C , 27-H ) :   0.9033
B( 28-C , 29-H ) :   0.8905 B( 28-C , 30-H ) :   0.9078 B( 31-O , 32-C ) :   1.2337
B( 32-C , 33-O ) :   1.8681 B( 32-C , 34-C ) :   0.9364 B( 34-C , 35-H ) :   0.9144
B( 34-C , 36-H ) :   0.9090 B( 34-C , 37-H ) :   0.9202

Dispersion correction           -0.025856867
FINAL SINGLE POINT ENERGY      -988.498474875908
Dispersion correction            ... done

DIPOLE MOMENT
-------------
                                X             Y             Z
Electronic contribution:     27.12531      24.06185     -28.15168
Nuclear contribution   :    -28.69433     -24.36361      28.82333
                        -----------------------------------------
Total Dipole Moment    :     -1.56902      -0.30176       0.67165
                        -----------------------------------------
Magnitude (a.u.)       :      1.73320
Magnitude (Debye)      :      4.40545

Rotational constants in cm-1:     0.013828     0.008207     0.006963
Rotational constants in MHz :   414.540716   246.037037   208.731022

                             ****ORCA TERMINATED NORMALLY****
TOTAL RUN TIME: 0 days 0 hours 16 minutes 34 seconds 543 msec
