                         Program Version 5.0.3 -  RELEASE  -
|  1> ! EnGrad PBEh-3c
|  2> %output
|  3> xyzfile=True
|  4> end
|  5> %scf
|  6> maxiter 250
|  7> end
|  8> %output
|  9> Print[P_Hirshfeld] = 1
| 10> end
| 11> % maxcore
| 12> 4000
| 13> *xyz 0 1
| 14> Pd   0.60740852   0.49375204  -0.55149995
| 15> O    2.20646694   1.46018129   0.23859936
| 16> C    1.61428908   2.59942413   0.27233536
| 17> O    0.39849681   2.62953212   0.00778557
| 18> C    2.47007259   3.81237037   0.56598732
| 19> H    1.93232626   4.63021391   1.04056218
| 20> H    2.88183774   4.18141775  -0.37284489
| 21> H    3.31808126   3.52749251   1.17865100
| 22> N   -1.26011970  -0.37959287  -1.16963320
| 23> C   -1.23578708  -1.21353937  -2.39128448
| 24> H   -0.87398936  -0.64677821  -3.23942570
| 25> H   -2.24091433  -1.57605391  -2.63966439
| 26> H   -0.60040448  -2.07668487  -2.29198161
| 27> C   -2.18196894   0.72632282  -1.41140274
| 28> H   -2.26236530   1.35436279  -0.54231337
| 29> H   -3.18894854   0.35346372  -1.63138728
| 30> H   -1.84593686   1.31457168  -2.25749120
| 31> C   -1.51036807  -0.81699877   1.38253720
| 32> C   -0.71213398  -1.75310211   2.05534430
| 33> C   -0.54574832  -1.69116640   3.41934701
| 34> C   -1.34594842  -0.89002916   4.19441970
| 35> C   -2.23484579   0.01996388   3.53074028
| 36> C   -1.97737388   0.26046183   2.18666325
| 37> H   -1.27953050  -0.93047325   5.28479924
| 38> H   -2.89800384   0.69620582   4.10133196
| 39> H   -0.20741178  -2.44983388   1.40435948
| 40> H    0.26746898  -2.24490177   3.82689857
| 41> H   -1.99751467   1.26749683   1.81428121
| 42> C   -1.82498225  -1.19331093  -0.05799472
| 43> H   -2.90647044  -1.30985782  -0.25608470
| 44> H   -1.41367967  -2.18927369  -0.15446731
| 45> O    1.77459286  -0.98625709  -1.14830003
| 46> C    2.24757474  -0.71297253  -2.34638960
| 47> O    1.74259246   0.05603542  -3.11835234
| 48> C    3.53261310  -1.45539879  -2.68264952
| 49> H    3.41753448  -2.52360091  -2.55501778
| 50> H    4.32566394  -1.15230511  -2.01000272
| 51> H    3.83762219  -1.24213824  -3.71056412
| 52> *
| 53>
| 54>                          ****END OF INPUT****

CARTESIAN COORDINATES (ANGSTROEM)
---------------------------------
  Pd     0.607409    0.493752   -0.551500
  O      2.206467    1.460181    0.238599
  C      1.614289    2.599424    0.272335
  O      0.398497    2.629532    0.007786
  C      2.470073    3.812370    0.565987
  H      1.932326    4.630214    1.040562
  H      2.881838    4.181418   -0.372845
  H      3.318081    3.527493    1.178651
  N     -1.260120   -0.379593   -1.169633
  C     -1.235787   -1.213539   -2.391284
  H     -0.873989   -0.646778   -3.239426
  H     -2.240914   -1.576054   -2.639664
  H     -0.600404   -2.076685   -2.291982
  C     -2.181969    0.726323   -1.411403
  H     -2.262365    1.354363   -0.542313
  H     -3.188949    0.353464   -1.631387
  H     -1.845937    1.314572   -2.257491
  C     -1.510368   -0.816999    1.382537
  C     -0.712134   -1.753102    2.055344
  C     -0.545748   -1.691166    3.419347
  C     -1.345948   -0.890029    4.194420
  C     -2.234846    0.019964    3.530740
  C     -1.977374    0.260462    2.186663
  H     -1.279530   -0.930473    5.284799
  H     -2.898004    0.696206    4.101332
  H     -0.207412   -2.449834    1.404359
  H      0.267469   -2.244902    3.826899
  H     -1.997515    1.267497    1.814281
  C     -1.824982   -1.193311   -0.057995
  H     -2.906470   -1.309858   -0.256085
  H     -1.413680   -2.189274   -0.154467
  O      1.774593   -0.986257   -1.148300
  C      2.247575   -0.712973   -2.346390
  O      1.742592    0.056035   -3.118352
  C      3.532613   -1.455399   -2.682650
  H      3.417534   -2.523601   -2.555018
  H      4.325664   -1.152305   -2.010003
  H      3.837622   -1.242138   -3.710564

 Total Charge           Charge          ....    0
 Multiplicity           Mult            ....    1
 Number of Electrons    NEL             ....  154
 Basis Dimension        Dim             ....  339

ORBITAL ENERGIES
----------------

  NO   OCC          E(Eh)            E(eV)
   0   2.0000     -19.497073      -530.5423
   1   2.0000     -19.494072      -530.4607
   2   2.0000     -19.475631      -529.9589
   3   2.0000     -19.438440      -528.9468
   4   2.0000     -14.720982      -400.5783
   5   2.0000     -10.570875      -287.6481
   6   2.0000     -10.533999      -286.6447
   7   2.0000     -10.503632      -285.8184
   8   2.0000     -10.482393      -285.2404
   9   2.0000     -10.477328      -285.1026
  10   2.0000     -10.476100      -285.0692
  11   2.0000     -10.467635      -284.8388
  12   2.0000     -10.466368      -284.8044
  13   2.0000     -10.463337      -284.7219
  14   2.0000     -10.454309      -284.4762
  15   2.0000     -10.446344      -284.2595
  16   2.0000     -10.441153      -284.1182
  17   2.0000     -10.414541      -283.3941
  18   2.0000      -3.658244       -99.5459
  19   2.0000      -2.306204       -62.7550
  20   2.0000      -2.303410       -62.6790
  21   2.0000      -2.266882       -61.6850
  22   2.0000      -1.198323       -32.6080
  23   2.0000      -1.154748       -31.4223
  24   2.0000      -1.081851       -29.4387
  25   2.0000      -1.078719       -29.3534
  26   2.0000      -1.055683       -28.7266
  27   2.0000      -0.969639       -26.3852
  28   2.0000      -0.876633       -23.8544
  29   2.0000      -0.847694       -23.0669
  30   2.0000      -0.828376       -22.5413
  31   2.0000      -0.822611       -22.3844
  32   2.0000      -0.798896       -21.7391
  33   2.0000      -0.796993       -21.6873
  34   2.0000      -0.720744       -19.6124
  35   2.0000      -0.689084       -18.7509
  36   2.0000      -0.671290       -18.2667
  37   2.0000      -0.613396       -16.6914
  38   2.0000      -0.600961       -16.3530
  39   2.0000      -0.586215       -15.9517
  40   2.0000      -0.574389       -15.6299
  41   2.0000      -0.570978       -15.5371
  42   2.0000      -0.564455       -15.3596
  43   2.0000      -0.543538       -14.7904
  44   2.0000      -0.541541       -14.7361
  45   2.0000      -0.528544       -14.3824
  46   2.0000      -0.523891       -14.2558
  47   2.0000      -0.517509       -14.0821
  48   2.0000      -0.511988       -13.9319
  49   2.0000      -0.497944       -13.5497
  50   2.0000      -0.493216       -13.4211
  51   2.0000      -0.491324       -13.3696
  52   2.0000      -0.485429       -13.2092
  53   2.0000      -0.479205       -13.0398
  54   2.0000      -0.459428       -12.5017
  55   2.0000      -0.457864       -12.4591
  56   2.0000      -0.450707       -12.2644
  57   2.0000      -0.445756       -12.1296
  58   2.0000      -0.443838       -12.0774
  59   2.0000      -0.433791       -11.8041
  60   2.0000      -0.432667       -11.7735
  61   2.0000      -0.420172       -11.4335
  62   2.0000      -0.419274       -11.4090
  63   2.0000      -0.409681       -11.1480
  64   2.0000      -0.386418       -10.5150
  65   2.0000      -0.384290       -10.4571
  66   2.0000      -0.374414       -10.1883
  67   2.0000      -0.362716        -9.8700
  68   2.0000      -0.352106        -9.5813
  69   2.0000      -0.344676        -9.3791
  70   2.0000      -0.318350        -8.6627
  71   2.0000      -0.315105        -8.5744
  72   2.0000      -0.308553        -8.3962
  73   2.0000      -0.298001        -8.1090
  74   2.0000      -0.292001        -7.9457
  75   2.0000      -0.283901        -7.7253
  76   2.0000      -0.271402        -7.3852
  77   0.0000      -0.052098        -1.4176
  78   0.0000      -0.018010        -0.4901
  79   0.0000       0.000329         0.0090
  80   0.0000       0.048498         1.3197
  81   0.0000       0.067639         1.8406

MULLIKEN ATOMIC CHARGES
-----------------------
   0 Pd:    0.524998
   1 O :   -0.492438
   2 C :    0.654707
   3 O :   -0.492486
   4 C :   -0.768173
   5 H :    0.248228
   6 H :    0.262349
   7 H :    0.260370
   8 N :   -0.480976
   9 C :   -0.537072
  10 H :    0.292725
  11 H :    0.218134
  12 H :    0.274960
  13 C :   -0.534418
  14 H :    0.274019
  15 H :    0.225107
  16 H :    0.279158
  17 C :    0.069145
  18 C :   -0.245838
  19 C :   -0.190029
  20 C :   -0.244813
  21 C :   -0.222840
  22 C :   -0.286024
  23 H :    0.232166
  24 H :    0.228369
  25 H :    0.244246
  26 H :    0.227809
  27 H :    0.256602
  28 C :   -0.337550
  29 H :    0.245977
  30 H :    0.261324
  31 O :   -0.555227
  32 C :    0.568494
  33 O :   -0.436751
  34 C :   -0.743980
  35 H :    0.233152
  36 H :    0.249989
  37 H :    0.236586
Sum of atomic charges:    0.0000000

LOEWDIN ATOMIC CHARGES
----------------------
   0 Pd:   -0.272084
   1 O :   -0.155797
   2 C :    0.189328
   3 O :   -0.187754
   4 C :   -0.379939
   5 H :    0.148995
   6 H :    0.164286
   7 H :    0.156973
   8 N :   -0.056211
   9 C :   -0.237739
  10 H :    0.161796
  11 H :    0.119366
  12 H :    0.150441
  13 C :   -0.233329
  14 H :    0.151430
  15 H :    0.122369
  16 H :    0.155554
  17 C :   -0.053916
  18 C :   -0.111360
  19 C :   -0.143366
  20 C :   -0.124988
  21 C :   -0.128579
  22 C :   -0.111090
  23 H :    0.142779
  24 H :    0.141951
  25 H :    0.150954
  26 H :    0.141502
  27 H :    0.153967
  28 C :   -0.106445
  29 H :    0.136520
  30 H :    0.150442
  31 O :   -0.197964
  32 C :    0.134778
  33 O :   -0.227099
  34 C :   -0.382963
  35 H :    0.143149
  36 H :    0.152611
  37 H :    0.141431

  Mayer bond orders larger than 0.100000
B(  0-Pd,  1-O ) :   0.6012 B(  0-Pd,  3-O ) :   0.4231 B(  0-Pd,  8-N ) :   0.4042
B(  0-Pd, 31-O ) :   0.6806 B(  0-Pd, 33-O ) :   0.1141 B(  1-O ,  2-C ) :   1.3658
B(  1-O ,  3-O ) :   0.1016 B(  2-C ,  3-O ) :   1.5681 B(  2-C ,  4-C ) :   0.9524
B(  4-C ,  5-H ) :   0.9113 B(  4-C ,  6-H ) :   0.9014 B(  4-C ,  7-H ) :   0.9063
B(  8-N ,  9-C ) :   0.9210 B(  8-N , 13-C ) :   0.9273 B(  8-N , 28-C ) :   0.8886
B(  9-C , 10-H ) :   0.8898 B(  9-C , 11-H ) :   0.9036 B(  9-C , 12-H ) :   0.9007
B( 13-C , 14-H ) :   0.8958 B( 13-C , 15-H ) :   0.9027 B( 13-C , 16-H ) :   0.9009
B( 17-C , 18-C ) :   1.4402 B( 17-C , 22-C ) :   1.3450 B( 17-C , 28-C ) :   0.9602
B( 18-C , 19-C ) :   1.4013 B( 18-C , 25-H ) :   0.9005 B( 19-C , 20-C ) :   1.4586
B( 19-C , 26-H ) :   0.9161 B( 20-C , 21-C ) :   1.3681 B( 20-C , 23-H ) :   0.9154
B( 21-C , 22-C ) :   1.4784 B( 21-C , 24-H ) :   0.9166 B( 22-C , 27-H ) :   0.9040
B( 28-C , 29-H ) :   0.8899 B( 28-C , 30-H ) :   0.9085 B( 31-O , 32-C ) :   1.2170
B( 32-C , 33-O ) :   1.8926 B( 32-C , 34-C ) :   0.9336 B( 34-C , 35-H ) :   0.9149
B( 34-C , 36-H ) :   0.9094 B( 34-C , 37-H ) :   0.9213

Dispersion correction           -0.025854140
FINAL SINGLE POINT ENERGY      -988.500504503665
Dispersion correction            ... done

DIPOLE MOMENT
-------------
                                X             Y             Z
Electronic contribution:     27.02445      24.15315     -28.01144
Nuclear contribution   :    -28.57598     -24.39386      28.65556
                        -----------------------------------------
Total Dipole Moment    :     -1.55154      -0.24071       0.64411
                        -----------------------------------------
Magnitude (a.u.)       :      1.69708
Magnitude (Debye)      :      4.31364

Rotational constants in cm-1:     0.013880     0.008205     0.006959
Rotational constants in MHz :   416.124782   245.971854   208.620052

                             ****ORCA TERMINATED NORMALLY****
TOTAL RUN TIME: 0 days 0 hours 13 minutes 37 seconds 500 msec
