                         Program Version 5.0.3 -  RELEASE  -
|  1> ! EnGrad PBEh-3c
|  2> %output
|  3> xyzfile=True
|  4> end
|  5> %scf
|  6> maxiter 250
|  7> end
|  8> %output
|  9> Print[P_Hirshfeld] = 1
| 10> end
| 11> % maxcore
| 12> 4000
| 13> *xyz 0 1
| 14> Pd   0.59857797   0.48840567  -0.54694053
| 15> O    2.19446924   1.42602481   0.20732464
| 16> C    1.61044032   2.56645137   0.27429339
| 17> O    0.38159533   2.61239750   0.03851357
| 18> C    2.46763675   3.78149584   0.56596098
| 19> H    1.94433833   4.61449371   1.04355802
| 20> H    2.89476711   4.13531495  -0.37650427
| 21> H    3.30727001   3.47012338   1.18113605
| 22> N   -1.27765495  -0.39536168  -1.17600824
| 23> C   -1.23102615  -1.26700333  -2.36472525
| 24> H   -0.85622211  -0.73586879  -3.22493925
| 25> H   -2.22244942  -1.64372149  -2.61324856
| 26> H   -0.59825326  -2.12578121  -2.22066750
| 27> C   -2.19339386   0.70271004  -1.45893786
| 28> H   -2.28521323   1.34984632  -0.60337070
| 29> H   -3.19063060   0.31882646  -1.67967612
| 30> H   -1.85079115   1.28876134  -2.29868598
| 31> C   -1.49215869  -0.77239368   1.41118959
| 32> C   -0.78069077  -1.79322792   2.07534373
| 33> C   -0.61360740  -1.72864375   3.44694216
| 34> C   -1.38586217  -0.88722735   4.22593758
| 35> C   -2.17661914   0.11876940   3.52520645
| 36> C   -1.87951791   0.32815436   2.19525654
| 37> H   -1.31677673  -0.97206315   5.32621759
| 38> H   -2.75455877   0.85208349   4.10126722
| 39> H   -0.29301155  -2.51522254   1.40458604
| 40> H    0.20897094  -2.30029358   3.83521752
| 41> H   -1.87593505   1.31157857   1.74526674
| 42> C   -1.84367240  -1.17260089  -0.03115946
| 43> H   -2.93225910  -1.26124694  -0.22935684
| 44> H   -1.45964987  -2.19452819  -0.11780586
| 45> O    1.76657758  -0.98811851  -1.16063192
| 46> C    2.24228674  -0.68985169  -2.35118953
| 47> O    1.71576217   0.06785602  -3.12896067
| 48> C    3.55246207  -1.38316055  -2.70888752
| 49> H    3.46766144  -2.45710969  -2.59640528
| 50> H    4.32962011  -1.06284838  -2.02536705
| 51> H    3.86436977  -1.14847243  -3.73113654
| 52> *
| 53>
| 54>                          ****END OF INPUT****

CARTESIAN COORDINATES (ANGSTROEM)
---------------------------------
  Pd     0.598578    0.488406   -0.546941
  O      2.194469    1.426025    0.207325
  C      1.610440    2.566451    0.274293
  O      0.381595    2.612398    0.038514
  C      2.467637    3.781496    0.565961
  H      1.944338    4.614494    1.043558
  H      2.894767    4.135315   -0.376504
  H      3.307270    3.470123    1.181136
  N     -1.277655   -0.395362   -1.176008
  C     -1.231026   -1.267003   -2.364725
  H     -0.856222   -0.735869   -3.224939
  H     -2.222449   -1.643721   -2.613249
  H     -0.598253   -2.125781   -2.220667
  C     -2.193394    0.702710   -1.458938
  H     -2.285213    1.349846   -0.603371
  H     -3.190631    0.318826   -1.679676
  H     -1.850791    1.288761   -2.298686
  C     -1.492159   -0.772394    1.411190
  C     -0.780691   -1.793228    2.075344
  C     -0.613607   -1.728644    3.446942
  C     -1.385862   -0.887227    4.225938
  C     -2.176619    0.118769    3.525206
  C     -1.879518    0.328154    2.195257
  H     -1.316777   -0.972063    5.326218
  H     -2.754559    0.852083    4.101267
  H     -0.293012   -2.515223    1.404586
  H      0.208971   -2.300294    3.835218
  H     -1.875935    1.311579    1.745267
  C     -1.843672   -1.172601   -0.031159
  H     -2.932259   -1.261247   -0.229357
  H     -1.459650   -2.194528   -0.117806
  O      1.766578   -0.988119   -1.160632
  C      2.242287   -0.689852   -2.351190
  O      1.715762    0.067856   -3.128961
  C      3.552462   -1.383161   -2.708888
  H      3.467661   -2.457110   -2.596405
  H      4.329620   -1.062848   -2.025367
  H      3.864370   -1.148472   -3.731137

 Total Charge           Charge          ....    0
 Multiplicity           Mult            ....    1
 Number of Electrons    NEL             ....  154
 Basis Dimension        Dim             ....  339

ORBITAL ENERGIES
----------------

  NO   OCC          E(Eh)            E(eV)
   0   2.0000     -19.503026      -530.7043
   1   2.0000     -19.496735      -530.5331
   2   2.0000     -19.475586      -529.9576
   3   2.0000     -19.436852      -528.9036
   4   2.0000     -14.718618      -400.5139
   5   2.0000     -10.574924      -287.7583
   6   2.0000     -10.534141      -286.6485
   7   2.0000     -10.506254      -285.8897
   8   2.0000     -10.480712      -285.1947
   9   2.0000     -10.476826      -285.0889
  10   2.0000     -10.474341      -285.0213
  11   2.0000     -10.469779      -284.8972
  12   2.0000     -10.468590      -284.8648
  13   2.0000     -10.465183      -284.7721
  14   2.0000     -10.457418      -284.5608
  15   2.0000     -10.449630      -284.3489
  16   2.0000     -10.444487      -284.2089
  17   2.0000     -10.414570      -283.3949
  18   2.0000      -3.658943       -99.5649
  19   2.0000      -2.307521       -62.7908
  20   2.0000      -2.303761       -62.6885
  21   2.0000      -2.267557       -61.7034
  22   2.0000      -1.200539       -32.6683
  23   2.0000      -1.151622       -31.3372
  24   2.0000      -1.085589       -29.5404
  25   2.0000      -1.076668       -29.2976
  26   2.0000      -1.053841       -28.6765
  27   2.0000      -0.968169       -26.3452
  28   2.0000      -0.872404       -23.7393
  29   2.0000      -0.848204       -23.0808
  30   2.0000      -0.829657       -22.5761
  31   2.0000      -0.822706       -22.3870
  32   2.0000      -0.796534       -21.6748
  33   2.0000      -0.795386       -21.6436
  34   2.0000      -0.718497       -19.5513
  35   2.0000      -0.689382       -18.7590
  36   2.0000      -0.669271       -18.2118
  37   2.0000      -0.616179       -16.7671
  38   2.0000      -0.599251       -16.3064
  39   2.0000      -0.585628       -15.9357
  40   2.0000      -0.572255       -15.5719
  41   2.0000      -0.568958       -15.4821
  42   2.0000      -0.561943       -15.2912
  43   2.0000      -0.546806       -14.8794
  44   2.0000      -0.544452       -14.8153
  45   2.0000      -0.527941       -14.3660
  46   2.0000      -0.526232       -14.3195
  47   2.0000      -0.515059       -14.0155
  48   2.0000      -0.510029       -13.8786
  49   2.0000      -0.496874       -13.5206
  50   2.0000      -0.493321       -13.4239
  51   2.0000      -0.490489       -13.3469
  52   2.0000      -0.482949       -13.1417
  53   2.0000      -0.478851       -13.0302
  54   2.0000      -0.460072       -12.5192
  55   2.0000      -0.457875       -12.4594
  56   2.0000      -0.450059       -12.2467
  57   2.0000      -0.446442       -12.1483
  58   2.0000      -0.444559       -12.0971
  59   2.0000      -0.432962       -11.7815
  60   2.0000      -0.431285       -11.7359
  61   2.0000      -0.420531       -11.4432
  62   2.0000      -0.418944       -11.4000
  63   2.0000      -0.411039       -11.1849
  64   2.0000      -0.386173       -10.5083
  65   2.0000      -0.379882       -10.3371
  66   2.0000      -0.374818       -10.1993
  67   2.0000      -0.364368        -9.9150
  68   2.0000      -0.352562        -9.5937
  69   2.0000      -0.345666        -9.4061
  70   2.0000      -0.319536        -8.6950
  71   2.0000      -0.315244        -8.5782
  72   2.0000      -0.308106        -8.3840
  73   2.0000      -0.297874        -8.1056
  74   2.0000      -0.292330        -7.9547
  75   2.0000      -0.286073        -7.7844
  76   2.0000      -0.270755        -7.3676
  77   0.0000      -0.050823        -1.3830
  78   0.0000      -0.015742        -0.4283
  79   0.0000      -0.000914        -0.0249
  80   0.0000       0.045008         1.2247
  81   0.0000       0.066856         1.8192

MULLIKEN ATOMIC CHARGES
-----------------------
   0 Pd:    0.525750
   1 O :   -0.491824
   2 C :    0.660073
   3 O :   -0.495493
   4 C :   -0.767170
   5 H :    0.249898
   6 H :    0.262995
   7 H :    0.259162
   8 N :   -0.478206
   9 C :   -0.539056
  10 H :    0.294117
  11 H :    0.218562
  12 H :    0.273900
  13 C :   -0.535036
  14 H :    0.270535
  15 H :    0.224873
  16 H :    0.281144
  17 C :    0.078765
  18 C :   -0.253216
  19 C :   -0.195795
  20 C :   -0.249640
  21 C :   -0.226924
  22 C :   -0.278155
  23 H :    0.233997
  24 H :    0.229022
  25 H :    0.245329
  26 H :    0.228565
  27 H :    0.256484
  28 C :   -0.332489
  29 H :    0.244073
  30 H :    0.257257
  31 O :   -0.555686
  32 C :    0.570461
  33 O :   -0.442469
  34 C :   -0.742073
  35 H :    0.232239
  36 H :    0.248100
  37 H :    0.237932
Sum of atomic charges:    0.0000000

LOEWDIN ATOMIC CHARGES
----------------------
   0 Pd:   -0.277012
   1 O :   -0.146278
   2 C :    0.195817
   3 O :   -0.191755
   4 C :   -0.379294
   5 H :    0.150266
   6 H :    0.165083
   7 H :    0.157295
   8 N :   -0.060470
   9 C :   -0.239624
  10 H :    0.161981
  11 H :    0.118634
  12 H :    0.150079
  13 C :   -0.234813
  14 H :    0.150104
  15 H :    0.121850
  16 H :    0.155465
  17 C :   -0.049563
  18 C :   -0.117602
  19 C :   -0.142767
  20 C :   -0.126595
  21 C :   -0.126588
  22 C :   -0.112035
  23 H :    0.144994
  24 H :    0.142653
  25 H :    0.151687
  26 H :    0.141496
  27 H :    0.155531
  28 C :   -0.102389
  29 H :    0.135879
  30 H :    0.149079
  31 O :   -0.199042
  32 C :    0.138694
  33 O :   -0.234242
  34 C :   -0.382749
  35 H :    0.142813
  36 H :    0.151699
  37 H :    0.141721

  Mayer bond orders larger than 0.100000
B(  0-Pd,  1-O ) :   0.6054 B(  0-Pd,  3-O ) :   0.4284 B(  0-Pd,  8-N ) :   0.4023
B(  0-Pd, 31-O ) :   0.6731 B(  0-Pd, 33-O ) :   0.1170 B(  1-O ,  2-C ) :   1.3618
B(  1-O ,  3-O ) :   0.1020 B(  2-C ,  3-O ) :   1.5589 B(  2-C ,  4-C ) :   0.9522
B(  4-C ,  5-H ) :   0.9114 B(  4-C ,  6-H ) :   0.9009 B(  4-C ,  7-H ) :   0.9054
B(  8-N ,  9-C ) :   0.9231 B(  8-N , 13-C ) :   0.9298 B(  8-N , 28-C ) :   0.8833
B(  9-C , 10-H ) :   0.8886 B(  9-C , 11-H ) :   0.9036 B(  9-C , 12-H ) :   0.9011
B( 13-C , 14-H ) :   0.8980 B( 13-C , 15-H ) :   0.9029 B( 13-C , 16-H ) :   0.9000
B( 17-C , 18-C ) :   1.4335 B( 17-C , 22-C ) :   1.3413 B( 17-C , 28-C ) :   0.9540
B( 18-C , 19-C ) :   1.3981 B( 18-C , 25-H ) :   0.8998 B( 19-C , 20-C ) :   1.4644
B( 19-C , 26-H ) :   0.9156 B( 20-C , 21-C ) :   1.3542 B( 20-C , 23-H ) :   0.9153
B( 21-C , 22-C ) :   1.4859 B( 21-C , 24-H ) :   0.9167 B( 22-C , 27-H ) :   0.9033
B( 28-C , 29-H ) :   0.8888 B( 28-C , 30-H ) :   0.9093 B( 31-O , 32-C ) :   1.2217
B( 32-C , 33-O ) :   1.8812 B( 32-C , 34-C ) :   0.9344 B( 34-C , 35-H ) :   0.9150
B( 34-C , 36-H ) :   0.9097 B( 34-C , 37-H ) :   0.9211

Dispersion correction           -0.025844867
FINAL SINGLE POINT ENERGY      -988.497972853183
Dispersion correction            ... done

DIPOLE MOMENT
-------------
                                X             Y             Z
Electronic contribution:     26.73523      23.92376     -27.73658
Nuclear contribution   :    -28.19448     -24.11845      28.42224
                        -----------------------------------------
Total Dipole Moment    :     -1.45925      -0.19469       0.68566
                        -----------------------------------------
Magnitude (a.u.)       :      1.62402
Magnitude (Debye)      :      4.12794

Rotational constants in cm-1:     0.013989     0.008198     0.006944
Rotational constants in MHz :   419.385989   245.779923   208.184077

                             ****ORCA TERMINATED NORMALLY****
TOTAL RUN TIME: 0 days 0 hours 13 minutes 38 seconds 823 msec
