                         Program Version 5.0.3 -  RELEASE  -
|  1> ! EnGrad PBEh-3c
|  2> %output
|  3> xyzfile=True
|  4> end
|  5> %scf
|  6> maxiter 250
|  7> end
|  8> %output
|  9> Print[P_Hirshfeld] = 1
| 10> end
| 11> % maxcore
| 12> 4000
| 13> *xyz 0 1
| 14> Pd   0.61334353   0.49575826  -0.54046373
| 15> O    2.18540388   1.42544241   0.19488561
| 16> C    1.61206718   2.55946334   0.27429080
| 17> O    0.37824524   2.61256535   0.04439099
| 18> C    2.46529063   3.77459449   0.56388361
| 19> H    1.93922434   4.60910697   1.04208136
| 20> H    2.89304453   4.13390634  -0.37957108
| 21> H    3.30640173   3.46731448   1.18439268
| 22> N   -1.27869436  -0.39384614  -1.17837005
| 23> C   -1.23034688  -1.26880296  -2.36554830
| 24> H   -0.85118086  -0.73119065  -3.22063746
| 25> H   -2.22402895  -1.64284426  -2.60564380
| 26> H   -0.59060786  -2.12780697  -2.20653312
| 27> C   -2.19624093   0.70811882  -1.46228638
| 28> H   -2.28236652   1.35829593  -0.60038471
| 29> H   -3.18938407   0.31554102  -1.68460232
| 30> H   -1.84589932   1.29474904  -2.30157235
| 31> C   -1.48160747  -0.76614985   1.41747746
| 32> C   -0.79643383  -1.78360270   2.06420494
| 33> C   -0.60663194  -1.72777403   3.45179285
| 34> C   -1.40837826  -0.88641383   4.21648331
| 35> C   -2.12486812   0.14730393   3.53728421
| 36> C   -1.90518283   0.32251115   2.18011319
| 37> H   -1.32301960  -0.96829655   5.31784967
| 38> H   -2.70864423   0.84610041   4.08998282
| 39> H   -0.28860210  -2.53110572   1.42004210
| 40> H    0.20623038  -2.31942222   3.85468368
| 41> H   -1.93866525   1.28906172   1.72472035
| 42> C   -1.83149444  -1.16763769  -0.03005525
| 43> H   -2.92317183  -1.25034704  -0.21204074
| 44> H   -1.46037760  -2.20065791  -0.12601419
| 45> O    1.76230422  -0.99314325  -1.16795514
| 46> C    2.24116250  -0.69357236  -2.34666144
| 47> O    1.71304289   0.07242136  -3.13323531
| 48> C    3.54855139  -1.38029693  -2.70830848
| 49> H    3.46669006  -2.45958733  -2.59969241
| 50> H    4.33062490  -1.05667668  -2.02323175
| 51> H    3.86159684  -1.14473872  -3.72773692
| 52> *
| 53>
| 54>                          ****END OF INPUT****

CARTESIAN COORDINATES (ANGSTROEM)
---------------------------------
  Pd     0.613344    0.495758   -0.540464
  O      2.185404    1.425442    0.194886
  C      1.612067    2.559463    0.274291
  O      0.378245    2.612565    0.044391
  C      2.465291    3.774594    0.563884
  H      1.939224    4.609107    1.042081
  H      2.893045    4.133906   -0.379571
  H      3.306402    3.467314    1.184393
  N     -1.278694   -0.393846   -1.178370
  C     -1.230347   -1.268803   -2.365548
  H     -0.851181   -0.731191   -3.220637
  H     -2.224029   -1.642844   -2.605644
  H     -0.590608   -2.127807   -2.206533
  C     -2.196241    0.708119   -1.462286
  H     -2.282367    1.358296   -0.600385
  H     -3.189384    0.315541   -1.684602
  H     -1.845899    1.294749   -2.301572
  C     -1.481607   -0.766150    1.417477
  C     -0.796434   -1.783603    2.064205
  C     -0.606632   -1.727774    3.451793
  C     -1.408378   -0.886414    4.216483
  C     -2.124868    0.147304    3.537284
  C     -1.905183    0.322511    2.180113
  H     -1.323020   -0.968297    5.317850
  H     -2.708644    0.846100    4.089983
  H     -0.288602   -2.531106    1.420042
  H      0.206230   -2.319422    3.854684
  H     -1.938665    1.289062    1.724720
  C     -1.831494   -1.167638   -0.030055
  H     -2.923172   -1.250347   -0.212041
  H     -1.460378   -2.200658   -0.126014
  O      1.762304   -0.993143   -1.167955
  C      2.241163   -0.693572   -2.346661
  O      1.713043    0.072421   -3.133235
  C      3.548551   -1.380297   -2.708308
  H      3.466690   -2.459587   -2.599692
  H      4.330625   -1.056677   -2.023232
  H      3.861597   -1.144739   -3.727737

 Total Charge           Charge          ....    0
 Multiplicity           Mult            ....    1
 Number of Electrons    NEL             ....  154
 Basis Dimension        Dim             ....  339

ORBITAL ENERGIES
----------------

  NO   OCC          E(Eh)            E(eV)
   0   2.0000     -19.507487      -530.8257
   1   2.0000     -19.497549      -530.5553
   2   2.0000     -19.476053      -529.9703
   3   2.0000     -19.433999      -528.8260
   4   2.0000     -14.716146      -400.4467
   5   2.0000     -10.576520      -287.8017
   6   2.0000     -10.533586      -286.6334
   7   2.0000     -10.504581      -285.8442
   8   2.0000     -10.480927      -285.2005
   9   2.0000     -10.474178      -285.0169
  10   2.0000     -10.473726      -285.0046
  11   2.0000     -10.465826      -284.7896
  12   2.0000     -10.464361      -284.7497
  13   2.0000     -10.461625      -284.6753
  14   2.0000     -10.457720      -284.5690
  15   2.0000     -10.454456      -284.4802
  16   2.0000     -10.446308      -284.2585
  17   2.0000     -10.414806      -283.4013
  18   2.0000      -3.659636       -99.5838
  19   2.0000      -2.308865       -62.8274
  20   2.0000      -2.304163       -62.6995
  21   2.0000      -2.268138       -61.7192
  22   2.0000      -1.206056       -32.8185
  23   2.0000      -1.148931       -31.2640
  24   2.0000      -1.089800       -29.6550
  25   2.0000      -1.074167       -29.2296
  26   2.0000      -1.052057       -28.6279
  27   2.0000      -0.969715       -26.3873
  28   2.0000      -0.873865       -23.7791
  29   2.0000      -0.846406       -23.0319
  30   2.0000      -0.831124       -22.6160
  31   2.0000      -0.820566       -22.3287
  32   2.0000      -0.796790       -21.6818
  33   2.0000      -0.795163       -21.6375
  34   2.0000      -0.716332       -19.4924
  35   2.0000      -0.692526       -18.8446
  36   2.0000      -0.669113       -18.2075
  37   2.0000      -0.619379       -16.8542
  38   2.0000      -0.599788       -16.3211
  39   2.0000      -0.586478       -15.9589
  40   2.0000      -0.570187       -15.5156
  41   2.0000      -0.567174       -15.4336
  42   2.0000      -0.559441       -15.2232
  43   2.0000      -0.550566       -14.9817
  44   2.0000      -0.547714       -14.9041
  45   2.0000      -0.529708       -14.4141
  46   2.0000      -0.528340       -14.3769
  47   2.0000      -0.516856       -14.0644
  48   2.0000      -0.508849       -13.8465
  49   2.0000      -0.496169       -13.5014
  50   2.0000      -0.492200       -13.3934
  51   2.0000      -0.490146       -13.3375
  52   2.0000      -0.484305       -13.1786
  53   2.0000      -0.477989       -13.0068
  54   2.0000      -0.460586       -12.5332
  55   2.0000      -0.457419       -12.4470
  56   2.0000      -0.450679       -12.2636
  57   2.0000      -0.447715       -12.1829
  58   2.0000      -0.443355       -12.0643
  59   2.0000      -0.431803       -11.7500
  60   2.0000      -0.429659       -11.6916
  61   2.0000      -0.419012       -11.4019
  62   2.0000      -0.416628       -11.3370
  63   2.0000      -0.410351       -11.1662
  64   2.0000      -0.387082       -10.5330
  65   2.0000      -0.384154       -10.4534
  66   2.0000      -0.375768       -10.2252
  67   2.0000      -0.363975        -9.9043
  68   2.0000      -0.352041        -9.5795
  69   2.0000      -0.346619        -9.4320
  70   2.0000      -0.320137        -8.7114
  71   2.0000      -0.316063        -8.6005
  72   2.0000      -0.307875        -8.3777
  73   2.0000      -0.297804        -8.1037
  74   2.0000      -0.293539        -7.9876
  75   2.0000      -0.288138        -7.8406
  76   2.0000      -0.270995        -7.3741
  77   0.0000      -0.049525        -1.3476
  78   0.0000      -0.013300        -0.3619
  79   0.0000       0.003174         0.0864
  80   0.0000       0.043572         1.1857
  81   0.0000       0.066937         1.8215

MULLIKEN ATOMIC CHARGES
-----------------------
   0 Pd:    0.532420
   1 O :   -0.489329
   2 C :    0.663949
   3 O :   -0.497594
   4 C :   -0.768506
   5 H :    0.251016
   6 H :    0.263625
   7 H :    0.258065
   8 N :   -0.474955
   9 C :   -0.535504
  10 H :    0.293468
  11 H :    0.217648
  12 H :    0.271142
  13 C :   -0.532178
  14 H :    0.268090
  15 H :    0.224014
  16 H :    0.280052
  17 C :    0.095089
  18 C :   -0.263489
  19 C :   -0.208932
  20 C :   -0.238586
  21 C :   -0.228143
  22 C :   -0.277666
  23 H :    0.229062
  24 H :    0.234411
  25 H :    0.243800
  26 H :    0.231854
  27 H :    0.252535
  28 C :   -0.334308
  29 H :    0.241448
  30 H :    0.256215
  31 O :   -0.552139
  32 C :    0.573297
  33 O :   -0.455066
  34 C :   -0.740970
  35 H :    0.230710
  36 H :    0.245678
  37 H :    0.239778
Sum of atomic charges:   -0.0000000

LOEWDIN ATOMIC CHARGES
----------------------
   0 Pd:   -0.273882
   1 O :   -0.132519
   2 C :    0.194643
   3 O :   -0.193001
   4 C :   -0.378525
   5 H :    0.151137
   6 H :    0.165709
   7 H :    0.157178
   8 N :   -0.064478
   9 C :   -0.238825
  10 H :    0.162018
  11 H :    0.118138
  12 H :    0.149982
  13 C :   -0.233926
  14 H :    0.149728
  15 H :    0.121678
  16 H :    0.155316
  17 C :   -0.049865
  18 C :   -0.118595
  19 C :   -0.134432
  20 C :   -0.129747
  21 C :   -0.126102
  22 C :   -0.116606
  23 H :    0.143392
  24 H :    0.142642
  25 H :    0.151111
  26 H :    0.141938
  27 H :    0.154436
  28 C :   -0.102253
  29 H :    0.134306
  30 H :    0.148490
  31 O :   -0.194199
  32 C :    0.139418
  33 O :   -0.248550
  34 C :   -0.381643
  35 H :    0.142579
  36 H :    0.151291
  37 H :    0.142016

  Mayer bond orders larger than 0.100000
B(  0-Pd,  1-O ) :   0.6072 B(  0-Pd,  3-O ) :   0.4379 B(  0-Pd,  8-N ) :   0.3981
B(  0-Pd, 31-O ) :   0.6622 B(  0-Pd, 33-O ) :   0.1196 B(  1-O ,  2-C ) :   1.3667
B(  1-O ,  3-O ) :   0.1020 B(  2-C ,  3-O ) :   1.5489 B(  2-C ,  4-C ) :   0.9526
B(  4-C ,  5-H ) :   0.9112 B(  4-C ,  6-H ) :   0.9004 B(  4-C ,  7-H ) :   0.9055
B(  8-N ,  9-C ) :   0.9231 B(  8-N , 13-C ) :   0.9299 B(  8-N , 28-C ) :   0.8858
B(  9-C , 10-H ) :   0.8887 B(  9-C , 11-H ) :   0.9036 B(  9-C , 12-H ) :   0.9022
B( 13-C , 14-H ) :   0.8990 B( 13-C , 15-H ) :   0.9031 B( 13-C , 16-H ) :   0.9004
B( 17-C , 18-C ) :   1.4320 B( 17-C , 22-C ) :   1.3540 B( 17-C , 28-C ) :   0.9473
B( 18-C , 19-C ) :   1.3978 B( 18-C , 25-H ) :   0.9020 B( 19-C , 20-C ) :   1.4574
B( 19-C , 26-H ) :   0.9149 B( 20-C , 21-C ) :   1.3772 B( 20-C , 23-H ) :   0.9173
B( 21-C , 22-C ) :   1.4735 B( 21-C , 24-H ) :   0.9155 B( 22-C , 27-H ) :   0.9053
B( 28-C , 29-H ) :   0.8903 B( 28-C , 30-H ) :   0.9105 B( 31-O , 32-C ) :   1.2369
B( 32-C , 33-O ) :   1.8638 B( 32-C , 34-C ) :   0.9353 B( 34-C , 35-H ) :   0.9154
B( 34-C , 36-H ) :   0.9104 B( 34-C , 37-H ) :   0.9203

Dispersion correction           -0.025839785
FINAL SINGLE POINT ENERGY      -988.509579688221
Dispersion correction            ... done

DIPOLE MOMENT
-------------
                                X             Y             Z
Electronic contribution:     27.59533      24.30251     -27.27667
Nuclear contribution   :    -28.99553     -24.49040      28.04863
                        -----------------------------------------
Total Dipole Moment    :     -1.40019      -0.18789       0.77196
                        -----------------------------------------
Magnitude (a.u.)       :      1.60990
Magnitude (Debye)      :      4.09204

Rotational constants in cm-1:     0.014014     0.008210     0.006953
Rotational constants in MHz :   420.117079   246.118862   208.437760

                             ****ORCA TERMINATED NORMALLY****
TOTAL RUN TIME: 0 days 0 hours 13 minutes 28 seconds 569 msec
