                         Program Version 5.0.3 -  RELEASE  -
|  1> ! EnGrad PBEh-3c
|  2> %output
|  3> xyzfile=True
|  4> end
|  5> %scf
|  6> maxiter 250
|  7> end
|  8> %output
|  9> Print[P_Hirshfeld] = 1
| 10> end
| 11> % maxcore
| 12> 4000
| 13> *xyz 0 1
| 14> Pd   0.69380609   0.60591111  -0.54397094
| 15> O    2.28733005   1.56318285   0.28198255
| 16> C    1.65868031   2.73051757   0.24544261
| 17> O    0.49096416   2.73798282  -0.07934085
| 18> C    2.44842254   3.98501188   0.55112673
| 19> H    1.79100102   4.70561487   1.03575671
| 20> H    2.78144941   4.41633988  -0.39304100
| 21> H    3.31537763   3.79797187   1.16615404
| 22> N   -1.19384795  -0.25221403  -1.17655947
| 23> C   -1.24602021  -0.86507441  -2.51017501
| 24> H   -0.94832986  -0.13528591  -3.25553566
| 25> H   -2.27961693  -1.17133094  -2.72953183
| 26> H   -0.61692628  -1.72366409  -2.58920194
| 27> C   -2.10837247   0.88614997  -1.17974736
| 28> H   -2.07824014   1.42775565  -0.25971546
| 29> H   -3.13440468   0.54543115  -1.37697517
| 30> H   -1.81564708   1.57275453  -1.97192240
| 31> C   -1.43135194  -0.93774942   1.26551564
| 32> C   -0.37525383  -1.59524476   1.97854443
| 33> C   -0.23753511  -1.49604852   3.33725497
| 34> C   -1.19928359  -0.87479480   4.07264583
| 35> C   -2.34240667  -0.37811345   3.43845075
| 36> C   -2.45312875  -0.19867833   2.08092953
| 37> H   -1.10877847  -0.78524292   5.15386027
| 38> H   -3.19231722  -0.19209584   4.06314246
| 39> H    0.33385911  -2.20058324   1.43642963
| 40> H    0.57884044  -2.00644139   3.84377172
| 41> H   -3.54984985   0.88063656   1.80504649
| 42> C   -1.63118494  -1.27668068  -0.16819906
| 43> H   -2.69823351  -1.47883519  -0.30016164
| 44> H   -1.12001445  -2.21821777  -0.41623111
| 45> O    1.71472485  -1.01261676  -1.06207234
| 46> C    2.26656610  -0.86670902  -2.26130410
| 47> O    1.94949507  -0.04313460  -3.06451344
| 48> C    3.39368386  -1.86208632  -2.54540606
| 49> H    3.10237429  -2.88052723  -2.34337309
| 50> H    4.25114140  -1.62350024  -1.93655058
| 51> H    3.70395730  -1.78296047  -3.59519116
| 52> *
| 53>
| 54>                          ****END OF INPUT****

CARTESIAN COORDINATES (ANGSTROEM)
---------------------------------
  Pd     0.693806    0.605911   -0.543971
  O      2.287330    1.563183    0.281983
  C      1.658680    2.730518    0.245443
  O      0.490964    2.737983   -0.079341
  C      2.448423    3.985012    0.551127
  H      1.791001    4.705615    1.035757
  H      2.781449    4.416340   -0.393041
  H      3.315378    3.797972    1.166154
  N     -1.193848   -0.252214   -1.176559
  C     -1.246020   -0.865074   -2.510175
  H     -0.948330   -0.135286   -3.255536
  H     -2.279617   -1.171331   -2.729532
  H     -0.616926   -1.723664   -2.589202
  C     -2.108372    0.886150   -1.179747
  H     -2.078240    1.427756   -0.259715
  H     -3.134405    0.545431   -1.376975
  H     -1.815647    1.572755   -1.971922
  C     -1.431352   -0.937749    1.265516
  C     -0.375254   -1.595245    1.978544
  C     -0.237535   -1.496049    3.337255
  C     -1.199284   -0.874795    4.072646
  C     -2.342407   -0.378113    3.438451
  C     -2.453129   -0.198678    2.080930
  H     -1.108778   -0.785243    5.153860
  H     -3.192317   -0.192096    4.063142
  H      0.333859   -2.200583    1.436430
  H      0.578840   -2.006441    3.843772
  H     -3.549850    0.880637    1.805046
  C     -1.631185   -1.276681   -0.168199
  H     -2.698234   -1.478835   -0.300162
  H     -1.120014   -2.218218   -0.416231
  O      1.714725   -1.012617   -1.062072
  C      2.266566   -0.866709   -2.261304
  O      1.949495   -0.043135   -3.064513
  C      3.393684   -1.862086   -2.545406
  H      3.102374   -2.880527   -2.343373
  H      4.251141   -1.623500   -1.936551
  H      3.703957   -1.782960   -3.595191

 Total Charge           Charge          ....    0
 Multiplicity           Mult            ....    1
 Number of Electrons    NEL             ....  154
 Basis Dimension        Dim             ....  339

ORBITAL ENERGIES
----------------

  NO   OCC          E(Eh)            E(eV)
   0   2.0000     -19.501013      -530.6495
   1   2.0000     -19.489802      -530.3445
   2   2.0000     -19.473352      -529.8969
   3   2.0000     -19.438248      -528.9416
   4   2.0000     -14.716769      -400.4636
   5   2.0000     -10.570355      -287.6340
   6   2.0000     -10.533122      -286.6208
   7   2.0000     -10.512046      -286.0473
   8   2.0000     -10.498975      -285.6916
   9   2.0000     -10.492944      -285.5275
  10   2.0000     -10.478647      -285.1385
  11   2.0000     -10.475011      -285.0395
  12   2.0000     -10.462331      -284.6945
  13   2.0000     -10.459178      -284.6087
  14   2.0000     -10.458331      -284.5856
  15   2.0000     -10.453590      -284.4566
  16   2.0000     -10.440328      -284.0958
  17   2.0000     -10.413925      -283.3773
  18   2.0000      -3.654860       -99.4538
  19   2.0000      -2.302633       -62.6578
  20   2.0000      -2.299946       -62.5847
  21   2.0000      -2.263648       -61.5970
  22   2.0000      -1.204170       -32.7671
  23   2.0000      -1.152943       -31.3732
  24   2.0000      -1.074860       -29.2484
  25   2.0000      -1.072497       -29.1841
  26   2.0000      -1.052804       -28.6483
  27   2.0000      -0.966827       -26.3087
  28   2.0000      -0.879836       -23.9416
  29   2.0000      -0.849437       -23.1144
  30   2.0000      -0.828377       -22.5413
  31   2.0000      -0.820331       -22.3224
  32   2.0000      -0.795165       -21.6375
  33   2.0000      -0.794488       -21.6191
  34   2.0000      -0.718550       -19.5527
  35   2.0000      -0.680242       -18.5103
  36   2.0000      -0.668754       -18.1977
  37   2.0000      -0.610812       -16.6210
  38   2.0000      -0.592114       -16.1122
  39   2.0000      -0.585286       -15.9264
  40   2.0000      -0.576462       -15.6863
  41   2.0000      -0.568609       -15.4726
  42   2.0000      -0.553446       -15.0600
  43   2.0000      -0.545335       -14.8393
  44   2.0000      -0.538751       -14.6602
  45   2.0000      -0.526412       -14.3244
  46   2.0000      -0.524457       -14.2712
  47   2.0000      -0.514993       -14.0137
  48   2.0000      -0.509825       -13.8730
  49   2.0000      -0.495423       -13.4811
  50   2.0000      -0.489511       -13.3203
  51   2.0000      -0.486144       -13.2286
  52   2.0000      -0.475097       -12.9281
  53   2.0000      -0.467094       -12.7103
  54   2.0000      -0.459483       -12.5032
  55   2.0000      -0.454758       -12.3746
  56   2.0000      -0.449269       -12.2252
  57   2.0000      -0.445738       -12.1291
  58   2.0000      -0.437773       -11.9124
  59   2.0000      -0.431214       -11.7339
  60   2.0000      -0.430676       -11.7193
  61   2.0000      -0.419009       -11.4018
  62   2.0000      -0.411295       -11.1919
  63   2.0000      -0.403816       -10.9884
  64   2.0000      -0.382588       -10.4107
  65   2.0000      -0.379438       -10.3250
  66   2.0000      -0.371839       -10.1182
  67   2.0000      -0.362036        -9.8515
  68   2.0000      -0.349174        -9.5015
  69   2.0000      -0.342784        -9.3276
  70   2.0000      -0.313240        -8.5237
  71   2.0000      -0.312100        -8.4927
  72   2.0000      -0.307494        -8.3673
  73   2.0000      -0.301376        -8.2009
  74   2.0000      -0.297679        -8.1003
  75   2.0000      -0.290049        -7.8926
  76   2.0000      -0.271796        -7.3959
  77   0.0000      -0.047102        -1.2817
  78   0.0000      -0.020141        -0.5481
  79   0.0000      -0.002506        -0.0682
  80   0.0000       0.025046         0.6815
  81   0.0000       0.049465         1.3460

MULLIKEN ATOMIC CHARGES
-----------------------
   0 Pd:    0.517910
   1 O :   -0.519069
   2 C :    0.653308
   3 O :   -0.459315
   4 C :   -0.762895
   5 H :    0.245865
   6 H :    0.260360
   7 H :    0.262058
   8 N :   -0.477967
   9 C :   -0.519206
  10 H :    0.281375
  11 H :    0.214231
  12 H :    0.272309
  13 C :   -0.537672
  14 H :    0.290232
  15 H :    0.220668
  16 H :    0.273448
  17 C :   -0.012754
  18 C :   -0.226480
  19 C :   -0.197622
  20 C :   -0.220117
  21 C :   -0.186687
  22 C :   -0.210377
  23 H :    0.231705
  24 H :    0.234742
  25 H :    0.263089
  26 H :    0.230346
  27 H :    0.158602
  28 C :   -0.340670
  29 H :    0.244718
  30 H :    0.271631
  31 O :   -0.565012
  32 C :    0.560088
  33 O :   -0.422297
  34 C :   -0.743497
  35 H :    0.230804
  36 H :    0.249549
  37 H :    0.234597
Sum of atomic charges:   -0.0000000

LOEWDIN ATOMIC CHARGES
----------------------
   0 Pd:   -0.280249
   1 O :   -0.191281
   2 C :    0.192333
   3 O :   -0.145543
   4 C :   -0.377922
   5 H :    0.151132
   6 H :    0.163822
   7 H :    0.155600
   8 N :   -0.056106
   9 C :   -0.232532
  10 H :    0.157715
  11 H :    0.117982
  12 H :    0.149142
  13 C :   -0.236172
  14 H :    0.158691
  15 H :    0.121645
  16 H :    0.154173
  17 C :   -0.049953
  18 C :   -0.101470
  19 C :   -0.127596
  20 C :   -0.128402
  21 C :   -0.144456
  22 C :   -0.104024
  23 H :    0.141703
  24 H :    0.139661
  25 H :    0.162148
  26 H :    0.143363
  27 H :    0.129276
  28 C :   -0.110076
  29 H :    0.136830
  30 H :    0.156555
  31 O :   -0.212180
  32 C :    0.134960
  33 O :   -0.216433
  34 C :   -0.385342
  35 H :    0.140357
  36 H :    0.152085
  37 H :    0.140564

  Mayer bond orders larger than 0.100000
B(  0-Pd,  1-O ) :   0.6225 B(  0-Pd,  3-O ) :   0.4140 B(  0-Pd,  8-N ) :   0.4000
B(  0-Pd, 31-O ) :   0.6811 B(  0-Pd, 33-O ) :   0.1055 B(  1-O ,  2-C ) :   1.3196
B(  1-O ,  3-O ) :   0.1014 B(  2-C ,  3-O ) :   1.6080 B(  2-C ,  4-C ) :   0.9533
B(  4-C ,  5-H ) :   0.9108 B(  4-C ,  6-H ) :   0.9031 B(  4-C ,  7-H ) :   0.9072
B(  8-N ,  9-C ) :   0.9258 B(  8-N , 13-C ) :   0.9253 B(  8-N , 28-C ) :   0.8922
B(  9-C , 10-H ) :   0.8985 B(  9-C , 11-H ) :   0.9042 B(  9-C , 12-H ) :   0.9026
B( 13-C , 14-H ) :   0.8864 B( 13-C , 15-H ) :   0.9054 B( 13-C , 16-H ) :   0.9001
B( 17-C , 18-C ) :   1.4426 B( 17-C , 20-C ) :   0.1004 B( 17-C , 22-C ) :   1.3377
B( 17-C , 28-C ) :   0.9615 B( 18-C , 19-C ) :   1.4027 B( 18-C , 25-H ) :   0.8957
B( 19-C , 20-C ) :   1.4592 B( 19-C , 26-H ) :   0.9138 B( 20-C , 21-C ) :   1.3794
B( 20-C , 23-H ) :   0.9133 B( 21-C , 22-C ) :   1.4665 B( 21-C , 24-H ) :   0.9115
B( 22-C , 27-H ) :   0.9160 B( 28-C , 29-H ) :   0.8977 B( 28-C , 30-H ) :   0.9045
B( 31-O , 32-C ) :   1.2045 B( 32-C , 33-O ) :   1.9175 B( 32-C , 34-C ) :   0.9326
B( 34-C , 35-H ) :   0.9164 B( 34-C , 36-H ) :   0.9102 B( 34-C , 37-H ) :   0.9220

Dispersion correction           -0.026135954
FINAL SINGLE POINT ENERGY      -988.445590799420
Dispersion correction            ... done

DIPOLE MOMENT
-------------
                                X             Y             Z
Electronic contribution:     30.74545      30.06322     -27.35122
Nuclear contribution   :    -32.54768     -30.34455      28.16395
                        -----------------------------------------
Total Dipole Moment    :     -1.80223      -0.28133       0.81272
                        -----------------------------------------
Magnitude (a.u.)       :      1.99692
Magnitude (Debye)      :      5.07577

Rotational constants in cm-1:     0.013254     0.008266     0.007058
Rotational constants in MHz :   397.330908   247.817501   211.603513

                             ****ORCA TERMINATED NORMALLY****
TOTAL RUN TIME: 0 days 0 hours 15 minutes 4 seconds 803 msec
