                         Program Version 5.0.3 -  RELEASE  -
|  1> ! EnGrad PBEh-3c
|  2> %output
|  3> xyzfile=True
|  4> end
|  5> %scf
|  6> maxiter 250
|  7> end
|  8> %output
|  9> Print[P_Hirshfeld] = 1
| 10> end
| 11> % maxcore
| 12> 4000
| 13> *xyz 0 1
| 14> Pd   0.61024820   0.49216500  -0.54318827
| 15> O    2.18560666   1.43161717   0.19398486
| 16> C    1.61317502   2.56292709   0.27467191
| 17> O    0.37984760   2.61047362   0.04589249
| 18> C    2.46482489   3.77183145   0.56317217
| 19> H    1.93813505   4.60447689   1.03979760
| 20> H    2.89140276   4.13392622  -0.37875434
| 21> H    3.30640859   3.46890923   1.18523644
| 22> N   -1.27279387  -0.39244641  -1.17278415
| 23> C   -1.22966976  -1.26768943  -2.36334183
| 24> H   -0.84901088  -0.72634209  -3.22101883
| 25> H   -2.22735164  -1.64169246  -2.60471416
| 26> H   -0.58751023  -2.12683625  -2.20322569
| 27> C   -2.19560540   0.71018555  -1.46148743
| 28> H   -2.28095592   1.36102981  -0.59779222
| 29> H   -3.19043380   0.31616730  -1.68567479
| 30> H   -1.84350689   1.29724687  -2.30222590
| 31> C   -1.47675626  -0.78202557   1.40789852
| 32> C   -0.79137681  -1.77838609   2.06450327
| 33> C   -0.60640943  -1.72894436   3.44588496
| 34> C   -1.40777339  -0.87950804   4.21109271
| 35> C   -2.09876003   0.13659480   3.54731591
| 36> C   -1.91338904   0.30914655   2.17465302
| 37> H   -1.32695943  -0.96204939   5.30571227
| 38> H   -2.70176402   0.84882945   4.09197328
| 39> H   -0.29203160  -2.52708855   1.43263606
| 40> H    0.20095339  -2.32379848   3.86209167
| 41> H   -1.97082470   1.29201125   1.71659580
| 42> C   -1.82650993  -1.16707023  -0.03238060
| 43> H   -2.91840252  -1.24755590  -0.20447729
| 44> H   -1.46149256  -2.19595094  -0.12885126
| 45> O    1.76260138  -0.99329827  -1.17173522
| 46> C    2.23949538  -0.69545659  -2.34851264
| 47> O    1.71358065   0.07248070  -3.13135185
| 48> C    3.54595980  -1.38098606  -2.70661661
| 49> H    3.46522884  -2.46152942  -2.59984494
| 50> H    4.33085819  -1.05742044  -2.02186745
| 51> H    3.85860351  -1.14537922  -3.72491184
| 52> *
| 53>
| 54>                          ****END OF INPUT****

CARTESIAN COORDINATES (ANGSTROEM)
---------------------------------
  Pd     0.610248    0.492165   -0.543188
  O      2.185607    1.431617    0.193985
  C      1.613175    2.562927    0.274672
  O      0.379848    2.610474    0.045892
  C      2.464825    3.771831    0.563172
  H      1.938135    4.604477    1.039798
  H      2.891403    4.133926   -0.378754
  H      3.306409    3.468909    1.185236
  N     -1.272794   -0.392446   -1.172784
  C     -1.229670   -1.267689   -2.363342
  H     -0.849011   -0.726342   -3.221019
  H     -2.227352   -1.641692   -2.604714
  H     -0.587510   -2.126836   -2.203226
  C     -2.195605    0.710186   -1.461487
  H     -2.280956    1.361030   -0.597792
  H     -3.190434    0.316167   -1.685675
  H     -1.843507    1.297247   -2.302226
  C     -1.476756   -0.782026    1.407899
  C     -0.791377   -1.778386    2.064503
  C     -0.606409   -1.728944    3.445885
  C     -1.407773   -0.879508    4.211093
  C     -2.098760    0.136595    3.547316
  C     -1.913389    0.309147    2.174653
  H     -1.326959   -0.962049    5.305712
  H     -2.701764    0.848829    4.091973
  H     -0.292032   -2.527089    1.432636
  H      0.200953   -2.323798    3.862092
  H     -1.970825    1.292011    1.716596
  C     -1.826510   -1.167070   -0.032381
  H     -2.918403   -1.247556   -0.204477
  H     -1.461493   -2.195951   -0.128851
  O      1.762601   -0.993298   -1.171735
  C      2.239495   -0.695457   -2.348513
  O      1.713581    0.072481   -3.131352
  C      3.545960   -1.380986   -2.706617
  H      3.465229   -2.461529   -2.599845
  H      4.330858   -1.057420   -2.021867
  H      3.858604   -1.145379   -3.724912

 Total Charge           Charge          ....    0
 Multiplicity           Mult            ....    1
 Number of Electrons    NEL             ....  154
 Basis Dimension        Dim             ....  339

ORBITAL ENERGIES
----------------

  NO   OCC          E(Eh)            E(eV)
   0   2.0000     -19.505575      -530.7737
   1   2.0000     -19.495839      -530.5088
   2   2.0000     -19.475834      -529.9644
   3   2.0000     -19.433606      -528.8153
   4   2.0000     -14.717699      -400.4889
   5   2.0000     -10.574561      -287.7484
   6   2.0000     -10.532818      -286.6126
   7   2.0000     -10.503054      -285.8026
   8   2.0000     -10.482459      -285.2422
   9   2.0000     -10.475405      -285.0503
  10   2.0000     -10.473082      -284.9871
  11   2.0000     -10.463946      -284.7384
  12   2.0000     -10.462771      -284.7065
  13   2.0000     -10.462114      -284.6886
  14   2.0000     -10.455246      -284.5017
  15   2.0000     -10.454468      -284.4805
  16   2.0000     -10.445090      -284.2253
  17   2.0000     -10.414576      -283.3950
  18   2.0000      -3.659531       -99.5809
  19   2.0000      -2.308644       -62.8214
  20   2.0000      -2.304066       -62.6968
  21   2.0000      -2.268041       -61.7165
  22   2.0000      -1.205747       -32.8101
  23   2.0000      -1.150389       -31.3037
  24   2.0000      -1.088407       -29.6171
  25   2.0000      -1.075155       -29.2565
  26   2.0000      -1.052882       -28.6504
  27   2.0000      -0.971518       -26.4363
  28   2.0000      -0.877845       -23.8874
  29   2.0000      -0.844150       -22.9705
  30   2.0000      -0.831831       -22.6353
  31   2.0000      -0.820178       -22.3182
  32   2.0000      -0.798729       -21.7345
  33   2.0000      -0.795360       -21.6428
  34   2.0000      -0.718107       -19.5407
  35   2.0000      -0.691570       -18.8186
  36   2.0000      -0.669675       -18.2228
  37   2.0000      -0.618497       -16.8302
  38   2.0000      -0.600203       -16.3323
  39   2.0000      -0.586592       -15.9620
  40   2.0000      -0.570921       -15.5356
  41   2.0000      -0.567848       -15.4519
  42   2.0000      -0.559610       -15.2278
  43   2.0000      -0.549705       -14.9582
  44   2.0000      -0.547036       -14.8856
  45   2.0000      -0.529451       -14.4071
  46   2.0000      -0.526360       -14.3230
  47   2.0000      -0.518691       -14.1143
  48   2.0000      -0.509433       -13.8624
  49   2.0000      -0.496624       -13.5138
  50   2.0000      -0.491403       -13.3717
  51   2.0000      -0.488592       -13.2953
  52   2.0000      -0.486269       -13.2321
  53   2.0000      -0.477967       -13.0061
  54   2.0000      -0.460255       -12.5242
  55   2.0000      -0.458410       -12.4740
  56   2.0000      -0.450913       -12.2700
  57   2.0000      -0.447449       -12.1757
  58   2.0000      -0.442965       -12.0537
  59   2.0000      -0.431600       -11.7444
  60   2.0000      -0.430353       -11.7105
  61   2.0000      -0.418891       -11.3986
  62   2.0000      -0.415256       -11.2997
  63   2.0000      -0.408383       -11.1127
  64   2.0000      -0.388680       -10.5765
  65   2.0000      -0.385689       -10.4951
  66   2.0000      -0.374833       -10.1997
  67   2.0000      -0.363822        -9.9001
  68   2.0000      -0.352697        -9.5974
  69   2.0000      -0.346050        -9.4165
  70   2.0000      -0.320050        -8.7090
  71   2.0000      -0.316536        -8.6134
  72   2.0000      -0.308362        -8.3910
  73   2.0000      -0.297944        -8.1075
  74   2.0000      -0.295523        -8.0416
  75   2.0000      -0.287085        -7.8120
  76   2.0000      -0.271104        -7.3771
  77   0.0000      -0.049771        -1.3543
  78   0.0000      -0.014633        -0.3982
  79   0.0000       0.007392         0.2011
  80   0.0000       0.044843         1.2202
  81   0.0000       0.067354         1.8328

MULLIKEN ATOMIC CHARGES
-----------------------
   0 Pd:    0.533015
   1 O :   -0.488108
   2 C :    0.663636
   3 O :   -0.498698
   4 C :   -0.769871
   5 H :    0.250918
   6 H :    0.263792
   7 H :    0.258313
   8 N :   -0.477390
   9 C :   -0.535134
  10 H :    0.293196
  11 H :    0.217878
  12 H :    0.271494
  13 C :   -0.531997
  14 H :    0.268461
  15 H :    0.224658
  16 H :    0.280425
  17 C :    0.098112
  18 C :   -0.260913
  19 C :   -0.214364
  20 C :   -0.229834
  21 C :   -0.225406
  22 C :   -0.282795
  23 H :    0.228370
  24 H :    0.232037
  25 H :    0.241817
  26 H :    0.231723
  27 H :    0.249539
  28 C :   -0.334550
  29 H :    0.242777
  30 H :    0.257162
  31 O :   -0.550879
  32 C :    0.572836
  33 O :   -0.454273
  34 C :   -0.741684
  35 H :    0.230292
  36 H :    0.245631
  37 H :    0.239813
Sum of atomic charges:    0.0000000

LOEWDIN ATOMIC CHARGES
----------------------
   0 Pd:   -0.273707
   1 O :   -0.133019
   2 C :    0.190687
   3 O :   -0.193867
   4 C :   -0.378288
   5 H :    0.150936
   6 H :    0.165895
   7 H :    0.157467
   8 N :   -0.061989
   9 C :   -0.238064
  10 H :    0.162387
  11 H :    0.118558
  12 H :    0.150242
  13 C :   -0.232832
  14 H :    0.150037
  15 H :    0.122368
  16 H :    0.155768
  17 C :   -0.052060
  18 C :   -0.118654
  19 C :   -0.131240
  20 C :   -0.130742
  21 C :   -0.128136
  22 C :   -0.114901
  23 H :    0.142919
  24 H :    0.142702
  25 H :    0.149979
  26 H :    0.142051
  27 H :    0.154164
  28 C :   -0.103884
  29 H :    0.135195
  30 H :    0.148833
  31 O :   -0.192190
  32 C :    0.136035
  33 O :   -0.247002
  34 C :   -0.381451
  35 H :    0.142478
  36 H :    0.151473
  37 H :    0.141851

  Mayer bond orders larger than 0.100000
B(  0-Pd,  1-O ) :   0.6047 B(  0-Pd,  3-O ) :   0.4379 B(  0-Pd,  8-N ) :   0.4006
B(  0-Pd, 31-O ) :   0.6620 B(  0-Pd, 33-O ) :   0.1198 B(  1-O ,  2-C ) :   1.3710
B(  1-O ,  3-O ) :   0.1017 B(  2-C ,  3-O ) :   1.5491 B(  2-C ,  4-C ) :   0.9536
B(  4-C ,  5-H ) :   0.9111 B(  4-C ,  6-H ) :   0.9003 B(  4-C ,  7-H ) :   0.9057
B(  8-N ,  9-C ) :   0.9215 B(  8-N , 13-C ) :   0.9279 B(  8-N , 28-C ) :   0.8874
B(  9-C , 10-H ) :   0.8886 B(  9-C , 11-H ) :   0.9034 B(  9-C , 12-H ) :   0.9018
B( 13-C , 14-H ) :   0.8985 B( 13-C , 15-H ) :   0.9030 B( 13-C , 16-H ) :   0.9002
B( 17-C , 18-C ) :   1.4259 B( 17-C , 22-C ) :   1.3641 B( 17-C , 28-C ) :   0.9481
B( 18-C , 19-C ) :   1.4137 B( 18-C , 25-H ) :   0.9029 B( 19-C , 20-C ) :   1.4380
B( 19-C , 26-H ) :   0.9152 B( 20-C , 21-C ) :   1.3998 B( 20-C , 23-H ) :   0.9175
B( 21-C , 22-C ) :   1.4527 B( 21-C , 24-H ) :   0.9160 B( 22-C , 27-H ) :   0.9067
B( 28-C , 29-H ) :   0.8907 B( 28-C , 30-H ) :   0.9105 B( 31-O , 32-C ) :   1.2392
B( 32-C , 33-O ) :   1.8653 B( 32-C , 34-C ) :   0.9350 B( 34-C , 35-H ) :   0.9156
B( 34-C , 36-H ) :   0.9105 B( 34-C , 37-H ) :   0.9202

Dispersion correction           -0.025864317
FINAL SINGLE POINT ENERGY      -988.516031505104
Dispersion correction            ... done

DIPOLE MOMENT
-------------
                                X             Y             Z
Electronic contribution:     27.37892      24.09763     -27.42873
Nuclear contribution   :    -28.80590     -24.30849      28.18830
                        -----------------------------------------
Total Dipole Moment    :     -1.42698      -0.21086       0.75957
                        -----------------------------------------
Magnitude (a.u.)       :      1.63024
Magnitude (Debye)      :      4.14374

Rotational constants in cm-1:     0.014027     0.008223     0.006961
Rotational constants in MHz :   420.525971   246.511566   208.689583

                             ****ORCA TERMINATED NORMALLY****
TOTAL RUN TIME: 0 days 0 hours 12 minutes 24 seconds 142 msec
