                         Program Version 5.0.3 -  RELEASE  -
|  1> ! EnGrad PBEh-3c
|  2> %output
|  3> xyzfile=True
|  4> end
|  5> %scf
|  6> maxiter 250
|  7> end
|  8> %output
|  9> Print[P_Hirshfeld] = 1
| 10> end
| 11> % maxcore
| 12> 4000
| 13> *xyz 0 1
| 14> Pd   0.60658692   0.48599338  -0.54694588
| 15> O    2.18506737   1.43614484   0.18157919
| 16> C    1.61155494   2.56413744   0.27519351
| 17> O    0.37778019   2.60273690   0.05694616
| 18> C    2.46432890   3.75999036   0.56181550
| 19> H    1.93520447   4.58798734   1.03395911
| 20> H    2.88862974   4.12542683  -0.37818468
| 21> H    3.30399825   3.46241274   1.18852119
| 22> N   -1.26314535  -0.38839156  -1.16519805
| 23> C   -1.22497866  -1.27487576  -2.35497298
| 24> H   -0.83986941  -0.72900794  -3.21603741
| 25> H   -2.23157776  -1.64909053  -2.59454434
| 26> H   -0.57779126  -2.13205517  -2.17881816
| 27> C   -2.19541255   0.71396685  -1.46636951
| 28> H   -2.28100909   1.36917932  -0.60220300
| 29> H   -3.19181278   0.31125947  -1.69804497
| 30> H   -1.83701537   1.29998389  -2.31140440
| 31> C   -1.47183279  -0.79140446   1.39213453
| 32> C   -0.78608870  -1.78082662   2.07352710
| 33> C   -0.61443347  -1.73785880   3.44185767
| 34> C   -1.40201835  -0.87859091   4.20500876
| 35> C   -2.02504197   0.15715998   3.55598551
| 36> C   -1.92338712   0.29445817   2.15686640
| 37> H   -1.34636754  -0.95208799   5.28268641
| 38> H   -2.64208146   0.87675587   4.09183454
| 39> H   -0.31081404  -2.53653159   1.46718626
| 40> H    0.17201747  -2.34925091   3.88634052
| 41> H   -2.04954315   1.28518212   1.68520802
| 42> C   -1.81530823  -1.16329770  -0.03355289
| 43> H   -2.90724674  -1.22839525  -0.17520382
| 44> H   -1.47100623  -2.18897366  -0.13397722
| 45> O    1.75907133  -0.99735215  -1.18235450
| 46> C    2.23524478  -0.69674463  -2.35459209
| 47> O    1.70836540   0.07823887  -3.13171629
| 48> C    3.54413982  -1.37178155  -2.70478012
| 49> H    3.47007382  -2.45505175  -2.60804145
| 50> H    4.33090808  -1.04264170  -2.02123882
| 51> H    3.85445280  -1.12965566  -3.72087167
| 52> *
| 53>
| 54>                          ****END OF INPUT****

CARTESIAN COORDINATES (ANGSTROEM)
---------------------------------
  Pd     0.606587    0.485993   -0.546946
  O      2.185067    1.436145    0.181579
  C      1.611555    2.564137    0.275194
  O      0.377780    2.602737    0.056946
  C      2.464329    3.759990    0.561816
  H      1.935204    4.587987    1.033959
  H      2.888630    4.125427   -0.378185
  H      3.303998    3.462413    1.188521
  N     -1.263145   -0.388392   -1.165198
  C     -1.224979   -1.274876   -2.354973
  H     -0.839869   -0.729008   -3.216037
  H     -2.231578   -1.649091   -2.594544
  H     -0.577791   -2.132055   -2.178818
  C     -2.195413    0.713967   -1.466370
  H     -2.281009    1.369179   -0.602203
  H     -3.191813    0.311259   -1.698045
  H     -1.837015    1.299984   -2.311404
  C     -1.471833   -0.791404    1.392135
  C     -0.786089   -1.780827    2.073527
  C     -0.614433   -1.737859    3.441858
  C     -1.402018   -0.878591    4.205009
  C     -2.025042    0.157160    3.555986
  C     -1.923387    0.294458    2.156866
  H     -1.346368   -0.952088    5.282686
  H     -2.642081    0.876756    4.091835
  H     -0.310814   -2.536532    1.467186
  H      0.172017   -2.349251    3.886341
  H     -2.049543    1.285182    1.685208
  C     -1.815308   -1.163298   -0.033553
  H     -2.907247   -1.228395   -0.175204
  H     -1.471006   -2.188974   -0.133977
  O      1.759071   -0.997352   -1.182354
  C      2.235245   -0.696745   -2.354592
  O      1.708365    0.078239   -3.131716
  C      3.544140   -1.371782   -2.704780
  H      3.470074   -2.455052   -2.608041
  H      4.330908   -1.042642   -2.021239
  H      3.854453   -1.129656   -3.720872

 Total Charge           Charge          ....    0
 Multiplicity           Mult            ....    1
 Number of Electrons    NEL             ....  154
 Basis Dimension        Dim             ....  339

ORBITAL ENERGIES
----------------

  NO   OCC          E(Eh)            E(eV)
   0   2.0000     -19.502848      -530.6995
   1   2.0000     -19.494066      -530.4605
   2   2.0000     -19.475254      -529.9486
   3   2.0000     -19.432669      -528.7898
   4   2.0000     -14.719403      -400.5353
   5   2.0000     -10.572042      -287.6799
   6   2.0000     -10.531879      -286.5870
   7   2.0000     -10.500088      -285.7219
   8   2.0000     -10.485274      -285.3188
   9   2.0000     -10.477973      -285.1201
  10   2.0000     -10.472434      -284.9694
  11   2.0000     -10.465318      -284.7758
  12   2.0000     -10.460430      -284.6428
  13   2.0000     -10.456762      -284.5429
  14   2.0000     -10.454297      -284.4759
  15   2.0000     -10.452543      -284.4281
  16   2.0000     -10.443228      -284.1747
  17   2.0000     -10.414297      -283.3874
  18   2.0000      -3.659022       -99.5670
  19   2.0000      -2.308204       -62.8094
  20   2.0000      -2.303435       -62.6797
  21   2.0000      -2.267533       -61.7027
  22   2.0000      -1.205222       -32.7958
  23   2.0000      -1.150752       -31.3136
  24   2.0000      -1.086639       -29.5690
  25   2.0000      -1.075647       -29.2699
  26   2.0000      -1.052441       -28.6384
  27   2.0000      -0.972611       -26.4661
  28   2.0000      -0.881916       -23.9981
  29   2.0000      -0.843372       -22.9493
  30   2.0000      -0.833561       -22.6824
  31   2.0000      -0.819208       -22.2918
  32   2.0000      -0.800258       -21.7761
  33   2.0000      -0.795755       -21.6536
  34   2.0000      -0.719994       -19.5920
  35   2.0000      -0.691887       -18.8272
  36   2.0000      -0.670401       -18.2425
  37   2.0000      -0.617611       -16.8061
  38   2.0000      -0.600804       -16.3487
  39   2.0000      -0.586656       -15.9637
  40   2.0000      -0.572000       -15.5649
  41   2.0000      -0.568669       -15.4743
  42   2.0000      -0.560523       -15.2526
  43   2.0000      -0.548853       -14.9350
  44   2.0000      -0.546418       -14.8688
  45   2.0000      -0.529447       -14.4070
  46   2.0000      -0.524560       -14.2740
  47   2.0000      -0.520311       -14.1584
  48   2.0000      -0.509423       -13.8621
  49   2.0000      -0.496840       -13.5197
  50   2.0000      -0.492437       -13.3999
  51   2.0000      -0.488260       -13.2862
  52   2.0000      -0.485445       -13.2096
  53   2.0000      -0.477698       -12.9988
  54   2.0000      -0.460690       -12.5360
  55   2.0000      -0.458526       -12.4771
  56   2.0000      -0.450669       -12.2633
  57   2.0000      -0.446966       -12.1626
  58   2.0000      -0.442090       -12.0299
  59   2.0000      -0.431707       -11.7474
  60   2.0000      -0.430581       -11.7167
  61   2.0000      -0.419007       -11.4018
  62   2.0000      -0.415284       -11.3004
  63   2.0000      -0.407620       -11.0919
  64   2.0000      -0.389752       -10.6057
  65   2.0000      -0.385418       -10.4878
  66   2.0000      -0.373388       -10.1604
  67   2.0000      -0.363293        -9.8857
  68   2.0000      -0.353111        -9.6086
  69   2.0000      -0.344836        -9.3835
  70   2.0000      -0.319468        -8.6932
  71   2.0000      -0.316911        -8.6236
  72   2.0000      -0.308366        -8.3911
  73   2.0000      -0.297944        -8.1075
  74   2.0000      -0.296288        -8.0624
  75   2.0000      -0.289185        -7.8691
  76   2.0000      -0.270660        -7.3650
  77   0.0000      -0.048949        -1.3320
  78   0.0000      -0.012771        -0.3475
  79   0.0000       0.010403         0.2831
  80   0.0000       0.046175         1.2565
  81   0.0000       0.068058         1.8520

MULLIKEN ATOMIC CHARGES
-----------------------
   0 Pd:    0.535879
   1 O :   -0.488761
   2 C :    0.663985
   3 O :   -0.499035
   4 C :   -0.771540
   5 H :    0.250890
   6 H :    0.264310
   7 H :    0.259076
   8 N :   -0.481746
   9 C :   -0.533200
  10 H :    0.292645
  11 H :    0.217560
  12 H :    0.271596
  13 C :   -0.530891
  14 H :    0.268901
  15 H :    0.224841
  16 H :    0.280762
  17 C :    0.099981
  18 C :   -0.255259
  19 C :   -0.218549
  20 C :   -0.220318
  21 C :   -0.221131
  22 C :   -0.287452
  23 H :    0.227325
  24 H :    0.228428
  25 H :    0.238717
  26 H :    0.230977
  27 H :    0.241141
  28 C :   -0.333896
  29 H :    0.244649
  30 H :    0.258955
  31 O :   -0.549043
  32 C :    0.573277
  33 O :   -0.456686
  34 C :   -0.742092
  35 H :    0.229802
  36 H :    0.246015
  37 H :    0.239887
Sum of atomic charges:    0.0000000

LOEWDIN ATOMIC CHARGES
----------------------
   0 Pd:   -0.275347
   1 O :   -0.134438
   2 C :    0.186424
   3 O :   -0.193505
   4 C :   -0.377529
   5 H :    0.150598
   6 H :    0.166431
   7 H :    0.158283
   8 N :   -0.059117
   9 C :   -0.236142
  10 H :    0.162929
  11 H :    0.119069
  12 H :    0.150870
  13 C :   -0.230914
  14 H :    0.150366
  15 H :    0.123383
  16 H :    0.156578
  17 C :   -0.052551
  18 C :   -0.117865
  19 C :   -0.126274
  20 C :   -0.131933
  21 C :   -0.128807
  22 C :   -0.115159
  23 H :    0.141560
  24 H :    0.142053
  25 H :    0.147852
  26 H :    0.141941
  27 H :    0.151884
  28 C :   -0.107074
  29 H :    0.136724
  30 H :    0.149418
  31 O :   -0.189947
  32 C :    0.133772
  33 O :   -0.249013
  34 C :   -0.380745
  35 H :    0.142492
  36 H :    0.152031
  37 H :    0.141703

  Mayer bond orders larger than 0.100000
B(  0-Pd,  1-O ) :   0.6038 B(  0-Pd,  3-O ) :   0.4373 B(  0-Pd,  8-N ) :   0.4037
B(  0-Pd, 31-O ) :   0.6594 B(  0-Pd, 33-O ) :   0.1208 B(  1-O ,  2-C ) :   1.3720
B(  1-O ,  3-O ) :   0.1013 B(  2-C ,  3-O ) :   1.5518 B(  2-C ,  4-C ) :   0.9560
B(  4-C ,  5-H ) :   0.9107 B(  4-C ,  6-H ) :   0.9000 B(  4-C ,  7-H ) :   0.9058
B(  8-N ,  9-C ) :   0.9182 B(  8-N , 13-C ) :   0.9246 B(  8-N , 28-C ) :   0.8892
B(  9-C , 10-H ) :   0.8883 B(  9-C , 11-H ) :   0.9032 B(  9-C , 12-H ) :   0.9011
B( 13-C , 14-H ) :   0.8976 B( 13-C , 15-H ) :   0.9032 B( 13-C , 16-H ) :   0.8998
B( 17-C , 18-C ) :   1.4076 B( 17-C , 22-C ) :   1.3881 B( 17-C , 28-C ) :   0.9493
B( 18-C , 19-C ) :   1.4420 B( 18-C , 25-H ) :   0.9044 B( 19-C , 20-C ) :   1.4110
B( 19-C , 26-H ) :   0.9155 B( 20-C , 21-C ) :   1.4290 B( 20-C , 23-H ) :   0.9178
B( 21-C , 22-C ) :   1.4219 B( 21-C , 24-H ) :   0.9165 B( 22-C , 27-H ) :   0.9101
B( 28-C , 29-H ) :   0.8918 B( 28-C , 30-H ) :   0.9105 B( 31-O , 32-C ) :   1.2442
B( 32-C , 33-O ) :   1.8622 B( 32-C , 34-C ) :   0.9352 B( 34-C , 35-H ) :   0.9157
B( 34-C , 36-H ) :   0.9106 B( 34-C , 37-H ) :   0.9199

Dispersion correction           -0.025915908
FINAL SINGLE POINT ENERGY      -988.524602379580
Dispersion correction            ... done

DIPOLE MOMENT
-------------
                                X             Y             Z
Electronic contribution:     27.10522      23.73871     -27.60453
Nuclear contribution   :    -28.57025     -23.98926      28.36415
                        -----------------------------------------
Total Dipole Moment    :     -1.46503      -0.25055       0.75961
                        -----------------------------------------
Magnitude (a.u.)       :      1.66917
Magnitude (Debye)      :      4.24268

Rotational constants in cm-1:     0.014062     0.008251     0.006983
Rotational constants in MHz :   421.566623   247.359464   209.339856

                             ****ORCA TERMINATED NORMALLY****
TOTAL RUN TIME: 0 days 0 hours 12 minutes 42 seconds 507 msec
