                         Program Version 5.0.3 -  RELEASE  -
|  1> ! EnGrad PBEh-3c
|  2> %output
|  3> xyzfile=True
|  4> end
|  5> %scf
|  6> maxiter 250
|  7> end
|  8> %output
|  9> Print[P_Hirshfeld] = 1
| 10> end
| 11> % maxcore
| 12> 4000
| 13> *xyz 0 1
| 14> Pd   0.60823572   0.48418969  -0.55190936
| 15> O    2.19205697   1.45025225   0.17417361
| 16> C    1.61268445   2.57167478   0.27387298
| 17> O    0.37551138   2.60163175   0.06027972
| 18> C    2.46505530   3.76106344   0.56071019
| 19> H    1.92388684   4.57400090   1.02625629
| 20> H    2.87962867   4.13209595  -0.37726966
| 21> H    3.30415573   3.47550193   1.19175390
| 22> N   -1.24821236  -0.37483489  -1.16097024
| 23> C   -1.22007156  -1.25971060  -2.35563769
| 24> H   -0.83601938  -0.69946222  -3.21065011
| 25> H   -2.23788510  -1.62906919  -2.58883013
| 26> H   -0.56748875  -2.11569441  -2.17473926
| 27> C   -2.18885881   0.72842463  -1.45488476
| 28> H   -2.27156428   1.38201825  -0.58634674
| 29> H   -3.18761871   0.32068259  -1.69391735
| 30> H   -1.82730971   1.31395118  -2.30311463
| 31> C   -1.47109086  -0.81283660   1.37549057
| 32> C   -0.75640822  -1.76470308   2.07293551
| 33> C   -0.59168390  -1.74216262   3.43727120
| 34> C   -1.36816574  -0.87942800   4.18633865
| 35> C   -1.97012044   0.16033844   3.54404916
| 36> C   -1.97069783   0.25947864   2.13118829
| 37> H   -1.35615991  -0.92540127   5.24937175
| 38> H   -2.60674006   0.84965266   4.09039376
| 39> H   -0.29218573  -2.53390759   1.50619016
| 40> H    0.15117318  -2.36151668   3.91274195
| 41> H   -2.21863942   1.24152136   1.67050805
| 42> C   -1.79631884  -1.16541462  -0.04425524
| 43> H   -2.88289976  -1.22069347  -0.14793129
| 44> H   -1.46129501  -2.18454539  -0.15863882
| 45> O    1.75330764  -1.00433763  -1.18790342
| 46> C    2.23269472  -0.70760477  -2.35781961
| 47> O    1.71234844   0.08286631  -3.13164020
| 48> C    3.53577416  -1.39030266  -2.69347466
| 49> H    3.45584954  -2.47227370  -2.60190583
| 50> H    4.32639418  -1.05934587  -2.01470593
| 51> H    3.83858078  -1.14689753  -3.70773729
| 52> *
| 53>
| 54>                          ****END OF INPUT****

CARTESIAN COORDINATES (ANGSTROEM)
---------------------------------
  Pd     0.608236    0.484190   -0.551909
  O      2.192057    1.450252    0.174174
  C      1.612684    2.571675    0.273873
  O      0.375511    2.601632    0.060280
  C      2.465055    3.761063    0.560710
  H      1.923887    4.574001    1.026256
  H      2.879629    4.132096   -0.377270
  H      3.304156    3.475502    1.191754
  N     -1.248212   -0.374835   -1.160970
  C     -1.220072   -1.259711   -2.355638
  H     -0.836019   -0.699462   -3.210650
  H     -2.237885   -1.629069   -2.588830
  H     -0.567489   -2.115694   -2.174739
  C     -2.188859    0.728425   -1.454885
  H     -2.271564    1.382018   -0.586347
  H     -3.187619    0.320683   -1.693917
  H     -1.827310    1.313951   -2.303115
  C     -1.471091   -0.812837    1.375491
  C     -0.756408   -1.764703    2.072936
  C     -0.591684   -1.742163    3.437271
  C     -1.368166   -0.879428    4.186339
  C     -1.970120    0.160338    3.544049
  C     -1.970698    0.259479    2.131188
  H     -1.356160   -0.925401    5.249372
  H     -2.606740    0.849653    4.090394
  H     -0.292186   -2.533908    1.506190
  H      0.151173   -2.361517    3.912742
  H     -2.218639    1.241521    1.670508
  C     -1.796319   -1.165415   -0.044255
  H     -2.882900   -1.220693   -0.147931
  H     -1.461295   -2.184545   -0.158639
  O      1.753308   -1.004338   -1.187903
  C      2.232695   -0.707605   -2.357820
  O      1.712348    0.082866   -3.131640
  C      3.535774   -1.390303   -2.693475
  H      3.455850   -2.472274   -2.601906
  H      4.326394   -1.059346   -2.014706
  H      3.838581   -1.146898   -3.707737

 Total Charge           Charge          ....    0
 Multiplicity           Mult            ....    1
 Number of Electrons    NEL             ....  154
 Basis Dimension        Dim             ....  339

ORBITAL ENERGIES
----------------

  NO   OCC          E(Eh)            E(eV)
   0   2.0000     -19.500103      -530.6248
   1   2.0000     -19.491859      -530.4005
   2   2.0000     -19.475429      -529.9534
   3   2.0000     -19.432435      -528.7834
   4   2.0000     -14.721082      -400.5810
   5   2.0000     -10.569543      -287.6119
   6   2.0000     -10.531899      -286.5875
   7   2.0000     -10.496708      -285.6299
   8   2.0000     -10.487450      -285.3780
   9   2.0000     -10.479915      -285.1730
  10   2.0000     -10.471403      -284.9414
  11   2.0000     -10.466203      -284.7999
  12   2.0000     -10.456737      -284.5423
  13   2.0000     -10.452410      -284.4245
  14   2.0000     -10.451118      -284.3894
  15   2.0000     -10.450466      -284.3716
  16   2.0000     -10.440385      -284.0973
  17   2.0000     -10.413945      -283.3779
  18   2.0000      -3.658436       -99.5511
  19   2.0000      -2.307549       -62.7916
  20   2.0000      -2.302853       -62.6638
  21   2.0000      -2.266914       -61.6859
  22   2.0000      -1.202900       -32.7326
  23   2.0000      -1.149985       -31.2927
  24   2.0000      -1.083987       -29.4968
  25   2.0000      -1.077084       -29.3090
  26   2.0000      -1.051197       -28.6045
  27   2.0000      -0.974262       -26.5110
  28   2.0000      -0.885426       -24.0937
  29   2.0000      -0.844223       -22.9725
  30   2.0000      -0.834155       -22.6985
  31   2.0000      -0.819191       -22.2913
  32   2.0000      -0.801500       -21.8099
  33   2.0000      -0.797345       -21.6969
  34   2.0000      -0.721445       -19.6315
  35   2.0000      -0.694078       -18.8868
  36   2.0000      -0.671839       -18.2817
  37   2.0000      -0.616174       -16.7669
  38   2.0000      -0.602607       -16.3978
  39   2.0000      -0.587318       -15.9817
  40   2.0000      -0.574236       -15.6258
  41   2.0000      -0.569688       -15.5020
  42   2.0000      -0.561498       -15.2791
  43   2.0000      -0.546612       -14.8741
  44   2.0000      -0.544972       -14.8294
  45   2.0000      -0.528405       -14.3786
  46   2.0000      -0.524265       -14.2660
  47   2.0000      -0.523378       -14.2418
  48   2.0000      -0.509380       -13.8609
  49   2.0000      -0.497051       -13.5254
  50   2.0000      -0.492933       -13.4134
  51   2.0000      -0.488907       -13.3038
  52   2.0000      -0.485926       -13.2227
  53   2.0000      -0.477557       -12.9950
  54   2.0000      -0.460956       -12.5432
  55   2.0000      -0.458306       -12.4711
  56   2.0000      -0.450490       -12.2584
  57   2.0000      -0.446326       -12.1452
  58   2.0000      -0.441497       -12.0137
  59   2.0000      -0.433252       -11.7894
  60   2.0000      -0.430382       -11.7113
  61   2.0000      -0.419266       -11.4088
  62   2.0000      -0.415155       -11.2969
  63   2.0000      -0.405463       -11.0332
  64   2.0000      -0.393420       -10.7055
  65   2.0000      -0.385168       -10.4810
  66   2.0000      -0.371478       -10.1084
  67   2.0000      -0.362531        -9.8650
  68   2.0000      -0.352791        -9.5999
  69   2.0000      -0.343349        -9.3430
  70   2.0000      -0.319077        -8.6825
  71   2.0000      -0.317009        -8.6262
  72   2.0000      -0.308288        -8.3889
  73   2.0000      -0.298182        -8.1139
  74   2.0000      -0.296449        -8.0668
  75   2.0000      -0.292479        -7.9588
  76   2.0000      -0.270378        -7.3574
  77   0.0000      -0.048277        -1.3137
  78   0.0000      -0.009434        -0.2567
  79   0.0000       0.012120         0.3298
  80   0.0000       0.047899         1.3034
  81   0.0000       0.069109         1.8806

MULLIKEN ATOMIC CHARGES
-----------------------
   0 Pd:    0.538483
   1 O :   -0.487343
   2 C :    0.662322
   3 O :   -0.501715
   4 C :   -0.771215
   5 H :    0.250944
   6 H :    0.264424
   7 H :    0.259424
   8 N :   -0.485680
   9 C :   -0.530609
  10 H :    0.292255
  11 H :    0.217204
  12 H :    0.271792
  13 C :   -0.530470
  14 H :    0.270914
  15 H :    0.224669
  16 H :    0.280789
  17 C :    0.107162
  18 C :   -0.255819
  19 C :   -0.212839
  20 C :   -0.220290
  21 C :   -0.210445
  22 C :   -0.293758
  23 H :    0.227206
  24 H :    0.223181
  25 H :    0.233709
  26 H :    0.231551
  27 H :    0.232704
  28 C :   -0.336806
  29 H :    0.246512
  30 H :    0.260827
  31 O :   -0.547442
  32 C :    0.573853
  33 O :   -0.461249
  34 C :   -0.742231
  35 H :    0.230264
  36 H :    0.247297
  37 H :    0.240426
Sum of atomic charges:   -0.0000000

LOEWDIN ATOMIC CHARGES
----------------------
   0 Pd:   -0.275870
   1 O :   -0.136019
   2 C :    0.184429
   3 O :   -0.196613
   4 C :   -0.377025
   5 H :    0.150001
   6 H :    0.166451
   7 H :    0.158589
   8 N :   -0.055251
   9 C :   -0.233874
  10 H :    0.163104
  11 H :    0.119719
  12 H :    0.151684
  13 C :   -0.229392
  14 H :    0.151236
  15 H :    0.124153
  16 H :    0.157160
  17 C :   -0.054128
  18 C :   -0.113565
  19 C :   -0.123659
  20 C :   -0.131671
  21 C :   -0.129802
  22 C :   -0.114158
  23 H :    0.139339
  24 H :    0.140096
  25 H :    0.145939
  26 H :    0.141920
  27 H :    0.148294
  28 C :   -0.110299
  29 H :    0.138357
  30 H :    0.150335
  31 O :   -0.188374
  32 C :    0.135029
  33 O :   -0.253974
  34 C :   -0.380027
  35 H :    0.142845
  36 H :    0.153069
  37 H :    0.141953

  Mayer bond orders larger than 0.100000
B(  0-Pd,  1-O ) :   0.5987 B(  0-Pd,  3-O ) :   0.4390 B(  0-Pd,  8-N ) :   0.4078
B(  0-Pd, 31-O ) :   0.6580 B(  0-Pd, 33-O ) :   0.1213 B(  1-O ,  2-C ) :   1.3795
B(  1-O ,  3-O ) :   0.1013 B(  2-C ,  3-O ) :   1.5480 B(  2-C ,  4-C ) :   0.9583
B(  4-C ,  5-H ) :   0.9102 B(  4-C ,  6-H ) :   0.9001 B(  4-C ,  7-H ) :   0.9065
B(  8-N ,  9-C ) :   0.9153 B(  8-N , 13-C ) :   0.9218 B(  8-N , 28-C ) :   0.8925
B(  9-C , 10-H ) :   0.8880 B(  9-C , 11-H ) :   0.9032 B(  9-C , 12-H ) :   0.9005
B( 13-C , 14-H ) :   0.8958 B( 13-C , 15-H ) :   0.9033 B( 13-C , 16-H ) :   0.8995
B( 17-C , 18-C ) :   1.4093 B( 17-C , 22-C ) :   1.3889 B( 17-C , 28-C ) :   0.9507
B( 18-C , 19-C ) :   1.4476 B( 18-C , 25-H ) :   0.9075 B( 19-C , 20-C ) :   1.4097
B( 19-C , 22-C ) :   0.1006 B( 19-C , 26-H ) :   0.9154 B( 20-C , 21-C ) :   1.4393
B( 20-C , 23-H ) :   0.9165 B( 21-C , 22-C ) :   1.4158 B( 21-C , 24-H ) :   0.9175
B( 22-C , 27-H ) :   0.9136 B( 28-C , 29-H ) :   0.8937 B( 28-C , 30-H ) :   0.9107
B( 31-O , 32-C ) :   1.2477 B( 32-C , 33-O ) :   1.8569 B( 32-C , 34-C ) :   0.9364
B( 34-C , 35-H ) :   0.9156 B( 34-C , 36-H ) :   0.9104 B( 34-C , 37-H ) :   0.9195

Dispersion correction           -0.025972860
FINAL SINGLE POINT ENERGY      -988.530920819273
Dispersion correction            ... done

DIPOLE MOMENT
-------------
                                X             Y             Z
Electronic contribution:     27.05681      23.56665     -27.81639
Nuclear contribution   :    -28.57869     -23.88777      28.58314
                        -----------------------------------------
Total Dipole Moment    :     -1.52187      -0.32112       0.76675
                        -----------------------------------------
Magnitude (a.u.)       :      1.73410
Magnitude (Debye)      :      4.40774

Rotational constants in cm-1:     0.014051     0.008287     0.007020
Rotational constants in MHz :   421.228887   248.437238   210.458097

                             ****ORCA TERMINATED NORMALLY****
TOTAL RUN TIME: 0 days 0 hours 12 minutes 24 seconds 326 msec
