                         Program Version 5.0.3 -  RELEASE  -
|  1> ! EnGrad PBEh-3c
|  2> %output
|  3> xyzfile=True
|  4> end
|  5> %scf
|  6> maxiter 250
|  7> end
|  8> %output
|  9> Print[P_Hirshfeld] = 1
| 10> end
| 11> % maxcore
| 12> 4000
| 13> *xyz 0 1
| 14> Pd   0.60510965   0.48166114  -0.55473230
| 15> O    2.19655271   1.44760667   0.16342054
| 16> C    1.60886562   2.56536176   0.27209581
| 17> O    0.37069755   2.59628141   0.06956193
| 18> C    2.46599291   3.75574410   0.56080576
| 19> H    1.91978617   4.56469491   1.02390168
| 20> H    2.87881292   4.12420420  -0.37758685
| 21> H    3.30237899   3.46887412   1.19382557
| 22> N   -1.24650455  -0.37096799  -1.16247985
| 23> C   -1.21558718  -1.26329369  -2.34869670
| 24> H   -0.83039269  -0.70823948  -3.20320191
| 25> H   -2.23225270  -1.63360318  -2.57845952
| 26> H   -0.56315234  -2.11683020  -2.15723076
| 27> C   -2.18610904   0.72951511  -1.45989676
| 28> H   -2.27322687   1.38629895  -0.59489422
| 29> H   -3.18202253   0.31997466  -1.70233659
| 30> H   -1.82365684   1.31234970  -2.30714519
| 31> C   -1.46775057  -0.81626538   1.37953015
| 32> C   -0.75414030  -1.76292997   2.07698973
| 33> C   -0.59504270  -1.75743047   3.44511718
| 34> C   -1.34711390  -0.87023598   4.17897088
| 35> C   -1.94667800   0.18152985   3.52088438
| 36> C   -1.96621919   0.27031984   2.12354711
| 37> H   -1.36874399  -0.92006799   5.25239597
| 38> H   -2.55495697   0.88028988   4.09239693
| 39> H   -0.29917243  -2.55380804   1.52155662
| 40> H    0.12087125  -2.38519893   3.92696352
| 41> H   -2.27577202   1.21843469   1.65312501
| 42> C   -1.79494231  -1.16232131  -0.04220799
| 43> H   -2.88077531  -1.20519841  -0.13073335
| 44> H   -1.46600386  -2.18528293  -0.16410775
| 45> O    1.74736302  -1.00886494  -1.19248540
| 46> C    2.22787494  -0.70349088  -2.36289523
| 47> O    1.70920298   0.08651999  -3.13293169
| 48> C    3.53760054  -1.38301208  -2.69496506
| 49> H    3.46121989  -2.46482046  -2.60795708
| 50> H    4.32331060  -1.04757072  -2.01469494
| 51> H    3.83658665  -1.13243796  -3.70690197
| 52> *
| 53>
| 54>                          ****END OF INPUT****

CARTESIAN COORDINATES (ANGSTROEM)
---------------------------------
  Pd     0.605110    0.481661   -0.554732
  O      2.196553    1.447607    0.163421
  C      1.608866    2.565362    0.272096
  O      0.370698    2.596281    0.069562
  C      2.465993    3.755744    0.560806
  H      1.919786    4.564695    1.023902
  H      2.878813    4.124204   -0.377587
  H      3.302379    3.468874    1.193826
  N     -1.246505   -0.370968   -1.162480
  C     -1.215587   -1.263294   -2.348697
  H     -0.830393   -0.708239   -3.203202
  H     -2.232253   -1.633603   -2.578460
  H     -0.563152   -2.116830   -2.157231
  C     -2.186109    0.729515   -1.459897
  H     -2.273227    1.386299   -0.594894
  H     -3.182023    0.319975   -1.702337
  H     -1.823657    1.312350   -2.307145
  C     -1.467751   -0.816265    1.379530
  C     -0.754140   -1.762930    2.076990
  C     -0.595043   -1.757430    3.445117
  C     -1.347114   -0.870236    4.178971
  C     -1.946678    0.181530    3.520884
  C     -1.966219    0.270320    2.123547
  H     -1.368744   -0.920068    5.252396
  H     -2.554957    0.880290    4.092397
  H     -0.299172   -2.553808    1.521557
  H      0.120871   -2.385199    3.926964
  H     -2.275772    1.218435    1.653125
  C     -1.794942   -1.162321   -0.042208
  H     -2.880775   -1.205198   -0.130733
  H     -1.466004   -2.185283   -0.164108
  O      1.747363   -1.008865   -1.192485
  C      2.227875   -0.703491   -2.362895
  O      1.709203    0.086520   -3.132932
  C      3.537601   -1.383012   -2.694965
  H      3.461220   -2.464820   -2.607957
  H      4.323311   -1.047571   -2.014695
  H      3.836587   -1.132438   -3.706902

 Total Charge           Charge          ....    0
 Multiplicity           Mult            ....    1
 Number of Electrons    NEL             ....  154
 Basis Dimension        Dim             ....  339

ORBITAL ENERGIES
----------------

  NO   OCC          E(Eh)            E(eV)
   0   2.0000     -19.499340      -530.6040
   1   2.0000     -19.492069      -530.4062
   2   2.0000     -19.475075      -529.9437
   3   2.0000     -19.433503      -528.8125
   4   2.0000     -14.721345      -400.5882
   5   2.0000     -10.569185      -287.6021
   6   2.0000     -10.532095      -286.5929
   7   2.0000     -10.496593      -285.6268
   8   2.0000     -10.487347      -285.3752
   9   2.0000     -10.479398      -285.1589
  10   2.0000     -10.471418      -284.9418
  11   2.0000     -10.465107      -284.7700
  12   2.0000     -10.456688      -284.5409
  13   2.0000     -10.452869      -284.4370
  14   2.0000     -10.451608      -284.4027
  15   2.0000     -10.450962      -284.3851
  16   2.0000     -10.439373      -284.0698
  17   2.0000     -10.413514      -283.3661
  18   2.0000      -3.658015       -99.5396
  19   2.0000      -2.307150       -62.7807
  20   2.0000      -2.302424       -62.6522
  21   2.0000      -2.266524       -61.6753
  22   2.0000      -1.201758       -32.7015
  23   2.0000      -1.150294       -31.3011
  24   2.0000      -1.084126       -29.5006
  25   2.0000      -1.077536       -29.3213
  26   2.0000      -1.052042       -28.6275
  27   2.0000      -0.974428       -26.5155
  28   2.0000      -0.884224       -24.0609
  29   2.0000      -0.846797       -23.0425
  30   2.0000      -0.832701       -22.6590
  31   2.0000      -0.820077       -22.3154
  32   2.0000      -0.800559       -21.7843
  33   2.0000      -0.796798       -21.6820
  34   2.0000      -0.721416       -19.6307
  35   2.0000      -0.694417       -18.8960
  36   2.0000      -0.672494       -18.2995
  37   2.0000      -0.615258       -16.7420
  38   2.0000      -0.602899       -16.4057
  39   2.0000      -0.586720       -15.9655
  40   2.0000      -0.574890       -15.6436
  41   2.0000      -0.569533       -15.4978
  42   2.0000      -0.561004       -15.2657
  43   2.0000      -0.545672       -14.8485
  44   2.0000      -0.544368       -14.8130
  45   2.0000      -0.527756       -14.3610
  46   2.0000      -0.525094       -14.2885
  47   2.0000      -0.524455       -14.2712
  48   2.0000      -0.509261       -13.8577
  49   2.0000      -0.497092       -13.5266
  50   2.0000      -0.492249       -13.3948
  51   2.0000      -0.489688       -13.3251
  52   2.0000      -0.487257       -13.2589
  53   2.0000      -0.477926       -13.0050
  54   2.0000      -0.460641       -12.5347
  55   2.0000      -0.458192       -12.4680
  56   2.0000      -0.450160       -12.2495
  57   2.0000      -0.446057       -12.1378
  58   2.0000      -0.441594       -12.0164
  59   2.0000      -0.433437       -11.7944
  60   2.0000      -0.430666       -11.7190
  61   2.0000      -0.419109       -11.4045
  62   2.0000      -0.414943       -11.2912
  63   2.0000      -0.404266       -11.0006
  64   2.0000      -0.396049       -10.7770
  65   2.0000      -0.384852       -10.4724
  66   2.0000      -0.371128       -10.0989
  67   2.0000      -0.363013        -9.8781
  68   2.0000      -0.352570        -9.5939
  69   2.0000      -0.342805        -9.3282
  70   2.0000      -0.319134        -8.6841
  71   2.0000      -0.316214        -8.6046
  72   2.0000      -0.308188        -8.3862
  73   2.0000      -0.298954        -8.1349
  74   2.0000      -0.296616        -8.0713
  75   2.0000      -0.294311        -8.0086
  76   2.0000      -0.270563        -7.3624
  77   0.0000      -0.047562        -1.2942
  78   0.0000      -0.007366        -0.2004
  79   0.0000       0.012454         0.3389
  80   0.0000       0.048781         1.3274
  81   0.0000       0.069656         1.8954

MULLIKEN ATOMIC CHARGES
-----------------------
   0 Pd:    0.536896
   1 O :   -0.487737
   2 C :    0.660853
   3 O :   -0.500677
   4 C :   -0.769297
   5 H :    0.249971
   6 H :    0.263727
   7 H :    0.259196
   8 N :   -0.486654
   9 C :   -0.531249
  10 H :    0.292346
  11 H :    0.217806
  12 H :    0.272453
  13 C :   -0.531614
  14 H :    0.271355
  15 H :    0.224970
  16 H :    0.281565
  17 C :    0.108753
  18 C :   -0.259802
  19 C :   -0.206098
  20 C :   -0.227570
  21 C :   -0.207711
  22 C :   -0.284905
  23 H :    0.226608
  24 H :    0.221838
  25 H :    0.229603
  26 H :    0.232850
  27 H :    0.231497
  28 C :   -0.338670
  29 H :    0.246207
  30 H :    0.260331
  31 O :   -0.548526
  32 C :    0.572778
  33 O :   -0.457214
  34 C :   -0.741931
  35 H :    0.230342
  36 H :    0.247729
  37 H :    0.239980
Sum of atomic charges:    0.0000000

LOEWDIN ATOMIC CHARGES
----------------------
   0 Pd:   -0.278620
   1 O :   -0.138066
   2 C :    0.184991
   3 O :   -0.195675
   4 C :   -0.377181
   5 H :    0.149310
   6 H :    0.165876
   7 H :    0.158409
   8 N :   -0.054328
   9 C :   -0.233707
  10 H :    0.162801
  11 H :    0.119865
  12 H :    0.152162
  13 C :   -0.229677
  14 H :    0.151176
  15 H :    0.124223
  16 H :    0.157231
  17 C :   -0.053639
  18 C :   -0.111634
  19 C :   -0.125734
  20 C :   -0.129752
  21 C :   -0.129728
  22 C :   -0.113076
  23 H :    0.138715
  24 H :    0.139455
  25 H :    0.145306
  26 H :    0.142247
  27 H :    0.147206
  28 C :   -0.109783
  29 H :    0.138582
  30 H :    0.150598
  31 O :   -0.190570
  32 C :    0.135439
  33 O :   -0.249505
  34 C :   -0.380531
  35 H :    0.142773
  36 H :    0.153170
  37 H :    0.141672

  Mayer bond orders larger than 0.100000
B(  0-Pd,  1-O ) :   0.5979 B(  0-Pd,  3-O ) :   0.4375 B(  0-Pd,  8-N ) :   0.4095
B(  0-Pd, 31-O ) :   0.6602 B(  0-Pd, 33-O ) :   0.1208 B(  1-O ,  2-C ) :   1.3785
B(  1-O ,  3-O ) :   0.1017 B(  2-C ,  3-O ) :   1.5500 B(  2-C ,  4-C ) :   0.9578
B(  4-C ,  5-H ) :   0.9105 B(  4-C ,  6-H ) :   0.9006 B(  4-C ,  7-H ) :   0.9069
B(  8-N ,  9-C ) :   0.9152 B(  8-N , 13-C ) :   0.9219 B(  8-N , 28-C ) :   0.8921
B(  9-C , 10-H ) :   0.8877 B(  9-C , 11-H ) :   0.9031 B(  9-C , 12-H ) :   0.9000
B( 13-C , 14-H ) :   0.8954 B( 13-C , 15-H ) :   0.9033 B( 13-C , 16-H ) :   0.8991
B( 17-C , 18-C ) :   1.4250 B( 17-C , 22-C ) :   1.3724 B( 17-C , 28-C ) :   0.9501
B( 18-C , 19-C ) :   1.4296 B( 18-C , 25-H ) :   0.9102 B( 19-C , 20-C ) :   1.4289
B( 19-C , 26-H ) :   0.9146 B( 20-C , 21-C ) :   1.4200 B( 20-C , 23-H ) :   0.9165
B( 21-C , 22-C ) :   1.4388 B( 21-C , 24-H ) :   0.9182 B( 22-C , 27-H ) :   0.9141
B( 28-C , 29-H ) :   0.8944 B( 28-C , 30-H ) :   0.9114 B( 31-O , 32-C ) :   1.2434
B( 32-C , 33-O ) :   1.8618 B( 32-C , 34-C ) :   0.9356 B( 34-C , 35-H ) :   0.9159
B( 34-C , 36-H ) :   0.9105 B( 34-C , 37-H ) :   0.9194

Dispersion correction           -0.025996792
FINAL SINGLE POINT ENERGY      -988.535962566711
Dispersion correction            ... done

DIPOLE MOMENT
-------------
                                X             Y             Z
Electronic contribution:     26.82617      23.40509     -27.94492
Nuclear contribution   :    -28.38975     -23.74800      28.70861
                        -----------------------------------------
Total Dipole Moment    :     -1.56357      -0.34292       0.76369
                        -----------------------------------------
Magnitude (a.u.)       :      1.77357
Magnitude (Debye)      :      4.50807

Rotational constants in cm-1:     0.014069     0.008306     0.007039
Rotational constants in MHz :   421.785451   249.002197   211.014029

                             ****ORCA TERMINATED NORMALLY****
TOTAL RUN TIME: 0 days 0 hours 12 minutes 18 seconds 229 msec
