                         Program Version 5.0.3 -  RELEASE  -
|  1> ! EnGrad PBEh-3c
|  2> %output
|  3> xyzfile=True
|  4> end
|  5> %scf
|  6> maxiter 250
|  7> end
|  8> %output
|  9> Print[P_Hirshfeld] = 1
| 10> end
| 11> % maxcore
| 12> 4000
| 13> *xyz 0 1
| 14> Pd   0.60566690   0.48382747  -0.55509104
| 15> O    2.20139832   1.44365866   0.16518323
| 16> C    1.60693292   2.56222483   0.27032439
| 17> O    0.36972413   2.59700207   0.06740894
| 18> C    2.46642419   3.76021251   0.56182274
| 19> H    1.91747117   4.57040138   1.02627770
| 20> H    2.88003290   4.12647889  -0.37812994
| 21> H    3.30412150   3.47167003   1.19328168
| 22> N   -1.25139682  -0.37012893  -1.16697860
| 23> C   -1.21496665  -1.25834573  -2.34980005
| 24> H   -0.83294086  -0.70900239  -3.20205445
| 25> H   -2.22482911  -1.62801750  -2.57828570
| 26> H   -0.56653889  -2.11103386  -2.16472095
| 27> C   -2.18268061   0.72916293  -1.45756599
| 28> H   -2.27377853   1.38409431  -0.59543104
| 29> H   -3.17546926   0.32572556  -1.69770176
| 30> H   -1.82436893   1.30944099  -2.30214728
| 31> C   -1.47451319  -0.80739180   1.38985735
| 32> C   -0.74422442  -1.76558159   2.07671571
| 33> C   -0.59267215  -1.75572517   3.44799590
| 34> C   -1.32812621  -0.85904102   4.17717751
| 35> C   -1.98735502   0.17673689   3.49758911
| 36> C   -1.96000431   0.28118049   2.12912240
| 37> H   -1.36248744  -0.91710844   5.26592790
| 38> H   -2.56360751   0.87981673   4.09380906
| 39> H   -0.28729338  -2.55981744   1.50936708
| 40> H    0.12069825  -2.39005976   3.92366530
| 41> H   -2.27204183   1.20108780   1.66749471
| 42> C   -1.80102856  -1.16557994  -0.04001746
| 43> H   -2.88792663  -1.20882436  -0.14038914
| 44> H   -1.46092688  -2.19028054  -0.16792733
| 45> O    1.74537742  -1.00943066  -1.18900172
| 46> C    2.22672867  -0.69965251  -2.36299590
| 47> O    1.71163604   0.08483058  -3.13275934
| 48> C    3.53861252  -1.38704767  -2.69592496
| 49> H    3.45985704  -2.46735096  -2.60456303
| 50> H    4.32037792  -1.05368845  -2.01369867
| 51> H    3.83627045  -1.13608749  -3.70871738
| 52> *
| 53>
| 54>                          ****END OF INPUT****

CARTESIAN COORDINATES (ANGSTROEM)
---------------------------------
  Pd     0.605667    0.483827   -0.555091
  O      2.201398    1.443659    0.165183
  C      1.606933    2.562225    0.270324
  O      0.369724    2.597002    0.067409
  C      2.466424    3.760213    0.561823
  H      1.917471    4.570401    1.026278
  H      2.880033    4.126479   -0.378130
  H      3.304121    3.471670    1.193282
  N     -1.251397   -0.370129   -1.166979
  C     -1.214967   -1.258346   -2.349800
  H     -0.832941   -0.709002   -3.202054
  H     -2.224829   -1.628017   -2.578286
  H     -0.566539   -2.111034   -2.164721
  C     -2.182681    0.729163   -1.457566
  H     -2.273779    1.384094   -0.595431
  H     -3.175469    0.325726   -1.697702
  H     -1.824369    1.309441   -2.302147
  C     -1.474513   -0.807392    1.389857
  C     -0.744224   -1.765582    2.076716
  C     -0.592672   -1.755725    3.447996
  C     -1.328126   -0.859041    4.177178
  C     -1.987355    0.176737    3.497589
  C     -1.960004    0.281180    2.129122
  H     -1.362487   -0.917108    5.265928
  H     -2.563608    0.879817    4.093809
  H     -0.287293   -2.559817    1.509367
  H      0.120698   -2.390060    3.923665
  H     -2.272042    1.201088    1.667495
  C     -1.801029   -1.165580   -0.040017
  H     -2.887927   -1.208824   -0.140389
  H     -1.460927   -2.190281   -0.167927
  O      1.745377   -1.009431   -1.189002
  C      2.226729   -0.699653   -2.362996
  O      1.711636    0.084831   -3.132759
  C      3.538613   -1.387048   -2.695925
  H      3.459857   -2.467351   -2.604563
  H      4.320378   -1.053688   -2.013699
  H      3.836270   -1.136087   -3.708717

 Total Charge           Charge          ....    0
 Multiplicity           Mult            ....    1
 Number of Electrons    NEL             ....  154
 Basis Dimension        Dim             ....  339

ORBITAL ENERGIES
----------------

  NO   OCC          E(Eh)            E(eV)
   0   2.0000     -19.499841      -530.6177
   1   2.0000     -19.493340      -530.4408
   2   2.0000     -19.474917      -529.9394
   3   2.0000     -19.435062      -528.8549
   4   2.0000     -14.720421      -400.5630
   5   2.0000     -10.570302      -287.6325
   6   2.0000     -10.532611      -286.6069
   7   2.0000     -10.498564      -285.6805
   8   2.0000     -10.485286      -285.3191
   9   2.0000     -10.477283      -285.1014
  10   2.0000     -10.472685      -284.9762
  11   2.0000     -10.460447      -284.6432
  12   2.0000     -10.456967      -284.5485
  13   2.0000     -10.456103      -284.5250
  14   2.0000     -10.453574      -284.4562
  15   2.0000     -10.450794      -284.3806
  16   2.0000     -10.440019      -284.0874
  17   2.0000     -10.413354      -283.3618
  18   2.0000      -3.657742       -99.5322
  19   2.0000      -2.306761       -62.7702
  20   2.0000      -2.302271       -62.6480
  21   2.0000      -2.266287       -61.6688
  22   2.0000      -1.200890       -32.6779
  23   2.0000      -1.151005       -31.3204
  24   2.0000      -1.084887       -29.5213
  25   2.0000      -1.077553       -29.3217
  26   2.0000      -1.053353       -28.6632
  27   2.0000      -0.974094       -26.5064
  28   2.0000      -0.880520       -23.9602
  29   2.0000      -0.851313       -23.1654
  30   2.0000      -0.830516       -22.5995
  31   2.0000      -0.821564       -22.3559
  32   2.0000      -0.798862       -21.7381
  33   2.0000      -0.795887       -21.6572
  34   2.0000      -0.720568       -19.6076
  35   2.0000      -0.693829       -18.8800
  36   2.0000      -0.673571       -18.3288
  37   2.0000      -0.614876       -16.7316
  38   2.0000      -0.602991       -16.4082
  39   2.0000      -0.586079       -15.9480
  40   2.0000      -0.574839       -15.6422
  41   2.0000      -0.569553       -15.4983
  42   2.0000      -0.560636       -15.2557
  43   2.0000      -0.545392       -14.8409
  44   2.0000      -0.544085       -14.8053
  45   2.0000      -0.526892       -14.3375
  46   2.0000      -0.526535       -14.3277
  47   2.0000      -0.524187       -14.2639
  48   2.0000      -0.509432       -13.8623
  49   2.0000      -0.497091       -13.5265
  50   2.0000      -0.493937       -13.4407
  51   2.0000      -0.491578       -13.3765
  52   2.0000      -0.485745       -13.2178
  53   2.0000      -0.478954       -13.0330
  54   2.0000      -0.459575       -12.5057
  55   2.0000      -0.457926       -12.4608
  56   2.0000      -0.450164       -12.2496
  57   2.0000      -0.445931       -12.1344
  58   2.0000      -0.442627       -12.0445
  59   2.0000      -0.433412       -11.7937
  60   2.0000      -0.431440       -11.7401
  61   2.0000      -0.418932       -11.3997
  62   2.0000      -0.414743       -11.2857
  63   2.0000      -0.406591       -11.0639
  64   2.0000      -0.394635       -10.7386
  65   2.0000      -0.384770       -10.4701
  66   2.0000      -0.371696       -10.1144
  67   2.0000      -0.363657        -9.8956
  68   2.0000      -0.352196        -9.5838
  69   2.0000      -0.343043        -9.3347
  70   2.0000      -0.319156        -8.6847
  71   2.0000      -0.315451        -8.5839
  72   2.0000      -0.307871        -8.3776
  73   2.0000      -0.301441        -8.2026
  74   2.0000      -0.297269        -8.0891
  75   2.0000      -0.293257        -7.9799
  76   2.0000      -0.270914        -7.3719
  77   0.0000      -0.047349        -1.2884
  78   0.0000      -0.005994        -0.1631
  79   0.0000       0.011605         0.3158
  80   0.0000       0.048610         1.3227
  81   0.0000       0.069922         1.9027

MULLIKEN ATOMIC CHARGES
-----------------------
   0 Pd:    0.533371
   1 O :   -0.488688
   2 C :    0.660551
   3 O :   -0.498964
   4 C :   -0.767533
   5 H :    0.248960
   6 H :    0.262845
   7 H :    0.258840
   8 N :   -0.484624
   9 C :   -0.533568
  10 H :    0.292770
  11 H :    0.218528
  12 H :    0.273146
  13 C :   -0.533489
  14 H :    0.271845
  15 H :    0.225124
  16 H :    0.281870
  17 C :    0.096631
  18 C :   -0.254954
  19 C :   -0.205137
  20 C :   -0.229274
  21 C :   -0.215773
  22 C :   -0.266280
  23 H :    0.225780
  24 H :    0.224953
  25 H :    0.229910
  26 H :    0.231249
  27 H :    0.232506
  28 C :   -0.340617
  29 H :    0.244714
  30 H :    0.259724
  31 O :   -0.550731
  32 C :    0.571463
  33 O :   -0.450979
  34 C :   -0.741749
  35 H :    0.230645
  36 H :    0.247876
  37 H :    0.239059
Sum of atomic charges:   -0.0000000

LOEWDIN ATOMIC CHARGES
----------------------
   0 Pd:   -0.279714
   1 O :   -0.140419
   2 C :    0.187974
   3 O :   -0.193905
   4 C :   -0.377742
   5 H :    0.148960
   6 H :    0.165189
   7 H :    0.157912
   8 N :   -0.055360
   9 C :   -0.234912
  10 H :    0.162228
  11 H :    0.119612
  12 H :    0.151977
  13 C :   -0.231099
  14 H :    0.150941
  15 H :    0.123499
  16 H :    0.156818
  17 C :   -0.049894
  18 C :   -0.110627
  19 C :   -0.128979
  20 C :   -0.128206
  21 C :   -0.128235
  22 C :   -0.114943
  23 H :    0.139065
  24 H :    0.139481
  25 H :    0.146053
  26 H :    0.141813
  27 H :    0.146846
  28 C :   -0.107291
  29 H :    0.137484
  30 H :    0.150498
  31 O :   -0.193711
  32 C :    0.136023
  33 O :   -0.242792
  34 C :   -0.381459
  35 H :    0.142651
  36 H :    0.152873
  37 H :    0.141391

  Mayer bond orders larger than 0.100000
B(  0-Pd,  1-O ) :   0.5987 B(  0-Pd,  3-O ) :   0.4359 B(  0-Pd,  8-N ) :   0.4088
B(  0-Pd, 31-O ) :   0.6644 B(  0-Pd, 33-O ) :   0.1194 B(  1-O ,  2-C ) :   1.3752
B(  1-O ,  3-O ) :   0.1022 B(  2-C ,  3-O ) :   1.5517 B(  2-C ,  4-C ) :   0.9557
B(  4-C ,  5-H ) :   0.9110 B(  4-C ,  6-H ) :   0.9011 B(  4-C ,  7-H ) :   0.9070
B(  8-N ,  9-C ) :   0.9174 B(  8-N , 13-C ) :   0.9242 B(  8-N , 28-C ) :   0.8909
B(  9-C , 10-H ) :   0.8879 B(  9-C , 11-H ) :   0.9031 B(  9-C , 12-H ) :   0.8999
B( 13-C , 14-H ) :   0.8957 B( 13-C , 15-H ) :   0.9032 B( 13-C , 16-H ) :   0.8992
B( 17-C , 18-C ) :   1.4353 B( 17-C , 22-C ) :   1.3631 B( 17-C , 28-C ) :   0.9490
B( 18-C , 19-C ) :   1.4132 B( 18-C , 25-H ) :   0.9106 B( 19-C , 20-C ) :   1.4485
B( 19-C , 26-H ) :   0.9148 B( 20-C , 21-C ) :   1.3974 B( 20-C , 23-H ) :   0.9170
B( 21-C , 22-C ) :   1.4643 B( 21-C , 24-H ) :   0.9174 B( 22-C , 27-H ) :   0.9146
B( 28-C , 29-H ) :   0.8941 B( 28-C , 30-H ) :   0.9118 B( 31-O , 32-C ) :   1.2360
B( 32-C , 33-O ) :   1.8701 B( 32-C , 34-C ) :   0.9344 B( 34-C , 35-H ) :   0.9160
B( 34-C , 36-H ) :   0.9105 B( 34-C , 37-H ) :   0.9198

Dispersion correction           -0.025984226
FINAL SINGLE POINT ENERGY      -988.538170894288
Dispersion correction            ... done

DIPOLE MOMENT
-------------
                                X             Y             Z
Electronic contribution:     26.84468      23.52080     -27.97072
Nuclear contribution   :    -28.42592     -23.85274      28.72546
                        -----------------------------------------
Total Dipole Moment    :     -1.58124      -0.33195       0.75474
                        -----------------------------------------
Magnitude (a.u.)       :      1.78330
Magnitude (Debye)      :      4.53278

Rotational constants in cm-1:     0.014060     0.008303     0.007040
Rotational constants in MHz :   421.521594   248.907941   211.057258

                             ****ORCA TERMINATED NORMALLY****
TOTAL RUN TIME: 0 days 0 hours 12 minutes 17 seconds 606 msec
