                         Program Version 5.0.3 -  RELEASE  -
|  1> ! EnGrad PBEh-3c
|  2> %output
|  3> xyzfile=True
|  4> end
|  5> %scf
|  6> maxiter 250
|  7> end
|  8> %output
|  9> Print[P_Hirshfeld] = 1
| 10> end
| 11> % maxcore
| 12> 4000
| 13> *xyz 0 1
| 14> Pd   0.60875803   0.48557647  -0.55544150
| 15> O    2.20320691   1.44174351   0.15748825
| 16> C    1.60682791   2.55928420   0.26915537
| 17> O    0.36747308   2.59371029   0.07164183
| 18> C    2.46463126   3.75776108   0.56150965
| 19> H    1.91163712   4.56751572   1.02561648
| 20> H    2.87907711   4.12550009  -0.37934069
| 21> H    3.30417174   3.47195253   1.19491103
| 22> N   -1.25152712  -0.36702482  -1.16653428
| 23> C   -1.21167502  -1.25523458  -2.34708212
| 24> H   -0.82984716  -0.70711295  -3.19823554
| 25> H   -2.22004100  -1.62381923  -2.57186945
| 26> H   -0.56336198  -2.10614640  -2.15850968
| 27> C   -2.17938633   0.73280736  -1.45694411
| 28> H   -2.27254041   1.38844018  -0.59611129
| 29> H   -3.16926406   0.32937072  -1.69906029
| 30> H   -1.82016481   1.31124318  -2.30126728
| 31> C   -1.47256203  -0.80332562   1.39137634
| 32> C   -0.73433327  -1.76794396   2.07642334
| 33> C   -0.59055444  -1.75503841   3.44844811
| 34> C   -1.31497890  -0.84342084   4.17382375
| 35> C   -1.97931277   0.18522657   3.49261619
| 36> C   -1.96671462   0.27519184   2.11869458
| 37> H   -1.36477131  -0.90643229   5.26152844
| 38> H   -2.53274560   0.88704551   4.09057823
| 39> H   -0.28075474  -2.57221175   1.51717857
| 40> H    0.10801925  -2.41299316   3.93762431
| 41> H   -2.33274279   1.17726208   1.65817438
| 42> C   -1.79757281  -1.16617912  -0.03771150
| 43> H   -2.88719729  -1.20156645  -0.13296655
| 44> H   -1.45916992  -2.19312540  -0.17738887
| 45> O    1.73964186  -1.01300792  -1.19234840
| 46> C    2.22410850  -0.69906261  -2.36398488
| 47> O    1.71196643   0.08674394  -3.13363235
| 48> C    3.53596440  -1.38763214  -2.69503517
| 49> H    3.45896456  -2.46907137  -2.60478550
| 50> H    4.31710596  -1.05362237  -2.01138334
| 51> H    3.83301341  -1.13399822  -3.70780251
| 52> *
| 53>
| 54>                          ****END OF INPUT****

CARTESIAN COORDINATES (ANGSTROEM)
---------------------------------
  Pd     0.608758    0.485576   -0.555442
  O      2.203207    1.441744    0.157488
  C      1.606828    2.559284    0.269155
  O      0.367473    2.593710    0.071642
  C      2.464631    3.757761    0.561510
  H      1.911637    4.567516    1.025616
  H      2.879077    4.125500   -0.379341
  H      3.304172    3.471953    1.194911
  N     -1.251527   -0.367025   -1.166534
  C     -1.211675   -1.255235   -2.347082
  H     -0.829847   -0.707113   -3.198236
  H     -2.220041   -1.623819   -2.571869
  H     -0.563362   -2.106146   -2.158510
  C     -2.179386    0.732807   -1.456944
  H     -2.272540    1.388440   -0.596111
  H     -3.169264    0.329371   -1.699060
  H     -1.820165    1.311243   -2.301267
  C     -1.472562   -0.803326    1.391376
  C     -0.734333   -1.767944    2.076423
  C     -0.590554   -1.755038    3.448448
  C     -1.314979   -0.843421    4.173824
  C     -1.979313    0.185227    3.492616
  C     -1.966715    0.275192    2.118695
  H     -1.364771   -0.906432    5.261528
  H     -2.532746    0.887046    4.090578
  H     -0.280755   -2.572212    1.517179
  H      0.108019   -2.412993    3.937624
  H     -2.332743    1.177262    1.658174
  C     -1.797573   -1.166179   -0.037712
  H     -2.887197   -1.201566   -0.132967
  H     -1.459170   -2.193125   -0.177389
  O      1.739642   -1.013008   -1.192348
  C      2.224108   -0.699063   -2.363985
  O      1.711966    0.086744   -3.133632
  C      3.535964   -1.387632   -2.695035
  H      3.458965   -2.469071   -2.604785
  H      4.317106   -1.053622   -2.011383
  H      3.833013   -1.133998   -3.707803

 Total Charge           Charge          ....    0
 Multiplicity           Mult            ....    1
 Number of Electrons    NEL             ....  154
 Basis Dimension        Dim             ....  339

ORBITAL ENERGIES
----------------

  NO   OCC          E(Eh)            E(eV)
   0   2.0000     -19.500357      -530.6317
   1   2.0000     -19.493805      -530.4534
   2   2.0000     -19.474530      -529.9289
   3   2.0000     -19.435060      -528.8549
   4   2.0000     -14.719512      -400.5383
   5   2.0000     -10.570805      -287.6462
   6   2.0000     -10.532404      -286.6013
   7   2.0000     -10.498679      -285.6836
   8   2.0000     -10.484491      -285.2975
   9   2.0000     -10.476216      -285.0723
  10   2.0000     -10.472673      -284.9759
  11   2.0000     -10.460351      -284.6406
  12   2.0000     -10.456188      -284.5273
  13   2.0000     -10.455651      -284.5127
  14   2.0000     -10.454738      -284.4879
  15   2.0000     -10.452194      -284.4187
  16   2.0000     -10.440658      -284.1048
  17   2.0000     -10.413246      -283.3588
  18   2.0000      -3.657353       -99.5216
  19   2.0000      -2.306461       -62.7620
  20   2.0000      -2.301859       -62.6368
  21   2.0000      -2.265906       -61.6584
  22   2.0000      -1.200907       -32.6783
  23   2.0000      -1.150971       -31.3195
  24   2.0000      -1.085188       -29.5295
  25   2.0000      -1.077158       -29.3110
  26   2.0000      -1.053401       -28.6645
  27   2.0000      -0.973906       -26.5013
  28   2.0000      -0.880188       -23.9511
  29   2.0000      -0.851368       -23.1669
  30   2.0000      -0.830456       -22.5979
  31   2.0000      -0.821837       -22.3633
  32   2.0000      -0.798458       -21.7271
  33   2.0000      -0.795451       -21.6453
  34   2.0000      -0.719916       -19.5899
  35   2.0000      -0.694699       -18.9037
  36   2.0000      -0.673230       -18.3195
  37   2.0000      -0.615074       -16.7370
  38   2.0000      -0.602698       -16.4002
  39   2.0000      -0.585862       -15.9421
  40   2.0000      -0.574951       -15.6452
  41   2.0000      -0.569012       -15.4836
  42   2.0000      -0.560018       -15.2389
  43   2.0000      -0.545753       -14.8507
  44   2.0000      -0.544365       -14.8129
  45   2.0000      -0.527193       -14.3457
  46   2.0000      -0.526769       -14.3341
  47   2.0000      -0.523759       -14.2522
  48   2.0000      -0.509287       -13.8584
  49   2.0000      -0.496950       -13.5227
  50   2.0000      -0.494685       -13.4611
  51   2.0000      -0.491298       -13.3689
  52   2.0000      -0.485451       -13.2098
  53   2.0000      -0.478891       -13.0313
  54   2.0000      -0.459304       -12.4983
  55   2.0000      -0.457752       -12.4561
  56   2.0000      -0.449512       -12.2318
  57   2.0000      -0.445867       -12.1327
  58   2.0000      -0.442110       -12.0304
  59   2.0000      -0.433086       -11.7849
  60   2.0000      -0.431179       -11.7330
  61   2.0000      -0.418598       -11.3906
  62   2.0000      -0.414523       -11.2797
  63   2.0000      -0.407467       -11.0877
  64   2.0000      -0.395139       -10.7523
  65   2.0000      -0.384740       -10.4693
  66   2.0000      -0.371641       -10.1129
  67   2.0000      -0.363775        -9.8988
  68   2.0000      -0.351811        -9.5733
  69   2.0000      -0.342824        -9.3287
  70   2.0000      -0.318964        -8.6794
  71   2.0000      -0.315287        -8.5794
  72   2.0000      -0.307552        -8.3689
  73   2.0000      -0.302329        -8.2268
  74   2.0000      -0.297252        -8.0886
  75   2.0000      -0.293305        -7.9812
  76   2.0000      -0.270743        -7.3673
  77   0.0000      -0.046204        -1.2573
  78   0.0000      -0.004417        -0.1202
  79   0.0000       0.010685         0.2907
  80   0.0000       0.048064         1.3079
  81   0.0000       0.070403         1.9158

MULLIKEN ATOMIC CHARGES
-----------------------
   0 Pd:    0.533458
   1 O :   -0.489532
   2 C :    0.662673
   3 O :   -0.499139
   4 C :   -0.767594
   5 H :    0.248853
   6 H :    0.262746
   7 H :    0.258713
   8 N :   -0.483794
   9 C :   -0.534176
  10 H :    0.292760
  11 H :    0.218681
  12 H :    0.273162
  13 C :   -0.533833
  14 H :    0.272122
  15 H :    0.224901
  16 H :    0.281934
  17 C :    0.099764
  18 C :   -0.251097
  19 C :   -0.209731
  20 C :   -0.226628
  21 C :   -0.215930
  22 C :   -0.263426
  23 H :    0.225561
  24 H :    0.226273
  25 H :    0.229819
  26 H :    0.229732
  27 H :    0.228354
  28 C :   -0.342212
  29 H :    0.243164
  30 H :    0.259245
  31 O :   -0.551301
  32 C :    0.571828
  33 O :   -0.450395
  34 C :   -0.741742
  35 H :    0.230464
  36 H :    0.247606
  37 H :    0.238715
Sum of atomic charges:   -0.0000000

LOEWDIN ATOMIC CHARGES
----------------------
   0 Pd:   -0.281689
   1 O :   -0.139704
   2 C :    0.189481
   3 O :   -0.193584
   4 C :   -0.377496
   5 H :    0.149092
   6 H :    0.165303
   7 H :    0.158023
   8 N :   -0.055940
   9 C :   -0.235121
  10 H :    0.162059
  11 H :    0.119411
  12 H :    0.151997
  13 C :   -0.231546
  14 H :    0.150930
  15 H :    0.123161
  16 H :    0.156798
  17 C :   -0.049729
  18 C :   -0.110046
  19 C :   -0.128197
  20 C :   -0.128662
  21 C :   -0.127776
  22 C :   -0.114410
  23 H :    0.138832
  24 H :    0.139096
  25 H :    0.146360
  26 H :    0.141583
  27 H :    0.145941
  28 C :   -0.106123
  29 H :    0.137088
  30 H :    0.150395
  31 O :   -0.194340
  32 C :    0.135772
  33 O :   -0.242151
  34 C :   -0.381502
  35 H :    0.142564
  36 H :    0.152834
  37 H :    0.141296

  Mayer bond orders larger than 0.100000
B(  0-Pd,  1-O ) :   0.5991 B(  0-Pd,  3-O ) :   0.4375 B(  0-Pd,  8-N ) :   0.4086
B(  0-Pd, 31-O ) :   0.6636 B(  0-Pd, 33-O ) :   0.1194 B(  1-O ,  2-C ) :   1.3740
B(  1-O ,  3-O ) :   0.1024 B(  2-C ,  3-O ) :   1.5496 B(  2-C ,  4-C ) :   0.9554
B(  4-C ,  5-H ) :   0.9111 B(  4-C ,  6-H ) :   0.9010 B(  4-C ,  7-H ) :   0.9070
B(  8-N ,  9-C ) :   0.9180 B(  8-N , 13-C ) :   0.9248 B(  8-N , 28-C ) :   0.8908
B(  9-C , 10-H ) :   0.8879 B(  9-C , 11-H ) :   0.9031 B(  9-C , 12-H ) :   0.8998
B( 13-C , 14-H ) :   0.8956 B( 13-C , 15-H ) :   0.9032 B( 13-C , 16-H ) :   0.8991
B( 17-C , 18-C ) :   1.4217 B( 17-C , 22-C ) :   1.3740 B( 17-C , 28-C ) :   0.9465
B( 18-C , 19-C ) :   1.4232 B( 18-C , 25-H ) :   0.9113 B( 19-C , 20-C ) :   1.4379
B( 19-C , 26-H ) :   0.9153 B( 20-C , 21-C ) :   1.4095 B( 20-C , 23-H ) :   0.9169
B( 21-C , 22-C ) :   1.4532 B( 21-C , 24-H ) :   0.9167 B( 22-C , 27-H ) :   0.9169
B( 28-C , 29-H ) :   0.8952 B( 28-C , 30-H ) :   0.9122 B( 31-O , 32-C ) :   1.2357
B( 32-C , 33-O ) :   1.8708 B( 32-C , 34-C ) :   0.9340 B( 34-C , 35-H ) :   0.9162
B( 34-C , 36-H ) :   0.9106 B( 34-C , 37-H ) :   0.9199

Dispersion correction           -0.025993449
FINAL SINGLE POINT ENERGY      -988.541059118071
Dispersion correction            ... done

DIPOLE MOMENT
-------------
                                X             Y             Z
Electronic contribution:     26.98727      23.61101     -27.95506
Nuclear contribution   :    -28.57833     -23.93901      28.72915
                        -----------------------------------------
Total Dipole Moment    :     -1.59107      -0.32800       0.77409
                        -----------------------------------------
Magnitude (a.u.)       :      1.79952
Magnitude (Debye)      :      4.57402

Rotational constants in cm-1:     0.014074     0.008314     0.007052
Rotational constants in MHz :   421.940714   249.253349   211.421352

                             ****ORCA TERMINATED NORMALLY****
TOTAL RUN TIME: 0 days 0 hours 12 minutes 44 seconds 943 msec
