                         Program Version 5.0.3 -  RELEASE  -
|  1> ! EnGrad PBEh-3c
|  2> %output
|  3> xyzfile=True
|  4> end
|  5> %scf
|  6> maxiter 250
|  7> end
|  8> %output
|  9> Print[P_Hirshfeld] = 1
| 10> end
| 11> % maxcore
| 12> 4000
| 13> *xyz 0 1
| 14> Pd   0.61462619   0.48834580  -0.55836075
| 15> O    2.20895994   1.44215022   0.13889954
| 16> C    1.60872426   2.55389137   0.26621158
| 17> O    0.36481890   2.58332257   0.08107376
| 18> C    2.45932207   3.75399022   0.56094185
| 19> H    1.89486814   4.55976070   1.02290832
| 20> H    2.87508579   4.12598905  -0.38105361
| 21> H    3.30423525   3.47807807   1.19843462
| 22> N   -1.24714214  -0.35803212  -1.15905221
| 23> C   -1.20233779  -1.24096306  -2.33937888
| 24> H   -0.82166170  -0.69403943  -3.19062790
| 25> H   -2.20921215  -1.60726206  -2.55684052
| 26> H   -0.55374649  -2.08855427  -2.14728084
| 27> C   -2.16826920   0.74462232  -1.45073882
| 28> H   -2.26716383   1.40138108  -0.59278402
| 29> H   -3.15307205   0.34309971  -1.69936184
| 30> H   -1.80666948   1.31853213  -2.29651991
| 31> C   -1.45995024  -0.81127136   1.38598656
| 32> C   -0.70178054  -1.76891214   2.07368049
| 33> C   -0.57264559  -1.75417803   3.44959318
| 34> C   -1.27534878  -0.79510564   4.16317921
| 35> C   -1.95524874   0.19154293   3.48276567
| 36> C   -1.99685668   0.25373057   2.09384179
| 37> H   -1.36530295  -0.86840756   5.24121568
| 38> H   -2.46442044   0.90341706   4.08430663
| 39> H   -0.25686025  -2.59871148   1.53921384
| 40> H    0.06888783  -2.47092525   3.97327977
| 41> H   -2.51441796   1.10785127   1.63736571
| 42> C   -1.78914761  -1.16997703  -0.03532558
| 43> H   -2.88327253  -1.18604780  -0.11606950
| 44> H   -1.45184051  -2.19706897  -0.20563661
| 45> O    1.72374848  -1.02152380  -1.20213300
| 46> C    2.21928666  -0.70380264  -2.36372182
| 47> O    1.71327676   0.09439090  -3.13730359
| 48> C    3.52589914  -1.39437315  -2.69089750
| 49> H    3.45241871  -2.47866145  -2.60184955
| 50> H    4.30691733  -1.06126692  -2.00334439
| 51> H    3.82173865  -1.13555917  -3.70367012
| 52> *
| 53>
| 54>                          ****END OF INPUT****

CARTESIAN COORDINATES (ANGSTROEM)
---------------------------------
  Pd     0.614626    0.488346   -0.558361
  O      2.208960    1.442150    0.138900
  C      1.608724    2.553891    0.266212
  O      0.364819    2.583323    0.081074
  C      2.459322    3.753990    0.560942
  H      1.894868    4.559761    1.022908
  H      2.875086    4.125989   -0.381054
  H      3.304235    3.478078    1.198435
  N     -1.247142   -0.358032   -1.159052
  C     -1.202338   -1.240963   -2.339379
  H     -0.821662   -0.694039   -3.190628
  H     -2.209212   -1.607262   -2.556841
  H     -0.553746   -2.088554   -2.147281
  C     -2.168269    0.744622   -1.450739
  H     -2.267164    1.401381   -0.592784
  H     -3.153072    0.343100   -1.699362
  H     -1.806669    1.318532   -2.296520
  C     -1.459950   -0.811271    1.385987
  C     -0.701781   -1.768912    2.073680
  C     -0.572646   -1.754178    3.449593
  C     -1.275349   -0.795106    4.163179
  C     -1.955249    0.191543    3.482766
  C     -1.996857    0.253731    2.093842
  H     -1.365303   -0.868408    5.241216
  H     -2.464420    0.903417    4.084307
  H     -0.256860   -2.598711    1.539214
  H      0.068888   -2.470925    3.973280
  H     -2.514418    1.107851    1.637366
  C     -1.789148   -1.169977   -0.035326
  H     -2.883273   -1.186048   -0.116069
  H     -1.451841   -2.197069   -0.205637
  O      1.723748   -1.021524   -1.202133
  C      2.219287   -0.703803   -2.363722
  O      1.713277    0.094391   -3.137304
  C      3.525899   -1.394373   -2.690898
  H      3.452419   -2.478661   -2.601850
  H      4.306917   -1.061267   -2.003344
  H      3.821739   -1.135559   -3.703670

 Total Charge           Charge          ....    0
 Multiplicity           Mult            ....    1
 Number of Electrons    NEL             ....  154
 Basis Dimension        Dim             ....  339

ORBITAL ENERGIES
----------------

  NO   OCC          E(Eh)            E(eV)
   0   2.0000     -19.500679      -530.6405
   1   2.0000     -19.493953      -530.4574
   2   2.0000     -19.474600      -529.9308
   3   2.0000     -19.433569      -528.8143
   4   2.0000     -14.718374      -400.5073
   5   2.0000     -10.570926      -287.6495
   6   2.0000     -10.532168      -286.5949
   7   2.0000     -10.498232      -285.6714
   8   2.0000     -10.483197      -285.2623
   9   2.0000     -10.474367      -285.0220
  10   2.0000     -10.473392      -284.9955
  11   2.0000     -10.464121      -284.7432
  12   2.0000     -10.457249      -284.5562
  13   2.0000     -10.456487      -284.5355
  14   2.0000     -10.454311      -284.4763
  15   2.0000     -10.453352      -284.4502
  16   2.0000     -10.441420      -284.1255
  17   2.0000     -10.413416      -283.3635
  18   2.0000      -3.656776       -99.5059
  19   2.0000      -2.306052       -62.7509
  20   2.0000      -2.301281       -62.6210
  21   2.0000      -2.265276       -61.6413
  22   2.0000      -1.201381       -32.6912
  23   2.0000      -1.149087       -31.2682
  24   2.0000      -1.085465       -29.5370
  25   2.0000      -1.077266       -29.3139
  26   2.0000      -1.051555       -28.6143
  27   2.0000      -0.973045       -26.4779
  28   2.0000      -0.881374       -23.9834
  29   2.0000      -0.849655       -23.1203
  30   2.0000      -0.830417       -22.5968
  31   2.0000      -0.822311       -22.3762
  32   2.0000      -0.798415       -21.7260
  33   2.0000      -0.795625       -21.6501
  34   2.0000      -0.719462       -19.5776
  35   2.0000      -0.695351       -18.9215
  36   2.0000      -0.672274       -18.2935
  37   2.0000      -0.615182       -16.7399
  38   2.0000      -0.601796       -16.3757
  39   2.0000      -0.586444       -15.9579
  40   2.0000      -0.575837       -15.6693
  41   2.0000      -0.568120       -15.4593
  42   2.0000      -0.559057       -15.2127
  43   2.0000      -0.546254       -14.8643
  44   2.0000      -0.544799       -14.8247
  45   2.0000      -0.527359       -14.3502
  46   2.0000      -0.526578       -14.3289
  47   2.0000      -0.523814       -14.2537
  48   2.0000      -0.508737       -13.8434
  49   2.0000      -0.496400       -13.5077
  50   2.0000      -0.493753       -13.4357
  51   2.0000      -0.490519       -13.3477
  52   2.0000      -0.486043       -13.2259
  53   2.0000      -0.478026       -13.0077
  54   2.0000      -0.459447       -12.5022
  55   2.0000      -0.457608       -12.4522
  56   2.0000      -0.448097       -12.1933
  57   2.0000      -0.445404       -12.1200
  58   2.0000      -0.440495       -11.9865
  59   2.0000      -0.432559       -11.7705
  60   2.0000      -0.430493       -11.7143
  61   2.0000      -0.417816       -11.3694
  62   2.0000      -0.413103       -11.2411
  63   2.0000      -0.406494       -11.0613
  64   2.0000      -0.399143       -10.8612
  65   2.0000      -0.384822       -10.4715
  66   2.0000      -0.370987       -10.0951
  67   2.0000      -0.362929        -9.8758
  68   2.0000      -0.351018        -9.5517
  69   2.0000      -0.342252        -9.3131
  70   2.0000      -0.318669        -8.6714
  71   2.0000      -0.315103        -8.5744
  72   2.0000      -0.307423        -8.3654
  73   2.0000      -0.302751        -8.2383
  74   2.0000      -0.296555        -8.0697
  75   2.0000      -0.294256        -8.0071
  76   2.0000      -0.269754        -7.3404
  77   0.0000      -0.043900        -1.1946
  78   0.0000      -0.003663        -0.0997
  79   0.0000       0.010117         0.2753
  80   0.0000       0.047711         1.2983
  81   0.0000       0.072045         1.9604

MULLIKEN ATOMIC CHARGES
-----------------------
   0 Pd:    0.536150
   1 O :   -0.489812
   2 C :    0.666800
   3 O :   -0.500246
   4 C :   -0.768347
   5 H :    0.248743
   6 H :    0.262625
   7 H :    0.258329
   8 N :   -0.483770
   9 C :   -0.536214
  10 H :    0.293399
  11 H :    0.219100
  12 H :    0.273353
  13 C :   -0.534647
  14 H :    0.273089
  15 H :    0.224602
  16 H :    0.282573
  17 C :    0.100410
  18 C :   -0.240131
  19 C :   -0.224161
  20 C :   -0.214804
  21 C :   -0.215043
  22 C :   -0.254982
  23 H :    0.224834
  24 H :    0.227245
  25 H :    0.227703
  26 H :    0.228330
  27 H :    0.218594
  28 C :   -0.344544
  29 H :    0.241148
  30 H :    0.258055
  31 O :   -0.550359
  32 C :    0.574982
  33 O :   -0.458071
  34 C :   -0.741512
  35 H :    0.230036
  36 H :    0.247302
  37 H :    0.239240
Sum of atomic charges:   -0.0000000

LOEWDIN ATOMIC CHARGES
----------------------
   0 Pd:   -0.285970
   1 O :   -0.137462
   2 C :    0.190410
   3 O :   -0.193090
   4 C :   -0.376990
   5 H :    0.149341
   6 H :    0.165582
   7 H :    0.158229
   8 N :   -0.055263
   9 C :   -0.235469
  10 H :    0.162181
  11 H :    0.119088
  12 H :    0.151973
  13 C :   -0.232318
  14 H :    0.151374
  15 H :    0.122600
  16 H :    0.157226
  17 C :   -0.050596
  18 C :   -0.109207
  19 C :   -0.124702
  20 C :   -0.130825
  21 C :   -0.128423
  22 C :   -0.111495
  23 H :    0.138481
  24 H :    0.138080
  25 H :    0.146757
  26 H :    0.141323
  27 H :    0.144631
  28 C :   -0.104557
  29 H :    0.137105
  30 H :    0.150474
  31 O :   -0.192206
  32 C :    0.137751
  33 O :   -0.250954
  34 C :   -0.380650
  35 H :    0.142515
  36 H :    0.153160
  37 H :    0.141895

  Mayer bond orders larger than 0.100000
B(  0-Pd,  1-O ) :   0.5972 B(  0-Pd,  3-O ) :   0.4434 B(  0-Pd,  8-N ) :   0.4103
B(  0-Pd, 31-O ) :   0.6577 B(  0-Pd, 33-O ) :   0.1212 B(  1-O ,  2-C ) :   1.3765
B(  1-O ,  3-O ) :   0.1027 B(  2-C ,  3-O ) :   1.5424 B(  2-C ,  4-C ) :   0.9553
B(  4-C ,  5-H ) :   0.9111 B(  4-C ,  6-H ) :   0.9008 B(  4-C ,  7-H ) :   0.9071
B(  8-N ,  9-C ) :   0.9185 B(  8-N , 13-C ) :   0.9251 B(  8-N , 28-C ) :   0.8909
B(  9-C , 10-H ) :   0.8873 B(  9-C , 11-H ) :   0.9028 B(  9-C , 12-H ) :   0.8993
B( 13-C , 14-H ) :   0.8951 B( 13-C , 15-H ) :   0.9031 B( 13-C , 16-H ) :   0.8987
B( 17-C , 18-C ) :   1.3972 B( 17-C , 22-C ) :   1.3900 B( 17-C , 28-C ) :   0.9437
B( 18-C , 19-C ) :   1.4454 B( 18-C , 25-H ) :   0.9135 B( 19-C , 20-C ) :   1.4105
B( 19-C , 26-H ) :   0.9156 B( 20-C , 21-C ) :   1.4416 B( 20-C , 23-H ) :   0.9166
B( 21-C , 22-C ) :   1.4258 B( 21-C , 24-H ) :   0.9155 B( 22-C , 27-H ) :   0.9218
B( 28-C , 29-H ) :   0.8975 B( 28-C , 30-H ) :   0.9132 B( 31-O , 32-C ) :   1.2426
B( 32-C , 33-O ) :   1.8600 B( 32-C , 34-C ) :   0.9348 B( 34-C , 35-H ) :   0.9161
B( 34-C , 36-H ) :   0.9103 B( 34-C , 37-H ) :   0.9199

Dispersion correction           -0.026024679
FINAL SINGLE POINT ENERGY      -988.545367504105
Dispersion correction            ... done

DIPOLE MOMENT
-------------
                                X             Y             Z
Electronic contribution:     27.21300      23.72452     -28.01531
Nuclear contribution   :    -28.83729     -24.07497      28.84807
                        -----------------------------------------
Total Dipole Moment    :     -1.62429      -0.35046       0.83276
                        -----------------------------------------
Magnitude (a.u.)       :      1.85866
Magnitude (Debye)      :      4.72433

Rotational constants in cm-1:     0.014104     0.008348     0.007088
Rotational constants in MHz :   422.840974   250.276541   212.482908

                             ****ORCA TERMINATED NORMALLY****
TOTAL RUN TIME: 0 days 0 hours 12 minutes 10 seconds 598 msec
