                         Program Version 5.0.3 -  RELEASE  -
|  1> ! EnGrad PBEh-3c
|  2> %output
|  3> xyzfile=True
|  4> end
|  5> %scf
|  6> maxiter 250
|  7> end
|  8> %output
|  9> Print[P_Hirshfeld] = 1
| 10> end
| 11> % maxcore
| 12> 4000
| 13> *xyz 0 1
| 14> Pd   0.61479418   0.48875863  -0.55845213
| 15> O    2.20939734   1.43870465   0.13027386
| 16> C    1.61006156   2.54943085   0.26586743
| 17> O    0.36588583   2.57586892   0.08613334
| 18> C    2.45672147   3.75159327   0.56118746
| 19> H    1.89070540   4.55748007   1.02273562
| 20> H    2.87522922   4.12238124  -0.38075149
| 21> H    3.30212505   3.47637951   1.19846542
| 22> N   -1.24615805  -0.35803531  -1.15227056
| 23> C   -1.19813972  -1.23902749  -2.33350043
| 24> H   -0.81682426  -0.69674171  -3.18895445
| 25> H   -2.20405445  -1.60756527  -2.55074023
| 26> H   -0.54984618  -2.08671221  -2.13977918
| 27> C   -2.16433015   0.74617767  -1.45153136
| 28> H   -2.26700684   1.40555239  -0.59622905
| 29> H   -3.14871924   0.34580382  -1.70317023
| 30> H   -1.80059339   1.31842365  -2.29893262
| 31> C   -1.44794142  -0.81545333   1.38480666
| 32> C   -0.69779846  -1.77420790   2.07467245
| 33> C   -0.56850786  -1.75315201   3.45667023
| 34> C   -1.26327860  -0.78316348   4.16386093
| 35> C   -1.94838443   0.20246392   3.48261907
| 36> C   -2.00399912   0.25245253   2.08873077
| 37> H   -1.36021399  -0.85199608   5.23702835
| 38> H   -2.43924188   0.92838497   4.08160428
| 39> H   -0.25436134  -2.61120298   1.54146685
| 40> H    0.04576800  -2.49409084   3.98178108
| 41> H   -2.55639154   1.08144681   1.62991065
| 42> C   -1.79191409  -1.17175872  -0.03404116
| 43> H   -2.88699726  -1.17953286  -0.11452566
| 44> H   -1.45470371  -2.19749300  -0.21066929
| 45> O    1.71658268  -1.02381978  -1.20617450
| 46> C    2.21526147  -0.70099614  -2.36674598
| 47> O    1.71373128   0.09525463  -3.13637045
| 48> C    3.52367800  -1.39051274  -2.69274273
| 49> H    3.45421072  -2.47567100  -2.60377889
| 50> H    4.30250108  -1.05785452  -2.00165586
| 51> H    3.82102326  -1.12856777  -3.70518779
| 52> *
| 53>
| 54>                          ****END OF INPUT****

CARTESIAN COORDINATES (ANGSTROEM)
---------------------------------
  Pd     0.614794    0.488759   -0.558452
  O      2.209397    1.438705    0.130274
  C      1.610062    2.549431    0.265867
  O      0.365886    2.575869    0.086133
  C      2.456721    3.751593    0.561187
  H      1.890705    4.557480    1.022736
  H      2.875229    4.122381   -0.380751
  H      3.302125    3.476380    1.198465
  N     -1.246158   -0.358035   -1.152271
  C     -1.198140   -1.239027   -2.333500
  H     -0.816824   -0.696742   -3.188954
  H     -2.204054   -1.607565   -2.550740
  H     -0.549846   -2.086712   -2.139779
  C     -2.164330    0.746178   -1.451531
  H     -2.267007    1.405552   -0.596229
  H     -3.148719    0.345804   -1.703170
  H     -1.800593    1.318424   -2.298933
  C     -1.447941   -0.815453    1.384807
  C     -0.697798   -1.774208    2.074672
  C     -0.568508   -1.753152    3.456670
  C     -1.263279   -0.783163    4.163861
  C     -1.948384    0.202464    3.482619
  C     -2.003999    0.252453    2.088731
  H     -1.360214   -0.851996    5.237028
  H     -2.439242    0.928385    4.081604
  H     -0.254361   -2.611203    1.541467
  H      0.045768   -2.494091    3.981781
  H     -2.556392    1.081447    1.629911
  C     -1.791914   -1.171759   -0.034041
  H     -2.886997   -1.179533   -0.114526
  H     -1.454704   -2.197493   -0.210669
  O      1.716583   -1.023820   -1.206174
  C      2.215261   -0.700996   -2.366746
  O      1.713731    0.095255   -3.136370
  C      3.523678   -1.390513   -2.692743
  H      3.454211   -2.475671   -2.603779
  H      4.302501   -1.057855   -2.001656
  H      3.821023   -1.128568   -3.705188

 Total Charge           Charge          ....    0
 Multiplicity           Mult            ....    1
 Number of Electrons    NEL             ....  154
 Basis Dimension        Dim             ....  339

ORBITAL ENERGIES
----------------

  NO   OCC          E(Eh)            E(eV)
   0   2.0000     -19.500593      -530.6381
   1   2.0000     -19.493915      -530.4564
   2   2.0000     -19.473460      -529.8998
   3   2.0000     -19.433897      -528.8232
   4   2.0000     -14.717826      -400.4924
   5   2.0000     -10.570874      -287.6481
   6   2.0000     -10.531485      -286.5763
   7   2.0000     -10.497938      -285.6634
   8   2.0000     -10.483039      -285.2580
   9   2.0000     -10.473952      -285.0107
  10   2.0000     -10.473756      -285.0054
  11   2.0000     -10.465166      -284.7717
  12   2.0000     -10.458505      -284.5904
  13   2.0000     -10.457744      -284.5697
  14   2.0000     -10.454644      -284.4853
  15   2.0000     -10.454016      -284.4682
  16   2.0000     -10.441740      -284.1342
  17   2.0000     -10.413098      -283.3548
  18   2.0000      -3.656253       -99.4917
  19   2.0000      -2.305622       -62.7392
  20   2.0000      -2.300717       -62.6057
  21   2.0000      -2.264778       -61.6277
  22   2.0000      -1.202162       -32.7125
  23   2.0000      -1.150182       -31.2980
  24   2.0000      -1.085664       -29.5424
  25   2.0000      -1.077230       -29.3129
  26   2.0000      -1.052530       -28.6408
  27   2.0000      -0.971297       -26.4303
  28   2.0000      -0.880943       -23.9717
  29   2.0000      -0.848471       -23.0881
  30   2.0000      -0.830685       -22.6041
  31   2.0000      -0.821869       -22.3642
  32   2.0000      -0.797884       -21.7115
  33   2.0000      -0.794874       -21.6296
  34   2.0000      -0.718916       -19.5627
  35   2.0000      -0.695335       -18.9210
  36   2.0000      -0.671883       -18.2829
  37   2.0000      -0.615328       -16.7439
  38   2.0000      -0.601319       -16.3627
  39   2.0000      -0.585788       -15.9401
  40   2.0000      -0.575598       -15.6628
  41   2.0000      -0.567514       -15.4429
  42   2.0000      -0.558985       -15.2108
  43   2.0000      -0.546781       -14.8787
  44   2.0000      -0.545077       -14.8323
  45   2.0000      -0.527409       -14.3515
  46   2.0000      -0.526301       -14.3214
  47   2.0000      -0.524126       -14.2622
  48   2.0000      -0.509027       -13.8513
  49   2.0000      -0.496349       -13.5063
  50   2.0000      -0.493523       -13.4294
  51   2.0000      -0.490418       -13.3450
  52   2.0000      -0.486036       -13.2257
  53   2.0000      -0.477341       -12.9891
  54   2.0000      -0.459412       -12.5012
  55   2.0000      -0.457797       -12.4573
  56   2.0000      -0.447230       -12.1698
  57   2.0000      -0.445305       -12.1174
  58   2.0000      -0.439523       -11.9600
  59   2.0000      -0.432122       -11.7586
  60   2.0000      -0.430461       -11.7134
  61   2.0000      -0.417276       -11.3547
  62   2.0000      -0.413014       -11.2387
  63   2.0000      -0.406815       -11.0700
  64   2.0000      -0.399776       -10.8784
  65   2.0000      -0.384956       -10.4752
  66   2.0000      -0.371144       -10.0993
  67   2.0000      -0.363166        -9.8823
  68   2.0000      -0.351085        -9.5535
  69   2.0000      -0.341854        -9.3023
  70   2.0000      -0.318172        -8.6579
  71   2.0000      -0.314834        -8.5671
  72   2.0000      -0.307168        -8.3585
  73   2.0000      -0.302184        -8.2228
  74   2.0000      -0.296426        -8.0662
  75   2.0000      -0.294211        -8.0059
  76   2.0000      -0.269644        -7.3374
  77   0.0000      -0.042299        -1.1510
  78   0.0000      -0.003819        -0.1039
  79   0.0000       0.009230         0.2512
  80   0.0000       0.047666         1.2970
  81   0.0000       0.072731         1.9791

MULLIKEN ATOMIC CHARGES
-----------------------
   0 Pd:    0.536594
   1 O :   -0.490552
   2 C :    0.667960
   3 O :   -0.500027
   4 C :   -0.768853
   5 H :    0.249000
   6 H :    0.262642
   7 H :    0.258384
   8 N :   -0.483831
   9 C :   -0.537626
  10 H :    0.293196
  11 H :    0.219085
  12 H :    0.273718
  13 C :   -0.535058
  14 H :    0.273203
  15 H :    0.224332
  16 H :    0.282720
  17 C :    0.098481
  18 C :   -0.242091
  19 C :   -0.224151
  20 C :   -0.212910
  21 C :   -0.216828
  22 C :   -0.251045
  23 H :    0.224917
  24 H :    0.227335
  25 H :    0.228263
  26 H :    0.228294
  27 H :    0.217454
  28 C :   -0.343097
  29 H :    0.240943
  30 H :    0.257429
  31 O :   -0.552612
  32 C :    0.574333
  33 O :   -0.452892
  34 C :   -0.741966
  35 H :    0.229826
  36 H :    0.247008
  37 H :    0.238422
Sum of atomic charges:    0.0000000

LOEWDIN ATOMIC CHARGES
----------------------
   0 Pd:   -0.289521
   1 O :   -0.136701
   2 C :    0.190267
   3 O :   -0.191447
   4 C :   -0.376879
   5 H :    0.149590
   6 H :    0.165680
   7 H :    0.158313
   8 N :   -0.055107
   9 C :   -0.235852
  10 H :    0.162030
  11 H :    0.118830
  12 H :    0.151948
  13 C :   -0.232463
  14 H :    0.151351
  15 H :    0.122357
  16 H :    0.157451
  17 C :   -0.050407
  18 C :   -0.108805
  19 C :   -0.124112
  20 C :   -0.131186
  21 C :   -0.128105
  22 C :   -0.111236
  23 H :    0.138456
  24 H :    0.137940
  25 H :    0.146940
  26 H :    0.141377
  27 H :    0.144253
  28 C :   -0.104151
  29 H :    0.137029
  30 H :    0.150347
  31 O :   -0.194430
  32 C :    0.135230
  33 O :   -0.244915
  34 C :   -0.380983
  35 H :    0.142300
  36 H :    0.153026
  37 H :    0.141588

  Mayer bond orders larger than 0.100000
B(  0-Pd,  1-O ) :   0.5970 B(  0-Pd,  3-O ) :   0.4456 B(  0-Pd,  8-N ) :   0.4100
B(  0-Pd, 31-O ) :   0.6585 B(  0-Pd, 33-O ) :   0.1204 B(  1-O ,  2-C ) :   1.3761
B(  1-O ,  3-O ) :   0.1026 B(  2-C ,  3-O ) :   1.5406 B(  2-C ,  4-C ) :   0.9555
B(  4-C ,  5-H ) :   0.9112 B(  4-C ,  6-H ) :   0.9007 B(  4-C ,  7-H ) :   0.9069
B(  8-N ,  9-C ) :   0.9187 B(  8-N , 13-C ) :   0.9251 B(  8-N , 28-C ) :   0.8904
B(  9-C , 10-H ) :   0.8874 B(  9-C , 11-H ) :   0.9027 B(  9-C , 12-H ) :   0.8989
B( 13-C , 14-H ) :   0.8952 B( 13-C , 15-H ) :   0.9032 B( 13-C , 16-H ) :   0.8986
B( 17-C , 18-C ) :   1.4025 B( 17-C , 22-C ) :   1.3837 B( 17-C , 28-C ) :   0.9435
B( 18-C , 19-C ) :   1.4383 B( 18-C , 25-H ) :   0.9135 B( 19-C , 20-C ) :   1.4160
B( 19-C , 26-H ) :   0.9156 B( 20-C , 21-C ) :   1.4362 B( 20-C , 23-H ) :   0.9166
B( 21-C , 22-C ) :   1.4312 B( 21-C , 24-H ) :   0.9154 B( 22-C , 27-H ) :   0.9219
B( 28-C , 29-H ) :   0.8980 B( 28-C , 30-H ) :   0.9136 B( 31-O , 32-C ) :   1.2388
B( 32-C , 33-O ) :   1.8669 B( 32-C , 34-C ) :   0.9340 B( 34-C , 35-H ) :   0.9163
B( 34-C , 36-H ) :   0.9105 B( 34-C , 37-H ) :   0.9202

Dispersion correction           -0.026033293
FINAL SINGLE POINT ENERGY      -988.546633641308
Dispersion correction            ... done

DIPOLE MOMENT
-------------
                                X             Y             Z
Electronic contribution:     27.20088      23.76395     -28.01740
Nuclear contribution   :    -28.83290     -24.10295      28.85390
                        -----------------------------------------
Total Dipole Moment    :     -1.63202      -0.33900       0.83650
                        -----------------------------------------
Magnitude (a.u.)       :      1.86497
Magnitude (Debye)      :      4.74039

Rotational constants in cm-1:     0.014125     0.008357     0.007095
Rotational constants in MHz :   423.453855   250.529048   212.711286

                             ****ORCA TERMINATED NORMALLY****
TOTAL RUN TIME: 0 days 0 hours 12 minutes 50 seconds 587 msec
