                         Program Version 5.0.3 -  RELEASE  -
|  1> ! EnGrad PBEh-3c
|  2> %output
|  3> xyzfile=True
|  4> end
|  5> %scf
|  6> maxiter 250
|  7> end
|  8> %output
|  9> Print[P_Hirshfeld] = 1
| 10> end
| 11> % maxcore
| 12> 4000
| 13> *xyz 0 1
| 14> Pd   0.61103155   0.48625934  -0.55867050
| 15> O    2.21071658   1.43316913   0.11490646
| 16> C    1.61223704   2.54176810   0.26602466
| 17> O    0.36801796   2.56135858   0.09675461
| 18> C    2.45323748   3.74548956   0.56154436
| 19> H    1.88605206   4.55076832   1.02155376
| 20> H    2.87558476   4.11267796  -0.37893316
| 21> H    3.29652513   3.46998263   1.19810530
| 22> N   -1.24246287  -0.35846797  -1.14006142
| 23> C   -1.19035247  -1.24066725  -2.32165456
| 24> H   -0.80693904  -0.70618549  -3.18564359
| 25> H   -2.19720254  -1.61431438  -2.54005394
| 26> H   -0.54202514  -2.08842456  -2.12191582
| 27> C   -2.15878515   0.74700951  -1.45591734
| 28> H   -2.26775007   1.41291776  -0.60521639
| 29> H   -3.14448094   0.34682235  -1.71380489
| 30> H   -1.78947703   1.31645768  -2.30649322
| 31> C   -1.42935638  -0.82308466   1.38153997
| 32> C   -0.69471666  -1.78608838   2.08299875
| 33> C   -0.56777158  -1.75467640   3.46752977
| 34> C   -1.24709037  -0.77149893   4.16319164
| 35> C   -1.92166324   0.22599255   3.47806708
| 36> C   -2.01130488   0.24814656   2.08713660
| 37> H   -1.35140210  -0.82427723   5.23207014
| 38> H   -2.39443895   0.98471869   4.07897014
| 39> H   -0.26097361  -2.62962115   1.54889950
| 40> H   -0.00042935  -2.52957791   3.99410369
| 41> H   -2.61166029   1.04161293   1.61333594
| 42> C   -1.79722083  -1.17394584  -0.03258290
| 43> H   -2.89279898  -1.16643162  -0.10969213
| 44> H   -1.46585998  -2.19567072  -0.21430247
| 45> O    1.70502745  -1.02692976  -1.21468044
| 46> C    2.20976503  -0.69924363  -2.37021148
| 47> O    1.71063413   0.10076647  -3.13755180
| 48> C    3.52165436  -1.37875313  -2.69746362
| 49> H    3.46038933  -2.46469221  -2.61061987
| 50> H    4.29535199  -1.04557293  -2.00047483
| 51> H    3.82169273  -1.11036707  -3.70808114
| 52> *
| 53>
| 54>                          ****END OF INPUT****

CARTESIAN COORDINATES (ANGSTROEM)
---------------------------------
  Pd     0.611032    0.486259   -0.558670
  O      2.210717    1.433169    0.114906
  C      1.612237    2.541768    0.266025
  O      0.368018    2.561359    0.096755
  C      2.453237    3.745490    0.561544
  H      1.886052    4.550768    1.021554
  H      2.875585    4.112678   -0.378933
  H      3.296525    3.469983    1.198105
  N     -1.242463   -0.358468   -1.140061
  C     -1.190352   -1.240667   -2.321655
  H     -0.806939   -0.706185   -3.185644
  H     -2.197203   -1.614314   -2.540054
  H     -0.542025   -2.088425   -2.121916
  C     -2.158785    0.747010   -1.455917
  H     -2.267750    1.412918   -0.605216
  H     -3.144481    0.346822   -1.713805
  H     -1.789477    1.316458   -2.306493
  C     -1.429356   -0.823085    1.381540
  C     -0.694717   -1.786088    2.082999
  C     -0.567772   -1.754676    3.467530
  C     -1.247090   -0.771499    4.163192
  C     -1.921663    0.225993    3.478067
  C     -2.011305    0.248147    2.087137
  H     -1.351402   -0.824277    5.232070
  H     -2.394439    0.984719    4.078970
  H     -0.260974   -2.629621    1.548900
  H     -0.000429   -2.529578    3.994104
  H     -2.611660    1.041613    1.613336
  C     -1.797221   -1.173946   -0.032583
  H     -2.892799   -1.166432   -0.109692
  H     -1.465860   -2.195671   -0.214302
  O      1.705027   -1.026930   -1.214680
  C      2.209765   -0.699244   -2.370211
  O      1.710634    0.100766   -3.137552
  C      3.521654   -1.378753   -2.697464
  H      3.460389   -2.464692   -2.610620
  H      4.295352   -1.045573   -2.000475
  H      3.821693   -1.110367   -3.708081

 Total Charge           Charge          ....    0
 Multiplicity           Mult            ....    1
 Number of Electrons    NEL             ....  154
 Basis Dimension        Dim             ....  339

ORBITAL ENERGIES
----------------

  NO   OCC          E(Eh)            E(eV)
   0   2.0000     -19.499854      -530.6180
   1   2.0000     -19.493657      -530.4494
   2   2.0000     -19.472623      -529.8770
   3   2.0000     -19.432928      -528.7969
   4   2.0000     -14.717913      -400.4948
   5   2.0000     -10.570361      -287.6341
   6   2.0000     -10.530725      -286.5556
   7   2.0000     -10.497405      -285.6489
   8   2.0000     -10.483779      -285.2781
   9   2.0000     -10.474461      -285.0246
  10   2.0000     -10.474159      -285.0163
  11   2.0000     -10.466649      -284.8120
  12   2.0000     -10.459596      -284.6201
  13   2.0000     -10.458294      -284.5847
  14   2.0000     -10.456635      -284.5395
  15   2.0000     -10.454687      -284.4865
  16   2.0000     -10.441502      -284.1277
  17   2.0000     -10.412739      -283.3450
  18   2.0000      -3.655835       -99.4803
  19   2.0000      -2.305351       -62.7318
  20   2.0000      -2.300231       -62.5925
  21   2.0000      -2.264342       -61.6159
  22   2.0000      -1.203089       -32.7377
  23   2.0000      -1.149876       -31.2897
  24   2.0000      -1.085537       -29.5390
  25   2.0000      -1.077475       -29.3196
  26   2.0000      -1.051895       -28.6235
  27   2.0000      -0.969681       -26.3864
  28   2.0000      -0.880437       -23.9579
  29   2.0000      -0.847954       -23.0740
  30   2.0000      -0.831608       -22.6292
  31   2.0000      -0.820946       -22.3391
  32   2.0000      -0.797200       -21.6929
  33   2.0000      -0.794522       -21.6200
  34   2.0000      -0.718582       -19.5536
  35   2.0000      -0.694296       -18.8928
  36   2.0000      -0.671691       -18.2776
  37   2.0000      -0.615359       -16.7448
  38   2.0000      -0.600581       -16.3426
  39   2.0000      -0.585546       -15.9335
  40   2.0000      -0.575611       -15.6632
  41   2.0000      -0.567064       -15.4306
  42   2.0000      -0.558892       -15.2082
  43   2.0000      -0.547322       -14.8934
  44   2.0000      -0.545305       -14.8385
  45   2.0000      -0.527850       -14.3635
  46   2.0000      -0.525214       -14.2918
  47   2.0000      -0.523950       -14.2574
  48   2.0000      -0.508868       -13.8470
  49   2.0000      -0.495898       -13.4941
  50   2.0000      -0.493060       -13.4168
  51   2.0000      -0.490091       -13.3360
  52   2.0000      -0.485711       -13.2169
  53   2.0000      -0.476336       -12.9618
  54   2.0000      -0.459508       -12.5038
  55   2.0000      -0.458121       -12.4661
  56   2.0000      -0.446526       -12.1506
  57   2.0000      -0.444890       -12.1061
  58   2.0000      -0.438716       -11.9381
  59   2.0000      -0.432265       -11.7625
  60   2.0000      -0.430292       -11.7089
  61   2.0000      -0.416720       -11.3395
  62   2.0000      -0.413706       -11.2575
  63   2.0000      -0.405791       -11.0421
  64   2.0000      -0.400622       -10.9015
  65   2.0000      -0.385041       -10.4775
  66   2.0000      -0.370931       -10.0935
  67   2.0000      -0.362694        -9.8694
  68   2.0000      -0.351340        -9.5605
  69   2.0000      -0.341358        -9.2888
  70   2.0000      -0.317658        -8.6439
  71   2.0000      -0.314592        -8.5605
  72   2.0000      -0.306769        -8.3476
  73   2.0000      -0.302395        -8.2286
  74   2.0000      -0.295772        -8.0484
  75   2.0000      -0.293500        -7.9865
  76   2.0000      -0.268786        -7.3140
  77   0.0000      -0.040450        -1.1007
  78   0.0000      -0.003996        -0.1087
  79   0.0000       0.008412         0.2289
  80   0.0000       0.047953         1.3049
  81   0.0000       0.073628         2.0035

MULLIKEN ATOMIC CHARGES
-----------------------
   0 Pd:    0.539185
   1 O :   -0.491568
   2 C :    0.668915
   3 O :   -0.499563
   4 C :   -0.769675
   5 H :    0.249423
   6 H :    0.263164
   7 H :    0.258817
   8 N :   -0.485408
   9 C :   -0.539607
  10 H :    0.293493
  11 H :    0.218772
  12 H :    0.274314
  13 C :   -0.535434
  14 H :    0.273304
  15 H :    0.223977
  16 H :    0.283454
  17 C :    0.093127
  18 C :   -0.246090
  19 C :   -0.219527
  20 C :   -0.212555
  21 C :   -0.217248
  22 C :   -0.247386
  23 H :    0.226012
  24 H :    0.225810
  25 H :    0.228764
  26 H :    0.227504
  27 H :    0.216354
  28 C :   -0.339738
  29 H :    0.241549
  30 H :    0.257378
  31 O :   -0.553718
  32 C :    0.574845
  33 O :   -0.453487
  34 C :   -0.742061
  35 H :    0.229427
  36 H :    0.246937
  37 H :    0.238540
Sum of atomic charges:    0.0000000

LOEWDIN ATOMIC CHARGES
----------------------
   0 Pd:   -0.294340
   1 O :   -0.136810
   2 C :    0.189421
   3 O :   -0.188665
   4 C :   -0.376717
   5 H :    0.149882
   6 H :    0.165959
   7 H :    0.158553
   8 N :   -0.053785
   9 C :   -0.236053
  10 H :    0.162284
  11 H :    0.118536
  12 H :    0.151990
  13 C :   -0.232257
  14 H :    0.151427
  15 H :    0.122337
  16 H :    0.158167
  17 C :   -0.049844
  18 C :   -0.107872
  19 C :   -0.124596
  20 C :   -0.130771
  21 C :   -0.127648
  22 C :   -0.111074
  23 H :    0.138625
  24 H :    0.138116
  25 H :    0.146521
  26 H :    0.141546
  27 H :    0.143576
  28 C :   -0.104460
  29 H :    0.137509
  30 H :    0.150280
  31 O :   -0.194798
  32 C :    0.134424
  33 O :   -0.245595
  34 C :   -0.380774
  35 H :    0.142022
  36 H :    0.153105
  37 H :    0.141779

  Mayer bond orders larger than 0.100000
B(  0-Pd,  1-O ) :   0.5963 B(  0-Pd,  3-O ) :   0.4494 B(  0-Pd,  8-N ) :   0.4111
B(  0-Pd, 31-O ) :   0.6556 B(  0-Pd, 33-O ) :   0.1211 B(  1-O ,  2-C ) :   1.3758
B(  1-O ,  3-O ) :   0.1024 B(  2-C ,  3-O ) :   1.5384 B(  2-C ,  4-C ) :   0.9566
B(  4-C ,  5-H ) :   0.9113 B(  4-C ,  6-H ) :   0.9005 B(  4-C ,  7-H ) :   0.9065
B(  8-N ,  9-C ) :   0.9177 B(  8-N , 13-C ) :   0.9240 B(  8-N , 28-C ) :   0.8893
B(  9-C , 10-H ) :   0.8870 B(  9-C , 11-H ) :   0.9025 B(  9-C , 12-H ) :   0.8982
B( 13-C , 14-H ) :   0.8952 B( 13-C , 15-H ) :   0.9033 B( 13-C , 16-H ) :   0.8981
B( 17-C , 18-C ) :   1.4136 B( 17-C , 22-C ) :   1.3722 B( 17-C , 28-C ) :   0.9447
B( 18-C , 19-C ) :   1.4272 B( 18-C , 25-H ) :   0.9132 B( 19-C , 20-C ) :   1.4264
B( 19-C , 26-H ) :   0.9162 B( 20-C , 21-C ) :   1.4230 B( 20-C , 23-H ) :   0.9162
B( 21-C , 22-C ) :   1.4425 B( 21-C , 24-H ) :   0.9162 B( 22-C , 27-H ) :   0.9214
B( 28-C , 29-H ) :   0.8986 B( 28-C , 30-H ) :   0.9135 B( 31-O , 32-C ) :   1.2400
B( 32-C , 33-O ) :   1.8654 B( 32-C , 34-C ) :   0.9344 B( 34-C , 35-H ) :   0.9162
B( 34-C , 36-H ) :   0.9103 B( 34-C , 37-H ) :   0.9204

Dispersion correction           -0.026053604
FINAL SINGLE POINT ENERGY      -988.548047207213
Dispersion correction            ... done

DIPOLE MOMENT
-------------
                                X             Y             Z
Electronic contribution:     26.95848      23.65067     -28.01223
Nuclear contribution   :    -28.60721     -23.98797      28.86650
                        -----------------------------------------
Total Dipole Moment    :     -1.64873      -0.33729       0.85427
                        -----------------------------------------
Magnitude (a.u.)       :      1.88729
Magnitude (Debye)      :      4.79710

Rotational constants in cm-1:     0.014166     0.008373     0.007108
Rotational constants in MHz :   424.672796   251.021490   213.094841

                             ****ORCA TERMINATED NORMALLY****
TOTAL RUN TIME: 0 days 0 hours 12 minutes 33 seconds 806 msec
