                         Program Version 5.0.3 -  RELEASE  -
|  1> ! EnGrad PBEh-3c
|  2> %output
|  3> xyzfile=True
|  4> end
|  5> %scf
|  6> maxiter 250
|  7> end
|  8> %output
|  9> Print[P_Hirshfeld] = 1
| 10> end
| 11> % maxcore
| 12> 4000
| 13> *xyz 0 1
| 14> Pd   0.60298270   0.48058188  -0.55698558
| 15> O    2.21461845   1.42617903   0.10016322
| 16> C    1.61556288   2.53187498   0.26669605
| 17> O    0.37058102   2.54408260   0.10880727
| 18> C    2.44977589   3.73832555   0.56214472
| 19> H    1.88478206   4.54467389   1.02087348
| 20> H    2.87722918   4.09956276  -0.37546993
| 21> H    3.28870255   3.46000113   1.19689229
| 22> N   -1.23975388  -0.36033504  -1.13057630
| 23> C   -1.18166989  -1.24840903  -2.30961782
| 24> H   -0.79600650  -0.72291967  -3.18139628
| 25> H   -2.18934292  -1.62793732  -2.53017036
| 26> H   -0.53397010  -2.09524919  -2.10221043
| 27> C   -2.15446803   0.74472644  -1.46329179
| 28> H   -2.26964457   1.41933760  -0.61878934
| 29> H   -3.14237387   0.34512098  -1.72785875
| 30> H   -1.77631567   1.30950644  -2.31642493
| 31> C   -1.41813606  -0.82956476   1.38535810
| 32> C   -0.69747689  -1.80137441   2.09432130
| 33> C   -0.57427871  -1.76104507   3.47717989
| 34> C   -1.23975389  -0.76172056   4.16234928
| 35> C   -1.89686417   0.25761469   3.47960597
| 36> C   -2.00929318   0.23946610   2.09233138
| 37> H   -1.33045367  -0.79197331   5.23562575
| 38> H   -2.35582513   1.05328916   4.07064139
| 39> H   -0.27834526  -2.64278844   1.55252266
| 40> H   -0.05514923  -2.55690459   3.99842591
| 41> H   -2.62255604   1.00196346   1.60217442
| 42> C   -1.80684028  -1.17439734  -0.02789466
| 43> H   -2.90278068  -1.15545881  -0.11167115
| 44> H   -1.48567401  -2.19470684  -0.21043982
| 45> O    1.69368694  -1.02941937  -1.22331385
| 46> C    2.20387335  -0.69657847  -2.37463252
| 47> O    1.70507910   0.10833296  -3.13957754
| 48> C    3.52211660  -1.36105649  -2.70506701
| 49> H    3.47034204  -2.44581589  -2.62126441
| 50> H    4.28726075  -1.02693866  -2.00156094
| 51> H    3.82632238  -1.08507942  -3.71318334
| 52> *
| 53>
| 54>                          ****END OF INPUT****

CARTESIAN COORDINATES (ANGSTROEM)
---------------------------------
  Pd     0.602983    0.480582   -0.556986
  O      2.214618    1.426179    0.100163
  C      1.615563    2.531875    0.266696
  O      0.370581    2.544083    0.108807
  C      2.449776    3.738326    0.562145
  H      1.884782    4.544674    1.020873
  H      2.877229    4.099563   -0.375470
  H      3.288703    3.460001    1.196892
  N     -1.239754   -0.360335   -1.130576
  C     -1.181670   -1.248409   -2.309618
  H     -0.796006   -0.722920   -3.181396
  H     -2.189343   -1.627937   -2.530170
  H     -0.533970   -2.095249   -2.102210
  C     -2.154468    0.744726   -1.463292
  H     -2.269645    1.419338   -0.618789
  H     -3.142374    0.345121   -1.727859
  H     -1.776316    1.309506   -2.316425
  C     -1.418136   -0.829565    1.385358
  C     -0.697477   -1.801374    2.094321
  C     -0.574279   -1.761045    3.477180
  C     -1.239754   -0.761721    4.162349
  C     -1.896864    0.257615    3.479606
  C     -2.009293    0.239466    2.092331
  H     -1.330454   -0.791973    5.235626
  H     -2.355825    1.053289    4.070641
  H     -0.278345   -2.642788    1.552523
  H     -0.055149   -2.556905    3.998426
  H     -2.622556    1.001963    1.602174
  C     -1.806840   -1.174397   -0.027895
  H     -2.902781   -1.155459   -0.111671
  H     -1.485674   -2.194707   -0.210440
  O      1.693687   -1.029419   -1.223314
  C      2.203873   -0.696578   -2.374633
  O      1.705079    0.108333   -3.139578
  C      3.522117   -1.361056   -2.705067
  H      3.470342   -2.445816   -2.621264
  H      4.287261   -1.026939   -2.001561
  H      3.826322   -1.085079   -3.713183

 Total Charge           Charge          ....    0
 Multiplicity           Mult            ....    1
 Number of Electrons    NEL             ....  154
 Basis Dimension        Dim             ....  339

ORBITAL ENERGIES
----------------

  NO   OCC          E(Eh)            E(eV)
   0   2.0000     -19.498927      -530.5928
   1   2.0000     -19.493233      -530.4378
   2   2.0000     -19.472127      -529.8635
   3   2.0000     -19.431893      -528.7687
   4   2.0000     -14.718610      -400.5138
   5   2.0000     -10.569773      -287.6181
   6   2.0000     -10.530300      -286.5440
   7   2.0000     -10.497645      -285.6554
   8   2.0000     -10.484694      -285.3030
   9   2.0000     -10.474557      -285.0272
  10   2.0000     -10.474215      -285.0179
  11   2.0000     -10.465505      -284.7809
  12   2.0000     -10.459887      -284.6280
  13   2.0000     -10.459095      -284.6064
  14   2.0000     -10.457560      -284.5647
  15   2.0000     -10.456251      -284.5290
  16   2.0000     -10.440791      -284.1084
  17   2.0000     -10.412279      -283.3325
  18   2.0000      -3.655620       -99.4745
  19   2.0000      -2.305190       -62.7274
  20   2.0000      -2.299978       -62.5856
  21   2.0000      -2.264110       -61.6096
  22   2.0000      -1.203301       -32.7435
  23   2.0000      -1.148929       -31.2640
  24   2.0000      -1.084948       -29.5229
  25   2.0000      -1.077272       -29.3141
  26   2.0000      -1.050763       -28.5927
  27   2.0000      -0.968923       -26.3657
  28   2.0000      -0.879373       -23.9289
  29   2.0000      -0.848811       -23.0973
  30   2.0000      -0.832542       -22.6546
  31   2.0000      -0.820210       -22.3191
  32   2.0000      -0.796512       -21.6742
  33   2.0000      -0.794346       -21.6153
  34   2.0000      -0.718291       -19.5457
  35   2.0000      -0.694325       -18.8935
  36   2.0000      -0.672355       -18.2957
  37   2.0000      -0.615209       -16.7407
  38   2.0000      -0.600653       -16.3446
  39   2.0000      -0.585407       -15.9297
  40   2.0000      -0.575313       -15.6551
  41   2.0000      -0.566720       -15.4212
  42   2.0000      -0.558594       -15.2001
  43   2.0000      -0.547376       -14.8949
  44   2.0000      -0.545232       -14.8365
  45   2.0000      -0.528018       -14.3681
  46   2.0000      -0.525452       -14.2983
  47   2.0000      -0.524112       -14.2618
  48   2.0000      -0.508577       -13.8391
  49   2.0000      -0.495348       -13.4791
  50   2.0000      -0.494037       -13.4434
  51   2.0000      -0.489655       -13.3242
  52   2.0000      -0.485505       -13.2113
  53   2.0000      -0.475721       -12.9450
  54   2.0000      -0.459747       -12.5104
  55   2.0000      -0.457721       -12.4552
  56   2.0000      -0.446416       -12.1476
  57   2.0000      -0.444396       -12.0926
  58   2.0000      -0.438523       -11.9328
  59   2.0000      -0.432263       -11.7625
  60   2.0000      -0.430342       -11.7102
  61   2.0000      -0.416455       -11.3323
  62   2.0000      -0.414419       -11.2769
  63   2.0000      -0.405996       -11.0477
  64   2.0000      -0.400901       -10.9091
  65   2.0000      -0.385146       -10.4804
  66   2.0000      -0.370446       -10.0804
  67   2.0000      -0.362111        -9.8535
  68   2.0000      -0.351627        -9.5682
  69   2.0000      -0.340821        -9.2742
  70   2.0000      -0.317414        -8.6373
  71   2.0000      -0.314424        -8.5559
  72   2.0000      -0.306413        -8.3379
  73   2.0000      -0.302747        -8.2382
  74   2.0000      -0.295086        -8.0297
  75   2.0000      -0.292732        -7.9656
  76   2.0000      -0.268039        -7.2937
  77   0.0000      -0.039252        -1.0681
  78   0.0000      -0.003606        -0.0981
  79   0.0000       0.007340         0.1997
  80   0.0000       0.048395         1.3169
  81   0.0000       0.074124         2.0170

MULLIKEN ATOMIC CHARGES
-----------------------
   0 Pd:    0.540762
   1 O :   -0.491724
   2 C :    0.669388
   3 O :   -0.500072
   4 C :   -0.770443
   5 H :    0.249868
   6 H :    0.263904
   7 H :    0.259358
   8 N :   -0.487585
   9 C :   -0.541145
  10 H :    0.294070
  11 H :    0.218332
  12 H :    0.275380
  13 C :   -0.535631
  14 H :    0.273606
  15 H :    0.223643
  16 H :    0.284236
  17 C :    0.092674
  18 C :   -0.252318
  19 C :   -0.209073
  20 C :   -0.221400
  21 C :   -0.213327
  22 C :   -0.247818
  23 H :    0.225986
  24 H :    0.225383
  25 H :    0.229677
  26 H :    0.227032
  27 H :    0.216319
  28 C :   -0.337438
  29 H :    0.242295
  30 H :    0.257365
  31 O :   -0.554805
  32 C :    0.575059
  33 O :   -0.455269
  34 C :   -0.741880
  35 H :    0.229313
  36 H :    0.247398
  37 H :    0.238880
Sum of atomic charges:   -0.0000000

LOEWDIN ATOMIC CHARGES
----------------------
   0 Pd:   -0.298337
   1 O :   -0.137990
   2 C :    0.188926
   3 O :   -0.186876
   4 C :   -0.376776
   5 H :    0.150087
   6 H :    0.166174
   7 H :    0.158733
   8 N :   -0.052256
   9 C :   -0.236104
  10 H :    0.162668
  11 H :    0.118305
  12 H :    0.152226
  13 C :   -0.232072
  14 H :    0.151610
  15 H :    0.122409
  16 H :    0.158870
  17 C :   -0.050341
  18 C :   -0.106015
  19 C :   -0.126823
  20 C :   -0.127914
  21 C :   -0.127674
  22 C :   -0.110227
  23 H :    0.138278
  24 H :    0.139127
  25 H :    0.145767
  26 H :    0.141845
  27 H :    0.142145
  28 C :   -0.103937
  29 H :    0.137816
  30 H :    0.150005
  31 O :   -0.195318
  32 C :    0.135121
  33 O :   -0.247949
  34 C :   -0.380612
  35 H :    0.141729
  36 H :    0.153266
  37 H :    0.142117

  Mayer bond orders larger than 0.100000
B(  0-Pd,  1-O ) :   0.5940 B(  0-Pd,  3-O ) :   0.4537 B(  0-Pd,  8-N ) :   0.4140
B(  0-Pd, 31-O ) :   0.6523 B(  0-Pd, 33-O ) :   0.1218 B(  1-O ,  2-C ) :   1.3774
B(  1-O ,  3-O ) :   0.1022 B(  2-C ,  3-O ) :   1.5346 B(  2-C ,  4-C ) :   0.9581
B(  4-C ,  5-H ) :   0.9115 B(  4-C ,  6-H ) :   0.9002 B(  4-C ,  7-H ) :   0.9059
B(  8-N ,  9-C ) :   0.9163 B(  8-N , 13-C ) :   0.9228 B(  8-N , 28-C ) :   0.8868
B(  9-C , 10-H ) :   0.8863 B(  9-C , 11-H ) :   0.9024 B(  9-C , 12-H ) :   0.8973
B( 13-C , 14-H ) :   0.8950 B( 13-C , 15-H ) :   0.9033 B( 13-C , 16-H ) :   0.8974
B( 17-C , 18-C ) :   1.4157 B( 17-C , 22-C ) :   1.3719 B( 17-C , 28-C ) :   0.9466
B( 18-C , 19-C ) :   1.4247 B( 18-C , 25-H ) :   0.9123 B( 19-C , 20-C ) :   1.4287
B( 19-C , 26-H ) :   0.9169 B( 20-C , 21-C ) :   1.4158 B( 20-C , 23-H ) :   0.9166
B( 21-C , 22-C ) :   1.4464 B( 21-C , 24-H ) :   0.9169 B( 22-C , 27-H ) :   0.9204
B( 28-C , 29-H ) :   0.8989 B( 28-C , 30-H ) :   0.9134 B( 31-O , 32-C ) :   1.2413
B( 32-C , 33-O ) :   1.8619 B( 32-C , 34-C ) :   0.9353 B( 34-C , 35-H ) :   0.9160
B( 34-C , 36-H ) :   0.9100 B( 34-C , 37-H ) :   0.9206

Dispersion correction           -0.026074223
FINAL SINGLE POINT ENERGY      -988.549092325188
Dispersion correction            ... done

DIPOLE MOMENT
-------------
                                X             Y             Z
Electronic contribution:     26.50335      23.37572     -27.92146
Nuclear contribution   :    -28.16568     -23.71293      28.78823
                        -----------------------------------------
Total Dipole Moment    :     -1.66233      -0.33721       0.86677
                        -----------------------------------------
Magnitude (a.u.)       :      1.90482
Magnitude (Debye)      :      4.84167

Rotational constants in cm-1:     0.014214     0.008384     0.007112
Rotational constants in MHz :   426.119611   251.341974   213.225950

                             ****ORCA TERMINATED NORMALLY****
TOTAL RUN TIME: 0 days 0 hours 12 minutes 12 seconds 291 msec
