                         Program Version 5.0.3 -  RELEASE  -
|  1> ! EnGrad PBEh-3c
|  2> %output
|  3> xyzfile=True
|  4> end
|  5> %scf
|  6> maxiter 250
|  7> end
|  8> %output
|  9> Print[P_Hirshfeld] = 1
| 10> end
| 11> % maxcore
| 12> 4000
| 13> *xyz 0 1
| 14> Pd   0.67304720   0.59787745  -0.55338554
| 15> O    2.28574902   1.59277582   0.28506725
| 16> C    1.69373748   2.72412071   0.24939944
| 17> O    0.49210242   2.74181791  -0.08142098
| 18> C    2.43925861   3.98838418   0.54790348
| 19> H    1.78521975   4.70850643   1.03601885
| 20> H    2.77692180   4.42352869  -0.39378203
| 21> H    3.31189828   3.80559060   1.16439483
| 22> N   -1.17811766  -0.25266550  -1.15646015
| 23> C   -1.25249880  -0.83997372  -2.50591073
| 24> H   -0.95024907  -0.11682934  -3.25844869
| 25> H   -2.27815463  -1.15775366  -2.73621698
| 26> H   -0.61944627  -1.70646410  -2.59890386
| 27> C   -2.10348834   0.88423336  -1.17890514
| 28> H   -2.06690690   1.43088300  -0.25339402
| 29> H   -3.13258167   0.55600672  -1.36720340
| 30> H   -1.81686310   1.59067684  -1.95638530
| 31> C   -1.42544129  -0.94335857   1.27267205
| 32> C   -0.37094967  -1.57715364   1.96655823
| 33> C   -0.23720037  -1.50510279   3.33743290
| 34> C   -1.19135109  -0.84416498   4.07227349
| 35> C   -2.35114899  -0.42167819   3.43196216
| 36> C   -2.40247096  -0.23328100   2.05850488
| 37> H   -1.10268360  -0.78675535   5.15182742
| 38> H   -3.19264993  -0.21602497   4.07573814
| 39> H    0.35029394  -2.18724695   1.44035906
| 40> H    0.58853053  -1.99345869   3.84249904
| 41> H   -3.66224361   0.86518643   1.78385746
| 42> C   -1.62152554  -1.27974694  -0.17438079
| 43> H   -2.69131610  -1.48362807  -0.30020035
| 44> H   -1.10945408  -2.21446355  -0.42598237
| 45> O    1.71235750  -1.00583989  -1.06371521
| 46> C    2.26813372  -0.88400298  -2.24388211
| 47> O    1.96214577  -0.05044944  -3.06172951
| 48> C    3.38064150  -1.86997733  -2.54823178
| 49> H    3.08808655  -2.89235660  -2.33533662
| 50> H    4.24731595  -1.64151646  -1.93339436
| 51> H    3.70166866  -1.80671407  -3.59024483
| 52> *
| 53>
| 54>                          ****END OF INPUT****

CARTESIAN COORDINATES (ANGSTROEM)
---------------------------------
  Pd     0.673047    0.597877   -0.553386
  O      2.285749    1.592776    0.285067
  C      1.693737    2.724121    0.249399
  O      0.492102    2.741818   -0.081421
  C      2.439259    3.988384    0.547903
  H      1.785220    4.708506    1.036019
  H      2.776922    4.423529   -0.393782
  H      3.311898    3.805591    1.164395
  N     -1.178118   -0.252665   -1.156460
  C     -1.252499   -0.839974   -2.505911
  H     -0.950249   -0.116829   -3.258449
  H     -2.278155   -1.157754   -2.736217
  H     -0.619446   -1.706464   -2.598904
  C     -2.103488    0.884233   -1.178905
  H     -2.066907    1.430883   -0.253394
  H     -3.132582    0.556007   -1.367203
  H     -1.816863    1.590677   -1.956385
  C     -1.425441   -0.943359    1.272672
  C     -0.370950   -1.577154    1.966558
  C     -0.237200   -1.505103    3.337433
  C     -1.191351   -0.844165    4.072273
  C     -2.351149   -0.421678    3.431962
  C     -2.402471   -0.233281    2.058505
  H     -1.102684   -0.786755    5.151827
  H     -3.192650   -0.216025    4.075738
  H      0.350294   -2.187247    1.440359
  H      0.588531   -1.993459    3.842499
  H     -3.662244    0.865186    1.783857
  C     -1.621526   -1.279747   -0.174381
  H     -2.691316   -1.483628   -0.300200
  H     -1.109454   -2.214464   -0.425982
  O      1.712357   -1.005840   -1.063715
  C      2.268134   -0.884003   -2.243882
  O      1.962146   -0.050449   -3.061730
  C      3.380641   -1.869977   -2.548232
  H      3.088087   -2.892357   -2.335337
  H      4.247316   -1.641516   -1.933394
  H      3.701669   -1.806714   -3.590245

 Total Charge           Charge          ....    0
 Multiplicity           Mult            ....    1
 Number of Electrons    NEL             ....  154
 Basis Dimension        Dim             ....  339

ORBITAL ENERGIES
----------------

  NO   OCC          E(Eh)            E(eV)
   0   2.0000     -19.491951      -530.4030
   1   2.0000     -19.487833      -530.2909
   2   2.0000     -19.477106      -529.9990
   3   2.0000     -19.433232      -528.8051
   4   2.0000     -14.723201      -400.6387
   5   2.0000     -10.564331      -287.4701
   6   2.0000     -10.532404      -286.6013
   7   2.0000     -10.515697      -286.1467
   8   2.0000     -10.502079      -285.7761
   9   2.0000     -10.489503      -285.4339
  10   2.0000     -10.479797      -285.1698
  11   2.0000     -10.477932      -285.1190
  12   2.0000     -10.463152      -284.7168
  13   2.0000     -10.462317      -284.6941
  14   2.0000     -10.459795      -284.6255
  15   2.0000     -10.456054      -284.5237
  16   2.0000     -10.437137      -284.0089
  17   2.0000     -10.415064      -283.4083
  18   2.0000      -3.658092       -99.5417
  19   2.0000      -2.305502       -62.7359
  20   2.0000      -2.303419       -62.6792
  21   2.0000      -2.266627       -61.6781
  22   2.0000      -1.194098       -32.4931
  23   2.0000      -1.151551       -31.3353
  24   2.0000      -1.079641       -29.3785
  25   2.0000      -1.076366       -29.2894
  26   2.0000      -1.054083       -28.6831
  27   2.0000      -0.972963       -26.4757
  28   2.0000      -0.883895       -24.0520
  29   2.0000      -0.847383       -23.0585
  30   2.0000      -0.828140       -22.5348
  31   2.0000      -0.819972       -22.3126
  32   2.0000      -0.800957       -21.7951
  33   2.0000      -0.797100       -21.6902
  34   2.0000      -0.721159       -19.6237
  35   2.0000      -0.686815       -18.6892
  36   2.0000      -0.670224       -18.2377
  37   2.0000      -0.607888       -16.5415
  38   2.0000      -0.593638       -16.1537
  39   2.0000      -0.589105       -16.0304
  40   2.0000      -0.579189       -15.7605
  41   2.0000      -0.572109       -15.5679
  42   2.0000      -0.554904       -15.0997
  43   2.0000      -0.539614       -14.6836
  44   2.0000      -0.536366       -14.5953
  45   2.0000      -0.530476       -14.4350
  46   2.0000      -0.521492       -14.1905
  47   2.0000      -0.516229       -14.0473
  48   2.0000      -0.511157       -13.9093
  49   2.0000      -0.495961       -13.4958
  50   2.0000      -0.489700       -13.3254
  51   2.0000      -0.488971       -13.3056
  52   2.0000      -0.476120       -12.9559
  53   2.0000      -0.467777       -12.7289
  54   2.0000      -0.456030       -12.4092
  55   2.0000      -0.454381       -12.3643
  56   2.0000      -0.444415       -12.0931
  57   2.0000      -0.441830       -12.0228
  58   2.0000      -0.438276       -11.9261
  59   2.0000      -0.434111       -11.8128
  60   2.0000      -0.431620       -11.7450
  61   2.0000      -0.419270       -11.4089
  62   2.0000      -0.414230       -11.2718
  63   2.0000      -0.404949       -11.0192
  64   2.0000      -0.384592       -10.4653
  65   2.0000      -0.371728       -10.1152
  66   2.0000      -0.368811       -10.0359
  67   2.0000      -0.359799        -9.7906
  68   2.0000      -0.349157        -9.5010
  69   2.0000      -0.342461        -9.3188
  70   2.0000      -0.317718        -8.6455
  71   2.0000      -0.313895        -8.5415
  72   2.0000      -0.307444        -8.3660
  73   2.0000      -0.300872        -8.1871
  74   2.0000      -0.297324        -8.0906
  75   2.0000      -0.293510        -7.9868
  76   2.0000      -0.272143        -7.4054
  77   0.0000      -0.051635        -1.4051
  78   0.0000      -0.024207        -0.6587
  79   0.0000      -0.009357        -0.2546
  80   0.0000       0.008291         0.2256
  81   0.0000       0.052675         1.4334

MULLIKEN ATOMIC CHARGES
-----------------------
   0 Pd:    0.525828
   1 O :   -0.490403
   2 C :    0.657311
   3 O :   -0.495951
   4 C :   -0.766100
   5 H :    0.249835
   6 H :    0.260259
   7 H :    0.255869
   8 N :   -0.484568
   9 C :   -0.525526
  10 H :    0.286525
  11 H :    0.219834
  12 H :    0.270707
  13 C :   -0.545645
  14 H :    0.294900
  15 H :    0.225716
  16 H :    0.278867
  17 C :    0.000591
  18 C :   -0.224859
  19 C :   -0.211986
  20 C :   -0.212896
  21 C :   -0.208086
  22 C :   -0.168167
  23 H :    0.231410
  24 H :    0.237928
  25 H :    0.259886
  26 H :    0.234849
  27 H :    0.124893
  28 C :   -0.339162
  29 H :    0.247261
  30 H :    0.274667
  31 O :   -0.558352
  32 C :    0.563941
  33 O :   -0.440611
  34 C :   -0.743909
  35 H :    0.227621
  36 H :    0.246638
  37 H :    0.240884
Sum of atomic charges:    0.0000000

LOEWDIN ATOMIC CHARGES
----------------------
   0 Pd:   -0.270741
   1 O :   -0.161886
   2 C :    0.180284
   3 O :   -0.188800
   4 C :   -0.377467
   5 H :    0.152868
   6 H :    0.164190
   7 H :    0.153501
   8 N :   -0.045945
   9 C :   -0.233049
  10 H :    0.160037
  11 H :    0.120352
  12 H :    0.148600
  13 C :   -0.236733
  14 H :    0.161106
  15 H :    0.124176
  16 H :    0.156427
  17 C :   -0.058767
  18 C :   -0.102087
  19 C :   -0.126921
  20 C :   -0.127489
  21 C :   -0.140262
  22 C :   -0.082698
  23 H :    0.140952
  24 H :    0.141069
  25 H :    0.162261
  26 H :    0.143305
  27 H :    0.106225
  28 C :   -0.105737
  29 H :    0.138574
  30 H :    0.157413
  31 O :   -0.198452
  32 C :    0.130886
  33 O :   -0.236264
  34 C :   -0.382999
  35 H :    0.139450
  36 H :    0.151989
  37 H :    0.142629

  Mayer bond orders larger than 0.100000
B(  0-Pd,  1-O ) :   0.5763 B(  0-Pd,  3-O ) :   0.4465 B(  0-Pd,  8-N ) :   0.4188
B(  0-Pd, 31-O ) :   0.6675 B(  0-Pd, 33-O ) :   0.1099 B(  1-O ,  2-C ) :   1.4039
B(  1-O ,  3-O ) :   0.1016 B(  2-C ,  3-O ) :   1.5370 B(  2-C ,  4-C ) :   0.9546
B(  4-C ,  5-H ) :   0.9108 B(  4-C ,  6-H ) :   0.9031 B(  4-C ,  7-H ) :   0.9087
B(  8-N ,  9-C ) :   0.9219 B(  8-N , 13-C ) :   0.9192 B(  8-N , 28-C ) :   0.8948
B(  9-C , 10-H ) :   0.8964 B(  9-C , 11-H ) :   0.9021 B(  9-C , 12-H ) :   0.9034
B( 13-C , 14-H ) :   0.8844 B( 13-C , 15-H ) :   0.9040 B( 13-C , 16-H ) :   0.8974
B( 17-C , 18-C ) :   1.4171 B( 17-C , 22-C ) :   1.3810 B( 17-C , 28-C ) :   0.9567
B( 18-C , 19-C ) :   1.4244 B( 18-C , 25-H ) :   0.8972 B( 19-C , 20-C ) :   1.4385
B( 19-C , 26-H ) :   0.9118 B( 20-C , 21-C ) :   1.4032 B( 20-C , 23-H ) :   0.9132
B( 21-C , 22-C ) :   1.4410 B( 21-C , 24-H ) :   0.9119 B( 22-C , 27-H ) :   0.9098
B( 28-C , 29-H ) :   0.8983 B( 28-C , 30-H ) :   0.9033 B( 31-O , 32-C ) :   1.2273
B( 32-C , 33-O ) :   1.8921 B( 32-C , 34-C ) :   0.9367 B( 34-C , 35-H ) :   0.9166
B( 34-C , 36-H ) :   0.9106 B( 34-C , 37-H ) :   0.9201

Dispersion correction           -0.026225527
FINAL SINGLE POINT ENERGY      -988.433629612724
Dispersion correction            ... done

DIPOLE MOMENT
-------------
                                X             Y             Z
Electronic contribution:     29.57842      29.42499     -27.81571
Nuclear contribution   :    -31.37606     -29.90869      28.67412
                        -----------------------------------------
Total Dipole Moment    :     -1.79764      -0.48370       0.85841
                        -----------------------------------------
Magnitude (a.u.)       :      2.04996
Magnitude (Debye)      :      5.21059

Rotational constants in cm-1:     0.013267     0.008296     0.007076
Rotational constants in MHz :   397.722805   248.717652   212.132313

                             ****ORCA TERMINATED NORMALLY****
TOTAL RUN TIME: 0 days 0 hours 14 minutes 31 seconds 839 msec
