                         Program Version 5.0.3 -  RELEASE  -
|  1> ! EnGrad PBEh-3c
|  2> %output
|  3> xyzfile=True
|  4> end
|  5> %scf
|  6> maxiter 250
|  7> end
|  8> %output
|  9> Print[P_Hirshfeld] = 1
| 10> end
| 11> % maxcore
| 12> 4000
| 13> *xyz 0 1
| 14> Pd   0.59572960   0.47364516  -0.55276290
| 15> O    2.21888101   1.42015595   0.09451961
| 16> C    1.61768764   2.52233871   0.26732274
| 17> O    0.37148404   2.53275587   0.11716708
| 18> C    2.44803129   3.73252425   0.56284205
| 19> H    1.88979742   4.54279944   1.02144625
| 20> H    2.88072014   4.08802706  -0.37247531
| 21> H    3.28307450   3.44857547   1.19625698
| 22> N   -1.24216930  -0.36558305  -1.13057587
| 23> C   -1.17778118  -1.26285477  -2.30398339
| 24> H   -0.78930588  -0.74375874  -3.17745597
| 25> H   -2.18324205  -1.64604778  -2.52651169
| 26> H   -0.52987723  -2.10798712  -2.08915194
| 27> C   -2.15535496   0.73836287  -1.47323984
| 28> H   -2.27270198   1.41986027  -0.63343178
| 29> H   -3.14381866   0.33937882  -1.74013151
| 30> H   -1.76786058   1.29744708  -2.32505901
| 31> C   -1.42166744  -0.83937281   1.39882147
| 32> C   -0.71637319  -1.80603298   2.09942394
| 33> C   -0.59440846  -1.76720379   3.48009359
| 34> C   -1.25160750  -0.75670215   4.16775604
| 35> C   -1.88603849   0.28046786   3.48930882
| 36> C   -1.99067569   0.23530528   2.10846403
| 37> H   -1.30209691  -0.77252173   5.24857122
| 38> H   -2.34575723   1.10237435   4.05787915
| 39> H   -0.30277499  -2.64532013   1.54655350
| 40> H   -0.09008161  -2.56009021   3.99120432
| 41> H   -2.55601108   0.99187570   1.60202877
| 42> C   -1.81862897  -1.16961114  -0.02020031
| 43> H   -2.91344114  -1.15285638  -0.12204272
| 44> H   -1.50867132  -2.19673533  -0.19597131
| 45> O    1.68982431  -1.03037052  -1.22798661
| 46> C    2.19896185  -0.68959278  -2.38059020
| 47> O    1.69924775   0.11255399  -3.13984918
| 48> C    3.52583427  -1.34179267  -2.71378294
| 49> H    3.48188117  -2.42489437  -2.63305482
| 50> H    4.28338848  -1.00626302  -2.00537684
| 51> H    3.83479141  -1.06056013  -3.71887509
| 52> *
| 53>
| 54>                          ****END OF INPUT****

CARTESIAN COORDINATES (ANGSTROEM)
---------------------------------
  Pd     0.595730    0.473645   -0.552763
  O      2.218881    1.420156    0.094520
  C      1.617688    2.522339    0.267323
  O      0.371484    2.532756    0.117167
  C      2.448031    3.732524    0.562842
  H      1.889797    4.542799    1.021446
  H      2.880720    4.088027   -0.372475
  H      3.283075    3.448575    1.196257
  N     -1.242169   -0.365583   -1.130576
  C     -1.177781   -1.262855   -2.303983
  H     -0.789306   -0.743759   -3.177456
  H     -2.183242   -1.646048   -2.526512
  H     -0.529877   -2.107987   -2.089152
  C     -2.155355    0.738363   -1.473240
  H     -2.272702    1.419860   -0.633432
  H     -3.143819    0.339379   -1.740132
  H     -1.767861    1.297447   -2.325059
  C     -1.421667   -0.839373    1.398821
  C     -0.716373   -1.806033    2.099424
  C     -0.594408   -1.767204    3.480094
  C     -1.251607   -0.756702    4.167756
  C     -1.886038    0.280468    3.489309
  C     -1.990676    0.235305    2.108464
  H     -1.302097   -0.772522    5.248571
  H     -2.345757    1.102374    4.057879
  H     -0.302775   -2.645320    1.546553
  H     -0.090082   -2.560090    3.991204
  H     -2.556011    0.991876    1.602029
  C     -1.818629   -1.169611   -0.020200
  H     -2.913441   -1.152856   -0.122043
  H     -1.508671   -2.196735   -0.195971
  O      1.689824   -1.030371   -1.227987
  C      2.198962   -0.689593   -2.380590
  O      1.699248    0.112554   -3.139849
  C      3.525834   -1.341793   -2.713783
  H      3.481881   -2.424894   -2.633055
  H      4.283388   -1.006263   -2.005377
  H      3.834791   -1.060560   -3.718875

 Total Charge           Charge          ....    0
 Multiplicity           Mult            ....    1
 Number of Electrons    NEL             ....  154
 Basis Dimension        Dim             ....  339

ORBITAL ENERGIES
----------------

  NO   OCC          E(Eh)            E(eV)
   0   2.0000     -19.498815      -530.5897
   1   2.0000     -19.492965      -530.4305
   2   2.0000     -19.471702      -529.8519
   3   2.0000     -19.432558      -528.7868
   4   2.0000     -14.719465      -400.5370
   5   2.0000     -10.569577      -287.6128
   6   2.0000     -10.530259      -286.5429
   7   2.0000     -10.498563      -285.6804
   8   2.0000     -10.485093      -285.3139
   9   2.0000     -10.474867      -285.0356
  10   2.0000     -10.471831      -284.9530
  11   2.0000     -10.461106      -284.6612
  12   2.0000     -10.459585      -284.6198
  13   2.0000     -10.458131      -284.5802
  14   2.0000     -10.457783      -284.5707
  15   2.0000     -10.456118      -284.5254
  16   2.0000     -10.440145      -284.0908
  17   2.0000     -10.411816      -283.3199
  18   2.0000      -3.655759       -99.4783
  19   2.0000      -2.305227       -62.7284
  20   2.0000      -2.300128       -62.5897
  21   2.0000      -2.264286       -61.6144
  22   2.0000      -1.203256       -32.7423
  23   2.0000      -1.149849       -31.2890
  24   2.0000      -1.084934       -29.5226
  25   2.0000      -1.076499       -29.2930
  26   2.0000      -1.051635       -28.6164
  27   2.0000      -0.970857       -26.4184
  28   2.0000      -0.879065       -23.9206
  29   2.0000      -0.850317       -23.1383
  30   2.0000      -0.832485       -22.6531
  31   2.0000      -0.820210       -22.3190
  32   2.0000      -0.796686       -21.6789
  33   2.0000      -0.794064       -21.6076
  34   2.0000      -0.718494       -19.5512
  35   2.0000      -0.695580       -18.9277
  36   2.0000      -0.673655       -18.3311
  37   2.0000      -0.615119       -16.7382
  38   2.0000      -0.602115       -16.3844
  39   2.0000      -0.584940       -15.9170
  40   2.0000      -0.574372       -15.6295
  41   2.0000      -0.566592       -15.4177
  42   2.0000      -0.558621       -15.2008
  43   2.0000      -0.547110       -14.8876
  44   2.0000      -0.545200       -14.8357
  45   2.0000      -0.528010       -14.3679
  46   2.0000      -0.526072       -14.3151
  47   2.0000      -0.524770       -14.2797
  48   2.0000      -0.508900       -13.8479
  49   2.0000      -0.495610       -13.4862
  50   2.0000      -0.494888       -13.4666
  51   2.0000      -0.489954       -13.3323
  52   2.0000      -0.486095       -13.2273
  53   2.0000      -0.476129       -12.9561
  54   2.0000      -0.459932       -12.5154
  55   2.0000      -0.457880       -12.4595
  56   2.0000      -0.446365       -12.1462
  57   2.0000      -0.444364       -12.0917
  58   2.0000      -0.438159       -11.9229
  59   2.0000      -0.432640       -11.7727
  60   2.0000      -0.430818       -11.7231
  61   2.0000      -0.416375       -11.3301
  62   2.0000      -0.414703       -11.2846
  63   2.0000      -0.406595       -11.0640
  64   2.0000      -0.401512       -10.9257
  65   2.0000      -0.385410       -10.4875
  66   2.0000      -0.370326       -10.0771
  67   2.0000      -0.362738        -9.8706
  68   2.0000      -0.352065        -9.5802
  69   2.0000      -0.340646        -9.2695
  70   2.0000      -0.317818        -8.6483
  71   2.0000      -0.314488        -8.5576
  72   2.0000      -0.307064        -8.3556
  73   2.0000      -0.302837        -8.2406
  74   2.0000      -0.295252        -8.0342
  75   2.0000      -0.293219        -7.9789
  76   2.0000      -0.268664        -7.3107
  77   0.0000      -0.039499        -1.0748
  78   0.0000      -0.002969        -0.0808
  79   0.0000       0.008639         0.2351
  80   0.0000       0.048836         1.3289
  81   0.0000       0.073599         2.0027

MULLIKEN ATOMIC CHARGES
-----------------------
   0 Pd:    0.538075
   1 O :   -0.490171
   2 C :    0.668909
   3 O :   -0.501329
   4 C :   -0.770698
   5 H :    0.250178
   6 H :    0.264019
   7 H :    0.259288
   8 N :   -0.488528
   9 C :   -0.541076
  10 H :    0.294103
  11 H :    0.218505
  12 H :    0.276414
  13 C :   -0.535693
  14 H :    0.273767
  15 H :    0.223800
  16 H :    0.284643
  17 C :    0.102610
  18 C :   -0.260606
  19 C :   -0.201566
  20 C :   -0.234085
  21 C :   -0.207349
  22 C :   -0.247936
  23 H :    0.224848
  24 H :    0.224972
  25 H :    0.228796
  26 H :    0.227666
  27 H :    0.217297
  28 C :   -0.338029
  29 H :    0.242899
  30 H :    0.256317
  31 O :   -0.556802
  32 C :    0.573280
  33 O :   -0.450227
  34 C :   -0.742053
  35 H :    0.229489
  36 H :    0.247747
  37 H :    0.238526
Sum of atomic charges:    0.0000000

LOEWDIN ATOMIC CHARGES
----------------------
   0 Pd:   -0.298851
   1 O :   -0.138274
   2 C :    0.188419
   3 O :   -0.187227
   4 C :   -0.377194
   5 H :    0.149991
   6 H :    0.165976
   7 H :    0.158628
   8 N :   -0.052024
   9 C :   -0.236046
  10 H :    0.162700
  11 H :    0.118363
  12 H :    0.152764
  13 C :   -0.231970
  14 H :    0.151667
  15 H :    0.122575
  16 H :    0.158969
  17 C :   -0.052680
  18 C :   -0.105336
  19 C :   -0.127967
  20 C :   -0.124668
  21 C :   -0.127983
  22 C :   -0.108984
  23 H :    0.137698
  24 H :    0.140334
  25 H :    0.145174
  26 H :    0.141809
  27 H :    0.140507
  28 C :   -0.102754
  29 H :    0.137646
  30 H :    0.149604
  31 O :   -0.197771
  32 C :    0.134087
  33 O :   -0.242525
  34 C :   -0.381181
  35 H :    0.141503
  36 H :    0.153199
  37 H :    0.141821

  Mayer bond orders larger than 0.100000
B(  0-Pd,  1-O ) :   0.5911 B(  0-Pd,  3-O ) :   0.4559 B(  0-Pd,  8-N ) :   0.4165
B(  0-Pd, 31-O ) :   0.6539 B(  0-Pd, 33-O ) :   0.1209 B(  1-O ,  2-C ) :   1.3810
B(  1-O ,  3-O ) :   0.1022 B(  2-C ,  3-O ) :   1.5314 B(  2-C ,  4-C ) :   0.9584
B(  4-C ,  5-H ) :   0.9117 B(  4-C ,  6-H ) :   0.9003 B(  4-C ,  7-H ) :   0.9057
B(  8-N ,  9-C ) :   0.9153 B(  8-N , 13-C ) :   0.9224 B(  8-N , 28-C ) :   0.8850
B(  9-C , 10-H ) :   0.8860 B(  9-C , 11-H ) :   0.9025 B(  9-C , 12-H ) :   0.8968
B( 13-C , 14-H ) :   0.8951 B( 13-C , 15-H ) :   0.9032 B( 13-C , 16-H ) :   0.8971
B( 17-C , 18-C ) :   1.4210 B( 17-C , 22-C ) :   1.3727 B( 17-C , 28-C ) :   0.9476
B( 18-C , 19-C ) :   1.4205 B( 18-C , 25-H ) :   0.9123 B( 19-C , 20-C ) :   1.4328
B( 19-C , 26-H ) :   0.9170 B( 20-C , 21-C ) :   1.4068 B( 20-C , 23-H ) :   0.9176
B( 21-C , 22-C ) :   1.4523 B( 21-C , 24-H ) :   0.9178 B( 22-C , 27-H ) :   0.9189
B( 28-C , 29-H ) :   0.8981 B( 28-C , 30-H ) :   0.9136 B( 31-O , 32-C ) :   1.2365
B( 32-C , 33-O ) :   1.8683 B( 32-C , 34-C ) :   0.9351 B( 34-C , 35-H ) :   0.9159
B( 34-C , 36-H ) :   0.9099 B( 34-C , 37-H ) :   0.9208

Dispersion correction           -0.026079257
FINAL SINGLE POINT ENERGY      -988.549684487315
Dispersion correction            ... done

DIPOLE MOMENT
-------------
                                X             Y             Z
Electronic contribution:     26.14664      23.04033     -27.74057
Nuclear contribution   :    -27.80281     -23.36806      28.58736
                        -----------------------------------------
Total Dipole Moment    :     -1.65617      -0.32773       0.84678
                        -----------------------------------------
Magnitude (a.u.)       :      1.88875
Magnitude (Debye)      :      4.80081

Rotational constants in cm-1:     0.014256     0.008380     0.007099
Rotational constants in MHz :   427.370580   251.220246   212.808799

                             ****ORCA TERMINATED NORMALLY****
TOTAL RUN TIME: 0 days 0 hours 13 minutes 15 seconds 389 msec
