                         Program Version 5.0.3 -  RELEASE  -
|  1> ! EnGrad PBEh-3c
|  2> %output
|  3> xyzfile=True
|  4> end
|  5> %scf
|  6> maxiter 250
|  7> end
|  8> %output
|  9> Print[P_Hirshfeld] = 1
| 10> end
| 11> % maxcore
| 12> 4000
| 13> *xyz 0 1
| 14> Pd   0.70075194   0.60524255  -0.54029556
| 15> O    2.27472982   1.56766069   0.27997031
| 16> C    1.67023467   2.71617153   0.24956111
| 17> O    0.47754121   2.73723331  -0.08127307
| 18> C    2.44783044   3.98031860   0.55107058
| 19> H    1.79579702   4.70434052   1.03578009
| 20> H    2.78491962   4.41155513  -0.39268826
| 21> H    3.31840892   3.79161876   1.16797507
| 22> N   -1.19742363  -0.25612703  -1.17945657
| 23> C   -1.24811685  -0.87517427  -2.51092540
| 24> H   -0.94685961  -0.14827705  -3.25520093
| 25> H   -2.27965314  -1.18146604  -2.72664819
| 26> H   -0.61362662  -1.73759490  -2.58263282
| 27> C   -2.11261378   0.88250404  -1.18764780
| 28> H   -2.08452877   1.42687945  -0.26236317
| 29> H   -3.13571069   0.53965241  -1.38341429
| 30> H   -1.81565922   1.56259533  -1.98140812
| 31> C   -1.44021540  -0.92934149   1.27942342
| 32> C   -0.38907522  -1.59816834   1.97351014
| 33> C   -0.23570677  -1.49862839   3.34223983
| 34> C   -1.20660707  -0.88353686   4.07567568
| 35> C   -2.33843052  -0.35832176   3.44358363
| 36> C   -2.46327161  -0.18057199   2.07743153
| 37> H   -1.11227468  -0.78563415   5.15401278
| 38> H   -3.19223308  -0.17447990   4.05998284
| 39> H    0.32399778  -2.21065172   1.43502664
| 40> H    0.57144222  -2.01417648   3.84471766
| 41> H   -3.48151786   0.89022893   1.81900965
| 42> C   -1.63599060  -1.27550983  -0.16917041
| 43> H   -2.70394252  -1.47603507  -0.29922926
| 44> H   -1.12812624  -2.21948820  -0.41006382
| 45> O    1.71858366  -1.01271091  -1.06749726
| 46> C    2.26724990  -0.86698740  -2.25746154
| 47> O    1.93986026  -0.03290961  -3.07264581
| 48> C    3.39813005  -1.85077707  -2.55011809
| 49> H    3.11119112  -2.87393791  -2.34835440
| 50> H    4.25581058  -1.61085808  -1.93717710
| 51> H    3.70640151  -1.76814872  -3.59690758
| 52> *
| 53>
| 54>                          ****END OF INPUT****

CARTESIAN COORDINATES (ANGSTROEM)
---------------------------------
  Pd     0.700752    0.605243   -0.540296
  O      2.274730    1.567661    0.279970
  C      1.670235    2.716172    0.249561
  O      0.477541    2.737233   -0.081273
  C      2.447830    3.980319    0.551071
  H      1.795797    4.704341    1.035780
  H      2.784920    4.411555   -0.392688
  H      3.318409    3.791619    1.167975
  N     -1.197424   -0.256127   -1.179457
  C     -1.248117   -0.875174   -2.510925
  H     -0.946860   -0.148277   -3.255201
  H     -2.279653   -1.181466   -2.726648
  H     -0.613627   -1.737595   -2.582633
  C     -2.112614    0.882504   -1.187648
  H     -2.084529    1.426879   -0.262363
  H     -3.135711    0.539652   -1.383414
  H     -1.815659    1.562595   -1.981408
  C     -1.440215   -0.929341    1.279423
  C     -0.389075   -1.598168    1.973510
  C     -0.235707   -1.498628    3.342240
  C     -1.206607   -0.883537    4.075676
  C     -2.338431   -0.358322    3.443584
  C     -2.463272   -0.180572    2.077432
  H     -1.112275   -0.785634    5.154013
  H     -3.192233   -0.174480    4.059983
  H      0.323998   -2.210652    1.435027
  H      0.571442   -2.014176    3.844718
  H     -3.481518    0.890229    1.819010
  C     -1.635991   -1.275510   -0.169170
  H     -2.703943   -1.476035   -0.299229
  H     -1.128126   -2.219488   -0.410064
  O      1.718584   -1.012711   -1.067497
  C      2.267250   -0.866987   -2.257462
  O      1.939860   -0.032910   -3.072646
  C      3.398130   -1.850777   -2.550118
  H      3.111191   -2.873938   -2.348354
  H      4.255811   -1.610858   -1.937177
  H      3.706402   -1.768149   -3.596908

 Total Charge           Charge          ....    0
 Multiplicity           Mult            ....    1
 Number of Electrons    NEL             ....  154
 Basis Dimension        Dim             ....  339

ORBITAL ENERGIES
----------------

  NO   OCC          E(Eh)            E(eV)
   0   2.0000     -19.497301      -530.5485
   1   2.0000     -19.496955      -530.5391
   2   2.0000     -19.475640      -529.9591
   3   2.0000     -19.435694      -528.8721
   4   2.0000     -14.716088      -400.4451
   5   2.0000     -10.571931      -287.6769
   6   2.0000     -10.534100      -286.6474
   7   2.0000     -10.509177      -285.9692
   8   2.0000     -10.498685      -285.6838
   9   2.0000     -10.492525      -285.5161
  10   2.0000     -10.478317      -285.1295
  11   2.0000     -10.474570      -285.0275
  12   2.0000     -10.462978      -284.7121
  13   2.0000     -10.459194      -284.6091
  14   2.0000     -10.457729      -284.5693
  15   2.0000     -10.454482      -284.4809
  16   2.0000     -10.441519      -284.1282
  17   2.0000     -10.414823      -283.4017
  18   2.0000      -3.656449       -99.4970
  19   2.0000      -2.304471       -62.7078
  20   2.0000      -2.301508       -62.6272
  21   2.0000      -2.264976       -61.6331
  22   2.0000      -1.199126       -32.6299
  23   2.0000      -1.147590       -31.2275
  24   2.0000      -1.081316       -29.4241
  25   2.0000      -1.072815       -29.1928
  26   2.0000      -1.051596       -28.6154
  27   2.0000      -0.964977       -26.2584
  28   2.0000      -0.877452       -23.8767
  29   2.0000      -0.847956       -23.0741
  30   2.0000      -0.828602       -22.5474
  31   2.0000      -0.819352       -22.2957
  32   2.0000      -0.795830       -21.6556
  33   2.0000      -0.794055       -21.6073
  34   2.0000      -0.716692       -19.5022
  35   2.0000      -0.681302       -18.5392
  36   2.0000      -0.668226       -18.1833
  37   2.0000      -0.612074       -16.6554
  38   2.0000      -0.591807       -16.1039
  39   2.0000      -0.587038       -15.9741
  40   2.0000      -0.575070       -15.6485
  41   2.0000      -0.567482       -15.4420
  42   2.0000      -0.552273       -15.0281
  43   2.0000      -0.545176       -14.8350
  44   2.0000      -0.540608       -14.7107
  45   2.0000      -0.525612       -14.3026
  46   2.0000      -0.523963       -14.2577
  47   2.0000      -0.514898       -14.0111
  48   2.0000      -0.508446       -13.8355
  49   2.0000      -0.494603       -13.4588
  50   2.0000      -0.488538       -13.2938
  51   2.0000      -0.485031       -13.1984
  52   2.0000      -0.476584       -12.9685
  53   2.0000      -0.467375       -12.7179
  54   2.0000      -0.459122       -12.4933
  55   2.0000      -0.455093       -12.3837
  56   2.0000      -0.448617       -12.2075
  57   2.0000      -0.445784       -12.1304
  58   2.0000      -0.437778       -11.9125
  59   2.0000      -0.430966       -11.7272
  60   2.0000      -0.430760       -11.7216
  61   2.0000      -0.419200       -11.4070
  62   2.0000      -0.409559       -11.1447
  63   2.0000      -0.402036       -10.9399
  64   2.0000      -0.386449       -10.5158
  65   2.0000      -0.383764       -10.4427
  66   2.0000      -0.372452       -10.1349
  67   2.0000      -0.361608        -9.8399
  68   2.0000      -0.349507        -9.5106
  69   2.0000      -0.344541        -9.3754
  70   2.0000      -0.315273        -8.5790
  71   2.0000      -0.313370        -8.5272
  72   2.0000      -0.307058        -8.3555
  73   2.0000      -0.300672        -8.1817
  74   2.0000      -0.297581        -8.0976
  75   2.0000      -0.290329        -7.9002
  76   2.0000      -0.271575        -7.3899
  77   0.0000      -0.048255        -1.3131
  78   0.0000      -0.019093        -0.5196
  79   0.0000      -0.000171        -0.0046
  80   0.0000       0.035313         0.9609
  81   0.0000       0.047773         1.3000

MULLIKEN ATOMIC CHARGES
-----------------------
   0 Pd:    0.525391
   1 O :   -0.503873
   2 C :    0.659580
   3 O :   -0.481710
   4 C :   -0.763519
   5 H :    0.249136
   6 H :    0.261349
   7 H :    0.258800
   8 N :   -0.474991
   9 C :   -0.518461
  10 H :    0.282248
  11 H :    0.214575
  12 H :    0.270474
  13 C :   -0.535566
  14 H :    0.287796
  15 H :    0.220304
  16 H :    0.273978
  17 C :   -0.006302
  18 C :   -0.231062
  19 C :   -0.197301
  20 C :   -0.220969
  21 C :   -0.185467
  22 C :   -0.227674
  23 H :    0.230848
  24 H :    0.233023
  25 H :    0.263024
  26 H :    0.230484
  27 H :    0.176815
  28 C :   -0.340814
  29 H :    0.243105
  30 H :    0.270303
  31 O :   -0.560063
  32 C :    0.563736
  33 O :   -0.441045
  34 C :   -0.741833
  35 H :    0.229936
  36 H :    0.248162
  37 H :    0.237584
Sum of atomic charges:   -0.0000000

LOEWDIN ATOMIC CHARGES
----------------------
   0 Pd:   -0.273747
   1 O :   -0.165310
   2 C :    0.195253
   3 O :   -0.171485
   4 C :   -0.377826
   5 H :    0.152308
   6 H :    0.164244
   7 H :    0.154637
   8 N :   -0.057584
   9 C :   -0.232659
  10 H :    0.157972
  11 H :    0.118029
  12 H :    0.149202
  13 C :   -0.235896
  14 H :    0.158597
  15 H :    0.121235
  16 H :    0.154379
  17 C :   -0.048226
  18 C :   -0.103903
  19 C :   -0.126087
  20 C :   -0.130985
  21 C :   -0.142489
  22 C :   -0.113772
  23 H :    0.141335
  24 H :    0.138765
  25 H :    0.162094
  26 H :    0.143127
  27 H :    0.141160
  28 C :   -0.110402
  29 H :    0.135552
  30 H :    0.155383
  31 O :   -0.205320
  32 C :    0.140172
  33 O :   -0.237598
  34 C :   -0.384164
  35 H :    0.140464
  36 H :    0.151914
  37 H :    0.141630

  Mayer bond orders larger than 0.100000
B(  0-Pd,  1-O ) :   0.6049 B(  0-Pd,  3-O ) :   0.4357 B(  0-Pd,  8-N ) :   0.4011
B(  0-Pd, 31-O ) :   0.6696 B(  0-Pd, 33-O ) :   0.1087 B(  1-O ,  2-C ) :   1.3586
B(  1-O ,  3-O ) :   0.1025 B(  2-C ,  3-O ) :   1.5615 B(  2-C ,  4-C ) :   0.9536
B(  4-C ,  5-H ) :   0.9102 B(  4-C ,  6-H ) :   0.9026 B(  4-C ,  7-H ) :   0.9077
B(  8-N ,  9-C ) :   0.9254 B(  8-N , 13-C ) :   0.9256 B(  8-N , 28-C ) :   0.8939
B(  9-C , 10-H ) :   0.8980 B(  9-C , 11-H ) :   0.9038 B(  9-C , 12-H ) :   0.9036
B( 13-C , 14-H ) :   0.8878 B( 13-C , 15-H ) :   0.9050 B( 13-C , 16-H ) :   0.9003
B( 17-C , 18-C ) :   1.4459 B( 17-C , 22-C ) :   1.3336 B( 17-C , 28-C ) :   0.9607
B( 18-C , 19-C ) :   1.3968 B( 18-C , 25-H ) :   0.8962 B( 19-C , 20-C ) :   1.4626
B( 19-C , 26-H ) :   0.9139 B( 20-C , 21-C ) :   1.3810 B( 20-C , 23-H ) :   0.9139
B( 21-C , 22-C ) :   1.4610 B( 21-C , 24-H ) :   0.9121 B( 22-C , 27-H ) :   0.9169
B( 28-C , 29-H ) :   0.8982 B( 28-C , 30-H ) :   0.9049 B( 31-O , 32-C ) :   1.2217
B( 32-C , 33-O ) :   1.8921 B( 32-C , 34-C ) :   0.9346 B( 34-C , 35-H ) :   0.9164
B( 34-C , 36-H ) :   0.9104 B( 34-C , 37-H ) :   0.9209

Dispersion correction           -0.026049105
FINAL SINGLE POINT ENERGY      -988.462315685124
Dispersion correction            ... done

DIPOLE MOMENT
-------------
                                X             Y             Z
Electronic contribution:     31.23905      29.98991     -27.08097
Nuclear contribution   :    -32.97038     -30.29174      27.95260
                        -----------------------------------------
Total Dipole Moment    :     -1.73134      -0.30182       0.87162
                        -----------------------------------------
Magnitude (a.u.)       :      1.96172
Magnitude (Debye)      :      4.98630

Rotational constants in cm-1:     0.013261     0.008256     0.007052
Rotational constants in MHz :   397.569120   247.497045   211.401901

                             ****ORCA TERMINATED NORMALLY****
TOTAL RUN TIME: 0 days 0 hours 14 minutes 46 seconds 571 msec
