                         Program Version 5.0.3 -  RELEASE  -
|  1> ! EnGrad PBEh-3c
|  2> %output
|  3> xyzfile=True
|  4> end
|  5> %scf
|  6> maxiter 250
|  7> end
|  8> %output
|  9> Print[P_Hirshfeld] = 1
| 10> end
| 11> % maxcore
| 12> 4000
| 13> *xyz 0 1
| 14> Pd   0.73778792   0.60670207  -0.52114009
| 15> O    2.24456789   1.53242317   0.27282076
| 16> C    1.64430553   2.69741255   0.25565788
| 17> O    0.44558433   2.72427302  -0.08031080
| 18> C    2.45819451   3.95137346   0.55498998
| 19> H    1.82185041   4.69486818   1.03566587
| 20> H    2.80461155   4.38207417  -0.39008062
| 21> H    3.33309607   3.75672639   1.17609094
| 22> N   -1.22407018  -0.27567094  -1.20364236
| 23> C   -1.24905401  -0.94512074  -2.51471251
| 24> H   -0.93740694  -0.22388676  -3.25319888
| 25> H   -2.28253247  -1.24155729  -2.70892687
| 26> H   -0.59863605  -1.81337229  -2.54266297
| 27> C   -2.13432024   0.86745194  -1.22107678
| 28> H   -2.12248042   1.41854888  -0.28448005
| 29> H   -3.14534547   0.50387270  -1.42257991
| 30> H   -1.81498736   1.50274845  -2.03871187
| 31> C   -1.48287219  -0.89209026   1.30882120
| 32> C   -0.44770418  -1.62726538   1.97876005
| 33> C   -0.24157967  -1.50399953   3.34930005
| 34> C   -1.24752663  -0.93966029   4.08812878
| 35> C   -2.31118116  -0.23772590   3.46154687
| 36> C   -2.54079588  -0.05682727   2.10320983
| 37> H   -1.13437424  -0.78824986   5.15784036
| 38> H   -3.19097055  -0.06531471   4.04148354
| 39> H    0.25831480  -2.26535546   1.42531616
| 40> H    0.53359545  -2.06323677   3.85278087
| 41> H   -3.08006152   0.93310239   1.89477176
| 42> C   -1.66752558  -1.26407695  -0.15895111
| 43> H   -2.73681083  -1.45821794  -0.29543211
| 44> H   -1.17449939  -2.22798265  -0.37291158
| 45> O    1.73779562  -1.01935725  -1.08495116
| 46> C    2.26075776  -0.82635479  -2.28619438
| 47> O    1.89462569  -0.00677971  -3.08574699
| 48> C    3.42869314  -1.79254617  -2.56705059
| 49> H    3.16484361  -2.83080851  -2.37916484
| 50> H    4.27980419  -1.53690277  -1.94337985
| 51> H    3.72014002  -1.67844119  -3.61080942
| 52> *
| 53>
| 54>                          ****END OF INPUT****

CARTESIAN COORDINATES (ANGSTROEM)
---------------------------------
  Pd     0.737788    0.606702   -0.521140
  O      2.244568    1.532423    0.272821
  C      1.644306    2.697413    0.255658
  O      0.445584    2.724273   -0.080311
  C      2.458195    3.951373    0.554990
  H      1.821850    4.694868    1.035666
  H      2.804612    4.382074   -0.390081
  H      3.333096    3.756726    1.176091
  N     -1.224070   -0.275671   -1.203642
  C     -1.249054   -0.945121   -2.514713
  H     -0.937407   -0.223887   -3.253199
  H     -2.282532   -1.241557   -2.708927
  H     -0.598636   -1.813372   -2.542663
  C     -2.134320    0.867452   -1.221077
  H     -2.122480    1.418549   -0.284480
  H     -3.145345    0.503873   -1.422580
  H     -1.814987    1.502748   -2.038712
  C     -1.482872   -0.892090    1.308821
  C     -0.447704   -1.627265    1.978760
  C     -0.241580   -1.504000    3.349300
  C     -1.247527   -0.939660    4.088129
  C     -2.311181   -0.237726    3.461547
  C     -2.540796   -0.056827    2.103210
  H     -1.134374   -0.788250    5.157840
  H     -3.190971   -0.065315    4.041484
  H      0.258315   -2.265355    1.425316
  H      0.533595   -2.063237    3.852781
  H     -3.080062    0.933102    1.894772
  C     -1.667526   -1.264077   -0.158951
  H     -2.736811   -1.458218   -0.295432
  H     -1.174499   -2.227983   -0.372912
  O      1.737796   -1.019357   -1.084951
  C      2.260758   -0.826355   -2.286194
  O      1.894626   -0.006780   -3.085747
  C      3.428693   -1.792546   -2.567051
  H      3.164844   -2.830809   -2.379165
  H      4.279804   -1.536903   -1.943380
  H      3.720140   -1.678441   -3.610809

 Total Charge           Charge          ....    0
 Multiplicity           Mult            ....    1
 Number of Electrons    NEL             ....  154
 Basis Dimension        Dim             ....  339

ORBITAL ENERGIES
----------------

  NO   OCC          E(Eh)            E(eV)
   0   2.0000     -19.507080      -530.8146
   1   2.0000     -19.506582      -530.8011
   2   2.0000     -19.472208      -529.8657
   3   2.0000     -19.439761      -528.9828
   4   2.0000     -14.707052      -400.1992
   5   2.0000     -10.582706      -287.9701
   6   2.0000     -10.534547      -286.6596
   7   2.0000     -10.496294      -285.6187
   8   2.0000     -10.494678      -285.5747
   9   2.0000     -10.486570      -285.3541
  10   2.0000     -10.477579      -285.1094
  11   2.0000     -10.472299      -284.9657
  12   2.0000     -10.466014      -284.7947
  13   2.0000     -10.459695      -284.6228
  14   2.0000     -10.458307      -284.5850
  15   2.0000     -10.457592      -284.5656
  16   2.0000     -10.449534      -284.3463
  17   2.0000     -10.414602      -283.3957
  18   2.0000      -3.655581       -99.4734
  19   2.0000      -2.305167       -62.7268
  20   2.0000      -2.299935       -62.5844
  21   2.0000      -2.264119       -61.6098
  22   2.0000      -1.204162       -32.7669
  23   2.0000      -1.149679       -31.2844
  24   2.0000      -1.088727       -29.6258
  25   2.0000      -1.064076       -28.9550
  26   2.0000      -1.052546       -28.6412
  27   2.0000      -0.955573       -26.0024
  28   2.0000      -0.866878       -23.5889
  29   2.0000      -0.851509       -23.1707
  30   2.0000      -0.832044       -22.6411
  31   2.0000      -0.816087       -22.2069
  32   2.0000      -0.791648       -21.5418
  33   2.0000      -0.786915       -21.4131
  34   2.0000      -0.711498       -19.3608
  35   2.0000      -0.682539       -18.5728
  36   2.0000      -0.662087       -18.0163
  37   2.0000      -0.620844       -16.8940
  38   2.0000      -0.590627       -16.0718
  39   2.0000      -0.583642       -15.8817
  40   2.0000      -0.567658       -15.4468
  41   2.0000      -0.560810       -15.2604
  42   2.0000      -0.554712       -15.0945
  43   2.0000      -0.552606       -15.0372
  44   2.0000      -0.547841       -14.9075
  45   2.0000      -0.529005       -14.3950
  46   2.0000      -0.523664       -14.2496
  47   2.0000      -0.514944       -14.0123
  48   2.0000      -0.507030       -13.7970
  49   2.0000      -0.494351       -13.4520
  50   2.0000      -0.490558       -13.3488
  51   2.0000      -0.487613       -13.2686
  52   2.0000      -0.475193       -12.9307
  53   2.0000      -0.469912       -12.7869
  54   2.0000      -0.463432       -12.6106
  55   2.0000      -0.452961       -12.3257
  56   2.0000      -0.450940       -12.2707
  57   2.0000      -0.448908       -12.2154
  58   2.0000      -0.439446       -11.9579
  59   2.0000      -0.431095       -11.7307
  60   2.0000      -0.426432       -11.6038
  61   2.0000      -0.419128       -11.4051
  62   2.0000      -0.411342       -11.1932
  63   2.0000      -0.402115       -10.9421
  64   2.0000      -0.386667       -10.5217
  65   2.0000      -0.386266       -10.5108
  66   2.0000      -0.379123       -10.3165
  67   2.0000      -0.363451        -9.8900
  68   2.0000      -0.350294        -9.5320
  69   2.0000      -0.341889        -9.3033
  70   2.0000      -0.313664        -8.5352
  71   2.0000      -0.312416        -8.5013
  72   2.0000      -0.305785        -8.3208
  73   2.0000      -0.299326        -8.1451
  74   2.0000      -0.297925        -8.1070
  75   2.0000      -0.286618        -7.7993
  76   2.0000      -0.271490        -7.3876
  77   0.0000      -0.043618        -1.1869
  78   0.0000      -0.027788        -0.7561
  79   0.0000       0.000991         0.0270
  80   0.0000       0.037345         1.0162
  81   0.0000       0.068246         1.8571

MULLIKEN ATOMIC CHARGES
-----------------------
   0 Pd:    0.533187
   1 O :   -0.515049
   2 C :    0.666712
   3 O :   -0.478590
   4 C :   -0.763962
   5 H :    0.250992
   6 H :    0.264241
   7 H :    0.261335
   8 N :   -0.465019
   9 C :   -0.511084
  10 H :    0.277908
  11 H :    0.211454
  12 H :    0.266675
  13 C :   -0.521965
  14 H :    0.274754
  15 H :    0.216626
  16 H :    0.268297
  17 C :   -0.008052
  18 C :   -0.242249
  19 C :   -0.183821
  20 C :   -0.225828
  21 C :   -0.201094
  22 C :   -0.261195
  23 H :    0.227539
  24 H :    0.225753
  25 H :    0.265254
  26 H :    0.229014
  27 H :    0.240950
  28 C :   -0.340068
  29 H :    0.236008
  30 H :    0.262905
  31 O :   -0.561867
  32 C :    0.560596
  33 O :   -0.430054
  34 C :   -0.740721
  35 H :    0.230488
  36 H :    0.246185
  37 H :    0.233745
Sum of atomic charges:   -0.0000000

LOEWDIN ATOMIC CHARGES
----------------------
   0 Pd:   -0.274142
   1 O :   -0.154529
   2 C :    0.215413
   3 O :   -0.167622
   4 C :   -0.377352
   5 H :    0.152930
   6 H :    0.165634
   7 H :    0.156644
   8 N :   -0.075073
   9 C :   -0.232433
  10 H :    0.155777
  11 H :    0.116553
  12 H :    0.150250
  13 C :   -0.233766
  14 H :    0.155244
  15 H :    0.118686
  16 H :    0.152248
  17 C :   -0.030928
  18 C :   -0.111347
  19 C :   -0.118870
  20 C :   -0.139899
  21 C :   -0.133734
  22 C :   -0.149861
  23 H :    0.141415
  24 H :    0.137940
  25 H :    0.162616
  26 H :    0.143335
  27 H :    0.164595
  28 C :   -0.117896
  29 H :    0.130468
  30 H :    0.151292
  31 O :   -0.213413
  32 C :    0.140124
  33 O :   -0.224990
  34 C :   -0.386528
  35 H :    0.141253
  36 H :    0.150937
  37 H :    0.139031

  Mayer bond orders larger than 0.100000
B(  0-Pd,  1-O ) :   0.6299 B(  0-Pd,  3-O ) :   0.4311 B(  0-Pd,  8-N ) :   0.3752
B(  0-Pd, 31-O ) :   0.6729 B(  0-Pd, 33-O ) :   0.1066 B(  1-O ,  2-C ) :   1.3231
B(  1-O ,  3-O ) :   0.1038 B(  2-C ,  3-O ) :   1.5669 B(  2-C ,  4-C ) :   0.9531
B(  4-C ,  5-H ) :   0.9084 B(  4-C ,  6-H ) :   0.9005 B(  4-C ,  7-H ) :   0.9065
B(  8-N ,  9-C ) :   0.9270 B(  8-N , 13-C ) :   0.9314 B(  8-N , 28-C ) :   0.8973
B(  9-C , 10-H ) :   0.8994 B(  9-C , 11-H ) :   0.9047 B(  9-C , 12-H ) :   0.9054
B( 13-C , 14-H ) :   0.8942 B( 13-C , 15-H ) :   0.9047 B( 13-C , 16-H ) :   0.9040
B( 17-C , 18-C ) :   1.4685 B( 17-C , 22-C ) :   1.2813 B( 17-C , 28-C ) :   0.9644
B( 18-C , 19-C ) :   1.3580 B( 18-C , 25-H ) :   0.8967 B( 19-C , 20-C ) :   1.4771
B( 19-C , 22-C ) :   0.1025 B( 19-C , 26-H ) :   0.9150 B( 20-C , 21-C ) :   1.3525
B( 20-C , 23-H ) :   0.9154 B( 21-C , 22-C ) :   1.4997 B( 21-C , 24-H ) :   0.9119
B( 22-C , 27-H ) :   0.9054 B( 28-C , 29-H ) :   0.8972 B( 28-C , 30-H ) :   0.9068
B( 31-O , 32-C ) :   1.2143 B( 32-C , 33-O ) :   1.9073 B( 32-C , 34-C ) :   0.9282
B( 34-C , 35-H ) :   0.9175 B( 34-C , 36-H ) :   0.9120 B( 34-C , 37-H ) :   0.9205

Dispersion correction           -0.025564736
FINAL SINGLE POINT ENERGY      -988.482931997985
Dispersion correction            ... done

DIPOLE MOMENT
-------------
                                X             Y             Z
Electronic contribution:     33.69507      30.26059     -26.00657
Nuclear contribution   :    -35.18803     -30.33092      26.88790
                        -----------------------------------------
Total Dipole Moment    :     -1.49296      -0.07033       0.88133
                        -----------------------------------------
Magnitude (a.u.)       :      1.73511
Magnitude (Debye)      :      4.41031

Rotational constants in cm-1:     0.013294     0.008194     0.007011
Rotational constants in MHz :   398.548633   245.652189   210.171988

                             ****ORCA TERMINATED NORMALLY****
TOTAL RUN TIME: 0 days 0 hours 14 minutes 43 seconds 765 msec
