                         Program Version 5.0.3 -  RELEASE  -
|  1> ! EnGrad PBEh-3c
|  2> %output
|  3> xyzfile=True
|  4> end
|  5> %scf
|  6> maxiter 250
|  7> end
|  8> %output
|  9> Print[P_Hirshfeld] = 1
| 10> end
| 11> % maxcore
| 12> 4000
| 13> *xyz 0 1
| 14> Pd   0.71141247   0.60566266  -0.53478180
| 15> O    2.26604793   1.55751783   0.27791237
| 16> C    1.66277116   2.71077190   0.25131602
| 17> O    0.46834266   2.73350279  -0.08099609
| 18> C    2.45081366   3.97198695   0.55219875
| 19> H    1.80329629   4.70161398   1.03574721
| 20> H    2.79058780   4.40306926  -0.39193767
| 21> H    3.32263651   3.78157525   1.17031116
| 22> N   -1.20509364  -0.26175260  -1.18641827
| 23> C   -1.24838661  -0.89530784  -2.51201549
| 24> H   -0.94413873  -0.17004075  -3.25462465
| 25> H   -2.28048193  -1.19876285  -2.72154724
| 26> H   -0.60931169  -1.75940686  -2.57112780
| 27> C   -2.11886182   0.87817140  -1.19727008
| 28> H   -2.09545287   1.42448156  -0.26872935
| 29> H   -3.13848399   0.52935349  -1.39468782
| 30> H   -1.81546583   1.54536885  -1.99790258
| 31> C   -1.45249384  -0.91861900   1.28788535
| 32> C   -0.40595113  -1.60654371   1.97502129
| 33> C   -0.23739724  -1.50017443   3.34427206
| 34> C   -1.21838546  -0.89969157   4.07926021
| 35> C   -2.33058699  -0.32360914   3.44875421
| 36> C   -2.48558639  -0.14495299   2.08485162
| 37> H   -1.11863587  -0.78638707   5.15511452
| 38> H   -3.19186967  -0.14305751   4.05465795
| 39> H    0.30509142  -2.22639779   1.43223155
| 40> H    0.56054831  -2.02829812   3.84703859
| 41> H   -3.36596164   0.90256974   1.84081721
| 42> C   -1.64506771  -1.27221896  -0.16622886
| 43> H   -2.71340342  -1.47090654  -0.29813628
| 44> H   -1.14147440  -2.22193326  -0.39936982
| 45> O    1.72411368  -1.01462401  -1.07252124
| 46> C    2.26538119  -0.85529160  -2.26573207
| 47> O    1.92683983  -0.02538832  -3.07641688
| 48> C    3.40692741  -1.83401574  -2.55499198
| 49> H    3.12663459  -2.86152344  -2.35722296
| 50> H    4.26271697  -1.58957059  -1.93896252
| 51> H    3.71035604  -1.74232707  -3.60090912
| 52> *
| 53>
| 54>                          ****END OF INPUT****

CARTESIAN COORDINATES (ANGSTROEM)
---------------------------------
  Pd     0.711412    0.605663   -0.534782
  O      2.266048    1.557518    0.277912
  C      1.662771    2.710772    0.251316
  O      0.468343    2.733503   -0.080996
  C      2.450814    3.971987    0.552199
  H      1.803296    4.701614    1.035747
  H      2.790588    4.403069   -0.391938
  H      3.322637    3.781575    1.170311
  N     -1.205094   -0.261753   -1.186418
  C     -1.248387   -0.895308   -2.512015
  H     -0.944139   -0.170041   -3.254625
  H     -2.280482   -1.198763   -2.721547
  H     -0.609312   -1.759407   -2.571128
  C     -2.118862    0.878171   -1.197270
  H     -2.095453    1.424482   -0.268729
  H     -3.138484    0.529353   -1.394688
  H     -1.815466    1.545369   -1.997903
  C     -1.452494   -0.918619    1.287885
  C     -0.405951   -1.606544    1.975021
  C     -0.237397   -1.500174    3.344272
  C     -1.218385   -0.899692    4.079260
  C     -2.330587   -0.323609    3.448754
  C     -2.485586   -0.144953    2.084852
  H     -1.118636   -0.786387    5.155115
  H     -3.191870   -0.143058    4.054658
  H      0.305091   -2.226398    1.432232
  H      0.560548   -2.028298    3.847039
  H     -3.365962    0.902570    1.840817
  C     -1.645068   -1.272219   -0.166229
  H     -2.713403   -1.470907   -0.298136
  H     -1.141474   -2.221933   -0.399370
  O      1.724114   -1.014624   -1.072521
  C      2.265381   -0.855292   -2.265732
  O      1.926840   -0.025388   -3.076417
  C      3.406927   -1.834016   -2.554992
  H      3.126635   -2.861523   -2.357223
  H      4.262717   -1.589571   -1.938963
  H      3.710356   -1.742327   -3.600909

 Total Charge           Charge          ....    0
 Multiplicity           Mult            ....    1
 Number of Electrons    NEL             ....  154
 Basis Dimension        Dim             ....  339

ORBITAL ENERGIES
----------------

  NO   OCC          E(Eh)            E(eV)
   0   2.0000     -19.499939      -530.6203
   1   2.0000     -19.499823      -530.6172
   2   2.0000     -19.474598      -529.9308
   3   2.0000     -19.436758      -528.9011
   4   2.0000     -14.713438      -400.3730
   5   2.0000     -10.574984      -287.7599
   6   2.0000     -10.534099      -286.6474
   7   2.0000     -10.503322      -285.8099
   8   2.0000     -10.497396      -285.6487
   9   2.0000     -10.493268      -285.5363
  10   2.0000     -10.478177      -285.1257
  11   2.0000     -10.473838      -285.0076
  12   2.0000     -10.463387      -284.7232
  13   2.0000     -10.458322      -284.5854
  14   2.0000     -10.457138      -284.5532
  15   2.0000     -10.454812      -284.4899
  16   2.0000     -10.443784      -284.1898
  17   2.0000     -10.414637      -283.3967
  18   2.0000      -3.656018       -99.4853
  19   2.0000      -2.304403       -62.7060
  20   2.0000      -2.300913       -62.6110
  21   2.0000      -2.264541       -61.6213
  22   2.0000      -1.200490       -32.6670
  23   2.0000      -1.148124       -31.2420
  24   2.0000      -1.083296       -29.4780
  25   2.0000      -1.070302       -29.1244
  26   2.0000      -1.051969       -28.6255
  27   2.0000      -0.961823       -26.1725
  28   2.0000      -0.874184       -23.7878
  29   2.0000      -0.848191       -23.0805
  30   2.0000      -0.829572       -22.5738
  31   2.0000      -0.818458       -22.2714
  32   2.0000      -0.794560       -21.6211
  33   2.0000      -0.791699       -21.5432
  34   2.0000      -0.714859       -19.4523
  35   2.0000      -0.680185       -18.5088
  36   2.0000      -0.666949       -18.1486
  37   2.0000      -0.614374       -16.7180
  38   2.0000      -0.591167       -16.0865
  39   2.0000      -0.585953       -15.9446
  40   2.0000      -0.572843       -15.5879
  41   2.0000      -0.565458       -15.3869
  42   2.0000      -0.551714       -15.0129
  43   2.0000      -0.547236       -14.8910
  44   2.0000      -0.542626       -14.7656
  45   2.0000      -0.525757       -14.3066
  46   2.0000      -0.522919       -14.2294
  47   2.0000      -0.514425       -13.9982
  48   2.0000      -0.507956       -13.8222
  49   2.0000      -0.494412       -13.4536
  50   2.0000      -0.488573       -13.2948
  51   2.0000      -0.484315       -13.1789
  52   2.0000      -0.478100       -13.0098
  53   2.0000      -0.468627       -12.7520
  54   2.0000      -0.460293       -12.5252
  55   2.0000      -0.454515       -12.3680
  56   2.0000      -0.449507       -12.2317
  57   2.0000      -0.447047       -12.1648
  58   2.0000      -0.438089       -11.9210
  59   2.0000      -0.430871       -11.7246
  60   2.0000      -0.429618       -11.6905
  61   2.0000      -0.419004       -11.4017
  62   2.0000      -0.409062       -11.1311
  63   2.0000      -0.400613       -10.9012
  64   2.0000      -0.391260       -10.6467
  65   2.0000      -0.384389       -10.4598
  66   2.0000      -0.373918       -10.1748
  67   2.0000      -0.362192        -9.8557
  68   2.0000      -0.349650        -9.5145
  69   2.0000      -0.344552        -9.3757
  70   2.0000      -0.314605        -8.5608
  71   2.0000      -0.313116        -8.5203
  72   2.0000      -0.306616        -8.3434
  73   2.0000      -0.300222        -8.1695
  74   2.0000      -0.297684        -8.1004
  75   2.0000      -0.289083        -7.8663
  76   2.0000      -0.271525        -7.3886
  77   0.0000      -0.046883        -1.2758
  78   0.0000      -0.020228        -0.5504
  79   0.0000       0.001839         0.0500
  80   0.0000       0.044673         1.2156
  81   0.0000       0.060212         1.6385

MULLIKEN ATOMIC CHARGES
-----------------------
   0 Pd:    0.527067
   1 O :   -0.506800
   2 C :    0.662065
   3 O :   -0.480915
   4 C :   -0.763686
   5 H :    0.249647
   6 H :    0.262168
   7 H :    0.259557
   8 N :   -0.471592
   9 C :   -0.516235
  10 H :    0.280912
  11 H :    0.213554
  12 H :    0.269398
  13 C :   -0.531454
  14 H :    0.283596
  15 H :    0.219033
  16 H :    0.272459
  17 C :   -0.002936
  18 C :   -0.234497
  19 C :   -0.192969
  20 C :   -0.222920
  21 C :   -0.182568
  22 C :   -0.251322
  23 H :    0.229786
  24 H :    0.229689
  25 H :    0.263723
  26 H :    0.229257
  27 H :    0.201060
  28 C :   -0.341084
  29 H :    0.240720
  30 H :    0.268236
  31 O :   -0.560419
  32 C :    0.562824
  33 O :   -0.437909
  34 C :   -0.741595
  35 H :    0.230108
  36 H :    0.247585
  37 H :    0.236455
Sum of atomic charges:    0.0000000

LOEWDIN ATOMIC CHARGES
----------------------
   0 Pd:   -0.274101
   1 O :   -0.162155
   2 C :    0.201186
   3 O :   -0.170366
   4 C :   -0.377692
   5 H :    0.152473
   6 H :    0.164639
   7 H :    0.155222
   8 N :   -0.062489
   9 C :   -0.232577
  10 H :    0.157289
  11 H :    0.117528
  12 H :    0.149504
  13 C :   -0.235286
  14 H :    0.157490
  15 H :    0.120378
  16 H :    0.153759
  17 C :   -0.043312
  18 C :   -0.105928
  19 C :   -0.124556
  20 C :   -0.133416
  21 C :   -0.141284
  22 C :   -0.127401
  23 H :    0.141294
  24 H :    0.137865
  25 H :    0.162106
  26 H :    0.143031
  27 H :    0.154275
  28 C :   -0.112573
  29 H :    0.133890
  30 H :    0.154230
  31 O :   -0.207363
  32 C :    0.139930
  33 O :   -0.233924
  34 C :   -0.384839
  35 H :    0.140687
  36 H :    0.151625
  37 H :    0.140859

  Mayer bond orders larger than 0.100000
B(  0-Pd,  1-O ) :   0.6125 B(  0-Pd,  3-O ) :   0.4345 B(  0-Pd,  8-N ) :   0.3936
B(  0-Pd, 31-O ) :   0.6707 B(  0-Pd, 33-O ) :   0.1081 B(  1-O ,  2-C ) :   1.3482
B(  1-O ,  3-O ) :   0.1028 B(  2-C ,  3-O ) :   1.5629 B(  2-C ,  4-C ) :   0.9535
B(  4-C ,  5-H ) :   0.9097 B(  4-C ,  6-H ) :   0.9020 B(  4-C ,  7-H ) :   0.9074
B(  8-N ,  9-C ) :   0.9260 B(  8-N , 13-C ) :   0.9275 B(  8-N , 28-C ) :   0.8947
B(  9-C , 10-H ) :   0.8985 B(  9-C , 11-H ) :   0.9041 B(  9-C , 12-H ) :   0.9041
B( 13-C , 14-H ) :   0.8898 B( 13-C , 15-H ) :   0.9050 B( 13-C , 16-H ) :   0.9014
B( 17-C , 18-C ) :   1.4532 B( 17-C , 22-C ) :   1.3150 B( 17-C , 28-C ) :   0.9618
B( 18-C , 19-C ) :   1.3864 B( 18-C , 25-H ) :   0.8964 B( 19-C , 20-C ) :   1.4672
B( 19-C , 26-H ) :   0.9146 B( 20-C , 21-C ) :   1.3737 B( 20-C , 23-H ) :   0.9146
B( 21-C , 22-C ) :   1.4670 B( 21-C , 24-H ) :   0.9126 B( 22-C , 27-H ) :   0.9163
B( 28-C , 29-H ) :   0.8982 B( 28-C , 30-H ) :   0.9054 B( 31-O , 32-C ) :   1.2198
B( 32-C , 33-O ) :   1.8965 B( 32-C , 34-C ) :   0.9327 B( 34-C , 35-H ) :   0.9167
B( 34-C , 36-H ) :   0.9109 B( 34-C , 37-H ) :   0.9208

Dispersion correction           -0.025756359
FINAL SINGLE POINT ENERGY      -988.476498659406
Dispersion correction            ... done

DIPOLE MOMENT
-------------
                                X             Y             Z
Electronic contribution:     31.92919      30.07878     -26.77622
Nuclear contribution   :    -33.60871     -30.30302      27.64613
                        -----------------------------------------
Total Dipole Moment    :     -1.67953      -0.22424       0.86992
                        -----------------------------------------
Magnitude (a.u.)       :      1.90469
Magnitude (Debye)      :      4.84134

Rotational constants in cm-1:     0.013273     0.008238     0.007040
Rotational constants in MHz :   397.916918   246.981592   211.064179

                             ****ORCA TERMINATED NORMALLY****
TOTAL RUN TIME: 0 days 0 hours 14 minutes 41 seconds 278 msec
