                         Program Version 5.0.3 -  RELEASE  -
|  1> ! EnGrad PBEh-3c
|  2> %output
|  3> xyzfile=True
|  4> end
|  5> %scf
|  6> maxiter 250
|  7> end
|  8> %output
|  9> Print[P_Hirshfeld] = 1
| 10> end
| 11> % maxcore
| 12> 4000
| 13> *xyz 0 1
| 14> Pd   0.70331562   0.60534358  -0.53896959
| 15> O    2.27264197   1.56522150   0.27947541
| 16> C    1.66843982   2.71487300   0.24998314
| 17> O    0.47532911   2.73633618  -0.08120646
| 18> C    2.44854785   3.97831497   0.55134189
| 19> H    1.79760047   4.70368483   1.03577218
| 20> H    2.78628273   4.40951442  -0.39250776
| 21> H    3.31942559   3.78920346   1.16853686
| 22> N   -1.19926814  -0.25747989  -1.18113075
| 23> C   -1.24818172  -0.88001606  -2.51118755
| 24> H   -0.94620528  -0.15351087  -3.25506234
| 25> H   -2.27985245  -1.18562564  -2.72542150
| 26> H   -0.61258895  -1.74284032  -2.57986605
| 27> C   -2.11411633   0.88146211  -1.18996180
| 28> H   -2.08715584   1.42630280  -0.26389414
| 29> H   -3.13637762   0.53717569  -1.38612539
| 30> H   -1.81561271   1.55845264  -1.98537476
| 31> C   -1.44316817  -0.92676291   1.28145838
| 32> C   -0.39313360  -1.60018248   1.97387354
| 33> C   -0.23611330  -1.49900019   3.34272855
| 34> C   -1.20943958  -0.88742181   4.07653770
| 35> C   -2.33654428  -0.34997394   3.44482707
| 36> C   -2.46863795  -0.17200620   2.07921594
| 37> H   -1.11380444  -0.78581522   5.15427773
| 38> H   -3.19214569  -0.16692333   4.05870229
| 39> H    0.31945111  -2.21443840   1.43435447
| 40> H    0.56882241  -2.01757251   3.84527581
| 41> H   -3.45372847   0.89319669   1.82425402
| 42> C   -1.63817350  -1.27471843  -0.16846301
| 43> H   -2.70621771  -1.47480174  -0.29896642
| 44> H   -1.13133625  -2.22007620  -0.40749209
| 45> O    1.71991354  -1.01317098  -1.06870545
| 46> C    2.26680051  -0.86417475  -2.25945047
| 47> O    1.93672906  -0.03110086  -3.07355269
| 48> C    3.40024567  -1.84674625  -2.55129018
| 49> H    3.11490502  -2.87095243  -2.35048714
| 50> H    4.25747146  -1.60573878  -1.93760647
| 51> H    3.70735251  -1.76193903  -3.59786989
| 52> *
| 53>
| 54>                          ****END OF INPUT****

CARTESIAN COORDINATES (ANGSTROEM)
---------------------------------
  Pd     0.703316    0.605344   -0.538970
  O      2.272642    1.565221    0.279475
  C      1.668440    2.714873    0.249983
  O      0.475329    2.736336   -0.081206
  C      2.448548    3.978315    0.551342
  H      1.797600    4.703685    1.035772
  H      2.786283    4.409514   -0.392508
  H      3.319426    3.789203    1.168537
  N     -1.199268   -0.257480   -1.181131
  C     -1.248182   -0.880016   -2.511188
  H     -0.946205   -0.153511   -3.255062
  H     -2.279852   -1.185626   -2.725421
  H     -0.612589   -1.742840   -2.579866
  C     -2.114116    0.881462   -1.189962
  H     -2.087156    1.426303   -0.263894
  H     -3.136378    0.537176   -1.386125
  H     -1.815613    1.558453   -1.985375
  C     -1.443168   -0.926763    1.281458
  C     -0.393134   -1.600182    1.973874
  C     -0.236113   -1.499000    3.342729
  C     -1.209440   -0.887422    4.076538
  C     -2.336544   -0.349974    3.444827
  C     -2.468638   -0.172006    2.079216
  H     -1.113804   -0.785815    5.154278
  H     -3.192146   -0.166923    4.058702
  H      0.319451   -2.214438    1.434354
  H      0.568822   -2.017573    3.845276
  H     -3.453728    0.893197    1.824254
  C     -1.638173   -1.274718   -0.168463
  H     -2.706218   -1.474802   -0.298966
  H     -1.131336   -2.220076   -0.407492
  O      1.719914   -1.013171   -1.068705
  C      2.266801   -0.864175   -2.259450
  O      1.936729   -0.031101   -3.073553
  C      3.400246   -1.846746   -2.551290
  H      3.114905   -2.870952   -2.350487
  H      4.257471   -1.605739   -1.937606
  H      3.707353   -1.761939   -3.597870

 Total Charge           Charge          ....    0
 Multiplicity           Mult            ....    1
 Number of Electrons    NEL             ....  154
 Basis Dimension        Dim             ....  339

ORBITAL ENERGIES
----------------

  NO   OCC          E(Eh)            E(eV)
   0   2.0000     -19.497931      -530.5657
   1   2.0000     -19.497641      -530.5578
   2   2.0000     -19.475385      -529.9522
   3   2.0000     -19.435941      -528.8788
   4   2.0000     -14.715445      -400.4276
   5   2.0000     -10.572661      -287.6967
   6   2.0000     -10.534089      -286.6471
   7   2.0000     -10.507840      -285.9329
   8   2.0000     -10.498363      -285.6750
   9   2.0000     -10.492678      -285.5203
  10   2.0000     -10.478284      -285.1286
  11   2.0000     -10.474386      -285.0225
  12   2.0000     -10.463040      -284.7138
  13   2.0000     -10.458912      -284.6015
  14   2.0000     -10.457533      -284.5639
  15   2.0000     -10.454518      -284.4819
  16   2.0000     -10.442060      -284.1429
  17   2.0000     -10.414769      -283.4003
  18   2.0000      -3.656331       -99.4938
  19   2.0000      -2.304434       -62.7068
  20   2.0000      -2.301353       -62.6230
  21   2.0000      -2.264857       -61.6299
  22   2.0000      -1.199447       -32.6386
  23   2.0000      -1.147713       -31.2309
  24   2.0000      -1.081779       -29.4367
  25   2.0000      -1.072210       -29.1763
  26   2.0000      -1.051692       -28.6180
  27   2.0000      -0.964188       -26.2369
  28   2.0000      -0.876649       -23.8548
  29   2.0000      -0.847965       -23.0743
  30   2.0000      -0.828833       -22.5537
  31   2.0000      -0.819137       -22.2899
  32   2.0000      -0.795517       -21.6471
  33   2.0000      -0.793469       -21.5914
  34   2.0000      -0.716232       -19.4897
  35   2.0000      -0.680925       -18.5289
  36   2.0000      -0.667958       -18.1761
  37   2.0000      -0.612608       -16.6699
  38   2.0000      -0.591631       -16.0991
  39   2.0000      -0.586771       -15.9668
  40   2.0000      -0.574528       -15.6337
  41   2.0000      -0.566990       -15.4286
  42   2.0000      -0.552072       -15.0226
  43   2.0000      -0.545674       -14.8485
  44   2.0000      -0.541088       -14.7237
  45   2.0000      -0.525357       -14.2957
  46   2.0000      -0.523953       -14.2575
  47   2.0000      -0.514699       -14.0057
  48   2.0000      -0.508316       -13.8320
  49   2.0000      -0.494547       -13.4573
  50   2.0000      -0.488539       -13.2938
  51   2.0000      -0.484684       -13.1889
  52   2.0000      -0.476956       -12.9786
  53   2.0000      -0.467672       -12.7260
  54   2.0000      -0.459394       -12.5008
  55   2.0000      -0.455000       -12.3812
  56   2.0000      -0.448833       -12.2134
  57   2.0000      -0.446099       -12.1390
  58   2.0000      -0.437816       -11.9136
  59   2.0000      -0.430900       -11.7254
  60   2.0000      -0.430517       -11.7150
  61   2.0000      -0.419143       -11.4055
  62   2.0000      -0.409311       -11.1379
  63   2.0000      -0.401598       -10.9280
  64   2.0000      -0.387983       -10.5576
  65   2.0000      -0.383970       -10.4484
  66   2.0000      -0.372760       -10.1433
  67   2.0000      -0.361755        -9.8439
  68   2.0000      -0.349544        -9.5116
  69   2.0000      -0.344594        -9.3769
  70   2.0000      -0.315104        -8.5744
  71   2.0000      -0.313302        -8.5254
  72   2.0000      -0.306947        -8.3525
  73   2.0000      -0.300559        -8.1786
  74   2.0000      -0.297604        -8.0982
  75   2.0000      -0.290021        -7.8919
  76   2.0000      -0.271561        -7.3895
  77   0.0000      -0.047921        -1.3040
  78   0.0000      -0.019228        -0.5232
  79   0.0000       0.000550         0.0150
  80   0.0000       0.040948         1.1143
  81   0.0000       0.047293         1.2869

MULLIKEN ATOMIC CHARGES
-----------------------
   0 Pd:    0.525751
   1 O :   -0.504555
   2 C :    0.660208
   3 O :   -0.481525
   4 C :   -0.763563
   5 H :    0.249257
   6 H :    0.261545
   7 H :    0.258984
   8 N :   -0.474134
   9 C :   -0.517917
  10 H :    0.281920
  11 H :    0.214320
  12 H :    0.270215
  13 C :   -0.534565
  14 H :    0.286763
  15 H :    0.219978
  16 H :    0.273619
  17 C :   -0.005388
  18 C :   -0.231894
  19 C :   -0.196240
  20 C :   -0.221502
  21 C :   -0.184166
  22 C :   -0.234363
  23 H :    0.230612
  24 H :    0.232183
  25 H :    0.263187
  26 H :    0.230135
  27 H :    0.183119
  28 C :   -0.340920
  29 H :    0.242510
  30 H :    0.269812
  31 O :   -0.560136
  32 C :    0.563515
  33 O :   -0.440294
  34 C :   -0.741781
  35 H :    0.229978
  36 H :    0.248022
  37 H :    0.237311
Sum of atomic charges:    0.0000000

LOEWDIN ATOMIC CHARGES
----------------------
   0 Pd:   -0.273849
   1 O :   -0.164548
   2 C :    0.196688
   3 O :   -0.171215
   4 C :   -0.377794
   5 H :    0.152347
   6 H :    0.164338
   7 H :    0.154778
   8 N :   -0.058753
   9 C :   -0.232638
  10 H :    0.157804
  11 H :    0.117903
  12 H :    0.149274
  13 C :   -0.235751
  14 H :    0.158325
  15 H :    0.121018
  16 H :    0.154228
  17 C :   -0.047054
  18 C :   -0.104386
  19 C :   -0.125752
  20 C :   -0.131570
  21 C :   -0.142285
  22 C :   -0.117316
  23 H :    0.141321
  24 H :    0.138506
  25 H :    0.162086
  26 H :    0.143095
  27 H :    0.144802
  28 C :   -0.110922
  29 H :    0.135140
  30 H :    0.155107
  31 O :   -0.205790
  32 C :    0.140097
  33 O :   -0.236712
  34 C :   -0.384326
  35 H :    0.140517
  36 H :    0.151844
  37 H :    0.141443

  Mayer bond orders larger than 0.100000
B(  0-Pd,  1-O ) :   0.6067 B(  0-Pd,  3-O ) :   0.4354 B(  0-Pd,  8-N ) :   0.3993
B(  0-Pd, 31-O ) :   0.6699 B(  0-Pd, 33-O ) :   0.1086 B(  1-O ,  2-C ) :   1.3561
B(  1-O ,  3-O ) :   0.1025 B(  2-C ,  3-O ) :   1.5618 B(  2-C ,  4-C ) :   0.9536
B(  4-C ,  5-H ) :   0.9101 B(  4-C ,  6-H ) :   0.9024 B(  4-C ,  7-H ) :   0.9076
B(  8-N ,  9-C ) :   0.9256 B(  8-N , 13-C ) :   0.9261 B(  8-N , 28-C ) :   0.8941
B(  9-C , 10-H ) :   0.8981 B(  9-C , 11-H ) :   0.9039 B(  9-C , 12-H ) :   0.9037
B( 13-C , 14-H ) :   0.8883 B( 13-C , 15-H ) :   0.9050 B( 13-C , 16-H ) :   0.9005
B( 17-C , 18-C ) :   1.4477 B( 17-C , 22-C ) :   1.3290 B( 17-C , 28-C ) :   0.9609
B( 18-C , 19-C ) :   1.3944 B( 18-C , 25-H ) :   0.8962 B( 19-C , 20-C ) :   1.4638
B( 19-C , 26-H ) :   0.9141 B( 20-C , 21-C ) :   1.3794 B( 20-C , 23-H ) :   0.9140
B( 21-C , 22-C ) :   1.4620 B( 21-C , 24-H ) :   0.9123 B( 22-C , 27-H ) :   0.9170
B( 28-C , 29-H ) :   0.8983 B( 28-C , 30-H ) :   0.9050 B( 31-O , 32-C ) :   1.2213
B( 32-C , 33-O ) :   1.8931 B( 32-C , 34-C ) :   0.9342 B( 34-C , 35-H ) :   0.9165
B( 34-C , 36-H ) :   0.9105 B( 34-C , 37-H ) :   0.9209

Dispersion correction           -0.025987502
FINAL SINGLE POINT ENERGY      -988.466130816528
Dispersion correction            ... done

DIPOLE MOMENT
-------------
                                X             Y             Z
Electronic contribution:     31.40366      30.01211     -27.00789
Nuclear contribution   :    -33.12389     -30.29445      27.87890
                        -----------------------------------------
Total Dipole Moment    :     -1.72023      -0.28234       0.87101
                        -----------------------------------------
Magnitude (a.u.)       :      1.94873
Magnitude (Debye)      :      4.95328

Rotational constants in cm-1:     0.013264     0.008252     0.007049
Rotational constants in MHz :   397.657581   247.374261   211.321900

                             ****ORCA TERMINATED NORMALLY****
TOTAL RUN TIME: 0 days 0 hours 14 minutes 40 seconds 907 msec
