                         Program Version 5.0.3 -  RELEASE  -
|  1> ! EnGrad PBEh-3c
|  2> %output
|  3> xyzfile=True
|  4> end
|  5> %scf
|  6> maxiter 250
|  7> end
|  8> %output
|  9> Print[P_Hirshfeld] = 1
| 10> end
| 11> % maxcore
| 12> 4000
| 13> *xyz 0 1
| 14> Pd   0.70865954   0.60555417  -0.53620565
| 15> O    2.26828991   1.56013708   0.27844380
| 16> C    1.66469850   2.71216627   0.25086284
| 17> O    0.47071805   2.73446614  -0.08106761
| 18> C    2.45004329   3.97413848   0.55190742
| 19> H    1.80135972   4.70231807   1.03575570
| 20> H    2.78912407   4.40526061  -0.39213150
| 21> H    3.32154479   3.78416884   1.16970790
| 22> N   -1.20311297  -0.26029988  -1.18462051
| 23> C   -1.24831695  -0.89010864  -2.51173399
| 24> H   -0.94484136  -0.16442059  -3.25477347
| 25> H   -2.28026791  -1.19429620  -2.72286449
| 26> H   -0.61042596  -1.75377424  -2.57409880
| 27> C   -2.11724835   0.87929024  -1.19478527
| 28> H   -2.09263188   1.42510078  -0.26708538
| 29> H   -3.13776783   0.53201304  -1.39177660
| 30> H   -1.81551577   1.54981734  -1.99364312
| 31> C   -1.44932311  -0.92138793   1.28570018
| 32> C   -0.40159317  -1.60438089   1.97463105
| 33> C   -0.23696070  -1.49977519   3.34374727
| 34> C   -1.21534386  -0.89551985   4.07833456
| 35> C   -2.33261247  -0.33257317   3.44741898
| 36> C   -2.47982392  -0.15415108   2.08293549
| 37> H   -1.11699318  -0.78619264   5.15483001
| 38> H   -3.19196352  -0.15117189   4.05603303
| 39> H    0.30997372  -2.22233159   1.43295334
| 40> H    0.56336150  -2.02465141   3.84643925
| 41> H   -3.39580236   0.89938290   1.83518573
| 42> C   -1.64272368  -1.27306878  -0.16698847
| 43> H   -2.71096028  -1.47223091  -0.29841852
| 44> H   -1.13802743  -2.22130186  -0.40213139
| 45> O    1.72268563  -1.01412998  -1.07122387
| 46> C    2.26586376  -0.85831187  -2.26359633
| 47> O    1.93020217  -0.02733058  -3.07544306
| 48> C    3.40465562  -1.83834411  -2.55373337
| 49> H    3.12264654  -2.86472930  -2.35493278
| 50> H    4.26093349  -1.59506778  -1.93850146
| 51> H    3.70933484  -1.74899514  -3.59987578
| 52> *
| 53>
| 54>                          ****END OF INPUT****

CARTESIAN COORDINATES (ANGSTROEM)
---------------------------------
  Pd     0.708660    0.605554   -0.536206
  O      2.268290    1.560137    0.278444
  C      1.664699    2.712166    0.250863
  O      0.470718    2.734466   -0.081068
  C      2.450043    3.974138    0.551907
  H      1.801360    4.702318    1.035756
  H      2.789124    4.405261   -0.392132
  H      3.321545    3.784169    1.169708
  N     -1.203113   -0.260300   -1.184621
  C     -1.248317   -0.890109   -2.511734
  H     -0.944841   -0.164421   -3.254773
  H     -2.280268   -1.194296   -2.722864
  H     -0.610426   -1.753774   -2.574099
  C     -2.117248    0.879290   -1.194785
  H     -2.092632    1.425101   -0.267085
  H     -3.137768    0.532013   -1.391777
  H     -1.815516    1.549817   -1.993643
  C     -1.449323   -0.921388    1.285700
  C     -0.401593   -1.604381    1.974631
  C     -0.236961   -1.499775    3.343747
  C     -1.215344   -0.895520    4.078335
  C     -2.332612   -0.332573    3.447419
  C     -2.479824   -0.154151    2.082935
  H     -1.116993   -0.786193    5.154830
  H     -3.191964   -0.151172    4.056033
  H      0.309974   -2.222332    1.432953
  H      0.563361   -2.024651    3.846439
  H     -3.395802    0.899383    1.835186
  C     -1.642724   -1.273069   -0.166988
  H     -2.710960   -1.472231   -0.298419
  H     -1.138027   -2.221302   -0.402131
  O      1.722686   -1.014130   -1.071224
  C      2.265864   -0.858312   -2.263596
  O      1.930202   -0.027331   -3.075443
  C      3.404656   -1.838344   -2.553733
  H      3.122647   -2.864729   -2.354933
  H      4.260933   -1.595068   -1.938501
  H      3.709335   -1.748995   -3.599876

 Total Charge           Charge          ....    0
 Multiplicity           Mult            ....    1
 Number of Electrons    NEL             ....  154
 Basis Dimension        Dim             ....  339

ORBITAL ENERGIES
----------------

  NO   OCC          E(Eh)            E(eV)
   0   2.0000     -19.499253      -530.6017
   1   2.0000     -19.499079      -530.5969
   2   2.0000     -19.474862      -529.9379
   3   2.0000     -19.436474      -528.8933
   4   2.0000     -14.714116      -400.3915
   5   2.0000     -10.574191      -287.7384
   6   2.0000     -10.534088      -286.6471
   7   2.0000     -10.504906      -285.8530
   8   2.0000     -10.497716      -285.6574
   9   2.0000     -10.493049      -285.5304
  10   2.0000     -10.478215      -285.1267
  11   2.0000     -10.474019      -285.0126
  12   2.0000     -10.463244      -284.7193
  13   2.0000     -10.458472      -284.5895
  14   2.0000     -10.457234      -284.5558
  15   2.0000     -10.454682      -284.4864
  16   2.0000     -10.443195      -284.1738
  17   2.0000     -10.414675      -283.3977
  18   2.0000      -3.656115       -99.4879
  19   2.0000      -2.304399       -62.7059
  20   2.0000      -2.301054       -62.6149
  21   2.0000      -2.264638       -61.6239
  22   2.0000      -1.200131       -32.6572
  23   2.0000      -1.147980       -31.2381
  24   2.0000      -1.082771       -29.4637
  25   2.0000      -1.070950       -29.1420
  26   2.0000      -1.051879       -28.6231
  27   2.0000      -0.962605       -26.1938
  28   2.0000      -0.875010       -23.8102
  29   2.0000      -0.848079       -23.0774
  30   2.0000      -0.829319       -22.5669
  31   2.0000      -0.818689       -22.2777
  32   2.0000      -0.794881       -21.6298
  33   2.0000      -0.792286       -21.5592
  34   2.0000      -0.715311       -19.4646
  35   2.0000      -0.680356       -18.5134
  36   2.0000      -0.667322       -18.1588
  37   2.0000      -0.613761       -16.7013
  38   2.0000      -0.591309       -16.0903
  39   2.0000      -0.586226       -15.9520
  40   2.0000      -0.573412       -15.6033
  41   2.0000      -0.565976       -15.4010
  42   2.0000      -0.551782       -15.0148
  43   2.0000      -0.546708       -14.8767
  44   2.0000      -0.542099       -14.7513
  45   2.0000      -0.525507       -14.2998
  46   2.0000      -0.523345       -14.2409
  47   2.0000      -0.514451       -13.9989
  48   2.0000      -0.508071       -13.8253
  49   2.0000      -0.494451       -13.4547
  50   2.0000      -0.488554       -13.2942
  51   2.0000      -0.484271       -13.1777
  52   2.0000      -0.477772       -13.0008
  53   2.0000      -0.468317       -12.7435
  54   2.0000      -0.459982       -12.5167
  55   2.0000      -0.454712       -12.3733
  56   2.0000      -0.449277       -12.2254
  57   2.0000      -0.446735       -12.1563
  58   2.0000      -0.437974       -11.9179
  59   2.0000      -0.430871       -11.7246
  60   2.0000      -0.429928       -11.6989
  61   2.0000      -0.419044       -11.4028
  62   2.0000      -0.409067       -11.1313
  63   2.0000      -0.400833       -10.9072
  64   2.0000      -0.390485       -10.6256
  65   2.0000      -0.384249       -10.4560
  66   2.0000      -0.373494       -10.1633
  67   2.0000      -0.362048        -9.8518
  68   2.0000      -0.349613        -9.5135
  69   2.0000      -0.344605        -9.3772
  70   2.0000      -0.314768        -8.5653
  71   2.0000      -0.313176        -8.5219
  72   2.0000      -0.306725        -8.3464
  73   2.0000      -0.300333        -8.1725
  74   2.0000      -0.297656        -8.0996
  75   2.0000      -0.289395        -7.8748
  76   2.0000      -0.271536        -7.3889
  77   0.0000      -0.047234        -1.2853
  78   0.0000      -0.019804        -0.5389
  79   0.0000       0.001532         0.0417
  80   0.0000       0.045298         1.2326
  81   0.0000       0.054067         1.4712

MULLIKEN ATOMIC CHARGES
-----------------------
   0 Pd:    0.526589
   1 O :   -0.506021
   2 C :    0.661455
   3 O :   -0.481127
   4 C :   -0.763647
   5 H :    0.249513
   6 H :    0.261955
   7 H :    0.259364
   8 N :   -0.472429
   9 C :   -0.516801
  10 H :    0.281250
  11 H :    0.213807
  12 H :    0.269676
  13 C :   -0.532502
  14 H :    0.284653
  15 H :    0.219341
  16 H :    0.272858
  17 C :   -0.003649
  18 C :   -0.233619
  19 C :   -0.194062
  20 C :   -0.222484
  21 C :   -0.182671
  22 C :   -0.246319
  23 H :    0.230074
  24 H :    0.230501
  25 H :    0.263540
  26 H :    0.229515
  27 H :    0.195302
  28 C :   -0.341057
  29 H :    0.241313
  30 H :    0.268777
  31 O :   -0.560314
  32 C :    0.563058
  33 O :   -0.438722
  34 C :   -0.741662
  35 H :    0.230064
  36 H :    0.247733
  37 H :    0.236745
Sum of atomic charges:   -0.0000000

LOEWDIN ATOMIC CHARGES
----------------------
   0 Pd:   -0.274027
   1 O :   -0.162966
   2 C :    0.199663
   3 O :   -0.170654
   4 C :   -0.377727
   5 H :    0.152430
   6 H :    0.164536
   7 H :    0.155071
   8 N :   -0.061212
   9 C :   -0.232597
  10 H :    0.157461
  11 H :    0.117651
  12 H :    0.149425
  13 C :   -0.235445
  14 H :    0.157769
  15 H :    0.120588
  16 H :    0.153917
  17 C :   -0.044589
  18 C :   -0.105400
  19 C :   -0.124987
  20 C :   -0.132787
  21 C :   -0.141686
  22 C :   -0.124167
  23 H :    0.141300
  24 H :    0.138052
  25 H :    0.162092
  26 H :    0.143046
  27 H :    0.151406
  28 C :   -0.112011
  29 H :    0.134306
  30 H :    0.154529
  31 O :   -0.206813
  32 C :    0.139975
  33 O :   -0.234870
  34 C :   -0.384665
  35 H :    0.140629
  36 H :    0.151699
  37 H :    0.141057

  Mayer bond orders larger than 0.100000
B(  0-Pd,  1-O ) :   0.6105 B(  0-Pd,  3-O ) :   0.4348 B(  0-Pd,  8-N ) :   0.3956
B(  0-Pd, 31-O ) :   0.6704 B(  0-Pd, 33-O ) :   0.1083 B(  1-O ,  2-C ) :   1.3508
B(  1-O ,  3-O ) :   0.1027 B(  2-C ,  3-O ) :   1.5625 B(  2-C ,  4-C ) :   0.9536
B(  4-C ,  5-H ) :   0.9098 B(  4-C ,  6-H ) :   0.9021 B(  4-C ,  7-H ) :   0.9074
B(  8-N ,  9-C ) :   0.9259 B(  8-N , 13-C ) :   0.9271 B(  8-N , 28-C ) :   0.8945
B(  9-C , 10-H ) :   0.8983 B(  9-C , 11-H ) :   0.9040 B(  9-C , 12-H ) :   0.9040
B( 13-C , 14-H ) :   0.8893 B( 13-C , 15-H ) :   0.9050 B( 13-C , 16-H ) :   0.9011
B( 17-C , 18-C ) :   1.4514 B( 17-C , 22-C ) :   1.3197 B( 17-C , 28-C ) :   0.9615
B( 18-C , 19-C ) :   1.3891 B( 18-C , 25-H ) :   0.8963 B( 19-C , 20-C ) :   1.4661
B( 19-C , 26-H ) :   0.9145 B( 20-C , 21-C ) :   1.3758 B( 20-C , 23-H ) :   0.9144
B( 21-C , 22-C ) :   1.4650 B( 21-C , 24-H ) :   0.9125 B( 22-C , 27-H ) :   0.9167
B( 28-C , 29-H ) :   0.8983 B( 28-C , 30-H ) :   0.9053 B( 31-O , 32-C ) :   1.2203
B( 32-C , 33-O ) :   1.8954 B( 32-C , 34-C ) :   0.9332 B( 34-C , 35-H ) :   0.9166
B( 34-C , 36-H ) :   0.9107 B( 34-C , 37-H ) :   0.9208

Dispersion correction           -0.025828589
FINAL SINGLE POINT ENERGY      -988.473279882614
Dispersion correction            ... done

DIPOLE MOMENT
-------------
                                X             Y             Z
Electronic contribution:     31.74957      30.05670     -26.85514
Nuclear contribution   :    -33.44387     -30.30010      27.72527
                        -----------------------------------------
Total Dipole Moment    :     -1.69430      -0.24340       0.87013
                        -----------------------------------------
Magnitude (a.u.)       :      1.92017
Magnitude (Debye)      :      4.88068

Rotational constants in cm-1:     0.013270     0.008243     0.007043
Rotational constants in MHz :   397.832167   247.115927   211.152664

                             ****ORCA TERMINATED NORMALLY****
TOTAL RUN TIME: 0 days 0 hours 15 minutes 23 seconds 378 msec
