                         Program Version 5.0.3 -  RELEASE  -
|  1> ! EnGrad PBEh-3c
|  2> %output
|  3> xyzfile=True
|  4> end
|  5> %scf
|  6> maxiter 250
|  7> end
|  8> %output
|  9> Print[P_Hirshfeld] = 1
| 10> end
| 11> % maxcore
| 12> 4000
| 13> *xyz 0 1
| 14> Pd   0.76039650   0.59448650  -0.50596672
| 15> O    2.20607762   1.50584004   0.26911189
| 16> C    1.62193883   2.66902896   0.26425491
| 17> O    0.41423498   2.70608744  -0.07581518
| 18> C    2.46838627   3.90946201   0.55931479
| 19> H    1.85782194   4.68124184   1.03524126
| 20> H    2.83103471   4.34042630  -0.38566147
| 21> H    3.34969653   3.70835040   1.18494694
| 22> N   -1.24700207  -0.30792803  -1.21553225
| 23> C   -1.25196980  -1.03352035  -2.51001844
| 24> H   -0.92360219  -0.32576147  -3.25486177
| 25> H   -2.28700286  -1.32552372  -2.68941530
| 26> H   -0.58227027  -1.91061834  -2.48743048
| 27> C   -2.15985759   0.84000772  -1.26807331
| 28> H   -2.17001813   1.40592709  -0.32075214
| 29> H   -3.16095063   0.45783961  -1.47642144
| 30> H   -1.81564507   1.42900225  -2.11353605
| 31> C   -1.54288434  -0.84020540   1.34753178
| 32> C   -0.52972130  -1.65447857   1.98069873
| 33> C   -0.26794196  -1.52417616   3.35909863
| 34> C   -1.29605103  -0.98540635   4.10088424
| 35> C   -2.28273856  -0.10221861   3.48370191
| 36> C   -2.57412398   0.10226750   2.12621001
| 37> H   -1.16402852  -0.79620314   5.16414965
| 38> H   -3.18255999   0.09203943   4.03081832
| 39> H    0.16198498  -2.33387958   1.41672623
| 40> H    0.48373429  -2.12887419   3.86453013
| 41> H   -2.58579871   0.97812341   1.98265869
| 42> C   -1.71008329  -1.24849841  -0.14196058
| 43> H   -2.78227559  -1.43353518  -0.28894294
| 44> H   -1.23842551  -2.23612058  -0.32301874
| 45> O    1.76492475  -1.01924213  -1.11197764
| 46> C    2.25707188  -0.78925975  -2.30848657
| 47> O    1.83413987   0.03168766  -3.10846129
| 48> C    3.46283207  -1.70708707  -2.59376593
| 49> H    3.23598766  -2.76923251  -2.42167233
| 50> H    4.31076191  -1.43732743  -1.95232837
| 51> H    3.74158434  -1.55932363  -3.63090819
| 52> *
| 53>
| 54>                          ****END OF INPUT****

CARTESIAN COORDINATES (ANGSTROEM)
---------------------------------
  Pd     0.760396    0.594487   -0.505967
  O      2.206078    1.505840    0.269112
  C      1.621939    2.669029    0.264255
  O      0.414235    2.706087   -0.075815
  C      2.468386    3.909462    0.559315
  H      1.857822    4.681242    1.035241
  H      2.831035    4.340426   -0.385661
  H      3.349697    3.708350    1.184947
  N     -1.247002   -0.307928   -1.215532
  C     -1.251970   -1.033520   -2.510018
  H     -0.923602   -0.325761   -3.254862
  H     -2.287003   -1.325524   -2.689415
  H     -0.582270   -1.910618   -2.487430
  C     -2.159858    0.840008   -1.268073
  H     -2.170018    1.405927   -0.320752
  H     -3.160951    0.457840   -1.476421
  H     -1.815645    1.429002   -2.113536
  C     -1.542884   -0.840205    1.347532
  C     -0.529721   -1.654479    1.980699
  C     -0.267942   -1.524176    3.359099
  C     -1.296051   -0.985406    4.100884
  C     -2.282739   -0.102219    3.483702
  C     -2.574124    0.102267    2.126210
  H     -1.164029   -0.796203    5.164150
  H     -3.182560    0.092039    4.030818
  H      0.161985   -2.333880    1.416726
  H      0.483734   -2.128874    3.864530
  H     -2.585799    0.978123    1.982659
  C     -1.710083   -1.248498   -0.141961
  H     -2.782276   -1.433535   -0.288943
  H     -1.238426   -2.236121   -0.323019
  O      1.764925   -1.019242   -1.111978
  C      2.257072   -0.789260   -2.308487
  O      1.834140    0.031688   -3.108461
  C      3.462832   -1.707087   -2.593766
  H      3.235988   -2.769233   -2.421672
  H      4.310762   -1.437327   -1.952328
  H      3.741584   -1.559324   -3.630908

 Total Charge           Charge          ....    0
 Multiplicity           Mult            ....    1
 Number of Electrons    NEL             ....  154
 Basis Dimension        Dim             ....  339

ORBITAL ENERGIES
----------------

  NO   OCC          E(Eh)            E(eV)
   0   2.0000     -19.517035      -531.0855
   1   2.0000     -19.511295      -530.9293
   2   2.0000     -19.473347      -529.8967
   3   2.0000     -19.439084      -528.9644
   4   2.0000     -14.701501      -400.0482
   5   2.0000     -10.589818      -288.1636
   6   2.0000     -10.536368      -286.7092
   7   2.0000     -10.501134      -285.7504
   8   2.0000     -10.493144      -285.5330
   9   2.0000     -10.477309      -285.1021
  10   2.0000     -10.473038      -284.9858
  11   2.0000     -10.472710      -284.9769
  12   2.0000     -10.471466      -284.9431
  13   2.0000     -10.468953      -284.8747
  14   2.0000     -10.463929      -284.7380
  15   2.0000     -10.461532      -284.6728
  16   2.0000     -10.455664      -284.5131
  17   2.0000     -10.416950      -283.4596
  18   2.0000      -3.658114       -99.5423
  19   2.0000      -2.309662       -62.8491
  20   2.0000      -2.301645       -62.6310
  21   2.0000      -2.266518       -61.6751
  22   2.0000      -1.211705       -32.9722
  23   2.0000      -1.144761       -31.1505
  24   2.0000      -1.098148       -29.8821
  25   2.0000      -1.056850       -28.7584
  26   2.0000      -1.051134       -28.6028
  27   2.0000      -0.953307       -25.9408
  28   2.0000      -0.865121       -23.5411
  29   2.0000      -0.859425       -23.3861
  30   2.0000      -0.834184       -22.6993
  31   2.0000      -0.810855       -22.0645
  32   2.0000      -0.790662       -21.5150
  33   2.0000      -0.784166       -21.3382
  34   2.0000      -0.713271       -19.4091
  35   2.0000      -0.690207       -18.7815
  36   2.0000      -0.658417       -17.9164
  37   2.0000      -0.630146       -17.1471
  38   2.0000      -0.591772       -16.1029
  39   2.0000      -0.584615       -15.9082
  40   2.0000      -0.569955       -15.5093
  41   2.0000      -0.561010       -15.2659
  42   2.0000      -0.559152       -15.2153
  43   2.0000      -0.556329       -15.1385
  44   2.0000      -0.553357       -15.0576
  45   2.0000      -0.534737       -14.5509
  46   2.0000      -0.527056       -14.3419
  47   2.0000      -0.511308       -13.9134
  48   2.0000      -0.504710       -13.7339
  49   2.0000      -0.493857       -13.4385
  50   2.0000      -0.488251       -13.2860
  51   2.0000      -0.484698       -13.1893
  52   2.0000      -0.469873       -12.7859
  53   2.0000      -0.469054       -12.7636
  54   2.0000      -0.465590       -12.6693
  55   2.0000      -0.456641       -12.4258
  56   2.0000      -0.447969       -12.1899
  57   2.0000      -0.445394       -12.1198
  58   2.0000      -0.442234       -12.0338
  59   2.0000      -0.431351       -11.7377
  60   2.0000      -0.423456       -11.5228
  61   2.0000      -0.420730       -11.4486
  62   2.0000      -0.414170       -11.2701
  63   2.0000      -0.397639       -10.8203
  64   2.0000      -0.391338       -10.6489
  65   2.0000      -0.384206       -10.4548
  66   2.0000      -0.379226       -10.3193
  67   2.0000      -0.363482        -9.8909
  68   2.0000      -0.351950        -9.5770
  69   2.0000      -0.337351        -9.1798
  70   2.0000      -0.315701        -8.5907
  71   2.0000      -0.313231        -8.5235
  72   2.0000      -0.304689        -8.2910
  73   2.0000      -0.298149        -8.1131
  74   2.0000      -0.297545        -8.0966
  75   2.0000      -0.285387        -7.7658
  76   2.0000      -0.271667        -7.3924
  77   0.0000      -0.048482        -1.3193
  78   0.0000      -0.043052        -1.1715
  79   0.0000      -0.007295        -0.1985
  80   0.0000       0.030495         0.8298
  81   0.0000       0.064336         1.7507

MULLIKEN ATOMIC CHARGES
-----------------------
   0 Pd:    0.549016
   1 O :   -0.516610
   2 C :    0.669345
   3 O :   -0.481186
   4 C :   -0.766971
   5 H :    0.252755
   6 H :    0.266715
   7 H :    0.261545
   8 N :   -0.460739
   9 C :   -0.506727
  10 H :    0.277564
  11 H :    0.210878
  12 H :    0.261442
  13 C :   -0.512707
  14 H :    0.268062
  15 H :    0.216393
  16 H :    0.263138
  17 C :   -0.032562
  18 C :   -0.250904
  19 C :   -0.174401
  20 C :   -0.232951
  21 C :   -0.239009
  22 C :   -0.248845
  23 H :    0.226114
  24 H :    0.235610
  25 H :    0.263724
  26 H :    0.234215
  27 H :    0.282716
  28 C :   -0.336421
  29 H :    0.233037
  30 H :    0.255780
  31 O :   -0.554831
  32 C :    0.565937
  33 O :   -0.449121
  34 C :   -0.737920
  35 H :    0.229360
  36 H :    0.243375
  37 H :    0.235185
Sum of atomic charges:   -0.0000000

LOEWDIN ATOMIC CHARGES
----------------------
   0 Pd:   -0.264012
   1 O :   -0.134349
   2 C :    0.221798
   3 O :   -0.171836
   4 C :   -0.377743
   5 H :    0.153131
   6 H :    0.166829
   7 H :    0.157655
   8 N :   -0.088824
   9 C :   -0.232081
  10 H :    0.155963
  11 H :    0.116496
  12 H :    0.150845
  13 C :   -0.231321
  14 H :    0.154835
  15 H :    0.118102
  16 H :    0.150904
  17 C :   -0.011825
  18 C :   -0.121310
  19 C :   -0.104606
  20 C :   -0.152756
  21 C :   -0.104085
  22 C :   -0.188335
  23 H :    0.141495
  24 H :    0.144927
  25 H :    0.162872
  26 H :    0.145669
  27 H :    0.151673
  28 C :   -0.123800
  29 H :    0.127712
  30 H :    0.146895
  31 O :   -0.207576
  32 C :    0.146819
  33 O :   -0.246305
  34 C :   -0.385523
  35 H :    0.142172
  36 H :    0.150612
  37 H :    0.138882

  Mayer bond orders larger than 0.100000
B(  0-Pd,  1-O ) :   0.6392 B(  0-Pd,  3-O ) :   0.4342 B(  0-Pd,  8-N ) :   0.3585
B(  0-Pd, 31-O ) :   0.6618 B(  0-Pd, 33-O ) :   0.1102 B(  1-O ,  2-C ) :   1.3173
B(  1-O ,  3-O ) :   0.1044 B(  2-C ,  3-O ) :   1.5607 B(  2-C ,  4-C ) :   0.9515
B(  4-C ,  5-H ) :   0.9072 B(  4-C ,  6-H ) :   0.8987 B(  4-C ,  7-H ) :   0.9060
B(  8-N ,  9-C ) :   0.9244 B(  8-N , 13-C ) :   0.9322 B(  8-N , 28-C ) :   0.9032
B(  9-C , 10-H ) :   0.8985 B(  9-C , 11-H ) :   0.9045 B(  9-C , 12-H ) :   0.9075
B( 13-C , 14-H ) :   0.8981 B( 13-C , 15-H ) :   0.9038 B( 13-C , 16-H ) :   0.9067
B( 17-C , 18-C ) :   1.4822 B( 17-C , 22-C ) :   1.2771 B( 17-C , 28-C ) :   0.9623
B( 18-C , 19-C ) :   1.3219 B( 18-C , 25-H ) :   0.8980 B( 19-C , 20-C ) :   1.4780
B( 19-C , 22-C ) :   0.1071 B( 19-C , 26-H ) :   0.9132 B( 20-C , 21-C ) :   1.3344
B( 20-C , 23-H ) :   0.9140 B( 21-C , 22-C ) :   1.5350 B( 21-C , 24-H ) :   0.9052
B( 22-C , 27-H ) :   0.8771 B( 28-C , 29-H ) :   0.8941 B( 28-C , 30-H ) :   0.9090
B( 31-O , 32-C ) :   1.2326 B( 32-C , 33-O ) :   1.8811 B( 32-C , 34-C ) :   0.9267
B( 34-C , 35-H ) :   0.9180 B( 34-C , 36-H ) :   0.9130 B( 34-C , 37-H ) :   0.9186

Dispersion correction           -0.025500975
FINAL SINGLE POINT ENERGY      -988.382749832684
Dispersion correction            ... done

DIPOLE MOMENT
-------------
                                X             Y             Z
Electronic contribution:     35.54139      29.55198     -25.01513
Nuclear contribution   :    -36.66775     -29.61074      26.03696
                        -----------------------------------------
Total Dipole Moment    :     -1.12636      -0.05876       1.02184
                        -----------------------------------------
Magnitude (a.u.)       :      1.52194
Magnitude (Debye)      :      3.86846

Rotational constants in cm-1:     0.013363     0.008140     0.006967
Rotational constants in MHz :   400.606834   244.032836   208.867144

                             ****ORCA TERMINATED NORMALLY****
TOTAL RUN TIME: 0 days 0 hours 12 minutes 5 seconds 300 msec
