                         Program Version 5.0.3 -  RELEASE  -
|  1> ! EnGrad PBEh-3c
|  2> %output
|  3> xyzfile=True
|  4> end
|  5> %scf
|  6> maxiter 250
|  7> end
|  8> %output
|  9> Print[P_Hirshfeld] = 1
| 10> end
| 11> % maxcore
| 12> 4000
| 13> *xyz 0 1
| 14> Pd   0.72529304   0.60199590  -0.52648379
| 15> O    2.24828857   1.54268051   0.27544358
| 16> C    1.65095121   2.69829757   0.25516841
| 17> O    0.45255867   2.72534235  -0.07937895
| 18> C    2.45594058   3.95334491   0.55428890
| 19> H    1.81951239   4.69554204   1.03559031
| 20> H    2.80259840   4.38441630  -0.39005138
| 21> H    3.33059561   3.75979311   1.17460727
| 22> N   -1.21722337  -0.27561239  -1.19455868
| 23> C   -1.24949134  -0.93621569  -2.51118244
| 24> H   -0.93801294  -0.21629189  -3.25480186
| 25> H   -2.28243321  -1.23648602  -2.71211053
| 26> H   -0.60137387  -1.80419982  -2.54623482
| 27> C   -2.13094728   0.86666086  -1.21834747
| 28> H   -2.11751166   1.41893641  -0.28433931
| 29> H   -3.14522113   0.50816618  -1.41899002
| 30> H   -1.81555734   1.51097513  -2.03218885
| 31> C   -1.47940317  -0.89528764   1.30557912
| 32> C   -0.44278653  -1.62048736   1.97658182
| 33> C   -0.24692122  -1.50762013   3.34868275
| 34> C   -1.24129132  -0.92441848   4.08558431
| 35> C   -2.31657794  -0.25851388   3.45908399
| 36> C   -2.51014151  -0.07171217   2.09684830
| 37> H   -1.13211511  -0.78941103   5.15782628
| 38> H   -3.18894027  -0.07297913   4.04792647
| 39> H    0.26239515  -2.25819442   1.42773630
| 40> H    0.53776125  -2.05815917   3.85225549
| 41> H   -3.13538513   0.92469808   1.88259848
| 42> C   -1.66437988  -1.26516937  -0.15894197
| 43> H   -2.73388824  -1.45979018  -0.29537211
| 44> H   -1.17030555  -2.22606610  -0.37669657
| 45> O    1.73626556  -1.01577354  -1.08432626
| 46> C    2.26303716  -0.83611152  -2.27802860
| 47> O    1.89931801  -0.00835614  -3.08605846
| 48> C    3.42335942  -1.79614480  -2.56660389
| 49> H    3.15908586  -2.83402695  -2.37638963
| 50> H    4.27695339  -1.54435405  -1.94294683
| 51> H    3.71970310  -1.68801550  -3.60985274
| 52> *
| 53>
| 54>                          ****END OF INPUT****

CARTESIAN COORDINATES (ANGSTROEM)
---------------------------------
  Pd     0.725293    0.601996   -0.526484
  O      2.248289    1.542681    0.275444
  C      1.650951    2.698298    0.255168
  O      0.452559    2.725342   -0.079379
  C      2.455941    3.953345    0.554289
  H      1.819512    4.695542    1.035590
  H      2.802598    4.384416   -0.390051
  H      3.330596    3.759793    1.174607
  N     -1.217223   -0.275612   -1.194559
  C     -1.249491   -0.936216   -2.511182
  H     -0.938013   -0.216292   -3.254802
  H     -2.282433   -1.236486   -2.712111
  H     -0.601374   -1.804200   -2.546235
  C     -2.130947    0.866661   -1.218347
  H     -2.117512    1.418936   -0.284339
  H     -3.145221    0.508166   -1.418990
  H     -1.815557    1.510975   -2.032189
  C     -1.479403   -0.895288    1.305579
  C     -0.442787   -1.620487    1.976582
  C     -0.246921   -1.507620    3.348683
  C     -1.241291   -0.924418    4.085584
  C     -2.316578   -0.258514    3.459084
  C     -2.510142   -0.071712    2.096848
  H     -1.132115   -0.789411    5.157826
  H     -3.188940   -0.072979    4.047926
  H      0.262395   -2.258194    1.427736
  H      0.537761   -2.058159    3.852255
  H     -3.135385    0.924698    1.882598
  C     -1.664380   -1.265169   -0.158942
  H     -2.733888   -1.459790   -0.295372
  H     -1.170306   -2.226066   -0.376697
  O      1.736266   -1.015774   -1.084326
  C      2.263037   -0.836112   -2.278029
  O      1.899318   -0.008356   -3.086058
  C      3.423359   -1.796145   -2.566604
  H      3.159086   -2.834027   -2.376390
  H      4.276953   -1.544354   -1.942947
  H      3.719703   -1.688015   -3.609853

 Total Charge           Charge          ....    0
 Multiplicity           Mult            ....    1
 Number of Electrons    NEL             ....  154
 Basis Dimension        Dim             ....  339

ORBITAL ENERGIES
----------------

  NO   OCC          E(Eh)            E(eV)
   0   2.0000     -19.504657      -530.7487
   1   2.0000     -19.502986      -530.7032
   2   2.0000     -19.474163      -529.9189
   3   2.0000     -19.437022      -528.9083
   4   2.0000     -14.710062      -400.2811
   5   2.0000     -10.579048      -287.8705
   6   2.0000     -10.534405      -286.6557
   7   2.0000     -10.495934      -285.6089
   8   2.0000     -10.494520      -285.5704
   9   2.0000     -10.489617      -285.4370
  10   2.0000     -10.478552      -285.1359
  11   2.0000     -10.473485      -284.9980
  12   2.0000     -10.464990      -284.7668
  13   2.0000     -10.458849      -284.5998
  14   2.0000     -10.457402      -284.5604
  15   2.0000     -10.456655      -284.5400
  16   2.0000     -10.447033      -284.2782
  17   2.0000     -10.415004      -283.4067
  18   2.0000      -3.656240       -99.4913
  19   2.0000      -2.305314       -62.7308
  20   2.0000      -2.300863       -62.6097
  21   2.0000      -2.264692       -61.6254
  22   2.0000      -1.203405       -32.7463
  23   2.0000      -1.147090       -31.2139
  24   2.0000      -1.087540       -29.5935
  25   2.0000      -1.066736       -29.0274
  26   2.0000      -1.051730       -28.6190
  27   2.0000      -0.958007       -26.0687
  28   2.0000      -0.869453       -23.6590
  29   2.0000      -0.850250       -23.1365
  30   2.0000      -0.830808       -22.6074
  31   2.0000      -0.816663       -22.2225
  32   2.0000      -0.793437       -21.5905
  33   2.0000      -0.788990       -21.4695
  34   2.0000      -0.712762       -19.3952
  35   2.0000      -0.682129       -18.5617
  36   2.0000      -0.664645       -18.0859
  37   2.0000      -0.618307       -16.8250
  38   2.0000      -0.591318       -16.0906
  39   2.0000      -0.585408       -15.9298
  40   2.0000      -0.569478       -15.4963
  41   2.0000      -0.562655       -15.3106
  42   2.0000      -0.553397       -15.0587
  43   2.0000      -0.550646       -14.9838
  44   2.0000      -0.546231       -14.8637
  45   2.0000      -0.527898       -14.3648
  46   2.0000      -0.522479       -14.2174
  47   2.0000      -0.516676       -14.0595
  48   2.0000      -0.507082       -13.7984
  49   2.0000      -0.494062       -13.4441
  50   2.0000      -0.490201       -13.3390
  51   2.0000      -0.487318       -13.2606
  52   2.0000      -0.477169       -12.9844
  53   2.0000      -0.470217       -12.7952
  54   2.0000      -0.461748       -12.5648
  55   2.0000      -0.452958       -12.3256
  56   2.0000      -0.450681       -12.2637
  57   2.0000      -0.448196       -12.1960
  58   2.0000      -0.439196       -11.9511
  59   2.0000      -0.430849       -11.7240
  60   2.0000      -0.428120       -11.6497
  61   2.0000      -0.418842       -11.3973
  62   2.0000      -0.410137       -11.1604
  63   2.0000      -0.401512       -10.9257
  64   2.0000      -0.390565       -10.6278
  65   2.0000      -0.385471       -10.4892
  66   2.0000      -0.376666       -10.2496
  67   2.0000      -0.362303        -9.8588
  68   2.0000      -0.350211        -9.5297
  69   2.0000      -0.343952        -9.3594
  70   2.0000      -0.314484        -8.5575
  71   2.0000      -0.313151        -8.5213
  72   2.0000      -0.305916        -8.3244
  73   2.0000      -0.299599        -8.1525
  74   2.0000      -0.297628        -8.0989
  75   2.0000      -0.287529        -7.8241
  76   2.0000      -0.271273        -7.3817
  77   0.0000      -0.045754        -1.2450
  78   0.0000      -0.023869        -0.6495
  79   0.0000       0.001765         0.0480
  80   0.0000       0.041024         1.1163
  81   0.0000       0.068916         1.8753

MULLIKEN ATOMIC CHARGES
-----------------------
   0 Pd:    0.532918
   1 O :   -0.508616
   2 C :    0.665315
   3 O :   -0.481638
   4 C :   -0.764846
   5 H :    0.250502
   6 H :    0.263395
   7 H :    0.260154
   8 N :   -0.467294
   9 C :   -0.513372
  10 H :    0.279824
  11 H :    0.212524
  12 H :    0.267308
  13 C :   -0.525454
  14 H :    0.277029
  15 H :    0.218015
  16 H :    0.270439
  17 C :   -0.000741
  18 C :   -0.239925
  19 C :   -0.188119
  20 C :   -0.224011
  21 C :   -0.195930
  22 C :   -0.264101
  23 H :    0.227831
  24 H :    0.226391
  25 H :    0.263722
  26 H :    0.228795
  27 H :    0.233428
  28 C :   -0.341020
  29 H :    0.237268
  30 H :    0.264764
  31 O :   -0.558112
  32 C :    0.563927
  33 O :   -0.442029
  34 C :   -0.740779
  35 H :    0.229919
  36 H :    0.246330
  37 H :    0.236190
Sum of atomic charges:    0.0000000

LOEWDIN ATOMIC CHARGES
----------------------
   0 Pd:   -0.271525
   1 O :   -0.153309
   2 C :    0.207137
   3 O :   -0.171116
   4 C :   -0.377701
   5 H :    0.152598
   6 H :    0.165231
   7 H :    0.155935
   8 N :   -0.069821
   9 C :   -0.232375
  10 H :    0.156848
  11 H :    0.117079
  12 H :    0.149981
  13 C :   -0.233935
  14 H :    0.155788
  15 H :    0.119550
  16 H :    0.153118
  17 C :   -0.035479
  18 C :   -0.109607
  19 C :   -0.121178
  20 C :   -0.137819
  21 C :   -0.135472
  22 C :   -0.143922
  23 H :    0.141177
  24 H :    0.137579
  25 H :    0.162007
  26 H :    0.143173
  27 H :    0.163890
  28 C :   -0.116062
  29 H :    0.131367
  30 H :    0.152174
  31 O :   -0.206274
  32 C :    0.141299
  33 O :   -0.238186
  34 C :   -0.384940
  35 H :    0.141129
  36 H :    0.151362
  37 H :    0.140301

  Mayer bond orders larger than 0.100000
B(  0-Pd,  1-O ) :   0.6207 B(  0-Pd,  3-O ) :   0.4348 B(  0-Pd,  8-N ) :   0.3834
B(  0-Pd, 31-O ) :   0.6680 B(  0-Pd, 33-O ) :   0.1089 B(  1-O ,  2-C ) :   1.3395
B(  1-O ,  3-O ) :   0.1032 B(  2-C ,  3-O ) :   1.5616 B(  2-C ,  4-C ) :   0.9531
B(  4-C ,  5-H ) :   0.9090 B(  4-C ,  6-H ) :   0.9011 B(  4-C ,  7-H ) :   0.9070
B(  8-N ,  9-C ) :   0.9258 B(  8-N , 13-C ) :   0.9296 B(  8-N , 28-C ) :   0.8969
B(  9-C , 10-H ) :   0.8986 B(  9-C , 11-H ) :   0.9042 B(  9-C , 12-H ) :   0.9051
B( 13-C , 14-H ) :   0.8930 B( 13-C , 15-H ) :   0.9045 B( 13-C , 16-H ) :   0.9030
B( 17-C , 18-C ) :   1.4604 B( 17-C , 22-C ) :   1.2958 B( 17-C , 28-C ) :   0.9630
B( 18-C , 19-C ) :   1.3700 B( 18-C , 25-H ) :   0.8972 B( 19-C , 20-C ) :   1.4718
B( 19-C , 22-C ) :   0.1014 B( 19-C , 26-H ) :   0.9150 B( 20-C , 21-C ) :   1.3639
B( 20-C , 23-H ) :   0.9154 B( 21-C , 22-C ) :   1.4853 B( 21-C , 24-H ) :   0.9127
B( 22-C , 27-H ) :   0.9100 B( 28-C , 29-H ) :   0.8977 B( 28-C , 30-H ) :   0.9064
B( 31-O , 32-C ) :   1.2250 B( 32-C , 33-O ) :   1.8911 B( 32-C , 34-C ) :   0.9312
B( 34-C , 35-H ) :   0.9170 B( 34-C , 36-H ) :   0.9115 B( 34-C , 37-H ) :   0.9202

Dispersion correction           -0.025604645
FINAL SINGLE POINT ENERGY      -988.492998415585
Dispersion correction            ... done

DIPOLE MOMENT
-------------
                                X             Y             Z
Electronic contribution:     32.91066      29.93157     -26.29289
Nuclear contribution   :    -34.48035     -30.07847      27.18248
                        -----------------------------------------
Total Dipole Moment    :     -1.56970      -0.14690       0.88959
                        -----------------------------------------
Magnitude (a.u.)       :      1.81022
Magnitude (Debye)      :      4.60121

Rotational constants in cm-1:     0.013309     0.008212     0.007021
Rotational constants in MHz :   398.979072   246.184586   210.484438

                             ****ORCA TERMINATED NORMALLY****
TOTAL RUN TIME: 0 days 0 hours 15 minutes 48 seconds 156 msec
