                         Program Version 5.0.3 -  RELEASE  -
|  1> ! EnGrad PBEh-3c
|  2> %output
|  3> xyzfile=True
|  4> end
|  5> %scf
|  6> maxiter 250
|  7> end
|  8> %output
|  9> Print[P_Hirshfeld] = 1
| 10> end
| 11> % maxcore
| 12> 4000
| 13> *xyz 1 1
| 14> Ir   0.54872224  -0.80607038   0.49320818
| 15> C    0.19975720  -2.91259294   0.79144742
| 16> C   -0.06002756  -2.31002568   2.07381422
| 17> C    2.11880007  -1.83331074   1.49673333
| 18> C    1.57276465  -2.69375382   0.50785255
| 19> C    1.09221216  -1.64497391   2.48573157
| 20> N   -1.15812296  -0.19283706  -0.55820963
| 21> C   -2.50647321  -0.24297630   0.02027552
| 22> C   -2.68680034   0.82020856   1.08758849
| 23> H   -3.66331306   0.72910266   1.56113618
| 24> H   -2.61773278   1.81541724   0.64905193
| 25> H   -1.95432854   0.73701481   1.88745019
| 26> C   -3.65382787  -0.18532254  -0.97190944
| 27> H   -2.57539054  -1.21543815   0.51222322
| 28> H   -4.59788060  -0.36332614  -0.46102135
| 29> H   -3.73666238   0.79449359  -1.44529931
| 30> H   -3.56964358  -0.95176030  -1.74384558
| 31> C   -0.96907476   0.19142718  -1.76783032
| 32> C    0.34587599   0.15189386  -2.31201350
| 33> H   -1.78824565   0.53033210  -2.39293290
| 34> C    1.39078533  -0.27755587  -1.53015387
| 35> C    2.60348215  -0.34960121  -2.25677857
| 36> S    0.84056528   0.45935007  -3.92749626
| 37> C    2.44942738   0.06077362  -3.55543639
| 38> H    2.26545116   1.33847385  -0.84697358
| 39> H    3.57264923  -0.62477544  -1.86298176
| 40> H    3.21959966   0.09571083  -4.31125296
| 41> H   -0.43554074  -3.61471618   0.27019634
| 42> H   -0.96435957  -2.43088032   2.65182583
| 43> H    1.20124842  -1.11344492   3.41982546
| 44> O    2.14752194   2.22611248  -0.06447171
| 45> O    0.54530338   1.24876599   1.12592762
| 46> C    1.23216892   2.22925613   0.84047229
| 47> C    1.09736969   3.51998419   1.56969654
| 48> H    0.93926914   4.33385899   0.86306030
| 49> H    2.01378139   3.74660324   2.11589363
| 50> H    0.26933873   3.47179514   2.26937998
| 51> H    3.15338803  -1.54136974   1.59431891
| 52> H    2.11792696  -3.19580783  -0.27850132
| 53> *
| 54>
| 55>                          ****END OF INPUT****

CARTESIAN COORDINATES (ANGSTROEM)
---------------------------------
  Ir     0.548722   -0.806070    0.493208
  C      0.199757   -2.912593    0.791447
  C     -0.060028   -2.310026    2.073814
  C      2.118800   -1.833311    1.496733
  C      1.572765   -2.693754    0.507853
  C      1.092212   -1.644974    2.485732
  N     -1.158123   -0.192837   -0.558210
  C     -2.506473   -0.242976    0.020276
  C     -2.686800    0.820209    1.087588
  H     -3.663313    0.729103    1.561136
  H     -2.617733    1.815417    0.649052
  H     -1.954329    0.737015    1.887450
  C     -3.653828   -0.185323   -0.971909
  H     -2.575391   -1.215438    0.512223
  H     -4.597881   -0.363326   -0.461021
  H     -3.736662    0.794494   -1.445299
  H     -3.569644   -0.951760   -1.743846
  C     -0.969075    0.191427   -1.767830
  C      0.345876    0.151894   -2.312013
  H     -1.788246    0.530332   -2.392933
  C      1.390785   -0.277556   -1.530154
  C      2.603482   -0.349601   -2.256779
  S      0.840565    0.459350   -3.927496
  C      2.449427    0.060774   -3.555436
  H      2.265451    1.338474   -0.846974
  H      3.572649   -0.624775   -1.862982
  H      3.219600    0.095711   -4.311253
  H     -0.435541   -3.614716    0.270196
  H     -0.964360   -2.430880    2.651826
  H      1.201248   -1.113445    3.419825
  O      2.147522    2.226112   -0.064472
  O      0.545303    1.248766    1.125928
  C      1.232169    2.229256    0.840472
  C      1.097370    3.519984    1.569697
  H      0.939269    4.333859    0.863060
  H      2.013781    3.746603    2.115894
  H      0.269339    3.471795    2.269380
  H      3.153388   -1.541370    1.594319
  H      2.117927   -3.195808   -0.278501

 Total Charge           Charge          ....    1
 Multiplicity           Mult            ....    1
 Number of Electrons    NEL             ....  164
 Basis Dimension        Dim             ....  358

ORBITAL ENERGIES
----------------

  NO   OCC          E(Eh)            E(eV)
   0   2.0000     -89.747959     -2442.1661
   1   2.0000     -19.670721      -535.2675
   2   2.0000     -19.652164      -534.7626
   3   2.0000     -14.815479      -403.1497
   4   2.0000     -10.726550      -291.8843
   5   2.0000     -10.640356      -289.5388
   6   2.0000     -10.617949      -288.9291
   7   2.0000     -10.617265      -288.9105
   8   2.0000     -10.614332      -288.8307
   9   2.0000     -10.607399      -288.6420
  10   2.0000     -10.605577      -288.5924
  11   2.0000     -10.602373      -288.5052
  12   2.0000     -10.600692      -288.4595
  13   2.0000     -10.598829      -288.4088
  14   2.0000     -10.590478      -288.1815
  15   2.0000     -10.580665      -287.9145
  16   2.0000     -10.561489      -287.3927
  17   2.0000     -10.542511      -286.8763
  18   2.0000     -10.536047      -286.7004
  19   2.0000      -8.387335      -228.2310
  20   2.0000      -6.277203      -170.8114
  21   2.0000      -6.273872      -170.7207
  22   2.0000      -6.272198      -170.6752
  23   2.0000      -4.010259      -109.1247
  24   2.0000      -2.326239       -63.3002
  25   2.0000      -2.297081       -62.5067
  26   2.0000      -2.291728       -62.3611
  27   2.0000      -1.353342       -36.8263
  28   2.0000      -1.258128       -34.2354
  29   2.0000      -1.189383       -32.3648
  30   2.0000      -1.153921       -31.3998
  31   2.0000      -1.115927       -30.3659
  32   2.0000      -1.012691       -27.5567
  33   2.0000      -0.967218       -26.3193
  34   2.0000      -0.965125       -26.2624
  35   2.0000      -0.957953       -26.0672
  36   2.0000      -0.954280       -25.9673
  37   2.0000      -0.944435       -25.6994
  38   2.0000      -0.889813       -24.2130
  39   2.0000      -0.856755       -23.3135
  40   2.0000      -0.801078       -21.7985
  41   2.0000      -0.784933       -21.3591
  42   2.0000      -0.771138       -20.9837
  43   2.0000      -0.768637       -20.9157
  44   2.0000      -0.766447       -20.8561
  45   2.0000      -0.755140       -20.5484
  46   2.0000      -0.742913       -20.2157
  47   2.0000      -0.718031       -19.5386
  48   2.0000      -0.691231       -18.8093
  49   2.0000      -0.679112       -18.4796
  50   2.0000      -0.675386       -18.3782
  51   2.0000      -0.668587       -18.1932
  52   2.0000      -0.651931       -17.7399
  53   2.0000      -0.634425       -17.2636
  54   2.0000      -0.627786       -17.0829
  55   2.0000      -0.621622       -16.9152
  56   2.0000      -0.612175       -16.6581
  57   2.0000      -0.599011       -16.2999
  58   2.0000      -0.591586       -16.0979
  59   2.0000      -0.589390       -16.0381
  60   2.0000      -0.587569       -15.9886
  61   2.0000      -0.585510       -15.9325
  62   2.0000      -0.577003       -15.7010
  63   2.0000      -0.569163       -15.4877
  64   2.0000      -0.562962       -15.3190
  65   2.0000      -0.555700       -15.1214
  66   2.0000      -0.548970       -14.9382
  67   2.0000      -0.538016       -14.6402
  68   2.0000      -0.536334       -14.5944
  69   2.0000      -0.532444       -14.4885
  70   2.0000      -0.522488       -14.2176
  71   2.0000      -0.520165       -14.1544
  72   2.0000      -0.503114       -13.6904
  73   2.0000      -0.497648       -13.5417
  74   2.0000      -0.492740       -13.4081
  75   2.0000      -0.476050       -12.9540
  76   2.0000      -0.467922       -12.7328
  77   2.0000      -0.447181       -12.1684
  78   2.0000      -0.442013       -12.0278
  79   2.0000      -0.412621       -11.2280
  80   2.0000      -0.408092       -11.1048
  81   2.0000      -0.386996       -10.5307
  82   0.0000      -0.177177        -4.8212
  83   0.0000      -0.144059        -3.9201
  84   0.0000      -0.131183        -3.5697
  85   0.0000      -0.092032        -2.5043
  86   0.0000      -0.079512        -2.1636

MULLIKEN ATOMIC CHARGES
-----------------------
   0 Ir:    0.578120
   1 C :   -0.287780
   2 C :   -0.231063
   3 C :   -0.291584
   4 C :   -0.194336
   5 C :   -0.166890
   6 N :   -0.468654
   7 C :   -0.094138
   8 C :   -0.641752
   9 H :    0.246839
  10 H :    0.224984
  11 H :    0.261541
  12 C :   -0.695487
  13 H :    0.244863
  14 H :    0.270246
  15 H :    0.226549
  16 H :    0.245477
  17 C :    0.073171
  18 C :   -0.187163
  19 H :    0.278559
  20 C :   -0.274755
  21 C :   -0.243587
  22 S :    0.324868
  23 C :   -0.408707
  24 H :    0.497098
  25 H :    0.265223
  26 H :    0.297213
  27 H :    0.278364
  28 H :    0.273909
  29 H :    0.282691
  30 O :   -0.544729
  31 O :   -0.450427
  32 C :    0.656883
  33 C :   -0.742143
  34 H :    0.281956
  35 H :    0.286059
  36 H :    0.272139
  37 H :    0.272650
  38 H :    0.283795
Sum of atomic charges:    1.0000000

LOEWDIN ATOMIC CHARGES
----------------------
   0 Ir:   -0.274072
   1 C :   -0.066095
   2 C :   -0.090793
   3 C :   -0.111465
   4 C :   -0.024010
   5 C :   -0.026953
   6 N :   -0.027659
   7 C :   -0.065952
   8 C :   -0.348315
   9 H :    0.143816
  10 H :    0.135457
  11 H :    0.146603
  12 C :   -0.365876
  13 H :    0.138350
  14 H :    0.155498
  15 H :    0.133939
  16 H :    0.138900
  17 C :    0.032658
  18 C :   -0.246472
  19 H :    0.154873
  20 C :   -0.139307
  21 C :   -0.195524
  22 S :    0.469329
  23 C :   -0.253628
  24 H :    0.402800
  25 H :    0.158068
  26 H :    0.168795
  27 H :    0.181401
  28 H :    0.175992
  29 H :    0.181361
  30 O :   -0.248055
  31 O :   -0.126748
  32 C :    0.188385
  33 C :   -0.367624
  34 H :    0.173331
  35 H :    0.177009
  36 H :    0.161487
  37 H :    0.178062
  38 H :    0.182433

  Mayer bond orders larger than 0.100000
B(  0-Ir,  1-C ) :   0.4992 B(  0-Ir,  2-C ) :   0.3458 B(  0-Ir,  3-C ) :   0.4998
B(  0-Ir,  4-C ) :   0.4346 B(  0-Ir,  5-C ) :   0.3653 B(  0-Ir,  6-N ) :   0.4642
B(  0-Ir, 20-C ) :   0.6125 B(  0-Ir, 31-O ) :   0.4184 B(  1-C ,  2-C ) :   1.1316
B(  1-C ,  4-C ) :   1.1876 B(  1-C , 27-H ) :   0.9189 B(  2-C ,  5-C ) :   1.2775
B(  2-C , 28-H ) :   0.9157 B(  3-C ,  4-C ) :   1.1565 B(  3-C ,  5-C ) :   1.1304
B(  3-C , 37-H ) :   0.9191 B(  4-C , 38-H ) :   0.9131 B(  5-C , 29-H ) :   0.9107
B(  6-N ,  7-C ) :   0.9139 B(  6-N , 17-C ) :   1.6243 B(  7-C ,  8-C ) :   0.9786
B(  7-C , 12-C ) :   0.9947 B(  7-C , 13-H ) :   0.8860 B(  8-C ,  9-H ) :   0.9082
B(  8-C , 10-H ) :   0.9176 B(  8-C , 11-H ) :   0.9007 B( 12-C , 14-H ) :   0.9046
B( 12-C , 15-H ) :   0.9124 B( 12-C , 16-H ) :   0.9144 B( 17-C , 18-C ) :   1.1331
B( 17-C , 19-H ) :   0.8769 B( 18-C , 20-C ) :   1.3377 B( 18-C , 22-S ) :   1.1555
B( 20-C , 21-C ) :   1.3367 B( 21-C , 23-C ) :   1.4577 B( 21-C , 25-H ) :   0.9026
B( 22-S , 23-C ) :   1.2829 B( 23-C , 26-H ) :   0.8911 B( 24-H , 30-O ) :   0.5782
B( 30-O , 32-C ) :   1.3096 B( 31-O , 32-C ) :   1.5836 B( 32-C , 33-C ) :   0.9514
B( 33-C , 34-H ) :   0.8907 B( 33-C , 35-H ) :   0.8872 B( 33-C , 36-H ) :   0.9053

Dispersion correction           -0.029972076
FINAL SINGLE POINT ENERGY     -1288.395841951031
Dispersion correction            ... done

DIPOLE MOMENT
-------------
                                X             Y             Z
Electronic contribution:     31.70895     -80.49223      79.54993
Nuclear contribution   :    -31.84025      80.63724     -79.35135
                        -----------------------------------------
Total Dipole Moment    :     -0.13129       0.14501       0.19858
                        -----------------------------------------
Magnitude (a.u.)       :      0.27875
Magnitude (Debye)      :      0.70852

Rotational constants in cm-1:     0.010606     0.008251     0.007807
Rotational constants in MHz :   317.970372   247.358216   234.039183

                             ****ORCA TERMINATED NORMALLY****
TOTAL RUN TIME: 0 days 0 hours 17 minutes 14 seconds 177 msec
