                         Program Version 5.0.3 -  RELEASE  -
|  1> ! EnGrad PBEh-3c
|  2> %output
|  3> xyzfile=True
|  4> end
|  5> %scf
|  6> maxiter 250
|  7> end
|  8> %output
|  9> Print[P_Hirshfeld] = 1
| 10> end
| 11> % maxcore
| 12> 4000
| 13> *xyz 1 1
| 14> Ir   0.58048969  -0.78481926   0.42203156
| 15> C    0.20356872  -2.91446701   0.82483141
| 16> C   -0.07494453  -2.30646884   2.08505128
| 17> C    2.13185638  -1.85044275   1.50347777
| 18> C    1.55895934  -2.71333445   0.49186926
| 19> C    1.13064330  -1.64906713   2.48435503
| 20> N   -1.15909173  -0.19444049  -0.56175358
| 21> C   -2.51824294  -0.24627413   0.03212786
| 22> C   -2.68843302   0.84251375   1.08201050
| 23> H   -3.67479024   0.74739000   1.53824221
| 24> H   -2.62270804   1.82828650   0.62725408
| 25> H   -1.96295430   0.76236276   1.87661824
| 26> C   -3.64536669  -0.19407918  -0.98894362
| 27> H   -2.56819908  -1.20604983   0.52329513
| 28> H   -4.59239734  -0.37330464  -0.46207675
| 29> H   -3.73776376   0.77679536  -1.46188933
| 30> H   -3.55731102  -0.96774338  -1.74067319
| 31> C   -0.97319062   0.19802624  -1.77450488
| 32> C    0.36397555   0.15176235  -2.31310606
| 33> H   -1.78732422   0.52736322  -2.38992128
| 34> C    1.36714500  -0.28945403  -1.45293977
| 35> C    2.61390619  -0.33030970  -2.25106913
| 36> S    0.83390718   0.45883969  -3.93788923
| 37> C    2.44198408   0.05570541  -3.57046800
| 38> H    2.22498611   1.43690759  -0.72624143
| 39> H    3.57681451  -0.61808127  -1.87195202
| 40> H    3.21107212   0.09279608  -4.32625296
| 41> H   -0.45720945  -3.60707591   0.29850940
| 42> H   -0.94702247  -2.40447896   2.67601227
| 43> H    1.24218572  -1.11399090   3.40973066
| 44> O    2.18096816   2.14400635  -0.15774468
| 45> O    0.52410545   1.22703656   1.14604863
| 46> C    1.25008680   2.19863563   0.82982493
| 47> C    1.08540680   3.52166722   1.58696780
| 48> H    0.93686183   4.33283903   0.87736901
| 49> H    2.00484646   3.74161690   2.13332970
| 50> H    0.25916811   3.47355435   2.28056309
| 51> H    3.15919748  -1.56034124   1.56061300
| 52> H    2.08381057  -3.19456597  -0.30247788
| 53> *
| 54>
| 55>                          ****END OF INPUT****

CARTESIAN COORDINATES (ANGSTROEM)
---------------------------------
  Ir     0.580490   -0.784819    0.422032
  C      0.203569   -2.914467    0.824831
  C     -0.074945   -2.306469    2.085051
  C      2.131856   -1.850443    1.503478
  C      1.558959   -2.713334    0.491869
  C      1.130643   -1.649067    2.484355
  N     -1.159092   -0.194440   -0.561754
  C     -2.518243   -0.246274    0.032128
  C     -2.688433    0.842514    1.082010
  H     -3.674790    0.747390    1.538242
  H     -2.622708    1.828286    0.627254
  H     -1.962954    0.762363    1.876618
  C     -3.645367   -0.194079   -0.988944
  H     -2.568199   -1.206050    0.523295
  H     -4.592397   -0.373305   -0.462077
  H     -3.737764    0.776795   -1.461889
  H     -3.557311   -0.967743   -1.740673
  C     -0.973191    0.198026   -1.774505
  C      0.363976    0.151762   -2.313106
  H     -1.787324    0.527363   -2.389921
  C      1.367145   -0.289454   -1.452940
  C      2.613906   -0.330310   -2.251069
  S      0.833907    0.458840   -3.937889
  C      2.441984    0.055705   -3.570468
  H      2.224986    1.436908   -0.726241
  H      3.576815   -0.618081   -1.871952
  H      3.211072    0.092796   -4.326253
  H     -0.457209   -3.607076    0.298509
  H     -0.947022   -2.404479    2.676012
  H      1.242186   -1.113991    3.409731
  O      2.180968    2.144006   -0.157745
  O      0.524105    1.227037    1.146049
  C      1.250087    2.198636    0.829825
  C      1.085407    3.521667    1.586968
  H      0.936862    4.332839    0.877369
  H      2.004846    3.741617    2.133330
  H      0.259168    3.473554    2.280563
  H      3.159197   -1.560341    1.560613
  H      2.083811   -3.194566   -0.302478

 Total Charge           Charge          ....    1
 Multiplicity           Mult            ....    1
 Number of Electrons    NEL             ....  164
 Basis Dimension        Dim             ....  358

ORBITAL ENERGIES
----------------

  NO   OCC          E(Eh)            E(eV)
   0   2.0000     -89.739578     -2441.9381
   1   2.0000     -19.677794      -535.4600
   2   2.0000     -19.676168      -535.4158
   3   2.0000     -14.813148      -403.0862
   4   2.0000     -10.757805      -292.7348
   5   2.0000     -10.636373      -289.4304
   6   2.0000     -10.619035      -288.9586
   7   2.0000     -10.615048      -288.8501
   8   2.0000     -10.613631      -288.8116
   9   2.0000     -10.605277      -288.5843
  10   2.0000     -10.603835      -288.5450
  11   2.0000     -10.599072      -288.4154
  12   2.0000     -10.598838      -288.4090
  13   2.0000     -10.593315      -288.2588
  14   2.0000     -10.590913      -288.1934
  15   2.0000     -10.580160      -287.9008
  16   2.0000     -10.575797      -287.7821
  17   2.0000     -10.542990      -286.8894
  18   2.0000     -10.537947      -286.7521
  19   2.0000      -8.378988      -228.0039
  20   2.0000      -6.269051      -170.5896
  21   2.0000      -6.265664      -170.4974
  22   2.0000      -6.263568      -170.4403
  23   2.0000      -4.009731      -109.1103
  24   2.0000      -2.324097       -63.2419
  25   2.0000      -2.297359       -62.5143
  26   2.0000      -2.292062       -62.3702
  27   2.0000      -1.363034       -37.0901
  28   2.0000      -1.283626       -34.9292
  29   2.0000      -1.183008       -32.1913
  30   2.0000      -1.146837       -31.2070
  31   2.0000      -1.098971       -29.9045
  32   2.0000      -1.009078       -27.4584
  33   2.0000      -0.979863       -26.6634
  34   2.0000      -0.960442       -26.1350
  35   2.0000      -0.954342       -25.9690
  36   2.0000      -0.941832       -25.6286
  37   2.0000      -0.936791       -25.4914
  38   2.0000      -0.891175       -24.2501
  39   2.0000      -0.856134       -23.2966
  40   2.0000      -0.849433       -23.1142
  41   2.0000      -0.782578       -21.2950
  42   2.0000      -0.770599       -20.9691
  43   2.0000      -0.767023       -20.8718
  44   2.0000      -0.762115       -20.7382
  45   2.0000      -0.757180       -20.6039
  46   2.0000      -0.751832       -20.4584
  47   2.0000      -0.714563       -19.4442
  48   2.0000      -0.690656       -18.7937
  49   2.0000      -0.682500       -18.5718
  50   2.0000      -0.673905       -18.3379
  51   2.0000      -0.669012       -18.2047
  52   2.0000      -0.648522       -17.6472
  53   2.0000      -0.631909       -17.1951
  54   2.0000      -0.623151       -16.9568
  55   2.0000      -0.619048       -16.8452
  56   2.0000      -0.607990       -16.5442
  57   2.0000      -0.603077       -16.4105
  58   2.0000      -0.596288       -16.2258
  59   2.0000      -0.589582       -16.0433
  60   2.0000      -0.585328       -15.9276
  61   2.0000      -0.584120       -15.8947
  62   2.0000      -0.582580       -15.8528
  63   2.0000      -0.578491       -15.7415
  64   2.0000      -0.567984       -15.4556
  65   2.0000      -0.558070       -15.1859
  66   2.0000      -0.544455       -14.8154
  67   2.0000      -0.543320       -14.7845
  68   2.0000      -0.538798       -14.6614
  69   2.0000      -0.534858       -14.5542
  70   2.0000      -0.532674       -14.4948
  71   2.0000      -0.527884       -14.3645
  72   2.0000      -0.510350       -13.8873
  73   2.0000      -0.500497       -13.6192
  74   2.0000      -0.499061       -13.5801
  75   2.0000      -0.481139       -13.0925
  76   2.0000      -0.472911       -12.8686
  77   2.0000      -0.446989       -12.1632
  78   2.0000      -0.435470       -11.8497
  79   2.0000      -0.409037       -11.1305
  80   2.0000      -0.398718       -10.8497
  81   2.0000      -0.380458       -10.3528
  82   0.0000      -0.171027        -4.6539
  83   0.0000      -0.150242        -4.0883
  84   0.0000      -0.126895        -3.4530
  85   0.0000      -0.117491        -3.1971
  86   0.0000      -0.072102        -1.9620

MULLIKEN ATOMIC CHARGES
-----------------------
   0 Ir:    0.585113
   1 C :   -0.269479
   2 C :   -0.232538
   3 C :   -0.289595
   4 C :   -0.221488
   5 C :   -0.158659
   6 N :   -0.476438
   7 C :   -0.093719
   8 C :   -0.641363
   9 H :    0.246042
  10 H :    0.225079
  11 H :    0.258875
  12 C :   -0.697212
  13 H :    0.247365
  14 H :    0.265850
  15 H :    0.230590
  16 H :    0.250908
  17 C :    0.078172
  18 C :   -0.209428
  19 H :    0.277010
  20 C :   -0.278770
  21 C :   -0.244742
  22 S :    0.309392
  23 C :   -0.397209
  24 H :    0.528075
  25 H :    0.256709
  26 H :    0.292868
  27 H :    0.279538
  28 H :    0.271833
  29 H :    0.279470
  30 O :   -0.583107
  31 O :   -0.432293
  32 C :    0.649354
  33 C :   -0.729468
  34 H :    0.288192
  35 H :    0.288922
  36 H :    0.285443
  37 H :    0.273787
  38 H :    0.286921
Sum of atomic charges:    1.0000000

LOEWDIN ATOMIC CHARGES
----------------------
   0 Ir:   -0.268775
   1 C :   -0.060802
   2 C :   -0.102975
   3 C :   -0.119491
   4 C :   -0.040167
   5 C :   -0.021985
   6 N :   -0.035929
   7 C :   -0.060368
   8 C :   -0.349389
   9 H :    0.144103
  10 H :    0.135517
  11 H :    0.144822
  12 C :   -0.365928
  13 H :    0.138316
  14 H :    0.154911
  15 H :    0.135354
  16 H :    0.141010
  17 C :    0.034646
  18 C :   -0.250003
  19 H :    0.152747
  20 C :   -0.115109
  21 C :   -0.190637
  22 S :    0.451561
  23 C :   -0.258522
  24 H :    0.337517
  25 H :    0.152126
  26 H :    0.167360
  27 H :    0.180675
  28 H :    0.173315
  29 H :    0.177119
  30 O :   -0.251790
  31 O :   -0.116400
  32 C :    0.269746
  33 C :   -0.363300
  34 H :    0.175621
  35 H :    0.178163
  36 H :    0.167782
  37 H :    0.176413
  38 H :    0.182747

  Mayer bond orders larger than 0.100000
B(  0-Ir,  1-C ) :   0.4651 B(  0-Ir,  2-C ) :   0.3008 B(  0-Ir,  3-C ) :   0.4728
B(  0-Ir,  4-C ) :   0.4386 B(  0-Ir,  5-C ) :   0.3244 B(  0-Ir,  6-N ) :   0.4862
B(  0-Ir, 20-C ) :   0.6741 B(  0-Ir, 31-O ) :   0.4127 B(  1-C ,  2-C ) :   1.1533
B(  1-C ,  4-C ) :   1.1973 B(  1-C , 27-H ) :   0.9161 B(  2-C ,  5-C ) :   1.2884
B(  2-C , 28-H ) :   0.9182 B(  3-C ,  4-C ) :   1.1559 B(  3-C ,  5-C ) :   1.1548
B(  3-C , 37-H ) :   0.9179 B(  4-C , 38-H ) :   0.9120 B(  5-C , 29-H ) :   0.9114
B(  6-N ,  7-C ) :   0.9045 B(  6-N , 17-C ) :   1.6077 B(  7-C ,  8-C ) :   0.9808
B(  7-C , 12-C ) :   0.9964 B(  7-C , 13-H ) :   0.8875 B(  8-C ,  9-H ) :   0.9089
B(  8-C , 10-H ) :   0.9183 B(  8-C , 11-H ) :   0.9025 B( 12-C , 14-H ) :   0.9060
B( 12-C , 15-H ) :   0.9114 B( 12-C , 16-H ) :   0.9123 B( 17-C , 18-C ) :   1.1420
B( 17-C , 19-H ) :   0.8771 B( 18-C , 20-C ) :   1.3505 B( 18-C , 22-S ) :   1.1466
B( 20-C , 21-C ) :   1.3021 B( 21-C , 23-C ) :   1.5122 B( 21-C , 25-H ) :   0.9056
B( 22-S , 23-C ) :   1.2465 B( 23-C , 26-H ) :   0.8928 B( 24-H , 30-O ) :   0.6388
B( 30-O , 32-C ) :   1.2215 B( 31-O , 32-C ) :   1.6050 B( 32-C , 33-C ) :   0.9545
B( 33-C , 34-H ) :   0.8860 B( 33-C , 35-H ) :   0.8835 B( 33-C , 36-H ) :   0.8986

Dispersion correction           -0.029954540
FINAL SINGLE POINT ENERGY     -1288.412584080689
Dispersion correction            ... done

DIPOLE MOMENT
-------------
                                X             Y             Z
Electronic contribution:     34.59426     -77.63220      73.24668
Nuclear contribution   :    -34.88330      78.12753     -72.60313
                        -----------------------------------------
Total Dipole Moment    :     -0.28905       0.49533       0.64355
                        -----------------------------------------
Magnitude (a.u.)       :      0.86201
Magnitude (Debye)      :      2.19105

Rotational constants in cm-1:     0.010628     0.008346     0.007838
Rotational constants in MHz :   318.611970   250.199770   234.991766

                             ****ORCA TERMINATED NORMALLY****
TOTAL RUN TIME: 0 days 0 hours 16 minutes 24 seconds 195 msec
