                         Program Version 5.0.3 -  RELEASE  -
|  1> ! EnGrad PBEh-3c
|  2> %output
|  3> xyzfile=True
|  4> end
|  5> %scf
|  6> maxiter 250
|  7> end
|  8> %output
|  9> Print[P_Hirshfeld] = 1
| 10> end
| 11> % maxcore
| 12> 4000
| 13> *xyz 1 1
| 14> Ir   0.57846083  -0.78900136   0.42915552
| 15> C    0.19966138  -2.91776944   0.82088261
| 16> C   -0.06312362  -2.30162960   2.08413379
| 17> C    2.13068961  -1.85307473   1.49826440
| 18> C    1.56071779  -2.70801643   0.49726588
| 19> C    1.12257501  -1.65184036   2.48361541
| 20> N   -1.15923113  -0.19430743  -0.56416767
| 21> C   -2.51568092  -0.24368627   0.02979026
| 22> C   -2.69016107   0.84082268   1.08100412
| 23> H   -3.67424663   0.74721966   1.53884990
| 24> H   -2.62242353   1.82840135   0.62780122
| 25> H   -1.96159883   0.76188287   1.87802911
| 26> C   -3.64725093  -0.19457675  -0.98502740
| 27> H   -2.56853805  -1.20829334   0.52416092
| 28> H   -4.59125476  -0.37274679  -0.46302147
| 29> H   -3.73766673   0.77822706  -1.46220233
| 30> H   -3.55734236  -0.96811551  -1.74197874
| 31> C   -0.96934914   0.19691049  -1.77445248
| 32> C    0.35996863   0.15061666  -2.30762835
| 33> H   -1.78940975   0.52826183  -2.39122179
| 34> C    1.37237431  -0.28780222  -1.46777432
| 35> C    2.60577351  -0.33048533  -2.24878795
| 36> S    0.83394098   0.45893842  -3.93633205
| 37> C    2.44252567   0.05426762  -3.56386889
| 38> H    2.22632331   1.40969209  -0.74721116
| 39> H    3.57801887  -0.61856474  -1.87114660
| 40> H    3.21131449   0.09285991  -4.32591580
| 41> H   -0.45571744  -3.60516884   0.29832479
| 42> H   -0.95149771  -2.40507863   2.67712510
| 43> H    1.24149278  -1.11266654   3.41052943
| 44> O    2.16927631   2.17638006  -0.12271615
| 45> O    0.53247277   1.23450584   1.14064809
| 46> C    1.25000939   2.19380990   0.82501665
| 47> C    1.09045134   3.51673867   1.58117877
| 48> H    0.93687690   4.33300824   0.87676636
| 49> H    2.00493777   3.74177737   2.13277249
| 50> H    0.25865893   3.47253371   2.28044602
| 51> H    3.16102768  -1.55948627   1.56210820
| 52> H    2.08575509  -3.19533377  -0.30421341
| 53> *
| 54>
| 55>                          ****END OF INPUT****

CARTESIAN COORDINATES (ANGSTROEM)
---------------------------------
  Ir     0.578461   -0.789001    0.429156
  C      0.199661   -2.917769    0.820883
  C     -0.063124   -2.301630    2.084134
  C      2.130690   -1.853075    1.498264
  C      1.560718   -2.708016    0.497266
  C      1.122575   -1.651840    2.483615
  N     -1.159231   -0.194307   -0.564168
  C     -2.515681   -0.243686    0.029790
  C     -2.690161    0.840823    1.081004
  H     -3.674247    0.747220    1.538850
  H     -2.622424    1.828401    0.627801
  H     -1.961599    0.761883    1.878029
  C     -3.647251   -0.194577   -0.985027
  H     -2.568538   -1.208293    0.524161
  H     -4.591255   -0.372747   -0.463021
  H     -3.737667    0.778227   -1.462202
  H     -3.557342   -0.968116   -1.741979
  C     -0.969349    0.196910   -1.774452
  C      0.359969    0.150617   -2.307628
  H     -1.789410    0.528262   -2.391222
  C      1.372374   -0.287802   -1.467774
  C      2.605774   -0.330485   -2.248788
  S      0.833941    0.458938   -3.936332
  C      2.442526    0.054268   -3.563869
  H      2.226323    1.409692   -0.747211
  H      3.578019   -0.618565   -1.871147
  H      3.211314    0.092860   -4.325916
  H     -0.455717   -3.605169    0.298325
  H     -0.951498   -2.405079    2.677125
  H      1.241493   -1.112667    3.410529
  O      2.169276    2.176380   -0.122716
  O      0.532473    1.234506    1.140648
  C      1.250009    2.193810    0.825017
  C      1.090451    3.516739    1.581179
  H      0.936877    4.333008    0.876766
  H      2.004938    3.741777    2.132772
  H      0.258659    3.472534    2.280446
  H      3.161028   -1.559486    1.562108
  H      2.085755   -3.195334   -0.304213

 Total Charge           Charge          ....    1
 Multiplicity           Mult            ....    1
 Number of Electrons    NEL             ....  164
 Basis Dimension        Dim             ....  358

ORBITAL ENERGIES
----------------

  NO   OCC          E(Eh)            E(eV)
   0   2.0000     -89.741960     -2442.0029
   1   2.0000     -19.681683      -535.5658
   2   2.0000     -19.671406      -535.2862
   3   2.0000     -14.813696      -403.1012
   4   2.0000     -10.747342      -292.4501
   5   2.0000     -10.637111      -289.4505
   6   2.0000     -10.618452      -288.9428
   7   2.0000     -10.615112      -288.8519
   8   2.0000     -10.614182      -288.8266
   9   2.0000     -10.605875      -288.6005
  10   2.0000     -10.604089      -288.5519
  11   2.0000     -10.601649      -288.4855
  12   2.0000     -10.599186      -288.4185
  13   2.0000     -10.595053      -288.3060
  14   2.0000     -10.591153      -288.1999
  15   2.0000     -10.577596      -287.8310
  16   2.0000     -10.573209      -287.7116
  17   2.0000     -10.543094      -286.8922
  18   2.0000     -10.537795      -286.7480
  19   2.0000      -8.381276      -228.0661
  20   2.0000      -6.271296      -170.6506
  21   2.0000      -6.267931      -170.5591
  22   2.0000      -6.265906      -170.5040
  23   2.0000      -4.009779      -109.1116
  24   2.0000      -2.324409       -63.2504
  25   2.0000      -2.297097       -62.5072
  26   2.0000      -2.292062       -62.3702
  27   2.0000      -1.366315       -37.1793
  28   2.0000      -1.281471       -34.8706
  29   2.0000      -1.184933       -32.2437
  30   2.0000      -1.149834       -31.2886
  31   2.0000      -1.103366       -30.0241
  32   2.0000      -1.010425       -27.4951
  33   2.0000      -0.971179       -26.4271
  34   2.0000      -0.961530       -26.1646
  35   2.0000      -0.955609       -26.0034
  36   2.0000      -0.944863       -25.7110
  37   2.0000      -0.940355       -25.5883
  38   2.0000      -0.890768       -24.2390
  39   2.0000      -0.852470       -23.1969
  40   2.0000      -0.840918       -22.8825
  41   2.0000      -0.783059       -21.3081
  42   2.0000      -0.769763       -20.9463
  43   2.0000      -0.767073       -20.8731
  44   2.0000      -0.763027       -20.7630
  45   2.0000      -0.755951       -20.5705
  46   2.0000      -0.752479       -20.4760
  47   2.0000      -0.715179       -19.4610
  48   2.0000      -0.692535       -18.8448
  49   2.0000      -0.683956       -18.6114
  50   2.0000      -0.676160       -18.3992
  51   2.0000      -0.670763       -18.2524
  52   2.0000      -0.648731       -17.6529
  53   2.0000      -0.631740       -17.1905
  54   2.0000      -0.622970       -16.9519
  55   2.0000      -0.618730       -16.8365
  56   2.0000      -0.609384       -16.5822
  57   2.0000      -0.595324       -16.1996
  58   2.0000      -0.594683       -16.1822
  59   2.0000      -0.589512       -16.0414
  60   2.0000      -0.588093       -16.0028
  61   2.0000      -0.583450       -15.8765
  62   2.0000      -0.580988       -15.8095
  63   2.0000      -0.576369       -15.6838
  64   2.0000      -0.568121       -15.4594
  65   2.0000      -0.559195       -15.2165
  66   2.0000      -0.547014       -14.8850
  67   2.0000      -0.542736       -14.7686
  68   2.0000      -0.537521       -14.6267
  69   2.0000      -0.534305       -14.5392
  70   2.0000      -0.532124       -14.4798
  71   2.0000      -0.527550       -14.3554
  72   2.0000      -0.509301       -13.8588
  73   2.0000      -0.499579       -13.5942
  74   2.0000      -0.499069       -13.5804
  75   2.0000      -0.481594       -13.1048
  76   2.0000      -0.472453       -12.8561
  77   2.0000      -0.447765       -12.1843
  78   2.0000      -0.436901       -11.8887
  79   2.0000      -0.410168       -11.1612
  80   2.0000      -0.402082       -10.9412
  81   2.0000      -0.383001       -10.4220
  82   0.0000      -0.172599        -4.6967
  83   0.0000      -0.150393        -4.0924
  84   0.0000      -0.122171        -3.3244
  85   0.0000      -0.110535        -3.0078
  86   0.0000      -0.073653        -2.0042

MULLIKEN ATOMIC CHARGES
-----------------------
   0 Ir:    0.578991
   1 C :   -0.267603
   2 C :   -0.235831
   3 C :   -0.289522
   4 C :   -0.222629
   5 C :   -0.156996
   6 N :   -0.474075
   7 C :   -0.093619
   8 C :   -0.640658
   9 H :    0.246623
  10 H :    0.225247
  11 H :    0.258962
  12 C :   -0.696332
  13 H :    0.245859
  14 H :    0.267537
  15 H :    0.229197
  16 H :    0.249264
  17 C :    0.076440
  18 C :   -0.202368
  19 H :    0.277081
  20 C :   -0.280777
  21 C :   -0.246538
  22 S :    0.311103
  23 C :   -0.397937
  24 H :    0.530723
  25 H :    0.258656
  26 H :    0.294474
  27 H :    0.279667
  28 H :    0.272873
  29 H :    0.280661
  30 O :   -0.568513
  31 O :   -0.431599
  32 C :    0.645381
  33 C :   -0.733432
  34 H :    0.284158
  35 H :    0.286002
  36 H :    0.278867
  37 H :    0.273937
  38 H :    0.286726
Sum of atomic charges:    1.0000000

LOEWDIN ATOMIC CHARGES
----------------------
   0 Ir:   -0.270065
   1 C :   -0.060497
   2 C :   -0.101303
   3 C :   -0.118484
   4 C :   -0.039347
   5 C :   -0.023193
   6 N :   -0.034148
   7 C :   -0.061229
   8 C :   -0.349021
   9 H :    0.144242
  10 H :    0.135690
  11 H :    0.145273
  12 C :   -0.365874
  13 H :    0.138069
  14 H :    0.155026
  15 H :    0.134950
  16 H :    0.140521
  17 C :    0.032955
  18 C :   -0.246619
  19 H :    0.153456
  20 C :   -0.122267
  21 C :   -0.192479
  22 S :    0.453048
  23 C :   -0.255928
  24 H :    0.365328
  25 H :    0.153867
  26 H :    0.168235
  27 H :    0.180695
  28 H :    0.174763
  29 H :    0.178454
  30 O :   -0.240283
  31 O :   -0.113836
  32 C :    0.233874
  33 C :   -0.366729
  34 H :    0.172867
  35 H :    0.175653
  36 H :    0.164416
  37 H :    0.176977
  38 H :    0.182943

  Mayer bond orders larger than 0.100000
B(  0-Ir,  1-C ) :   0.4725 B(  0-Ir,  2-C ) :   0.3047 B(  0-Ir,  3-C ) :   0.4781
B(  0-Ir,  4-C ) :   0.4378 B(  0-Ir,  5-C ) :   0.3274 B(  0-Ir,  6-N ) :   0.4824
B(  0-Ir, 20-C ) :   0.6638 B(  0-Ir, 31-O ) :   0.4149 B(  1-C ,  2-C ) :   1.1481
B(  1-C ,  4-C ) :   1.1960 B(  1-C , 27-H ) :   0.9167 B(  2-C ,  5-C ) :   1.2926
B(  2-C , 28-H ) :   0.9170 B(  3-C ,  4-C ) :   1.1582 B(  3-C ,  5-C ) :   1.1486
B(  3-C , 37-H ) :   0.9175 B(  4-C , 38-H ) :   0.9114 B(  5-C , 29-H ) :   0.9108
B(  6-N ,  7-C ) :   0.9057 B(  6-N , 17-C ) :   1.6100 B(  7-C ,  8-C ) :   0.9802
B(  7-C , 12-C ) :   0.9955 B(  7-C , 13-H ) :   0.8875 B(  8-C ,  9-H ) :   0.9084
B(  8-C , 10-H ) :   0.9180 B(  8-C , 11-H ) :   0.9026 B( 12-C , 14-H ) :   0.9053
B( 12-C , 15-H ) :   0.9117 B( 12-C , 16-H ) :   0.9130 B( 17-C , 18-C ) :   1.1417
B( 17-C , 19-H ) :   0.8772 B( 18-C , 20-C ) :   1.3450 B( 18-C , 22-S ) :   1.1490
B( 20-C , 21-C ) :   1.3104 B( 21-C , 23-C ) :   1.5012 B( 21-C , 25-H ) :   0.9048
B( 22-S , 23-C ) :   1.2541 B( 23-C , 26-H ) :   0.8918 B( 24-H , 30-O ) :   0.6134
B( 30-O , 32-C ) :   1.2602 B( 31-O , 32-C ) :   1.6041 B( 32-C , 33-C ) :   0.9487
B( 33-C , 34-H ) :   0.8889 B( 33-C , 35-H ) :   0.8862 B( 33-C , 36-H ) :   0.9028

Dispersion correction           -0.029942118
FINAL SINGLE POINT ENERGY     -1288.426371116560
Dispersion correction            ... done

DIPOLE MOMENT
-------------
                                X             Y             Z
Electronic contribution:     34.45150     -78.27052      73.72543
Nuclear contribution   :    -34.69438      78.64180     -73.22372
                        -----------------------------------------
Total Dipole Moment    :     -0.24287       0.37128       0.50171
                        -----------------------------------------
Magnitude (a.u.)       :      0.66974
Magnitude (Debye)      :      1.70233

Rotational constants in cm-1:     0.010618     0.008337     0.007843
Rotational constants in MHz :   318.320416   249.939276   235.133126

                             ****ORCA TERMINATED NORMALLY****
TOTAL RUN TIME: 0 days 0 hours 16 minutes 5 seconds 805 msec
