                         Program Version 5.0.3 -  RELEASE  -
|  1> ! EnGrad PBEh-3c
|  2> %output
|  3> xyzfile=True
|  4> end
|  5> %scf
|  6> maxiter 250
|  7> end
|  8> %output
|  9> Print[P_Hirshfeld] = 1
| 10> end
| 11> % maxcore
| 12> 4000
| 13> *xyz 1 1
| 14> Ir   0.58266800  -0.78951022   0.42290416
| 15> C    0.19772232  -2.92018989   0.82404030
| 16> C   -0.05731258  -2.29683286   2.08668175
| 17> C    2.13261439  -1.85872487   1.49456017
| 18> C    1.55945715  -2.70810277   0.49768030
| 19> C    1.12433496  -1.65446247   2.48304731
| 20> N   -1.15940602  -0.19454574  -0.56691327
| 21> C   -2.51516666  -0.24213639   0.02967520
| 22> C   -2.69191656   0.84401060   1.07861060
| 23> H   -3.67634337   0.75110148   1.53454236
| 24> H   -2.62324491   1.83129985   0.62357876
| 25> H   -1.96229228   0.76708031   1.87697293
| 26> C   -3.64705500  -0.19694740  -0.98497535
| 27> H   -2.56730326  -1.20816058   0.52736542
| 28> H   -4.58918182  -0.37443785  -0.46413889
| 29> H   -3.73777142   0.77559610  -1.46606820
| 30> H   -3.55467062  -0.97191457  -1.74244296
| 31> C   -0.96757484   0.19733129  -1.77599722
| 32> C    0.35970857   0.14973454  -2.30345425
| 33> H   -1.79088065   0.52851600  -2.39183873
| 34> C    1.37303942  -0.28833718  -1.46756553
| 35> C    2.60115770  -0.32743210  -2.24447043
| 36> S    0.83254887   0.45862186  -3.93584947
| 37> C    2.44139762   0.05205727  -3.56092173
| 38> H    2.21922661   1.41331211  -0.73502774
| 39> H    3.57907661  -0.61718659  -1.87249605
| 40> H    3.20922099   0.09213989  -4.32802767
| 41> H   -0.45956892  -3.60206890   0.30399845
| 42> H   -0.95060997  -2.39957457   2.68253312
| 43> H    1.24968242  -1.11168062   3.40862019
| 44> O    2.16578138   2.17989287  -0.11693567
| 45> O    0.53556675   1.23417219   1.13884531
| 46> C    1.25297363   2.18883591   0.82171302
| 47> C    1.09223813   3.51097517   1.57914651
| 48> H    0.93645215   4.33270539   0.87921943
| 49> H    2.00316468   3.74070340   2.13593888
| 50> H    0.25682414   3.47163032   2.28188011
| 51> H    3.16399185  -1.56301870   1.55627042
| 52> H    2.07985513  -3.19553345  -0.31048032
| 53> *
| 54>
| 55>                          ****END OF INPUT****

CARTESIAN COORDINATES (ANGSTROEM)
---------------------------------
  Ir     0.582668   -0.789510    0.422904
  C      0.197722   -2.920190    0.824040
  C     -0.057313   -2.296833    2.086682
  C      2.132614   -1.858725    1.494560
  C      1.559457   -2.708103    0.497680
  C      1.124335   -1.654462    2.483047
  N     -1.159406   -0.194546   -0.566913
  C     -2.515167   -0.242136    0.029675
  C     -2.691917    0.844011    1.078611
  H     -3.676343    0.751101    1.534542
  H     -2.623245    1.831300    0.623579
  H     -1.962292    0.767080    1.876973
  C     -3.647055   -0.196947   -0.984975
  H     -2.567303   -1.208161    0.527365
  H     -4.589182   -0.374438   -0.464139
  H     -3.737771    0.775596   -1.466068
  H     -3.554671   -0.971915   -1.742443
  C     -0.967575    0.197331   -1.775997
  C      0.359709    0.149735   -2.303454
  H     -1.790881    0.528516   -2.391839
  C      1.373039   -0.288337   -1.467566
  C      2.601158   -0.327432   -2.244470
  S      0.832549    0.458622   -3.935849
  C      2.441398    0.052057   -3.560922
  H      2.219227    1.413312   -0.735028
  H      3.579077   -0.617187   -1.872496
  H      3.209221    0.092140   -4.328028
  H     -0.459569   -3.602069    0.303998
  H     -0.950610   -2.399575    2.682533
  H      1.249682   -1.111681    3.408620
  O      2.165781    2.179893   -0.116936
  O      0.535567    1.234172    1.138845
  C      1.252974    2.188836    0.821713
  C      1.092238    3.510975    1.579147
  H      0.936452    4.332705    0.879219
  H      2.003165    3.740703    2.135939
  H      0.256824    3.471630    2.281880
  H      3.163992   -1.563019    1.556270
  H      2.079855   -3.195533   -0.310480

 Total Charge           Charge          ....    1
 Multiplicity           Mult            ....    1
 Number of Electrons    NEL             ....  164
 Basis Dimension        Dim             ....  358

ORBITAL ENERGIES
----------------

  NO   OCC          E(Eh)            E(eV)
   0   2.0000     -89.741904     -2442.0014
   1   2.0000     -19.683806      -535.6236
   2   2.0000     -19.671098      -535.2778
   3   2.0000     -14.813345      -403.0916
   4   2.0000     -10.746182      -292.4185
   5   2.0000     -10.636724      -289.4400
   6   2.0000     -10.618201      -288.9359
   7   2.0000     -10.615141      -288.8527
   8   2.0000     -10.613769      -288.8153
   9   2.0000     -10.605762      -288.5975
  10   2.0000     -10.604397      -288.5603
  11   2.0000     -10.602132      -288.4987
  12   2.0000     -10.599101      -288.4162
  13   2.0000     -10.594885      -288.3015
  14   2.0000     -10.590804      -288.1904
  15   2.0000     -10.577511      -287.8287
  16   2.0000     -10.572521      -287.6929
  17   2.0000     -10.543158      -286.8939
  18   2.0000     -10.538005      -286.7537
  19   2.0000      -8.381170      -228.0632
  20   2.0000      -6.271183      -170.6476
  21   2.0000      -6.267828      -170.5563
  22   2.0000      -6.265803      -170.5012
  23   2.0000      -4.009618      -109.1073
  24   2.0000      -2.324219       -63.2452
  25   2.0000      -2.296908       -62.5020
  26   2.0000      -2.292015       -62.3689
  27   2.0000      -1.371725       -37.3265
  28   2.0000      -1.285315       -34.9752
  29   2.0000      -1.185060       -32.2471
  30   2.0000      -1.150505       -31.3068
  31   2.0000      -1.103745       -30.0344
  32   2.0000      -1.010617       -27.5003
  33   2.0000      -0.970617       -26.4118
  34   2.0000      -0.961820       -26.1724
  35   2.0000      -0.955418       -25.9982
  36   2.0000      -0.944981       -25.7142
  37   2.0000      -0.941154       -25.6101
  38   2.0000      -0.890539       -24.2328
  39   2.0000      -0.852579       -23.1999
  40   2.0000      -0.843465       -22.9518
  41   2.0000      -0.782863       -21.3028
  42   2.0000      -0.769524       -20.9398
  43   2.0000      -0.766945       -20.8696
  44   2.0000      -0.763384       -20.7727
  45   2.0000      -0.756390       -20.5824
  46   2.0000      -0.752241       -20.4695
  47   2.0000      -0.715013       -19.4565
  48   2.0000      -0.694463       -18.8973
  49   2.0000      -0.684910       -18.6373
  50   2.0000      -0.677988       -18.4490
  51   2.0000      -0.671384       -18.2693
  52   2.0000      -0.648308       -17.6413
  53   2.0000      -0.631512       -17.1843
  54   2.0000      -0.622314       -16.9340
  55   2.0000      -0.618344       -16.8260
  56   2.0000      -0.609701       -16.5908
  57   2.0000      -0.595643       -16.2083
  58   2.0000      -0.592828       -16.1317
  59   2.0000      -0.589528       -16.0419
  60   2.0000      -0.588112       -16.0033
  61   2.0000      -0.583408       -15.8753
  62   2.0000      -0.581554       -15.8249
  63   2.0000      -0.576038       -15.6748
  64   2.0000      -0.568665       -15.4742
  65   2.0000      -0.559522       -15.2254
  66   2.0000      -0.547849       -14.9077
  67   2.0000      -0.544026       -14.8037
  68   2.0000      -0.537112       -14.6156
  69   2.0000      -0.534376       -14.5411
  70   2.0000      -0.532296       -14.4845
  71   2.0000      -0.527782       -14.3617
  72   2.0000      -0.509349       -13.8601
  73   2.0000      -0.499669       -13.5967
  74   2.0000      -0.499254       -13.5854
  75   2.0000      -0.481969       -13.1150
  76   2.0000      -0.472403       -12.8547
  77   2.0000      -0.448106       -12.1936
  78   2.0000      -0.436618       -11.8810
  79   2.0000      -0.410636       -11.1740
  80   2.0000      -0.402073       -10.9410
  81   2.0000      -0.383105       -10.4248
  82   0.0000      -0.172938        -4.7059
  83   0.0000      -0.151050        -4.1103
  84   0.0000      -0.121489        -3.3059
  85   0.0000      -0.108596        -2.9551
  86   0.0000      -0.073443        -1.9985

MULLIKEN ATOMIC CHARGES
-----------------------
   0 Ir:    0.576397
   1 C :   -0.263677
   2 C :   -0.238352
   3 C :   -0.289317
   4 C :   -0.227278
   5 C :   -0.154770
   6 N :   -0.473647
   7 C :   -0.093357
   8 C :   -0.640040
   9 H :    0.246818
  10 H :    0.225184
  11 H :    0.258378
  12 C :   -0.695902
  13 H :    0.245003
  14 H :    0.268038
  15 H :    0.228687
  16 H :    0.248873
  17 C :    0.075740
  18 C :   -0.201991
  19 H :    0.276896
  20 C :   -0.277124
  21 C :   -0.248112
  22 S :    0.309220
  23 C :   -0.397091
  24 H :    0.531134
  25 H :    0.258384
  26 H :    0.294758
  27 H :    0.279796
  28 H :    0.273037
  29 H :    0.280792
  30 O :   -0.560038
  31 O :   -0.430279
  32 C :    0.641996
  33 C :   -0.736038
  34 H :    0.283383
  35 H :    0.285511
  36 H :    0.277618
  37 H :    0.274235
  38 H :    0.287136
Sum of atomic charges:    1.0000000

LOEWDIN ATOMIC CHARGES
----------------------
   0 Ir:   -0.269358
   1 C :   -0.059293
   2 C :   -0.102128
   3 C :   -0.118856
   4 C :   -0.041513
   5 C :   -0.023203
   6 N :   -0.034669
   7 C :   -0.061045
   8 C :   -0.349007
   9 H :    0.144353
  10 H :    0.135698
  11 H :    0.145207
  12 C :   -0.365811
  13 H :    0.137821
  14 H :    0.154946
  15 H :    0.134811
  16 H :    0.140481
  17 C :    0.032014
  18 C :   -0.245320
  19 H :    0.153640
  20 C :   -0.121804
  21 C :   -0.192598
  22 S :    0.451344
  23 C :   -0.254852
  24 H :    0.364574
  25 H :    0.154145
  26 H :    0.168456
  27 H :    0.180514
  28 H :    0.175146
  29 H :    0.178569
  30 O :   -0.229402
  31 O :   -0.112176
  32 C :    0.225965
  33 C :   -0.368170
  34 H :    0.172249
  35 H :    0.175033
  36 H :    0.163957
  37 H :    0.177146
  38 H :    0.183134

  Mayer bond orders larger than 0.100000
B(  0-Ir,  1-C ) :   0.4728 B(  0-Ir,  2-C ) :   0.3005 B(  0-Ir,  3-C ) :   0.4776
B(  0-Ir,  4-C ) :   0.4383 B(  0-Ir,  5-C ) :   0.3233 B(  0-Ir,  6-N ) :   0.4829
B(  0-Ir, 20-C ) :   0.6682 B(  0-Ir, 31-O ) :   0.4152 B(  1-C ,  2-C ) :   1.1482
B(  1-C ,  4-C ) :   1.1962 B(  1-C , 27-H ) :   0.9167 B(  2-C ,  5-C ) :   1.2967
B(  2-C , 28-H ) :   0.9168 B(  3-C ,  4-C ) :   1.1594 B(  3-C ,  5-C ) :   1.1484
B(  3-C , 37-H ) :   0.9170 B(  4-C , 38-H ) :   0.9108 B(  5-C , 29-H ) :   0.9106
B(  6-N ,  7-C ) :   0.9056 B(  6-N , 17-C ) :   1.6083 B(  7-C ,  8-C ) :   0.9800
B(  7-C , 12-C ) :   0.9950 B(  7-C , 13-H ) :   0.8878 B(  8-C ,  9-H ) :   0.9082
B(  8-C , 10-H ) :   0.9180 B(  8-C , 11-H ) :   0.9030 B( 12-C , 14-H ) :   0.9050
B( 12-C , 15-H ) :   0.9118 B( 12-C , 16-H ) :   0.9132 B( 17-C , 18-C ) :   1.1435
B( 17-C , 19-H ) :   0.8773 B( 18-C , 20-C ) :   1.3429 B( 18-C , 22-S ) :   1.1487
B( 20-C , 21-C ) :   1.3128 B( 21-C , 23-C ) :   1.4999 B( 21-C , 25-H ) :   0.9049
B( 22-S , 23-C ) :   1.2550 B( 23-C , 26-H ) :   0.8913 B( 24-H , 30-O ) :   0.6138
B( 30-O , 32-C ) :   1.2717 B( 31-O , 32-C ) :   1.6051 B( 32-C , 33-C ) :   0.9466
B( 33-C , 34-H ) :   0.8894 B( 33-C , 35-H ) :   0.8866 B( 33-C , 36-H ) :   0.9039

Dispersion correction           -0.029941570
FINAL SINGLE POINT ENERGY     -1288.428188387755
Dispersion correction            ... done

DIPOLE MOMENT
-------------
                                X             Y             Z
Electronic contribution:     34.86467     -78.29800      73.09610
Nuclear contribution   :    -35.10056      78.66690     -72.60081
                        -----------------------------------------
Total Dipole Moment    :     -0.23589       0.36890       0.49530
                        -----------------------------------------
Magnitude (a.u.)       :      0.66110
Magnitude (Debye)      :      1.68038

Rotational constants in cm-1:     0.010618     0.008350     0.007852
Rotational constants in MHz :   318.307914   250.313769   235.386387

                             ****ORCA TERMINATED NORMALLY****
TOTAL RUN TIME: 0 days 0 hours 17 minutes 14 seconds 807 msec
