                         Program Version 5.0.3 -  RELEASE  -
|  1> ! EnGrad PBEh-3c
|  2> %output
|  3> xyzfile=True
|  4> end
|  5> %scf
|  6> maxiter 250
|  7> end
|  8> %output
|  9> Print[P_Hirshfeld] = 1
| 10> end
| 11> % maxcore
| 12> 4000
| 13> *xyz 1 1
| 14> Ir   0.60335795  -0.79486248   0.39459582
| 15> C    0.19396175  -2.92532349   0.84465511
| 16> C   -0.04329809  -2.27789206   2.10309123
| 17> C    2.14621221  -1.88520508   1.47855705
| 18> C    1.55128009  -2.71774590   0.48950410
| 19> C    1.14753201  -1.66245420   2.48242097
| 20> N   -1.15956420  -0.19661583  -0.57893822
| 21> C   -2.51141812  -0.23739904   0.02909848
| 22> C   -2.69866706   0.86311946   1.06520469
| 23> H   -3.68903418   0.77332334   1.51011032
| 24> H   -2.62808830   1.84746116   0.59965861
| 25> H   -1.96773701   0.79752790   1.86958615
| 26> C   -3.64291596  -0.20966720  -0.98887067
| 27> H   -2.55972711  -1.20424165   0.54434237
| 28> H   -4.57987312  -0.38472436  -0.46918228
| 29> H   -3.73830590   0.75869733  -1.48730356
| 30> H   -3.53955260  -0.99243952  -1.74349894
| 31> C   -0.96581792   0.20044837  -1.78503247
| 32> C    0.35916167   0.14723142  -2.28972047
| 33> H   -1.79675573   0.52984317  -2.39515630
| 34> C    1.37334520  -0.29100963  -1.46403335
| 35> C    2.58845055  -0.31460026  -2.22106720
| 36> S    0.82521932   0.45555867  -3.92794373
| 37> C    2.43402100   0.04185503  -3.54851781
| 38> H    2.18056046   1.42668870  -0.67138852
| 39> H    3.57896508  -0.60768551  -1.88010841
| 40> H    3.19428039   0.08720286  -4.33482063
| 41> H   -0.48542571  -3.58715195   0.33388377
| 42> H   -0.93774618  -2.36579245   2.70854081
| 43> H    1.29604159  -1.10673751   3.39540334
| 44> O    2.15614885   2.20338377  -0.09237634
| 45> O    0.54980448   1.21972550   1.12617605
| 46> C    1.26087961   2.17938102   0.82061458
| 47> C    1.09675547   3.48097612   1.57269175
| 48> H    0.93498423   4.32809555   0.89344080
| 49> H    1.99298472   3.73301953   2.15260701
| 50> H    0.25211911   3.46447077   2.28430533
| 51> H    3.17934437  -1.58472240   1.52281733
| 52> H    2.04435257  -3.19442436  -0.34296814
| 53> *
| 54>
| 55>                          ****END OF INPUT****

CARTESIAN COORDINATES (ANGSTROEM)
---------------------------------
  Ir     0.603358   -0.794862    0.394596
  C      0.193962   -2.925323    0.844655
  C     -0.043298   -2.277892    2.103091
  C      2.146212   -1.885205    1.478557
  C      1.551280   -2.717746    0.489504
  C      1.147532   -1.662454    2.482421
  N     -1.159564   -0.196616   -0.578938
  C     -2.511418   -0.237399    0.029098
  C     -2.698667    0.863119    1.065205
  H     -3.689034    0.773323    1.510110
  H     -2.628088    1.847461    0.599659
  H     -1.967737    0.797528    1.869586
  C     -3.642916   -0.209667   -0.988871
  H     -2.559727   -1.204242    0.544342
  H     -4.579873   -0.384724   -0.469182
  H     -3.738306    0.758697   -1.487304
  H     -3.539553   -0.992440   -1.743499
  C     -0.965818    0.200448   -1.785032
  C      0.359162    0.147231   -2.289720
  H     -1.796756    0.529843   -2.395156
  C      1.373345   -0.291010   -1.464033
  C      2.588451   -0.314600   -2.221067
  S      0.825219    0.455559   -3.927944
  C      2.434021    0.041855   -3.548518
  H      2.180560    1.426689   -0.671389
  H      3.578965   -0.607686   -1.880108
  H      3.194280    0.087203   -4.334821
  H     -0.485426   -3.587152    0.333884
  H     -0.937746   -2.365792    2.708541
  H      1.296042   -1.106738    3.395403
  O      2.156149    2.203384   -0.092376
  O      0.549804    1.219726    1.126176
  C      1.260880    2.179381    0.820615
  C      1.096755    3.480976    1.572692
  H      0.934984    4.328096    0.893441
  H      1.992985    3.733020    2.152607
  H      0.252119    3.464471    2.284305
  H      3.179344   -1.584722    1.522817
  H      2.044353   -3.194424   -0.342968

 Total Charge           Charge          ....    1
 Multiplicity           Mult            ....    1
 Number of Electrons    NEL             ....  164
 Basis Dimension        Dim             ....  358

ORBITAL ENERGIES
----------------

  NO   OCC          E(Eh)            E(eV)
   0   2.0000     -89.741241     -2441.9833
   1   2.0000     -19.690665      -535.8102
   2   2.0000     -19.670631      -535.2651
   3   2.0000     -14.811893      -403.0521
   4   2.0000     -10.743627      -292.3490
   5   2.0000     -10.635178      -289.3979
   6   2.0000     -10.618109      -288.9334
   7   2.0000     -10.615485      -288.8620
   8   2.0000     -10.611603      -288.7564
   9   2.0000     -10.605531      -288.5912
  10   2.0000     -10.605095      -288.5793
  11   2.0000     -10.603217      -288.5282
  12   2.0000     -10.599186      -288.4185
  13   2.0000     -10.593526      -288.2645
  14   2.0000     -10.589009      -288.1416
  15   2.0000     -10.576247      -287.7943
  16   2.0000     -10.571276      -287.6590
  17   2.0000     -10.543512      -286.9036
  18   2.0000     -10.539176      -286.7855
  19   2.0000      -8.380496      -228.0449
  20   2.0000      -6.270466      -170.6281
  21   2.0000      -6.267139      -170.5375
  22   2.0000      -6.265179      -170.4842
  23   2.0000      -4.008770      -109.0842
  24   2.0000      -2.323209       -63.2177
  25   2.0000      -2.296062       -62.4790
  26   2.0000      -2.291560       -62.3565
  27   2.0000      -1.389948       -37.8224
  28   2.0000      -1.294002       -35.2116
  29   2.0000      -1.184861       -32.2417
  30   2.0000      -1.149692       -31.2847
  31   2.0000      -1.104991       -30.0683
  32   2.0000      -1.010311       -27.4920
  33   2.0000      -0.975184       -26.5361
  34   2.0000      -0.962116       -26.1805
  35   2.0000      -0.953394       -25.9432
  36   2.0000      -0.945228       -25.7210
  37   2.0000      -0.943266       -25.6676
  38   2.0000      -0.889452       -24.2032
  39   2.0000      -0.853095       -23.2139
  40   2.0000      -0.848560       -23.0905
  41   2.0000      -0.782408       -21.2904
  42   2.0000      -0.769868       -20.9492
  43   2.0000      -0.766680       -20.8624
  44   2.0000      -0.764015       -20.7899
  45   2.0000      -0.758311       -20.6347
  46   2.0000      -0.751104       -20.4386
  47   2.0000      -0.715506       -19.4699
  48   2.0000      -0.702913       -19.1272
  49   2.0000      -0.688618       -18.7382
  50   2.0000      -0.684269       -18.6199
  51   2.0000      -0.671597       -18.2751
  52   2.0000      -0.646678       -17.5970
  53   2.0000      -0.631109       -17.1733
  54   2.0000      -0.619805       -16.8658
  55   2.0000      -0.617529       -16.8038
  56   2.0000      -0.610059       -16.6006
  57   2.0000      -0.599299       -16.3078
  58   2.0000      -0.590237       -16.0612
  59   2.0000      -0.589216       -16.0334
  60   2.0000      -0.587159       -15.9774
  61   2.0000      -0.583734       -15.8842
  62   2.0000      -0.582170       -15.8416
  63   2.0000      -0.574572       -15.6349
  64   2.0000      -0.570734       -15.5305
  65   2.0000      -0.560753       -15.2589
  66   2.0000      -0.550655       -14.9841
  67   2.0000      -0.547825       -14.9071
  68   2.0000      -0.536756       -14.6059
  69   2.0000      -0.534797       -14.5526
  70   2.0000      -0.531935       -14.4747
  71   2.0000      -0.528769       -14.3885
  72   2.0000      -0.509935       -13.8760
  73   2.0000      -0.500551       -13.6207
  74   2.0000      -0.498774       -13.5723
  75   2.0000      -0.482241       -13.1224
  76   2.0000      -0.472269       -12.8511
  77   2.0000      -0.449083       -12.2202
  78   2.0000      -0.434919       -11.8348
  79   2.0000      -0.411250       -11.1907
  80   2.0000      -0.401032       -10.9126
  81   2.0000      -0.382387       -10.4053
  82   0.0000      -0.173751        -4.7280
  83   0.0000      -0.153327        -4.1722
  84   0.0000      -0.118744        -3.2312
  85   0.0000      -0.105781        -2.8785
  86   0.0000      -0.073247        -1.9932

MULLIKEN ATOMIC CHARGES
-----------------------
   0 Ir:    0.569712
   1 C :   -0.252653
   2 C :   -0.245350
   3 C :   -0.289293
   4 C :   -0.241691
   5 C :   -0.146943
   6 N :   -0.471205
   7 C :   -0.092608
   8 C :   -0.637702
   9 H :    0.246623
  10 H :    0.224775
  11 H :    0.256182
  12 C :   -0.694988
  13 H :    0.242343
  14 H :    0.268931
  15 H :    0.227364
  16 H :    0.248012
  17 C :    0.073930
  18 C :   -0.202695
  19 H :    0.276972
  20 C :   -0.265937
  21 C :   -0.252029
  22 S :    0.304473
  23 C :   -0.394820
  24 H :    0.531912
  25 H :    0.257729
  26 H :    0.295279
  27 H :    0.280231
  28 H :    0.273202
  29 H :    0.280590
  30 O :   -0.531300
  31 O :   -0.434390
  32 C :    0.635724
  33 C :   -0.751569
  34 H :    0.283866
  35 H :    0.286755
  36 H :    0.276035
  37 H :    0.275289
  38 H :    0.289243
Sum of atomic charges:    1.0000000

LOEWDIN ATOMIC CHARGES
----------------------
   0 Ir:   -0.266145
   1 C :   -0.055313
   2 C :   -0.106056
   3 C :   -0.119570
   4 C :   -0.050903
   5 C :   -0.020890
   6 N :   -0.036714
   7 C :   -0.060308
   8 C :   -0.349218
   9 H :    0.144602
  10 H :    0.135472
  11 H :    0.144746
  12 C :   -0.365721
  13 H :    0.137005
  14 H :    0.154474
  15 H :    0.134350
  16 H :    0.140423
  17 C :    0.029169
  18 C :   -0.243121
  19 H :    0.154372
  20 C :   -0.119986
  21 C :   -0.191836
  22 S :    0.449350
  23 C :   -0.251964
  24 H :    0.360174
  25 H :    0.155029
  26 H :    0.168529
  27 H :    0.179861
  28 H :    0.175543
  29 H :    0.177708
  30 O :   -0.195414
  31 O :   -0.112052
  32 C :    0.205065
  33 C :   -0.373734
  34 H :    0.172847
  35 H :    0.175754
  36 H :    0.163409
  37 H :    0.177274
  38 H :    0.183789

  Mayer bond orders larger than 0.100000
B(  0-Ir,  1-C ) :   0.4699 B(  0-Ir,  2-C ) :   0.2858 B(  0-Ir,  3-C ) :   0.4744
B(  0-Ir,  4-C ) :   0.4432 B(  0-Ir,  5-C ) :   0.3080 B(  0-Ir,  6-N ) :   0.4838
B(  0-Ir, 20-C ) :   0.6870 B(  0-Ir, 31-O ) :   0.4163 B(  1-C ,  2-C ) :   1.1507
B(  1-C ,  4-C ) :   1.1972 B(  1-C , 27-H ) :   0.9154 B(  2-C ,  5-C ) :   1.3063
B(  2-C , 28-H ) :   0.9167 B(  3-C ,  4-C ) :   1.1596 B(  3-C ,  5-C ) :   1.1527
B(  3-C , 37-H ) :   0.9151 B(  4-C , 38-H ) :   0.9082 B(  5-C , 29-H ) :   0.9100
B(  6-N ,  7-C ) :   0.9059 B(  6-N , 17-C ) :   1.6028 B(  7-C ,  8-C ) :   0.9784
B(  7-C , 12-C ) :   0.9928 B(  7-C , 13-H ) :   0.8890 B(  8-C ,  9-H ) :   0.9078
B(  8-C , 10-H ) :   0.9180 B(  8-C , 11-H ) :   0.9048 B( 12-C , 14-H ) :   0.9045
B( 12-C , 15-H ) :   0.9120 B( 12-C , 16-H ) :   0.9136 B( 17-C , 18-C ) :   1.1495
B( 17-C , 19-H ) :   0.8772 B( 18-C , 20-C ) :   1.3333 B( 18-C , 22-S ) :   1.1496
B( 20-C , 21-C ) :   1.3219 B( 21-C , 23-C ) :   1.4940 B( 21-C , 25-H ) :   0.9053
B( 22-S , 23-C ) :   1.2602 B( 23-C , 26-H ) :   0.8899 B( 24-H , 30-O ) :   0.6170
B( 30-O , 32-C ) :   1.3114 B( 31-O , 32-C ) :   1.6003 B( 32-C , 33-C ) :   0.9450
B( 33-C , 34-H ) :   0.8889 B( 33-C , 35-H ) :   0.8853 B( 33-C , 36-H ) :   0.9064

Dispersion correction           -0.029939992
FINAL SINGLE POINT ENERGY     -1288.430577239278
Dispersion correction            ... done

DIPOLE MOMENT
-------------
                                X             Y             Z
Electronic contribution:     36.84134     -78.63015      70.23763
Nuclear contribution   :    -37.07435      79.05855     -69.72897
                        -----------------------------------------
Total Dipole Moment    :     -0.23301       0.42840       0.50866
                        -----------------------------------------
Magnitude (a.u.)       :      0.70466
Magnitude (Debye)      :      1.79111

Rotational constants in cm-1:     0.010602     0.008405     0.007889
Rotational constants in MHz :   317.842575   251.982369   236.508472

                             ****ORCA TERMINATED NORMALLY****
TOTAL RUN TIME: 0 days 0 hours 17 minutes 40 seconds 783 msec
