                         Program Version 5.0.3 -  RELEASE  -
|  1> ! EnGrad PBEh-3c
|  2> %output
|  3> xyzfile=True
|  4> end
|  5> %scf
|  6> maxiter 250
|  7> end
|  8> %output
|  9> Print[P_Hirshfeld] = 1
| 10> end
| 11> % maxcore
| 12> 4000
| 13> *xyz 1 1
| 14> Ir   0.60544879  -0.80455918   0.40207436
| 15> C    0.18818578  -2.92542402   0.85280767
| 16> C   -0.02905022  -2.26762597   2.11171053
| 17> C    2.15298326  -1.89764485   1.46532617
| 18> C    1.54479936  -2.72319483   0.48485453
| 19> C    1.16225660  -1.66604038   2.47853026
| 20> N   -1.15804564  -0.19790655  -0.58279052
| 21> C   -2.50585474  -0.23510114   0.02623280
| 22> C   -2.70184391   0.87330888   1.05506806
| 23> H   -3.69572433   0.78706880   1.49585536
| 24> H   -2.63100179   1.85642771   0.58488355
| 25> H   -1.97261343   0.81677876   1.86441779
| 26> C   -3.63918098  -0.21767150  -0.99080245
| 27> H   -2.55552436  -1.19886237   0.55338252
| 28> H   -4.57606121  -0.39143371  -0.47232409
| 29> H   -3.73793667   0.74715103  -1.49893552
| 30> H   -3.53071131  -1.00430360  -1.74262359
| 31> C   -0.96720115   0.20036250  -1.78664835
| 32> C    0.35404495   0.14823106  -2.28857245
| 33> H   -1.79927589   0.53190181  -2.39880655
| 34> C    1.37750420  -0.28858828  -1.47517687
| 35> C    2.58617391  -0.31177634  -2.21654841
| 36> S    0.82272614   0.45178544  -3.91819270
| 37> C    2.43009412   0.03822009  -3.53967821
| 38> H    2.16599120   1.41400778  -0.65592197
| 39> H    3.57773875  -0.60082665  -1.88204512
| 40> H    3.18324149   0.08308618  -4.33315894
| 41> H   -0.50163197  -3.57872703   0.35179277
| 42> H   -0.92833868  -2.34561802   2.72342497
| 43> H    1.32479403  -1.10319038   3.38795163
| 44> O    2.15212048   2.23055447  -0.06877356
| 45> O    0.56243319   1.21075060   1.11366166
| 46> C    1.25079068   2.18604512   0.83844769
| 47> C    1.09551138   3.47067703   1.57602826
| 48> H    0.93537964   4.32103014   0.90183755
| 49> H    1.98618953   3.72614589   2.16033063
| 50> H    0.25345712   3.45697002   2.28103038
| 51> H    3.18900845  -1.59914159   1.50286890
| 52> H    2.02331103  -3.19643295  -0.36104407
| 53> *
| 54>
| 55>                          ****END OF INPUT****

CARTESIAN COORDINATES (ANGSTROEM)
---------------------------------
  Ir     0.605449   -0.804559    0.402074
  C      0.188186   -2.925424    0.852808
  C     -0.029050   -2.267626    2.111711
  C      2.152983   -1.897645    1.465326
  C      1.544799   -2.723195    0.484855
  C      1.162257   -1.666040    2.478530
  N     -1.158046   -0.197907   -0.582791
  C     -2.505855   -0.235101    0.026233
  C     -2.701844    0.873309    1.055068
  H     -3.695724    0.787069    1.495855
  H     -2.631002    1.856428    0.584884
  H     -1.972613    0.816779    1.864418
  C     -3.639181   -0.217671   -0.990802
  H     -2.555524   -1.198862    0.553383
  H     -4.576061   -0.391434   -0.472324
  H     -3.737937    0.747151   -1.498936
  H     -3.530711   -1.004304   -1.742624
  C     -0.967201    0.200362   -1.786648
  C      0.354045    0.148231   -2.288572
  H     -1.799276    0.531902   -2.398807
  C      1.377504   -0.288588   -1.475177
  C      2.586174   -0.311776   -2.216548
  S      0.822726    0.451785   -3.918193
  C      2.430094    0.038220   -3.539678
  H      2.165991    1.414008   -0.655922
  H      3.577739   -0.600827   -1.882045
  H      3.183241    0.083086   -4.333159
  H     -0.501632   -3.578727    0.351793
  H     -0.928339   -2.345618    2.723425
  H      1.324794   -1.103190    3.387952
  O      2.152120    2.230554   -0.068774
  O      0.562433    1.210751    1.113662
  C      1.250791    2.186045    0.838448
  C      1.095511    3.470677    1.576028
  H      0.935380    4.321030    0.901838
  H      1.986190    3.726146    2.160331
  H      0.253457    3.456970    2.281030
  H      3.189008   -1.599142    1.502869
  H      2.023311   -3.196433   -0.361044

 Total Charge           Charge          ....    1
 Multiplicity           Mult            ....    1
 Number of Electrons    NEL             ....  164
 Basis Dimension        Dim             ....  358

ORBITAL ENERGIES
----------------

  NO   OCC          E(Eh)            E(eV)
   0   2.0000     -89.741343     -2441.9861
   1   2.0000     -19.687696      -535.7294
   2   2.0000     -19.668382      -535.2039
   3   2.0000     -14.811772      -403.0488
   4   2.0000     -10.738791      -292.2174
   5   2.0000     -10.635495      -289.4065
   6   2.0000     -10.618201      -288.9359
   7   2.0000     -10.615683      -288.8674
   8   2.0000     -10.611874      -288.7638
   9   2.0000     -10.605605      -288.5932
  10   2.0000     -10.605219      -288.5827
  11   2.0000     -10.602543      -288.5099
  12   2.0000     -10.599861      -288.4369
  13   2.0000     -10.593224      -288.2563
  14   2.0000     -10.588001      -288.1141
  15   2.0000     -10.575114      -287.7635
  16   2.0000     -10.568136      -287.5736
  17   2.0000     -10.543613      -286.9063
  18   2.0000     -10.539754      -286.8013
  19   2.0000      -8.380815      -228.0536
  20   2.0000      -6.270739      -170.6355
  21   2.0000      -6.267410      -170.5449
  22   2.0000      -6.265571      -170.4949
  23   2.0000      -4.008939      -109.0888
  24   2.0000      -2.323737       -63.2321
  25   2.0000      -2.296038       -62.4784
  26   2.0000      -2.291509       -62.3551
  27   2.0000      -1.386657       -37.7329
  28   2.0000      -1.290912       -35.1275
  29   2.0000      -1.186238       -32.2792
  30   2.0000      -1.151587       -31.3363
  31   2.0000      -1.108407       -30.1613
  32   2.0000      -1.010557       -27.4986
  33   2.0000      -0.977434       -26.5973
  34   2.0000      -0.963905       -26.2292
  35   2.0000      -0.953868       -25.9561
  36   2.0000      -0.948305       -25.8047
  37   2.0000      -0.943078       -25.6625
  38   2.0000      -0.888929       -24.1890
  39   2.0000      -0.853053       -23.2128
  40   2.0000      -0.836313       -22.7572
  41   2.0000      -0.782952       -21.3052
  42   2.0000      -0.770202       -20.9583
  43   2.0000      -0.767394       -20.8819
  44   2.0000      -0.764789       -20.8110
  45   2.0000      -0.758560       -20.6415
  46   2.0000      -0.751377       -20.4460
  47   2.0000      -0.716061       -19.4850
  48   2.0000      -0.702618       -19.1192
  49   2.0000      -0.688739       -18.7415
  50   2.0000      -0.685070       -18.6417
  51   2.0000      -0.671793       -18.2804
  52   2.0000      -0.646784       -17.5999
  53   2.0000      -0.631620       -17.1872
  54   2.0000      -0.620766       -16.8919
  55   2.0000      -0.618407       -16.8277
  56   2.0000      -0.611151       -16.6303
  57   2.0000      -0.600922       -16.3519
  58   2.0000      -0.590969       -16.0811
  59   2.0000      -0.589963       -16.0537
  60   2.0000      -0.586715       -15.9653
  61   2.0000      -0.583265       -15.8714
  62   2.0000      -0.582371       -15.8471
  63   2.0000      -0.573550       -15.6071
  64   2.0000      -0.570784       -15.5318
  65   2.0000      -0.561313       -15.2741
  66   2.0000      -0.550696       -14.9852
  67   2.0000      -0.546240       -14.8640
  68   2.0000      -0.536257       -14.5923
  69   2.0000      -0.534512       -14.5448
  70   2.0000      -0.531535       -14.4638
  71   2.0000      -0.528830       -14.3902
  72   2.0000      -0.509322       -13.8593
  73   2.0000      -0.499805       -13.6004
  74   2.0000      -0.498424       -13.5628
  75   2.0000      -0.481713       -13.1081
  76   2.0000      -0.471951       -12.8424
  77   2.0000      -0.449486       -12.2311
  78   2.0000      -0.435881       -11.8609
  79   2.0000      -0.411235       -11.1903
  80   2.0000      -0.402804       -10.9608
  81   2.0000      -0.383160       -10.4263
  82   0.0000      -0.173913        -4.7324
  83   0.0000      -0.152522        -4.1503
  84   0.0000      -0.118996        -3.2381
  85   0.0000      -0.102801        -2.7974
  86   0.0000      -0.072706        -1.9784

MULLIKEN ATOMIC CHARGES
-----------------------
   0 Ir:    0.567744
   1 C :   -0.251723
   2 C :   -0.247614
   3 C :   -0.289007
   4 C :   -0.240653
   5 C :   -0.145442
   6 N :   -0.468448
   7 C :   -0.092486
   8 C :   -0.637606
   9 H :    0.246559
  10 H :    0.224486
  11 H :    0.255436
  12 C :   -0.694979
  13 H :    0.241494
  14 H :    0.269116
  15 H :    0.226736
  16 H :    0.247433
  17 C :    0.072690
  18 C :   -0.199375
  19 H :    0.277410
  20 C :   -0.265747
  21 C :   -0.247074
  22 S :    0.307228
  23 C :   -0.398372
  24 H :    0.525943
  25 H :    0.258648
  26 H :    0.295441
  27 H :    0.280282
  28 H :    0.273676
  29 H :    0.281141
  30 O :   -0.532918
  31 O :   -0.435589
  32 C :    0.638113
  33 C :   -0.758939
  34 H :    0.286345
  35 H :    0.289402
  36 H :    0.274981
  37 H :    0.275806
  38 H :    0.289866
Sum of atomic charges:    1.0000000

LOEWDIN ATOMIC CHARGES
----------------------
   0 Ir:   -0.266808
   1 C :   -0.054114
   2 C :   -0.106338
   3 C :   -0.117372
   4 C :   -0.050593
   5 C :   -0.020660
   6 N :   -0.035915
   7 C :   -0.061169
   8 C :   -0.349436
   9 H :    0.144715
  10 H :    0.135145
  11 H :    0.144458
  12 C :   -0.365782
  13 H :    0.136796
  14 H :    0.154264
  15 H :    0.134001
  16 H :    0.140110
  17 C :    0.028508
  18 C :   -0.244584
  19 H :    0.155026
  20 C :   -0.123546
  21 C :   -0.190622
  22 S :    0.455045
  23 C :   -0.251508
  24 H :    0.367613
  25 H :    0.156094
  26 H :    0.168165
  27 H :    0.179843
  28 H :    0.176397
  29 H :    0.178407
  30 O :   -0.203606
  31 O :   -0.108208
  32 C :    0.193236
  33 C :   -0.374690
  34 H :    0.174848
  35 H :    0.177854
  36 H :    0.162384
  37 H :    0.177814
  38 H :    0.184226

  Mayer bond orders larger than 0.100000
B(  0-Ir,  1-C ) :   0.4767 B(  0-Ir,  2-C ) :   0.2920 B(  0-Ir,  3-C ) :   0.4780
B(  0-Ir,  4-C ) :   0.4477 B(  0-Ir,  5-C ) :   0.3131 B(  0-Ir,  6-N ) :   0.4786
B(  0-Ir, 20-C ) :   0.6763 B(  0-Ir, 31-O ) :   0.4096 B(  1-C ,  2-C ) :   1.1477
B(  1-C ,  4-C ) :   1.1951 B(  1-C , 27-H ) :   0.9154 B(  2-C ,  5-C ) :   1.3035
B(  2-C , 28-H ) :   0.9161 B(  3-C ,  4-C ) :   1.1582 B(  3-C ,  5-C ) :   1.1509
B(  3-C , 37-H ) :   0.9147 B(  4-C , 38-H ) :   0.9072 B(  5-C , 29-H ) :   0.9094
B(  6-N ,  7-C ) :   0.9086 B(  6-N , 17-C ) :   1.6062 B(  7-C ,  8-C ) :   0.9772
B(  7-C , 12-C ) :   0.9919 B(  7-C , 13-H ) :   0.8893 B(  8-C ,  9-H ) :   0.9078
B(  8-C , 10-H ) :   0.9180 B(  8-C , 11-H ) :   0.9053 B( 12-C , 14-H ) :   0.9046
B( 12-C , 15-H ) :   0.9120 B( 12-C , 16-H ) :   0.9138 B( 17-C , 18-C ) :   1.1473
B( 17-C , 19-H ) :   0.8768 B( 18-C , 20-C ) :   1.3303 B( 18-C , 22-S ) :   1.1534
B( 20-C , 21-C ) :   1.3330 B( 21-C , 23-C ) :   1.4863 B( 21-C , 25-H ) :   0.9052
B( 22-S , 23-C ) :   1.2669 B( 23-C , 26-H ) :   0.8896 B( 24-H , 30-O ) :   0.6158
B( 30-O , 32-C ) :   1.3116 B( 31-O , 32-C ) :   1.6080 B( 32-C , 33-C ) :   0.9489
B( 33-C , 34-H ) :   0.8881 B( 33-C , 35-H ) :   0.8840 B( 33-C , 36-H ) :   0.9067

Dispersion correction           -0.029928574
FINAL SINGLE POINT ENERGY     -1288.431053524921
Dispersion correction            ... done

DIPOLE MOMENT
-------------
                                X             Y             Z
Electronic contribution:     37.00031     -79.59929      70.84073
Nuclear contribution   :    -37.24474      80.00530     -70.34458
                        -----------------------------------------
Total Dipole Moment    :     -0.24443       0.40601       0.49615
                        -----------------------------------------
Magnitude (a.u.)       :      0.68611
Magnitude (Debye)      :      1.74396

Rotational constants in cm-1:     0.010582     0.008405     0.007897
Rotational constants in MHz :   317.230309   251.985657   236.743507

                             ****ORCA TERMINATED NORMALLY****
TOTAL RUN TIME: 0 days 0 hours 17 minutes 13 seconds 66 msec
