                         Program Version 5.0.3 -  RELEASE  -
|  1> ! EnGrad PBEh-3c
|  2> %output
|  3> xyzfile=True
|  4> end
|  5> %scf
|  6> maxiter 250
|  7> end
|  8> %output
|  9> Print[P_Hirshfeld] = 1
| 10> end
| 11> % maxcore
| 12> 4000
| 13> *xyz 1 1
| 14> Ir   0.61289069  -0.80977820   0.39627336
| 15> C    0.18343012  -2.92430867   0.86787220
| 16> C   -0.02078998  -2.25871297   2.12249911
| 17> C    2.16310239  -1.91232852   1.45396817
| 18> C    1.53445119  -2.73437634   0.47547996
| 19> C    1.18843650  -1.66855870   2.47453995
| 20> N   -1.15655783  -0.20008585  -0.58509370
| 21> C   -2.50311902  -0.23398488   0.02609162
| 22> C   -2.70478244   0.88825044   1.04342359
| 23> H   -3.70427513   0.80474342   1.47646316
| 24> H   -2.63497326   1.86782608   0.56521670
| 25> H   -1.97998406   0.84185105   1.85638092
| 26> C   -3.63310135  -0.22762933  -0.99695492
| 27> H   -2.54963012  -1.19026062   0.56416820
| 28> H   -4.57147626  -0.40051448  -0.47559281
| 29> H   -3.73755916   0.73114888  -1.51366373
| 30> H   -3.51932846  -1.01940972  -1.74051306
| 31> C   -0.97089377   0.20150612  -1.78921696
| 32> C    0.35335797   0.14940687  -2.28934440
| 33> H   -1.80110218   0.53350806  -2.40184610
| 34> C    1.37406491  -0.28862503  -1.46666691
| 35> C    2.58877567  -0.30620886  -2.21357087
| 36> S    0.81925355   0.44798490  -3.91138334
| 37> C    2.42456696   0.03483538  -3.53649441
| 38> H    2.14462580   1.42532671  -0.61440561
| 39> H    3.57758186  -0.59257521  -1.88443425
| 40> H    3.16994384   0.07805680  -4.33297068
| 41> H   -0.52332446  -3.56887185   0.37536007
| 42> H   -0.91340174  -2.31943065   2.74260309
| 43> H    1.36259734  -1.09978871   3.37766940
| 44> O    2.15564621   2.23526464  -0.06869718
| 45> O    0.56807008   1.19555197   1.10726339
| 46> C    1.24645168   2.18719613   0.85236859
| 47> C    1.08935662   3.46596409   1.58747795
| 48> H    0.93557805   4.31256830   0.91291500
| 49> H    1.97772242   3.71734306   2.17131137
| 50> H    0.25226941   3.44924481   2.28036728
| 51> H    3.19966885  -1.61822859   1.47544357
| 52> H    1.99479389  -3.19854414  -0.38368302
| 53> *
| 54>
| 55>                          ****END OF INPUT****

CARTESIAN COORDINATES (ANGSTROEM)
---------------------------------
  Ir     0.612891   -0.809778    0.396273
  C      0.183430   -2.924309    0.867872
  C     -0.020790   -2.258713    2.122499
  C      2.163102   -1.912329    1.453968
  C      1.534451   -2.734376    0.475480
  C      1.188436   -1.668559    2.474540
  N     -1.156558   -0.200086   -0.585094
  C     -2.503119   -0.233985    0.026092
  C     -2.704782    0.888250    1.043424
  H     -3.704275    0.804743    1.476463
  H     -2.634973    1.867826    0.565217
  H     -1.979984    0.841851    1.856381
  C     -3.633101   -0.227629   -0.996955
  H     -2.549630   -1.190261    0.564168
  H     -4.571476   -0.400514   -0.475593
  H     -3.737559    0.731149   -1.513664
  H     -3.519328   -1.019410   -1.740513
  C     -0.970894    0.201506   -1.789217
  C      0.353358    0.149407   -2.289344
  H     -1.801102    0.533508   -2.401846
  C      1.374065   -0.288625   -1.466667
  C      2.588776   -0.306209   -2.213571
  S      0.819254    0.447985   -3.911383
  C      2.424567    0.034835   -3.536494
  H      2.144626    1.425327   -0.614406
  H      3.577582   -0.592575   -1.884434
  H      3.169944    0.078057   -4.332971
  H     -0.523324   -3.568872    0.375360
  H     -0.913402   -2.319431    2.742603
  H      1.362597   -1.099789    3.377669
  O      2.155646    2.235265   -0.068697
  O      0.568070    1.195552    1.107263
  C      1.246452    2.187196    0.852369
  C      1.089357    3.465964    1.587478
  H      0.935578    4.312568    0.912915
  H      1.977722    3.717343    2.171311
  H      0.252269    3.449245    2.280367
  H      3.199669   -1.618229    1.475444
  H      1.994794   -3.198544   -0.383683

 Total Charge           Charge          ....    1
 Multiplicity           Mult            ....    1
 Number of Electrons    NEL             ....  164
 Basis Dimension        Dim             ....  358

ORBITAL ENERGIES
----------------

  NO   OCC          E(Eh)            E(eV)
   0   2.0000     -89.739653     -2441.9401
   1   2.0000     -19.685873      -535.6798
   2   2.0000     -19.671457      -535.2876
   3   2.0000     -14.811398      -403.0386
   4   2.0000     -10.741882      -292.3015
   5   2.0000     -10.635233      -289.3994
   6   2.0000     -10.619046      -288.9589
   7   2.0000     -10.616088      -288.8784
   8   2.0000     -10.611628      -288.7571
   9   2.0000     -10.605788      -288.5982
  10   2.0000     -10.605077      -288.5788
  11   2.0000     -10.600401      -288.4516
  12   2.0000     -10.600140      -288.4445
  13   2.0000     -10.591803      -288.2176
  14   2.0000     -10.587501      -288.1006
  15   2.0000     -10.573510      -287.7198
  16   2.0000     -10.569249      -287.6039
  17   2.0000     -10.543788      -286.9111
  18   2.0000     -10.540537      -286.8226
  19   2.0000      -8.379377      -228.0144
  20   2.0000      -6.269307      -170.5965
  21   2.0000      -6.265956      -170.5053
  22   2.0000      -6.264130      -170.4556
  23   2.0000      -4.009235      -109.0968
  24   2.0000      -2.324094       -63.2418
  25   2.0000      -2.296452       -62.4896
  26   2.0000      -2.291789       -62.3628
  27   2.0000      -1.386493       -37.7284
  28   2.0000      -1.291291       -35.1378
  29   2.0000      -1.185790       -32.2670
  30   2.0000      -1.150870       -31.3168
  31   2.0000      -1.107574       -30.1386
  32   2.0000      -1.009741       -27.4764
  33   2.0000      -0.983264       -26.7560
  34   2.0000      -0.963040       -26.2056
  35   2.0000      -0.954232       -25.9660
  36   2.0000      -0.947522       -25.7834
  37   2.0000      -0.941580       -25.6217
  38   2.0000      -0.888826       -24.1862
  39   2.0000      -0.852770       -23.2050
  40   2.0000      -0.837284       -22.7837
  41   2.0000      -0.782999       -21.3065
  42   2.0000      -0.771592       -20.9961
  43   2.0000      -0.767262       -20.8783
  44   2.0000      -0.764600       -20.8058
  45   2.0000      -0.759509       -20.6673
  46   2.0000      -0.751270       -20.4431
  47   2.0000      -0.716206       -19.4889
  48   2.0000      -0.703153       -19.1338
  49   2.0000      -0.688274       -18.7289
  50   2.0000      -0.684680       -18.6311
  51   2.0000      -0.671457       -18.2713
  52   2.0000      -0.646391       -17.5892
  53   2.0000      -0.631527       -17.1847
  54   2.0000      -0.620656       -16.8889
  55   2.0000      -0.618326       -16.8255
  56   2.0000      -0.610824       -16.6214
  57   2.0000      -0.604355       -16.4453
  58   2.0000      -0.592106       -16.1120
  59   2.0000      -0.589815       -16.0497
  60   2.0000      -0.587377       -15.9833
  61   2.0000      -0.586415       -15.9572
  62   2.0000      -0.581868       -15.8334
  63   2.0000      -0.576145       -15.6777
  64   2.0000      -0.571657       -15.5556
  65   2.0000      -0.561416       -15.2769
  66   2.0000      -0.550425       -14.9778
  67   2.0000      -0.546785       -14.8788
  68   2.0000      -0.537581       -14.6283
  69   2.0000      -0.535362       -14.5679
  70   2.0000      -0.531566       -14.4646
  71   2.0000      -0.529153       -14.3990
  72   2.0000      -0.510107       -13.8807
  73   2.0000      -0.500860       -13.6291
  74   2.0000      -0.498145       -13.5552
  75   2.0000      -0.481426       -13.1003
  76   2.0000      -0.472608       -12.8603
  77   2.0000      -0.449744       -12.2382
  78   2.0000      -0.435450       -11.8492
  79   2.0000      -0.410881       -11.1807
  80   2.0000      -0.401479       -10.9248
  81   2.0000      -0.381995       -10.3946
  82   0.0000      -0.173390        -4.7182
  83   0.0000      -0.152523        -4.1504
  84   0.0000      -0.117820        -3.2060
  85   0.0000      -0.107367        -2.9216
  86   0.0000      -0.071312        -1.9405

MULLIKEN ATOMIC CHARGES
-----------------------
   0 Ir:    0.568870
   1 C :   -0.248261
   2 C :   -0.249631
   3 C :   -0.288152
   4 C :   -0.244267
   5 C :   -0.143986
   6 N :   -0.467750
   7 C :   -0.092562
   8 C :   -0.637729
   9 H :    0.246168
  10 H :    0.224316
  11 H :    0.254464
  12 C :   -0.695628
  13 H :    0.241701
  14 H :    0.268133
  15 H :    0.227301
  16 H :    0.248286
  17 C :    0.073075
  18 C :   -0.202328
  19 H :    0.277699
  20 C :   -0.267729
  21 C :   -0.241823
  22 S :    0.307277
  23 C :   -0.398726
  24 H :    0.527115
  25 H :    0.257445
  26 H :    0.294413
  27 H :    0.280659
  28 H :    0.273882
  29 H :    0.280999
  30 O :   -0.539754
  31 O :   -0.437262
  32 C :    0.635309
  33 C :   -0.758929
  34 H :    0.289483
  35 H :    0.291907
  36 H :    0.277989
  37 H :    0.276577
  38 H :    0.291448
Sum of atomic charges:    1.0000000

LOEWDIN ATOMIC CHARGES
----------------------
   0 Ir:   -0.265926
   1 C :   -0.052401
   2 C :   -0.109082
   3 C :   -0.116721
   4 C :   -0.053327
   5 C :   -0.019149
   6 N :   -0.036874
   7 C :   -0.061031
   8 C :   -0.349938
   9 H :    0.144785
  10 H :    0.134859
  11 H :    0.143860
  12 C :   -0.365875
  13 H :    0.136748
  14 H :    0.153989
  15 H :    0.134060
  16 H :    0.140311
  17 C :    0.028992
  18 C :   -0.247578
  19 H :    0.155210
  20 C :   -0.121497
  21 C :   -0.188317
  22 S :    0.457300
  23 C :   -0.253016
  24 H :    0.358029
  25 H :    0.155502
  26 H :    0.167171
  27 H :    0.179839
  28 H :    0.176446
  29 H :    0.177975
  30 O :   -0.211153
  31 O :   -0.107501
  32 C :    0.205814
  33 C :   -0.374126
  34 H :    0.176924
  35 H :    0.179741
  36 H :    0.163162
  37 H :    0.177907
  38 H :    0.184888

  Mayer bond orders larger than 0.100000
B(  0-Ir,  1-C ) :   0.4734 B(  0-Ir,  2-C ) :   0.2909 B(  0-Ir,  3-C ) :   0.4749
B(  0-Ir,  4-C ) :   0.4528 B(  0-Ir,  5-C ) :   0.3123 B(  0-Ir,  6-N ) :   0.4784
B(  0-Ir, 20-C ) :   0.6815 B(  0-Ir, 31-O ) :   0.4044 B(  1-C ,  2-C ) :   1.1507
B(  1-C ,  4-C ) :   1.1942 B(  1-C , 27-H ) :   0.9147 B(  2-C ,  5-C ) :   1.2986
B(  2-C , 28-H ) :   0.9161 B(  3-C ,  4-C ) :   1.1556 B(  3-C ,  5-C ) :   1.1558
B(  3-C , 37-H ) :   0.9141 B(  4-C , 38-H ) :   0.9058 B(  5-C , 29-H ) :   0.9091
B(  6-N ,  7-C ) :   0.9094 B(  6-N , 17-C ) :   1.6058 B(  7-C ,  8-C ) :   0.9766
B(  7-C , 12-C ) :   0.9914 B(  7-C , 13-H ) :   0.8898 B(  8-C ,  9-H ) :   0.9080
B(  8-C , 10-H ) :   0.9182 B(  8-C , 11-H ) :   0.9060 B( 12-C , 14-H ) :   0.9051
B( 12-C , 15-H ) :   0.9117 B( 12-C , 16-H ) :   0.9134 B( 17-C , 18-C ) :   1.1468
B( 17-C , 19-H ) :   0.8764 B( 18-C , 20-C ) :   1.3317 B( 18-C , 22-S ) :   1.1546
B( 20-C , 21-C ) :   1.3300 B( 21-C , 23-C ) :   1.4925 B( 21-C , 25-H ) :   0.9059
B( 22-S , 23-C ) :   1.2641 B( 23-C , 26-H ) :   0.8900 B( 24-H , 30-O ) :   0.6244
B( 30-O , 32-C ) :   1.2987 B( 31-O , 32-C ) :   1.6114 B( 32-C , 33-C ) :   0.9552
B( 33-C , 34-H ) :   0.8864 B( 33-C , 35-H ) :   0.8823 B( 33-C , 36-H ) :   0.9048

Dispersion correction           -0.029931375
FINAL SINGLE POINT ENERGY     -1288.432802167129
Dispersion correction            ... done

DIPOLE MOMENT
-------------
                                X             Y             Z
Electronic contribution:     37.64463     -79.94837      70.29159
Nuclear contribution   :    -37.92942      80.41485     -69.71498
                        -----------------------------------------
Total Dipole Moment    :     -0.28479       0.46648       0.57661
                        -----------------------------------------
Magnitude (a.u.)       :      0.79447
Magnitude (Debye)      :      2.01939

Rotational constants in cm-1:     0.010565     0.008420     0.007907
Rotational constants in MHz :   316.719036   252.424556   237.035069

                             ****ORCA TERMINATED NORMALLY****
TOTAL RUN TIME: 0 days 0 hours 17 minutes 32 seconds 814 msec
