                         Program Version 5.0.3 -  RELEASE  -
|  1> ! EnGrad PBEh-3c
|  2> %output
|  3> xyzfile=True
|  4> end
|  5> %scf
|  6> maxiter 250
|  7> end
|  8> %output
|  9> Print[P_Hirshfeld] = 1
| 10> end
| 11> % maxcore
| 12> 4000
| 13> *xyz 1 1
| 14> Ir   0.62192301  -0.82590113   0.39894506
| 15> C    0.17036246  -2.91878050   0.89923213
| 16> C   -0.00004722  -2.23964219   2.14931656
| 17> C    2.18685229  -1.94507570   1.42273533
| 18> C    1.50954508  -2.76133307   0.45279002
| 19> C    1.25074912  -1.67138809   2.46469015
| 20> N   -1.15240202  -0.20599794  -0.58644187
| 21> C   -2.49524062  -0.23008097   0.02421202
| 22> C   -2.71170196   0.92196248   1.01367670
| 23> H   -3.72203891   0.84639473   1.43073767
| 24> H   -2.64405330   1.89354361   0.51822083
| 25> H   -1.99848824   0.90174039   1.83686380
| 26> C   -3.61943964  -0.25184625  -1.00894943
| 27> H   -2.53603164  -1.16794819   0.58846254
| 28> H   -4.56066387  -0.42227510  -0.48423272
| 29> H   -3.73567284   0.69249776  -1.54712386
| 30> H   -3.49277536  -1.05512997  -1.73479910
| 31> C   -0.97958274   0.20242415  -1.79316866
| 32> C    0.34903487   0.15163119  -2.28966958
| 33> H   -1.80481966   0.53825997  -2.40938875
| 34> C    1.36964425  -0.28535728  -1.45894547
| 35> C    2.59225927  -0.29854973  -2.20795571
| 36> S    0.81178214   0.43943423  -3.89730483
| 37> C    2.41191140   0.03010433  -3.53103018
| 38> H    2.10267667   1.42941583  -0.54035229
| 39> H    3.57837800  -0.57318629  -1.88592076
| 40> H    3.13890045   0.06546788  -4.32840781
| 41> H   -0.57588235  -3.54559698   0.42967682
| 42> H   -0.87361470  -2.25732194   2.78490531
| 43> H    1.45234608  -1.09153084   3.35166244
| 44> O    2.15097410   2.26259585  -0.04263581
| 45> O    0.58215039   1.16504745   1.09363629
| 46> C    1.24226951   2.19436865   0.87823184
| 47> C    1.07439676   3.45880513   1.61735284
| 48> H    0.93643363   4.29161771   0.93660977
| 49> H    1.96006243   3.69529271   2.19715747
| 50> H    0.24508562   3.42915781   2.28213992
| 51> H    3.22523894  -1.66464635   1.41080838
| 52> H    1.92743530  -3.20538430  -0.43463183
| 53> *
| 54>
| 55>                          ****END OF INPUT****

CARTESIAN COORDINATES (ANGSTROEM)
---------------------------------
  Ir     0.621923   -0.825901    0.398945
  C      0.170362   -2.918780    0.899232
  C     -0.000047   -2.239642    2.149317
  C      2.186852   -1.945076    1.422735
  C      1.509545   -2.761333    0.452790
  C      1.250749   -1.671388    2.464690
  N     -1.152402   -0.205998   -0.586442
  C     -2.495241   -0.230081    0.024212
  C     -2.711702    0.921962    1.013677
  H     -3.722039    0.846395    1.430738
  H     -2.644053    1.893544    0.518221
  H     -1.998488    0.901740    1.836864
  C     -3.619440   -0.251846   -1.008949
  H     -2.536032   -1.167948    0.588463
  H     -4.560664   -0.422275   -0.484233
  H     -3.735673    0.692498   -1.547124
  H     -3.492775   -1.055130   -1.734799
  C     -0.979583    0.202424   -1.793169
  C      0.349035    0.151631   -2.289670
  H     -1.804820    0.538260   -2.409389
  C      1.369644   -0.285357   -1.458945
  C      2.592259   -0.298550   -2.207956
  S      0.811782    0.439434   -3.897305
  C      2.411911    0.030104   -3.531030
  H      2.102677    1.429416   -0.540352
  H      3.578378   -0.573186   -1.885921
  H      3.138900    0.065468   -4.328408
  H     -0.575882   -3.545597    0.429677
  H     -0.873615   -2.257322    2.784905
  H      1.452346   -1.091531    3.351662
  O      2.150974    2.262596   -0.042636
  O      0.582150    1.165047    1.093636
  C      1.242270    2.194369    0.878232
  C      1.074397    3.458805    1.617353
  H      0.936434    4.291618    0.936610
  H      1.960062    3.695293    2.197157
  H      0.245086    3.429158    2.282140
  H      3.225239   -1.664646    1.410808
  H      1.927435   -3.205384   -0.434632

 Total Charge           Charge          ....    1
 Multiplicity           Mult            ....    1
 Number of Electrons    NEL             ....  164
 Basis Dimension        Dim             ....  358

ORBITAL ENERGIES
----------------

  NO   OCC          E(Eh)            E(eV)
   0   2.0000     -89.737997     -2441.8950
   1   2.0000     -19.687714      -535.7299
   2   2.0000     -19.671365      -535.2851
   3   2.0000     -14.811051      -403.0292
   4   2.0000     -10.743775      -292.3530
   5   2.0000     -10.635473      -289.4059
   6   2.0000     -10.621025      -289.0128
   7   2.0000     -10.616765      -288.8969
   8   2.0000     -10.611861      -288.7634
   9   2.0000     -10.605319      -288.5854
  10   2.0000     -10.604950      -288.5754
  11   2.0000     -10.602246      -288.5018
  12   2.0000     -10.596249      -288.3386
  13   2.0000     -10.590168      -288.1731
  14   2.0000     -10.586573      -288.0753
  15   2.0000     -10.571833      -287.6742
  16   2.0000     -10.568532      -287.5844
  17   2.0000     -10.543798      -286.9113
  18   2.0000     -10.541272      -286.8426
  19   2.0000      -8.378235      -227.9834
  20   2.0000      -6.268141      -170.5648
  21   2.0000      -6.264756      -170.4727
  22   2.0000      -6.263034      -170.4258
  23   2.0000      -4.009611      -109.1071
  24   2.0000      -2.324715       -63.2587
  25   2.0000      -2.296807       -62.4993
  26   2.0000      -2.291980       -62.3680
  27   2.0000      -1.389259       -37.8037
  28   2.0000      -1.287276       -35.0286
  29   2.0000      -1.185123       -32.2488
  30   2.0000      -1.148243       -31.2453
  31   2.0000      -1.108303       -30.1585
  32   2.0000      -1.008223       -27.4351
  33   2.0000      -0.991199       -26.9719
  34   2.0000      -0.961237       -26.1566
  35   2.0000      -0.954778       -25.9808
  36   2.0000      -0.947540       -25.7839
  37   2.0000      -0.939591       -25.5676
  38   2.0000      -0.888213       -24.1695
  39   2.0000      -0.853013       -23.2117
  40   2.0000      -0.834239       -22.7008
  41   2.0000      -0.783433       -21.3183
  42   2.0000      -0.773368       -21.0444
  43   2.0000      -0.766965       -20.8702
  44   2.0000      -0.764749       -20.8099
  45   2.0000      -0.759670       -20.6717
  46   2.0000      -0.751093       -20.4383
  47   2.0000      -0.716854       -19.5066
  48   2.0000      -0.704395       -19.1676
  49   2.0000      -0.688874       -18.7452
  50   2.0000      -0.684593       -18.6287
  51   2.0000      -0.670920       -18.2567
  52   2.0000      -0.645967       -17.5777
  53   2.0000      -0.631504       -17.1841
  54   2.0000      -0.621256       -16.9052
  55   2.0000      -0.618634       -16.8339
  56   2.0000      -0.610266       -16.6062
  57   2.0000      -0.608638       -16.5619
  58   2.0000      -0.597787       -16.2666
  59   2.0000      -0.589816       -16.0497
  60   2.0000      -0.589021       -16.0281
  61   2.0000      -0.586568       -15.9613
  62   2.0000      -0.581775       -15.8309
  63   2.0000      -0.579665       -15.7735
  64   2.0000      -0.572298       -15.5730
  65   2.0000      -0.561840       -15.2884
  66   2.0000      -0.550274       -14.9737
  67   2.0000      -0.546623       -14.8744
  68   2.0000      -0.538786       -14.6611
  69   2.0000      -0.536429       -14.5970
  70   2.0000      -0.531100       -14.4520
  71   2.0000      -0.528821       -14.3899
  72   2.0000      -0.510623       -13.8948
  73   2.0000      -0.501933       -13.6583
  74   2.0000      -0.496888       -13.5210
  75   2.0000      -0.479718       -13.0538
  76   2.0000      -0.472692       -12.8626
  77   2.0000      -0.449411       -12.2291
  78   2.0000      -0.436010       -11.8644
  79   2.0000      -0.409265       -11.1367
  80   2.0000      -0.400314       -10.8931
  81   2.0000      -0.380844       -10.3633
  82   0.0000      -0.172682        -4.6989
  83   0.0000      -0.151259        -4.1160
  84   0.0000      -0.117203        -3.1893
  85   0.0000      -0.109785        -2.9874
  86   0.0000      -0.070292        -1.9128

MULLIKEN ATOMIC CHARGES
-----------------------
   0 Ir:    0.569868
   1 C :   -0.248223
   2 C :   -0.249972
   3 C :   -0.286860
   4 C :   -0.243905
   5 C :   -0.143740
   6 N :   -0.465464
   7 C :   -0.092824
   8 C :   -0.638246
   9 H :    0.245201
  10 H :    0.223956
  11 H :    0.253340
  12 C :   -0.696988
  13 H :    0.242074
  14 H :    0.266681
  15 H :    0.227876
  16 H :    0.249345
  17 C :    0.073011
  18 C :   -0.204249
  19 H :    0.278936
  20 C :   -0.274588
  21 C :   -0.233294
  22 S :    0.310553
  23 C :   -0.400905
  24 H :    0.525885
  25 H :    0.256025
  26 H :    0.292944
  27 H :    0.281018
  28 H :    0.274424
  29 H :    0.281087
  30 O :   -0.531716
  31 O :   -0.454165
  32 C :    0.627716
  33 C :   -0.754986
  34 H :    0.292342
  35 H :    0.294311
  36 H :    0.282118
  37 H :    0.277318
  38 H :    0.294094
Sum of atomic charges:    1.0000000

LOEWDIN ATOMIC CHARGES
----------------------
   0 Ir:   -0.267953
   1 C :   -0.050876
   2 C :   -0.112632
   3 C :   -0.113280
   4 C :   -0.056295
   5 C :   -0.015882
   6 N :   -0.036976
   7 C :   -0.061759
   8 C :   -0.350878
   9 H :    0.144684
  10 H :    0.134233
  11 H :    0.143078
  12 C :   -0.365968
  13 H :    0.136715
  14 H :    0.153436
  15 H :    0.133893
  16 H :    0.140404
  17 C :    0.029858
  18 C :   -0.252512
  19 H :    0.156140
  20 C :   -0.123643
  21 C :   -0.184452
  22 S :    0.465387
  23 C :   -0.256477
  24 H :    0.355742
  25 H :    0.154943
  26 H :    0.164780
  27 H :    0.179999
  28 H :    0.176421
  29 H :    0.177555
  30 O :   -0.207812
  31 O :   -0.119232
  32 C :    0.212837
  33 C :   -0.371748
  34 H :    0.179019
  35 H :    0.181796
  36 H :    0.163352
  37 H :    0.177891
  38 H :    0.186214

  Mayer bond orders larger than 0.100000
B(  0-Ir,  1-C ) :   0.4694 B(  0-Ir,  2-C ) :   0.2995 B(  0-Ir,  3-C ) :   0.4709
B(  0-Ir,  4-C ) :   0.4637 B(  0-Ir,  5-C ) :   0.3197 B(  0-Ir,  6-N ) :   0.4748
B(  0-Ir, 20-C ) :   0.6755 B(  0-Ir, 31-O ) :   0.4012 B(  1-C ,  2-C ) :   1.1544
B(  1-C ,  4-C ) :   1.1912 B(  1-C , 27-H ) :   0.9135 B(  2-C ,  5-C ) :   1.2811
B(  2-C , 28-H ) :   0.9160 B(  3-C ,  4-C ) :   1.1478 B(  3-C ,  5-C ) :   1.1649
B(  3-C , 37-H ) :   0.9135 B(  4-C , 38-H ) :   0.9029 B(  5-C , 29-H ) :   0.9087
B(  6-N ,  7-C ) :   0.9130 B(  6-N , 17-C ) :   1.6071 B(  7-C ,  8-C ) :   0.9749
B(  7-C , 12-C ) :   0.9903 B(  7-C , 13-H ) :   0.8907 B(  8-C ,  9-H ) :   0.9085
B(  8-C , 10-H ) :   0.9185 B(  8-C , 11-H ) :   0.9072 B( 12-C , 14-H ) :   0.9061
B( 12-C , 15-H ) :   0.9113 B( 12-C , 16-H ) :   0.9128 B( 17-C , 18-C ) :   1.1443
B( 17-C , 19-H ) :   0.8752 B( 18-C , 20-C ) :   1.3326 B( 18-C , 22-S ) :   1.1585
B( 20-C , 21-C ) :   1.3300 B( 21-C , 23-C ) :   1.4962 B( 21-C , 25-H ) :   0.9070
B( 22-S , 23-C ) :   1.2653 B( 23-C , 26-H ) :   0.8909 B( 24-H , 30-O ) :   0.6281
B( 30-O , 32-C ) :   1.3085 B( 31-O , 32-C ) :   1.5951 B( 32-C , 33-C ) :   0.9637
B( 33-C , 34-H ) :   0.8850 B( 33-C , 35-H ) :   0.8808 B( 33-C , 36-H ) :   0.9023

Dispersion correction           -0.029927668
FINAL SINGLE POINT ENERGY     -1288.430807033968
Dispersion correction            ... done

DIPOLE MOMENT
-------------
                                X             Y             Z
Electronic contribution:     38.44071     -81.28208      70.41607
Nuclear contribution   :    -38.74330      81.84619     -69.78185
                        -----------------------------------------
Total Dipole Moment    :     -0.30259       0.56412       0.63421
                        -----------------------------------------
Magnitude (a.u.)       :      0.90112
Magnitude (Debye)      :      2.29046

Rotational constants in cm-1:     0.010516     0.008425     0.007919
Rotational constants in MHz :   315.246930   252.573641   237.402599

                             ****ORCA TERMINATED NORMALLY****
TOTAL RUN TIME: 0 days 0 hours 16 minutes 30 seconds 102 msec
