                         Program Version 5.0.3 -  RELEASE  -
|  1> ! EnGrad PBEh-3c
|  2> %output
|  3> xyzfile=True
|  4> end
|  5> %scf
|  6> maxiter 250
|  7> end
|  8> %output
|  9> Print[P_Hirshfeld] = 1
| 10> end
| 11> % maxcore
| 12> 4000
| 13> *xyz 1 1
| 14> Ir   0.61518187  -0.81386802   0.39695108
| 15> C    0.18011532  -2.92290637   0.87582711
| 16> C   -0.01552828  -2.25387538   2.12930175
| 17> C    2.16912690  -1.92063532   1.44604550
| 18> C    1.52813339  -2.74121431   0.46972432
| 19> C    1.20424301  -1.66927641   2.47204140
| 20> N   -1.15550365  -0.20158554  -0.58543569
| 21> C   -2.50112055  -0.23299460   0.02561483
| 22> C   -2.70653767   0.89680199   1.03587786
| 23> H   -3.70878118   0.81530889   1.46486422
| 24> H   -2.63727654   1.87434971   0.55329551
| 25> H   -1.98467792   0.85704286   1.85143012
| 26> C   -3.62963586  -0.23377231  -0.99999751
| 27> H   -2.54618067  -1.18460074   0.57033081
| 28> H   -4.56873354  -0.40603438  -0.47778445
| 29> H   -3.73708067   0.72134446  -1.52215139
| 30> H   -3.51259288  -1.02847068  -1.73906363
| 31> C   -0.97309786   0.20173899  -1.79021937
| 32> C    0.35226135   0.14997110  -2.28942689
| 33> H   -1.80204518   0.53471345  -2.40375941
| 34> C    1.37294355  -0.28779612  -1.46470825
| 35> C    2.58965934  -0.30426601  -2.21214650
| 36> S    0.81735832   0.44581590  -3.90781212
| 37> C    2.42135669   0.03363528  -3.53510833
| 38> H    2.13398479   1.42636398  -0.59562090
| 39> H    3.57778382  -0.58765693  -1.88481133
| 40> H    3.16206923   0.07486344  -4.33181324
| 41> H   -0.53665654  -3.56296784   0.38913831
| 42> H   -0.90330917  -2.30367587   2.75333367
| 43> H    1.38536342  -1.09769398   3.37107236
| 44> O    2.15446106   2.24219760  -0.06208633
| 45> O    0.57164176   1.18781405   1.10380668
| 46> C    1.24539081   2.18901554   0.85892918
| 47> C    1.08556183   3.46414812   1.59505615
| 48> H    0.93579508   4.30725387   0.91892553
| 49> H    1.97324270   3.71174967   2.17786761
| 50> H    0.25044714   3.44414944   2.28081694
| 51> H    3.20615508  -1.63000313   1.45904790
| 52> H    1.97770740  -3.20027925  -0.39660693
| 53> *
| 54>
| 55>                          ****END OF INPUT****

CARTESIAN COORDINATES (ANGSTROEM)
---------------------------------
  Ir     0.615182   -0.813868    0.396951
  C      0.180115   -2.922906    0.875827
  C     -0.015528   -2.253875    2.129302
  C      2.169127   -1.920635    1.446046
  C      1.528133   -2.741214    0.469724
  C      1.204243   -1.669276    2.472041
  N     -1.155504   -0.201586   -0.585436
  C     -2.501121   -0.232995    0.025615
  C     -2.706538    0.896802    1.035878
  H     -3.708781    0.815309    1.464864
  H     -2.637277    1.874350    0.553296
  H     -1.984678    0.857043    1.851430
  C     -3.629636   -0.233772   -0.999998
  H     -2.546181   -1.184601    0.570331
  H     -4.568734   -0.406034   -0.477784
  H     -3.737081    0.721344   -1.522151
  H     -3.512593   -1.028471   -1.739064
  C     -0.973098    0.201739   -1.790219
  C      0.352261    0.149971   -2.289427
  H     -1.802045    0.534713   -2.403759
  C      1.372944   -0.287796   -1.464708
  C      2.589659   -0.304266   -2.212146
  S      0.817358    0.445816   -3.907812
  C      2.421357    0.033635   -3.535108
  H      2.133985    1.426364   -0.595621
  H      3.577784   -0.587657   -1.884811
  H      3.162069    0.074863   -4.331813
  H     -0.536657   -3.562968    0.389138
  H     -0.903309   -2.303676    2.753334
  H      1.385363   -1.097694    3.371072
  O      2.154461    2.242198   -0.062086
  O      0.571642    1.187814    1.103807
  C      1.245391    2.189016    0.858929
  C      1.085562    3.464148    1.595056
  H      0.935795    4.307254    0.918926
  H      1.973243    3.711750    2.177868
  H      0.250447    3.444149    2.280817
  H      3.206155   -1.630003    1.459048
  H      1.977707   -3.200279   -0.396607

 Total Charge           Charge          ....    1
 Multiplicity           Mult            ....    1
 Number of Electrons    NEL             ....  164
 Basis Dimension        Dim             ....  358

ORBITAL ENERGIES
----------------

  NO   OCC          E(Eh)            E(eV)
   0   2.0000     -89.739234     -2441.9287
   1   2.0000     -19.686304      -535.6916
   2   2.0000     -19.671443      -535.2872
   3   2.0000     -14.811311      -403.0362
   4   2.0000     -10.742299      -292.3128
   5   2.0000     -10.635294      -289.4011
   6   2.0000     -10.619507      -288.9715
   7   2.0000     -10.616209      -288.8817
   8   2.0000     -10.611633      -288.7572
   9   2.0000     -10.605645      -288.5943
  10   2.0000     -10.604992      -288.5765
  11   2.0000     -10.600820      -288.4630
  12   2.0000     -10.599143      -288.4173
  13   2.0000     -10.591393      -288.2065
  14   2.0000     -10.587265      -288.0941
  15   2.0000     -10.573078      -287.7081
  16   2.0000     -10.569048      -287.5984
  17   2.0000     -10.543772      -286.9106
  18   2.0000     -10.540698      -286.8270
  19   2.0000      -8.379087      -228.0066
  20   2.0000      -6.269011      -170.5885
  21   2.0000      -6.265651      -170.4970
  22   2.0000      -6.263852      -170.4481
  23   2.0000      -4.009342      -109.0997
  24   2.0000      -2.324268       -63.2466
  25   2.0000      -2.296550       -62.4923
  26   2.0000      -2.291848       -62.3644
  27   2.0000      -1.387198       -37.7476
  28   2.0000      -1.290402       -35.1136
  29   2.0000      -1.185627       -32.2625
  30   2.0000      -1.150315       -31.3017
  31   2.0000      -1.107745       -30.1433
  32   2.0000      -1.009378       -27.4666
  33   2.0000      -0.985269       -26.8105
  34   2.0000      -0.962618       -26.1942
  35   2.0000      -0.954442       -25.9717
  36   2.0000      -0.947533       -25.7837
  37   2.0000      -0.941086       -25.6083
  38   2.0000      -0.888685       -24.1824
  39   2.0000      -0.852835       -23.2068
  40   2.0000      -0.836596       -22.7649
  41   2.0000      -0.783111       -21.3095
  42   2.0000      -0.772065       -21.0090
  43   2.0000      -0.767222       -20.8772
  44   2.0000      -0.764624       -20.8065
  45   2.0000      -0.759633       -20.6707
  46   2.0000      -0.751315       -20.4443
  47   2.0000      -0.716371       -19.4934
  48   2.0000      -0.703478       -19.1426
  49   2.0000      -0.688392       -18.7321
  50   2.0000      -0.684710       -18.6319
  51   2.0000      -0.671338       -18.2680
  52   2.0000      -0.646295       -17.5866
  53   2.0000      -0.631496       -17.1839
  54   2.0000      -0.620792       -16.8926
  55   2.0000      -0.618417       -16.8280
  56   2.0000      -0.610703       -16.6181
  57   2.0000      -0.605469       -16.4757
  58   2.0000      -0.593139       -16.1401
  59   2.0000      -0.589714       -16.0469
  60   2.0000      -0.587886       -15.9972
  61   2.0000      -0.586985       -15.9727
  62   2.0000      -0.581794       -15.8314
  63   2.0000      -0.577178       -15.7058
  64   2.0000      -0.571868       -15.5613
  65   2.0000      -0.561554       -15.2807
  66   2.0000      -0.550353       -14.9759
  67   2.0000      -0.546811       -14.8795
  68   2.0000      -0.537909       -14.6372
  69   2.0000      -0.535641       -14.5755
  70   2.0000      -0.531469       -14.4620
  71   2.0000      -0.529102       -14.3976
  72   2.0000      -0.510244       -13.8845
  73   2.0000      -0.501143       -13.6368
  74   2.0000      -0.497859       -13.5474
  75   2.0000      -0.481031       -13.0895
  76   2.0000      -0.472667       -12.8619
  77   2.0000      -0.449682       -12.2365
  78   2.0000      -0.435607       -11.8535
  79   2.0000      -0.410479       -11.1697
  80   2.0000      -0.401194       -10.9170
  81   2.0000      -0.381714       -10.3870
  82   0.0000      -0.173209        -4.7133
  83   0.0000      -0.152183        -4.1411
  84   0.0000      -0.117478        -3.1967
  85   0.0000      -0.108096        -2.9415
  86   0.0000      -0.071043        -1.9332

MULLIKEN ATOMIC CHARGES
-----------------------
   0 Ir:    0.569094
   1 C :   -0.248222
   2 C :   -0.249744
   3 C :   -0.287834
   4 C :   -0.244125
   5 C :   -0.143863
   6 N :   -0.467181
   7 C :   -0.092649
   8 C :   -0.637863
   9 H :    0.245917
  10 H :    0.224213
  11 H :    0.254217
  12 C :   -0.695991
  13 H :    0.241808
  14 H :    0.267765
  15 H :    0.227452
  16 H :    0.248562
  17 C :    0.073057
  18 C :   -0.202829
  19 H :    0.278014
  20 C :   -0.269680
  21 C :   -0.239538
  22 S :    0.308134
  23 C :   -0.399294
  24 H :    0.526822
  25 H :    0.257092
  26 H :    0.294041
  27 H :    0.280740
  28 H :    0.274018
  29 H :    0.281025
  30 O :   -0.537702
  31 O :   -0.441339
  32 C :    0.633225
  33 C :   -0.758047
  34 H :    0.290234
  35 H :    0.292526
  36 H :    0.279088
  37 H :    0.276757
  38 H :    0.292103
Sum of atomic charges:    1.0000000

LOEWDIN ATOMIC CHARGES
----------------------
   0 Ir:   -0.266313
   1 C :   -0.051988
   2 C :   -0.110006
   3 C :   -0.115890
   4 C :   -0.054058
   5 C :   -0.018276
   6 N :   -0.036893
   7 C :   -0.061236
   8 C :   -0.350171
   9 H :    0.144761
  10 H :    0.134695
  11 H :    0.143669
  12 C :   -0.365899
  13 H :    0.136739
  14 H :    0.153852
  15 H :    0.134014
  16 H :    0.140332
  17 C :    0.029203
  18 C :   -0.248817
  19 H :    0.155445
  20 C :   -0.122097
  21 C :   -0.187316
  22 S :    0.459350
  23 C :   -0.253886
  24 H :    0.357254
  25 H :    0.155361
  26 H :    0.166560
  27 H :    0.179860
  28 H :    0.176424
  29 H :    0.177850
  30 O :   -0.210200
  31 O :   -0.110281
  32 C :    0.207464
  33 C :   -0.373542
  34 H :    0.177457
  35 H :    0.180261
  36 H :    0.163242
  37 H :    0.177890
  38 H :    0.185182

  Mayer bond orders larger than 0.100000
B(  0-Ir,  1-C ) :   0.4723 B(  0-Ir,  2-C ) :   0.2931 B(  0-Ir,  3-C ) :   0.4739
B(  0-Ir,  4-C ) :   0.4555 B(  0-Ir,  5-C ) :   0.3142 B(  0-Ir,  6-N ) :   0.4775
B(  0-Ir, 20-C ) :   0.6800 B(  0-Ir, 31-O ) :   0.4036 B(  1-C ,  2-C ) :   1.1517
B(  1-C ,  4-C ) :   1.1936 B(  1-C , 27-H ) :   0.9144 B(  2-C ,  5-C ) :   1.2942
B(  2-C , 28-H ) :   0.9161 B(  3-C ,  4-C ) :   1.1536 B(  3-C ,  5-C ) :   1.1581
B(  3-C , 37-H ) :   0.9139 B(  4-C , 38-H ) :   0.9051 B(  5-C , 29-H ) :   0.9090
B(  6-N ,  7-C ) :   0.9103 B(  6-N , 17-C ) :   1.6062 B(  7-C ,  8-C ) :   0.9762
B(  7-C , 12-C ) :   0.9912 B(  7-C , 13-H ) :   0.8900 B(  8-C ,  9-H ) :   0.9082
B(  8-C , 10-H ) :   0.9182 B(  8-C , 11-H ) :   0.9063 B( 12-C , 14-H ) :   0.9054
B( 12-C , 15-H ) :   0.9116 B( 12-C , 16-H ) :   0.9132 B( 17-C , 18-C ) :   1.1461
B( 17-C , 19-H ) :   0.8761 B( 18-C , 20-C ) :   1.3319 B( 18-C , 22-S ) :   1.1556
B( 20-C , 21-C ) :   1.3300 B( 21-C , 23-C ) :   1.4936 B( 21-C , 25-H ) :   0.9062
B( 22-S , 23-C ) :   1.2644 B( 23-C , 26-H ) :   0.8903 B( 24-H , 30-O ) :   0.6254
B( 30-O , 32-C ) :   1.3013 B( 31-O , 32-C ) :   1.6075 B( 32-C , 33-C ) :   0.9573
B( 33-C , 34-H ) :   0.8860 B( 33-C , 35-H ) :   0.8819 B( 33-C , 36-H ) :   0.9041

Dispersion correction           -0.029931205
FINAL SINGLE POINT ENERGY     -1288.432929268670
Dispersion correction            ... done

DIPOLE MOMENT
-------------
                                X             Y             Z
Electronic contribution:     37.84629     -80.28709      70.32344
Nuclear contribution   :    -38.13587      80.77793     -69.73195
                        -----------------------------------------
Total Dipole Moment    :     -0.28958       0.49084       0.59149
                        -----------------------------------------
Magnitude (a.u.)       :      0.82137
Magnitude (Debye)      :      2.08775

Rotational constants in cm-1:     0.010552     0.008422     0.007910
Rotational constants in MHz :   316.347617   252.471090   237.133279

                             ****ORCA TERMINATED NORMALLY****
TOTAL RUN TIME: 0 days 0 hours 17 minutes 44 seconds 22 msec
