                         Program Version 5.0.3 -  RELEASE  -
|  1> ! EnGrad PBEh-3c
|  2> %output
|  3> xyzfile=True
|  4> end
|  5> %scf
|  6> maxiter 250
|  7> end
|  8> %output
|  9> Print[P_Hirshfeld] = 1
| 10> end
| 11> % maxcore
| 12> 4000
| 13> *xyz 0 1
| 14> Lu   0.11751547   0.24317216  -0.15107380
| 15> C    0.24228369   1.05540848   2.26906835
| 16> C    1.18549069   0.01111391   2.16522615
| 17> C    2.21633115   0.41492344   1.29755855
| 18> C    1.93978150   1.73856047   0.89768110
| 19> C    0.72824338   2.13255897   1.50806663
| 20> H    2.57120732   2.35841071   0.27630676
| 21> H    0.28862206   3.11749051   1.45698470
| 22> H   -0.63385922   1.06854102   2.90028841
| 23> H    1.18851431  -0.88982906   2.76098654
| 24> H    3.08816173  -0.16309480   1.03058121
| 25> C    1.06638252  -0.02070380  -2.55117399
| 26> C   -0.26199308  -0.49390838  -2.60875483
| 27> C    0.92915717  -1.90421839  -1.28797253
| 28> C    1.80399454  -0.89346571  -1.72721102
| 29> H    1.46392805   0.82995089  -3.08684841
| 30> C   -0.35434664  -1.65085290  -1.81731102
| 31> H   -1.04623800  -0.08770636  -3.22851170
| 32> H    2.86017925  -0.82518750  -1.51400209
| 33> H    1.24174050  -2.76859431  -0.71986242
| 34> H   -1.23769620  -2.26641015  -1.72060755
| 35> C   -2.22789886  -1.71549482   1.39826453
| 36> H   -2.41844540  -1.47869958   2.43712244
| 37> H   -2.97490865  -2.39420842   0.99400152
| 38> H   -2.31387721  -0.80317973   0.81570959
| 39> C   -1.90243887   1.69293872  -0.66827895
| 40> H   -0.92612135  -2.16091988   1.28348277
| 41> H   -1.55001508   2.51077696  -1.30740499
| 42> H   -2.42955481   2.18391922   0.15451727
| 43> H   -2.65414997   1.15870454  -1.25682790
| 44> *
| 45>
| 46>                          ****END OF INPUT****

CARTESIAN COORDINATES (ANGSTROEM)
---------------------------------
  Lu     0.117515    0.243172   -0.151074
  C      0.242284    1.055408    2.269068
  C      1.185491    0.011114    2.165226
  C      2.216331    0.414923    1.297559
  C      1.939782    1.738560    0.897681
  C      0.728243    2.132559    1.508067
  H      2.571207    2.358411    0.276307
  H      0.288622    3.117491    1.456985
  H     -0.633859    1.068541    2.900288
  H      1.188514   -0.889829    2.760987
  H      3.088162   -0.163095    1.030581
  C      1.066383   -0.020704   -2.551174
  C     -0.261993   -0.493908   -2.608755
  C      0.929157   -1.904218   -1.287973
  C      1.803995   -0.893466   -1.727211
  H      1.463928    0.829951   -3.086848
  C     -0.354347   -1.650853   -1.817311
  H     -1.046238   -0.087706   -3.228512
  H      2.860179   -0.825187   -1.514002
  H      1.241740   -2.768594   -0.719862
  H     -1.237696   -2.266410   -1.720608
  C     -2.227899   -1.715495    1.398265
  H     -2.418445   -1.478700    2.437122
  H     -2.974909   -2.394208    0.994002
  H     -2.313877   -0.803180    0.815710
  C     -1.902439    1.692939   -0.668279
  H     -0.926121   -2.160920    1.283483
  H     -1.550015    2.510777   -1.307405
  H     -2.429555    2.183919    0.154517
  H     -2.654150    1.158705   -1.256828

 Total Charge           Charge          ....    0
 Multiplicity           Mult            ....    1
 Number of Electrons    NEL             ....  132
 Basis Dimension        Dim             ....  295

ORBITAL ENERGIES
----------------

  NO   OCC          E(Eh)            E(eV)
   0   2.0000     -19.248534      -523.7792
   1   2.0000     -12.621102      -343.4377
   2   2.0000     -12.618379      -343.3636
   3   2.0000     -12.618109      -343.3562
   4   2.0000     -10.470654      -284.9210
   5   2.0000     -10.448376      -284.3148
   6   2.0000     -10.447305      -284.2856
   7   2.0000     -10.447123      -284.2807
   8   2.0000     -10.446657      -284.2680
   9   2.0000     -10.446453      -284.2624
  10   2.0000     -10.445508      -284.2367
  11   2.0000     -10.445313      -284.2314
  12   2.0000     -10.444927      -284.2209
  13   2.0000     -10.444493      -284.2091
  14   2.0000     -10.443370      -284.1785
  15   2.0000     -10.356631      -281.8183
  16   2.0000      -5.890094      -160.2776
  17   2.0000      -5.889709      -160.2671
  18   2.0000      -5.889276      -160.2553
  19   2.0000      -5.887715      -160.2129
  20   2.0000      -5.887540      -160.2081
  21   2.0000      -2.432132       -66.1817
  22   2.0000      -1.272632       -34.6301
  23   2.0000      -1.270665       -34.5766
  24   2.0000      -1.258391       -34.2426
  25   2.0000      -0.983327       -26.7577
  26   2.0000      -0.972613       -26.4661
  27   2.0000      -0.797858       -21.7108
  28   2.0000      -0.795603       -21.6494
  29   2.0000      -0.794372       -21.6160
  30   2.0000      -0.793207       -21.5843
  31   2.0000      -0.789486       -21.4830
  32   2.0000      -0.687405       -18.7052
  33   2.0000      -0.616643       -16.7797
  34   2.0000      -0.614029       -16.7086
  35   2.0000      -0.611897       -16.6506
  36   2.0000      -0.610313       -16.6075
  37   2.0000      -0.598639       -16.2898
  38   2.0000      -0.593831       -16.1590
  39   2.0000      -0.557827       -15.1793
  40   2.0000      -0.556564       -15.1449
  41   2.0000      -0.556377       -15.1398
  42   2.0000      -0.555083       -15.1046
  43   2.0000      -0.554854       -15.0983
  44   2.0000      -0.553226       -15.0540
  45   2.0000      -0.551880       -15.0174
  46   2.0000      -0.481512       -13.1026
  47   2.0000      -0.478200       -13.0125
  48   2.0000      -0.466544       -12.6953
  49   2.0000      -0.455605       -12.3976
  50   2.0000      -0.453849       -12.3498
  51   2.0000      -0.452621       -12.3164
  52   2.0000      -0.450914       -12.2700
  53   2.0000      -0.436362       -11.8740
  54   2.0000      -0.435138       -11.8407
  55   2.0000      -0.433166       -11.7870
  56   2.0000      -0.431808       -11.7501
  57   2.0000      -0.429608       -11.6902
  58   2.0000      -0.427576       -11.6349
  59   2.0000      -0.383591       -10.4380
  60   2.0000      -0.380033       -10.3412
  61   2.0000      -0.292732        -7.9656
  62   2.0000      -0.288770        -7.8578
  63   2.0000      -0.278411        -7.5759
  64   2.0000      -0.271660        -7.3922
  65   2.0000      -0.238020        -6.4769
  66   0.0000      -0.018275        -0.4973
  67   0.0000       0.003577         0.0973
  68   0.0000       0.034332         0.9342
  69   0.0000       0.052888         1.4392
  70   0.0000       0.057960         1.5772

MULLIKEN ATOMIC CHARGES
-----------------------
   0 Lu:    0.769198
   1 C :   -0.287005
   2 C :   -0.308735
   3 C :   -0.270428
   4 C :   -0.300614
   5 C :   -0.243906
   6 H :    0.241240
   7 H :    0.243747
   8 H :    0.241257
   9 H :    0.237275
  10 H :    0.237381
  11 C :   -0.293479
  12 C :   -0.247685
  13 C :   -0.304548
  14 C :   -0.275805
  15 H :    0.240334
  16 C :   -0.290529
  17 H :    0.242156
  18 H :    0.236758
  19 H :    0.237971
  20 H :    0.241023
  21 C :   -0.879874
  22 H :    0.259511
  23 H :    0.257872
  24 H :    0.279765
  25 C :   -1.028574
  26 H :    0.160225
  27 H :    0.203959
  28 H :    0.202917
  29 H :    0.198591
Sum of atomic charges:    0.0000000

LOEWDIN ATOMIC CHARGES
----------------------
   0 Lu:   -0.062936
   1 C :   -0.137652
   2 C :   -0.146795
   3 C :   -0.130872
   4 C :   -0.142903
   5 C :   -0.112095
   6 H :    0.156238
   7 H :    0.159959
   8 H :    0.158378
   9 H :    0.154165
  10 H :    0.154446
  11 C :   -0.140837
  12 C :   -0.114695
  13 C :   -0.147308
  14 C :   -0.131980
  15 H :    0.155882
  16 C :   -0.143254
  17 H :    0.159451
  18 H :    0.153747
  19 H :    0.154265
  20 H :    0.157298
  21 C :   -0.466774
  22 H :    0.143747
  23 H :    0.145533
  24 H :    0.164911
  25 C :   -0.653940
  26 H :    0.144073
  27 H :    0.129301
  28 H :    0.120358
  29 H :    0.120290

  Mayer bond orders larger than 0.100000
B(  0-Lu,  1-C ) :   0.2664 B(  0-Lu,  2-C ) :   0.2839 B(  0-Lu,  3-C ) :   0.2712
B(  0-Lu,  4-C ) :   0.2786 B(  0-Lu,  5-C ) :   0.2384 B(  0-Lu, 11-C ) :   0.2719
B(  0-Lu, 12-C ) :   0.2327 B(  0-Lu, 13-C ) :   0.2834 B(  0-Lu, 14-C ) :   0.2673
B(  0-Lu, 16-C ) :   0.2748 B(  0-Lu, 21-C ) :   0.1021 B(  0-Lu, 25-C ) :   0.8138
B(  1-C ,  2-C ) :   1.2613 B(  1-C ,  5-C ) :   1.3093 B(  1-C ,  8-H ) :   0.9176
B(  2-C ,  3-C ) :   1.2902 B(  2-C ,  9-H ) :   0.9211 B(  3-C ,  4-C ) :   1.2746
B(  3-C , 10-H ) :   0.9164 B(  4-C ,  5-C ) :   1.2907 B(  4-C ,  6-H ) :   0.9157
B(  5-C ,  7-H ) :   0.9192 B( 11-C , 12-C ) :   1.2952 B( 11-C , 14-C ) :   1.2840
B( 11-C , 15-H ) :   0.9162 B( 12-C , 16-C ) :   1.3070 B( 12-C , 17-H ) :   0.9199
B( 13-C , 14-C ) :   1.2892 B( 13-C , 16-C ) :   1.2595 B( 13-C , 19-H ) :   0.9179
B( 14-C , 18-H ) :   0.9163 B( 16-C , 20-H ) :   0.9163 B( 21-C , 22-H ) :   0.9025
B( 21-C , 23-H ) :   0.9069 B( 21-C , 24-H ) :   0.8544 B( 21-C , 26-H ) :   0.9148
B( 25-C , 27-H ) :   0.9088 B( 25-C , 28-H ) :   0.9185 B( 25-C , 29-H ) :   0.9145

Dispersion correction           -0.017627558
FINAL SINGLE POINT ENERGY     -1702.353358728489
Dispersion correction            ... done

DIPOLE MOMENT
-------------
                                X             Y             Z
Electronic contribution:     -0.70506      10.82017      -5.61375
Nuclear contribution   :      1.05927     -11.61081       6.06011
                        -----------------------------------------
Total Dipole Moment    :      0.35421      -0.79064       0.44636
                        -----------------------------------------
Magnitude (a.u.)       :      0.97458
Magnitude (Debye)      :      2.47719

Rotational constants in cm-1:     0.028502     0.020111     0.017618
Rotational constants in MHz :   854.473386   602.922712   528.183200

                             ****ORCA TERMINATED NORMALLY****
TOTAL RUN TIME: 0 days 0 hours 9 minutes 17 seconds 52 msec
