                         Program Version 5.0.3 -  RELEASE  -
|  1> ! EnGrad PBEh-3c
|  2> %output
|  3> xyzfile=True
|  4> end
|  5> %scf
|  6> maxiter 250
|  7> end
|  8> %output
|  9> Print[P_Hirshfeld] = 1
| 10> end
| 11> % maxcore
| 12> 4000
| 13> *xyz 0 1
| 14> Lu   0.06911370   0.29866932  -0.17504200
| 15> C    0.27258411   1.05816643   2.29256438
| 16> C    1.20224951  -0.00367426   2.17846639
| 17> C    2.22562461   0.42440300   1.30403105
| 18> C    1.93183716   1.74315116   0.90144263
| 19> C    0.72985123   2.13652021   1.51392242
| 20> H    2.55980549   2.36544122   0.27564316
| 21> H    0.27475020   3.10562606   1.46174001
| 22> H   -0.61751134   1.05687440   2.91846649
| 23> H    1.20245019  -0.90422413   2.74885823
| 24> H    3.09633723  -0.15389895   1.02356470
| 25> C    1.05869340  -0.02328396  -2.55108966
| 26> C   -0.26199733  -0.49754646  -2.61590249
| 27> C    0.94884394  -1.91895398  -1.27870718
| 28> C    1.80153741  -0.89266011  -1.73725531
| 29> H    1.44995437   0.83110386  -3.08622867
| 30> C   -0.34047899  -1.66675205  -1.83398523
| 31> H   -1.05673284  -0.09577818  -3.21421145
| 32> H    2.86142909  -0.81839934  -1.51741863
| 33> H    1.24714160  -2.76834707  -0.71146506
| 34> H   -1.22123135  -2.28834612  -1.72344300
| 35> C   -2.08273254  -1.74086450   1.36998568
| 36> H   -2.42775131  -1.47596852   2.44129768
| 37> H   -2.96000466  -2.42517553   1.00632063
| 38> H   -2.35294437  -0.78741222   0.80509644
| 39> C   -1.85818780   1.66434350  -0.66235129
| 40> H   -1.14020257  -2.07126557   1.28597493
| 41> H   -1.53772877   2.51212474  -1.31136107
| 42> H   -2.42880106   2.18446078   0.15240711
| 43> H   -2.65036128   1.16405779  -1.26697784
| 44> *
| 45>
| 46>                          ****END OF INPUT****

CARTESIAN COORDINATES (ANGSTROEM)
---------------------------------
  Lu     0.069114    0.298669   -0.175042
  C      0.272584    1.058166    2.292564
  C      1.202250   -0.003674    2.178466
  C      2.225625    0.424403    1.304031
  C      1.931837    1.743151    0.901443
  C      0.729851    2.136520    1.513922
  H      2.559805    2.365441    0.275643
  H      0.274750    3.105626    1.461740
  H     -0.617511    1.056874    2.918466
  H      1.202450   -0.904224    2.748858
  H      3.096337   -0.153899    1.023565
  C      1.058693   -0.023284   -2.551090
  C     -0.261997   -0.497546   -2.615902
  C      0.948844   -1.918954   -1.278707
  C      1.801537   -0.892660   -1.737255
  H      1.449954    0.831104   -3.086229
  C     -0.340479   -1.666752   -1.833985
  H     -1.056733   -0.095778   -3.214211
  H      2.861429   -0.818399   -1.517419
  H      1.247142   -2.768347   -0.711465
  H     -1.221231   -2.288346   -1.723443
  C     -2.082733   -1.740864    1.369986
  H     -2.427751   -1.475969    2.441298
  H     -2.960005   -2.425176    1.006321
  H     -2.352944   -0.787412    0.805096
  C     -1.858188    1.664343   -0.662351
  H     -1.140203   -2.071266    1.285975
  H     -1.537729    2.512125   -1.311361
  H     -2.428801    2.184461    0.152407
  H     -2.650361    1.164058   -1.266978

 Total Charge           Charge          ....    0
 Multiplicity           Mult            ....    1
 Number of Electrons    NEL             ....  132
 Basis Dimension        Dim             ....  295

ORBITAL ENERGIES
----------------

  NO   OCC          E(Eh)            E(eV)
   0   2.0000     -19.249891      -523.8162
   1   2.0000     -12.622444      -343.4742
   2   2.0000     -12.619867      -343.4040
   3   2.0000     -12.619382      -343.3909
   4   2.0000     -10.454472      -284.4807
   5   2.0000     -10.447347      -284.2868
   6   2.0000     -10.446748      -284.2705
   7   2.0000     -10.446141      -284.2539
   8   2.0000     -10.445708      -284.2422
   9   2.0000     -10.445537      -284.2375
  10   2.0000     -10.444558      -284.2109
  11   2.0000     -10.444190      -284.2009
  12   2.0000     -10.443379      -284.1788
  13   2.0000     -10.441949      -284.1399
  14   2.0000     -10.441276      -284.1216
  15   2.0000     -10.366045      -282.0744
  16   2.0000      -5.891475      -160.3152
  17   2.0000      -5.891156      -160.3065
  18   2.0000      -5.890589      -160.2911
  19   2.0000      -5.889116      -160.2510
  20   2.0000      -5.888917      -160.2456
  21   2.0000      -2.433451       -66.2176
  22   2.0000      -1.272138       -34.6166
  23   2.0000      -1.271914       -34.6105
  24   2.0000      -1.259808       -34.2811
  25   2.0000      -0.980029       -26.6679
  26   2.0000      -0.970774       -26.4161
  27   2.0000      -0.798911       -21.7395
  28   2.0000      -0.795005       -21.6332
  29   2.0000      -0.794180       -21.6107
  30   2.0000      -0.791557       -21.5394
  31   2.0000      -0.790727       -21.5168
  32   2.0000      -0.691784       -18.8244
  33   2.0000      -0.615789       -16.7565
  34   2.0000      -0.613487       -16.6938
  35   2.0000      -0.610855       -16.6222
  36   2.0000      -0.608818       -16.5668
  37   2.0000      -0.597125       -16.2486
  38   2.0000      -0.592150       -16.1132
  39   2.0000      -0.559249       -15.2179
  40   2.0000      -0.557885       -15.1808
  41   2.0000      -0.557800       -15.1785
  42   2.0000      -0.556640       -15.1469
  43   2.0000      -0.556117       -15.1327
  44   2.0000      -0.554749       -15.0955
  45   2.0000      -0.553213       -15.0537
  46   2.0000      -0.515473       -14.0267
  47   2.0000      -0.466832       -12.7031
  48   2.0000      -0.455105       -12.3840
  49   2.0000      -0.454108       -12.3569
  50   2.0000      -0.452970       -12.3259
  51   2.0000      -0.449603       -12.2343
  52   2.0000      -0.445700       -12.1281
  53   2.0000      -0.439914       -11.9707
  54   2.0000      -0.435041       -11.8381
  55   2.0000      -0.432881       -11.7793
  56   2.0000      -0.430670       -11.7191
  57   2.0000      -0.429097       -11.6763
  58   2.0000      -0.428409       -11.6576
  59   2.0000      -0.382977       -10.4213
  60   2.0000      -0.380024       -10.3410
  61   2.0000      -0.290963        -7.9175
  62   2.0000      -0.285992        -7.7822
  63   2.0000      -0.278965        -7.5910
  64   2.0000      -0.266341        -7.2475
  65   2.0000      -0.257371        -7.0034
  66   0.0000      -0.014847        -0.4040
  67   0.0000       0.007983         0.2172
  68   0.0000       0.043966         1.1964
  69   0.0000       0.053759         1.4629
  70   0.0000       0.055667         1.5148

MULLIKEN ATOMIC CHARGES
-----------------------
   0 Lu:    0.826049
   1 C :   -0.280193
   2 C :   -0.313364
   3 C :   -0.257453
   4 C :   -0.308207
   5 C :   -0.264125
   6 H :    0.240324
   7 H :    0.245995
   8 H :    0.240738
   9 H :    0.234473
  10 H :    0.233289
  11 C :   -0.303481
  12 C :   -0.261444
  13 C :   -0.307781
  14 C :   -0.263094
  15 H :    0.240826
  16 C :   -0.288319
  17 H :    0.244536
  18 H :    0.233454
  19 H :    0.234929
  20 H :    0.239719
  21 C :   -0.948076
  22 H :    0.242319
  23 H :    0.241584
  24 H :    0.268600
  25 C :   -1.055794
  26 H :    0.262728
  27 H :    0.209608
  28 H :    0.207141
  29 H :    0.205019
Sum of atomic charges:   -0.0000000

LOEWDIN ATOMIC CHARGES
----------------------
   0 Lu:   -0.018079
   1 C :   -0.139053
   2 C :   -0.151671
   3 C :   -0.130003
   4 C :   -0.147175
   5 C :   -0.124850
   6 H :    0.155475
   7 H :    0.160518
   8 H :    0.156289
   9 H :    0.152272
  10 H :    0.151658
  11 C :   -0.145988
  12 C :   -0.124780
  13 C :   -0.151100
  14 C :   -0.130677
  15 H :    0.156034
  16 C :   -0.144038
  17 H :    0.159885
  18 H :    0.151542
  19 H :    0.152443
  20 H :    0.154665
  21 C :   -0.500085
  22 H :    0.144370
  23 H :    0.146635
  24 H :    0.174392
  25 C :   -0.644210
  26 H :    0.147261
  27 H :    0.136219
  28 H :    0.125756
  29 H :    0.126294

  Mayer bond orders larger than 0.100000
B(  0-Lu,  1-C ) :   0.2614 B(  0-Lu,  2-C ) :   0.2717 B(  0-Lu,  3-C ) :   0.2527
B(  0-Lu,  4-C ) :   0.2778 B(  0-Lu,  5-C ) :   0.2431 B(  0-Lu, 11-C ) :   0.2760
B(  0-Lu, 12-C ) :   0.2355 B(  0-Lu, 13-C ) :   0.2696 B(  0-Lu, 14-C ) :   0.2517
B(  0-Lu, 16-C ) :   0.2705 B(  0-Lu, 25-C ) :   0.8097 B(  1-C ,  2-C ) :   1.2689
B(  1-C ,  5-C ) :   1.3102 B(  1-C ,  8-H ) :   0.9145 B(  2-C ,  3-C ) :   1.2993
B(  2-C ,  9-H ) :   0.9228 B(  3-C ,  4-C ) :   1.2886 B(  3-C , 10-H ) :   0.9175
B(  4-C ,  5-C ) :   1.2801 B(  4-C ,  6-H ) :   0.9159 B(  5-C ,  7-H ) :   0.9179
B( 11-C , 12-C ) :   1.2846 B( 11-C , 14-C ) :   1.2917 B( 11-C , 15-H ) :   0.9158
B( 12-C , 16-C ) :   1.3097 B( 12-C , 17-H ) :   0.9181 B( 13-C , 14-C ) :   1.2999
B( 13-C , 16-C ) :   1.2659 B( 13-C , 19-H ) :   0.9208 B( 14-C , 18-H ) :   0.9172
B( 16-C , 20-H ) :   0.9145 B( 21-C , 22-H ) :   0.9169 B( 21-C , 23-H ) :   0.9195
B( 21-C , 24-H ) :   0.8628 B( 21-C , 26-H ) :   0.8870 B( 25-C , 27-H ) :   0.8997
B( 25-C , 28-H ) :   0.9137 B( 25-C , 29-H ) :   0.9084

Dispersion correction           -0.017527767
FINAL SINGLE POINT ENERGY     -1702.372043679543
Dispersion correction            ... done

DIPOLE MOMENT
-------------
                                X             Y             Z
Electronic contribution:     -3.57545      13.78098      -6.87678
Nuclear contribution   :      3.79708     -14.46217       7.25222
                        -----------------------------------------
Total Dipole Moment    :      0.22163      -0.68119       0.37544
                        -----------------------------------------
Magnitude (a.u.)       :      0.80876
Magnitude (Debye)      :      2.05570

Rotational constants in cm-1:     0.028735     0.019871     0.017713
Rotational constants in MHz :   861.446643   595.715612   531.016258

                             ****ORCA TERMINATED NORMALLY****
TOTAL RUN TIME: 0 days 0 hours 9 minutes 17 seconds 660 msec
