                         Program Version 5.0.3 -  RELEASE  -
|  1> ! EnGrad PBEh-3c
|  2> %output
|  3> xyzfile=True
|  4> end
|  5> %scf
|  6> maxiter 250
|  7> end
|  8> %output
|  9> Print[P_Hirshfeld] = 1
| 10> end
| 11> % maxcore
| 12> 4000
| 13> *xyz 0 1
| 14> Lu   0.09952190   0.36065562  -0.21080934
| 15> C    0.29518106   1.04044066   2.32750901
| 16> C    1.23330276  -0.00323487   2.16808507
| 17> C    2.23546552   0.43772973   1.28866461
| 18> C    1.92244924   1.75667654   0.89621172
| 19> C    0.72856980   2.13311399   1.55484003
| 20> H    2.52806713   2.38453730   0.25843960
| 21> H    0.22611067   3.08518247   1.46867194
| 22> H   -0.56670505   1.02649529   2.97914780
| 23> H    1.22274416  -0.95595446   2.68521908
| 24> H    3.11359532  -0.12075893   1.00111420
| 25> C    1.04243159  -0.01704036  -2.55402217
| 26> C   -0.27049119  -0.53289990  -2.62411752
| 27> C    0.95776833  -1.90172189  -1.27905966
| 28> C    1.80395257  -0.87367459  -1.72861155
| 29> H    1.41671984   0.84648069  -3.08467079
| 30> C   -0.32372373  -1.69037272  -1.82698735
| 31> H   -1.09311569  -0.10950227  -3.18031494
| 32> H    2.85929785  -0.78543516  -1.52204615
| 33> H    1.25529626  -2.74932430  -0.67178232
| 34> H   -1.17225778  -2.35287389  -1.72049479
| 35> C   -2.28776284  -1.64705026   1.37287285
| 36> H   -2.42734771  -1.45343309   2.43631283
| 37> H   -2.89048287  -2.48597565   1.02570292
| 38> H   -2.47931613  -0.74906300   0.77805056
| 39> C   -1.83246251   1.66423846  -0.68362848
| 40> H   -1.18669285  -1.99605555   1.23593918
| 41> H   -1.48482081   2.50099701  -1.31770659
| 42> H   -2.35894442   2.13581219   0.16191061
| 43> H   -2.60101807   1.15296880  -1.28604189
| 44> *
| 45>
| 46>                          ****END OF INPUT****

CARTESIAN COORDINATES (ANGSTROEM)
---------------------------------
  Lu     0.099522    0.360656   -0.210809
  C      0.295181    1.040441    2.327509
  C      1.233303   -0.003235    2.168085
  C      2.235466    0.437730    1.288665
  C      1.922449    1.756677    0.896212
  C      0.728570    2.133114    1.554840
  H      2.528067    2.384537    0.258440
  H      0.226111    3.085182    1.468672
  H     -0.566705    1.026495    2.979148
  H      1.222744   -0.955954    2.685219
  H      3.113595   -0.120759    1.001114
  C      1.042432   -0.017040   -2.554022
  C     -0.270491   -0.532900   -2.624118
  C      0.957768   -1.901722   -1.279060
  C      1.803953   -0.873675   -1.728612
  H      1.416720    0.846481   -3.084671
  C     -0.323724   -1.690373   -1.826987
  H     -1.093116   -0.109502   -3.180315
  H      2.859298   -0.785435   -1.522046
  H      1.255296   -2.749324   -0.671782
  H     -1.172258   -2.352874   -1.720495
  C     -2.287763   -1.647050    1.372873
  H     -2.427348   -1.453433    2.436313
  H     -2.890483   -2.485976    1.025703
  H     -2.479316   -0.749063    0.778051
  C     -1.832463    1.664238   -0.683628
  H     -1.186693   -1.996056    1.235939
  H     -1.484821    2.500997   -1.317707
  H     -2.358944    2.135812    0.161911
  H     -2.601018    1.152969   -1.286042

 Total Charge           Charge          ....    0
 Multiplicity           Mult            ....    1
 Number of Electrons    NEL             ....  132
 Basis Dimension        Dim             ....  295

ORBITAL ENERGIES
----------------

  NO   OCC          E(Eh)            E(eV)
   0   2.0000     -19.249107      -523.7948
   1   2.0000     -12.621652      -343.4526
   2   2.0000     -12.619114      -343.3835
   3   2.0000     -12.618540      -343.3679
   4   2.0000     -10.447022      -284.2779
   5   2.0000     -10.446616      -284.2669
   6   2.0000     -10.446384      -284.2606
   7   2.0000     -10.446215      -284.2560
   8   2.0000     -10.445656      -284.2408
   9   2.0000     -10.445215      -284.2287
  10   2.0000     -10.445052      -284.2243
  11   2.0000     -10.444476      -284.2086
  12   2.0000     -10.443994      -284.1955
  13   2.0000     -10.443914      -284.1934
  14   2.0000     -10.442925      -284.1664
  15   2.0000     -10.363703      -282.0107
  16   2.0000      -5.890670      -160.2933
  17   2.0000      -5.890393      -160.2857
  18   2.0000      -5.889764      -160.2686
  19   2.0000      -5.888314      -160.2292
  20   2.0000      -5.888108      -160.2236
  21   2.0000      -2.432821       -66.2004
  22   2.0000      -1.271552       -34.6007
  23   2.0000      -1.271456       -34.5981
  24   2.0000      -1.259629       -34.2763
  25   2.0000      -0.980655       -26.6850
  26   2.0000      -0.971598       -26.4385
  27   2.0000      -0.795607       -21.6496
  28   2.0000      -0.794034       -21.6068
  29   2.0000      -0.793500       -21.5922
  30   2.0000      -0.791649       -21.5419
  31   2.0000      -0.790807       -21.5190
  32   2.0000      -0.698156       -18.9978
  33   2.0000      -0.615027       -16.7357
  34   2.0000      -0.612828       -16.6759
  35   2.0000      -0.610566       -16.6143
  36   2.0000      -0.609467       -16.5844
  37   2.0000      -0.596917       -16.2429
  38   2.0000      -0.592112       -16.1122
  39   2.0000      -0.558604       -15.2004
  40   2.0000      -0.557075       -15.1588
  41   2.0000      -0.556912       -15.1543
  42   2.0000      -0.555876       -15.1261
  43   2.0000      -0.555324       -15.1111
  44   2.0000      -0.554007       -15.0753
  45   2.0000      -0.552375       -15.0309
  46   2.0000      -0.474928       -12.9235
  47   2.0000      -0.471790       -12.8381
  48   2.0000      -0.466368       -12.6905
  49   2.0000      -0.454946       -12.3797
  50   2.0000      -0.452984       -12.3263
  51   2.0000      -0.451290       -12.2802
  52   2.0000      -0.450569       -12.2606
  53   2.0000      -0.446933       -12.1617
  54   2.0000      -0.434118       -11.8129
  55   2.0000      -0.432830       -11.7779
  56   2.0000      -0.432175       -11.7601
  57   2.0000      -0.430704       -11.7201
  58   2.0000      -0.429193       -11.6789
  59   2.0000      -0.393018       -10.6946
  60   2.0000      -0.391833       -10.6623
  61   2.0000      -0.291232        -7.9248
  62   2.0000      -0.287014        -7.8100
  63   2.0000      -0.279059        -7.5936
  64   2.0000      -0.266600        -7.2545
  65   2.0000      -0.256536        -6.9807
  66   0.0000      -0.018106        -0.4927
  67   0.0000       0.008604         0.2341
  68   0.0000       0.042673         1.1612
  69   0.0000       0.053352         1.4518
  70   0.0000       0.054534         1.4839

MULLIKEN ATOMIC CHARGES
-----------------------
   0 Lu:    0.838326
   1 C :   -0.291609
   2 C :   -0.292068
   3 C :   -0.258919
   4 C :   -0.338539
   5 C :   -0.254570
   6 H :    0.243870
   7 H :    0.250955
   8 H :    0.237388
   9 H :    0.233994
  10 H :    0.233551
  11 C :   -0.331834
  12 C :   -0.243521
  13 C :   -0.285711
  14 C :   -0.273931
  15 H :    0.244003
  16 C :   -0.297009
  17 H :    0.248025
  18 H :    0.234731
  19 H :    0.234052
  20 H :    0.235926
  21 C :   -0.923513
  22 H :    0.250133
  23 H :    0.250732
  24 H :    0.272703
  25 C :   -1.066704
  26 H :    0.207361
  27 H :    0.212120
  28 H :    0.217259
  29 H :    0.212799
Sum of atomic charges:   -0.0000000

LOEWDIN ATOMIC CHARGES
----------------------
   0 Lu:    0.000414
   1 C :   -0.140849
   2 C :   -0.148675
   3 C :   -0.129906
   4 C :   -0.155393
   5 C :   -0.126834
   6 H :    0.157204
   7 H :    0.160976
   8 H :    0.154970
   9 H :    0.151426
  10 H :    0.152088
  11 C :   -0.151349
  12 C :   -0.124131
  13 C :   -0.146750
  14 C :   -0.134354
  15 H :    0.157312
  16 C :   -0.145030
  17 H :    0.159944
  18 H :    0.152746
  19 H :    0.151883
  20 H :    0.153427
  21 C :   -0.493156
  22 H :    0.141673
  23 H :    0.141408
  24 H :    0.164105
  25 C :   -0.649604
  26 H :    0.142431
  27 H :    0.141002
  28 H :    0.131629
  29 H :    0.131394

  Mayer bond orders larger than 0.100000
B(  0-Lu,  1-C ) :   0.2509 B(  0-Lu,  2-C ) :   0.2559 B(  0-Lu,  3-C ) :   0.2509
B(  0-Lu,  4-C ) :   0.2923 B(  0-Lu,  5-C ) :   0.2428 B(  0-Lu, 11-C ) :   0.2895
B(  0-Lu, 12-C ) :   0.2315 B(  0-Lu, 13-C ) :   0.2576 B(  0-Lu, 14-C ) :   0.2591
B(  0-Lu, 16-C ) :   0.2578 B(  0-Lu, 25-C ) :   0.8239 B(  1-C ,  2-C ) :   1.2765
B(  1-C ,  5-C ) :   1.3160 B(  1-C ,  8-H ) :   0.9182 B(  2-C ,  3-C ) :   1.3111
B(  2-C ,  9-H ) :   0.9185 B(  3-C ,  4-C ) :   1.2781 B(  3-C , 10-H ) :   0.9185
B(  4-C ,  5-C ) :   1.2730 B(  4-C ,  6-H ) :   0.9135 B(  5-C ,  7-H ) :   0.9100
B( 11-C , 12-C ) :   1.2845 B( 11-C , 14-C ) :   1.2779 B( 11-C , 15-H ) :   0.9132
B( 12-C , 16-C ) :   1.3138 B( 12-C , 17-H ) :   0.9115 B( 13-C , 14-C ) :   1.3018
B( 13-C , 16-C ) :   1.2784 B( 13-C , 19-H ) :   0.9182 B( 14-C , 18-H ) :   0.9179
B( 16-C , 20-H ) :   0.9186 B( 21-C , 22-H ) :   0.9126 B( 21-C , 23-H ) :   0.9134
B( 21-C , 24-H ) :   0.8773 B( 21-C , 26-H ) :   0.9067 B( 25-C , 27-H ) :   0.8959
B( 25-C , 28-H ) :   0.9092 B( 25-C , 29-H ) :   0.9075

Dispersion correction           -0.017500351
FINAL SINGLE POINT ENERGY     -1702.390911957782
Dispersion correction            ... done

DIPOLE MOMENT
-------------
                                X             Y             Z
Electronic contribution:     -1.84430      16.70668      -8.68556
Nuclear contribution   :      2.09336     -17.33377       9.01632
                        -----------------------------------------
Total Dipole Moment    :      0.24906      -0.62709       0.33076
                        -----------------------------------------
Magnitude (a.u.)       :      0.75145
Magnitude (Debye)      :      1.91003

Rotational constants in cm-1:     0.028361     0.019837     0.017466
Rotational constants in MHz :   850.242068   594.706230   523.611938

                             ****ORCA TERMINATED NORMALLY****
TOTAL RUN TIME: 0 days 0 hours 9 minutes 1 seconds 985 msec
