                         Program Version 5.0.3 -  RELEASE  -
|  1> ! EnGrad PBEh-3c
|  2> %output
|  3> xyzfile=True
|  4> end
|  5> %scf
|  6> maxiter 250
|  7> end
|  8> %output
|  9> Print[P_Hirshfeld] = 1
| 10> end
| 11> % maxcore
| 12> 4000
| 13> *xyz 0 1
| 14> Lu   0.03169825   0.34507012  -0.19515914
| 15> C    0.28828825   1.05786800   2.31438876
| 16> C    1.21417274   0.00184881   2.17708820
| 17> C    2.23046283   0.42772481   1.31110880
| 18> C    1.93189994   1.74537845   0.89829563
| 19> C    0.73000090   2.13447288   1.52329928
| 20> H    2.55064935   2.36882688   0.27500082
| 21> H    0.26164085   3.10172276   1.46197566
| 22> H   -0.60240339   1.04942890   2.92734133
| 23> H    1.20943131  -0.92494460   2.74347948
| 24> H    3.10055228  -0.14600631   1.01923173
| 25> C    1.05573965  -0.01911260  -2.55267074
| 26> C   -0.26279862  -0.50884231  -2.61912250
| 27> C    0.94974757  -1.91145138  -1.28576144
| 28> C    1.80584365  -0.89741744  -1.73798094
| 29> H    1.44042557   0.83227266  -3.08490697
| 30> C   -0.32609566  -1.67933924  -1.84102683
| 31> H   -1.06744907  -0.09722081  -3.20511180
| 32> H    2.85858211  -0.81284890  -1.52072118
| 33> H    1.25278012  -2.77696509  -0.69738775
| 34> H   -1.20832550  -2.30219287  -1.72471563
| 35> C   -2.13914627  -1.70957065   1.36932826
| 36> H   -2.41084429  -1.48538520   2.41316851
| 37> H   -2.90565410  -2.43187011   1.02410664
| 38> H   -2.36190112  -0.79641431   0.80735753
| 39> C   -1.83808583   1.65189104  -0.65877385
| 40> H   -1.21372693  -2.04207378   1.28117341
| 41> H   -1.52942235   2.50562584  -1.31008112
| 42> H   -2.41668137   2.17448477   0.14372797
| 43> H   -2.63836878   1.16994531  -1.26827709
| 44> *
| 45>
| 46>                          ****END OF INPUT****

CARTESIAN COORDINATES (ANGSTROEM)
---------------------------------
  Lu     0.031698    0.345070   -0.195159
  C      0.288288    1.057868    2.314389
  C      1.214173    0.001849    2.177088
  C      2.230463    0.427725    1.311109
  C      1.931900    1.745378    0.898296
  C      0.730001    2.134473    1.523299
  H      2.550649    2.368827    0.275001
  H      0.261641    3.101723    1.461976
  H     -0.602403    1.049429    2.927341
  H      1.209431   -0.924945    2.743479
  H      3.100552   -0.146006    1.019232
  C      1.055740   -0.019113   -2.552671
  C     -0.262799   -0.508842   -2.619122
  C      0.949748   -1.911451   -1.285761
  C      1.805844   -0.897417   -1.737981
  H      1.440426    0.832273   -3.084907
  C     -0.326096   -1.679339   -1.841027
  H     -1.067449   -0.097221   -3.205112
  H      2.858582   -0.812849   -1.520721
  H      1.252780   -2.776965   -0.697388
  H     -1.208325   -2.302193   -1.724716
  C     -2.139146   -1.709571    1.369328
  H     -2.410844   -1.485385    2.413169
  H     -2.905654   -2.431870    1.024107
  H     -2.361901   -0.796414    0.807358
  C     -1.838086    1.651891   -0.658774
  H     -1.213727   -2.042074    1.281173
  H     -1.529422    2.505626   -1.310081
  H     -2.416681    2.174485    0.143728
  H     -2.638369    1.169945   -1.268277

 Total Charge           Charge          ....    0
 Multiplicity           Mult            ....    1
 Number of Electrons    NEL             ....  132
 Basis Dimension        Dim             ....  295

ORBITAL ENERGIES
----------------

  NO   OCC          E(Eh)            E(eV)
   0   2.0000     -19.250859      -523.8425
   1   2.0000     -12.623381      -343.4997
   2   2.0000     -12.620889      -343.4318
   3   2.0000     -12.620325      -343.4165
   4   2.0000     -10.445389      -284.2335
   5   2.0000     -10.445325      -284.2317
   6   2.0000     -10.444751      -284.2161
   7   2.0000     -10.444409      -284.2068
   8   2.0000     -10.443963      -284.1947
   9   2.0000     -10.442462      -284.1538
  10   2.0000     -10.442282      -284.1489
  11   2.0000     -10.441995      -284.1411
  12   2.0000     -10.440656      -284.1047
  13   2.0000     -10.440064      -284.0886
  14   2.0000     -10.435021      -283.9514
  15   2.0000     -10.368341      -282.1369
  16   2.0000      -5.892437      -160.3414
  17   2.0000      -5.892146      -160.3334
  18   2.0000      -5.891534      -160.3168
  19   2.0000      -5.890124      -160.2784
  20   2.0000      -5.889894      -160.2722
  21   2.0000      -2.434480       -66.2456
  22   2.0000      -1.272842       -34.6358
  23   2.0000      -1.272037       -34.6139
  24   2.0000      -1.261439       -34.3255
  25   2.0000      -0.979094       -26.6425
  26   2.0000      -0.970832       -26.4177
  27   2.0000      -0.810669       -22.0594
  28   2.0000      -0.793510       -21.5925
  29   2.0000      -0.792023       -21.5520
  30   2.0000      -0.790689       -21.5157
  31   2.0000      -0.789281       -21.4774
  32   2.0000      -0.700191       -19.0532
  33   2.0000      -0.613050       -16.6819
  34   2.0000      -0.610750       -16.6194
  35   2.0000      -0.608713       -16.5639
  36   2.0000      -0.607855       -16.5406
  37   2.0000      -0.595117       -16.1939
  38   2.0000      -0.590763       -16.0755
  39   2.0000      -0.560217       -15.2443
  40   2.0000      -0.558883       -15.2080
  41   2.0000      -0.558772       -15.2050
  42   2.0000      -0.557670       -15.1750
  43   2.0000      -0.557068       -15.1586
  44   2.0000      -0.555813       -15.1244
  45   2.0000      -0.554224       -15.0812
  46   2.0000      -0.507394       -13.8069
  47   2.0000      -0.470581       -12.8052
  48   2.0000      -0.460578       -12.5330
  49   2.0000      -0.457771       -12.4566
  50   2.0000      -0.451805       -12.2942
  51   2.0000      -0.450401       -12.2560
  52   2.0000      -0.449190       -12.2231
  53   2.0000      -0.446323       -12.1451
  54   2.0000      -0.432442       -11.7673
  55   2.0000      -0.431763       -11.7489
  56   2.0000      -0.430660       -11.7188
  57   2.0000      -0.429271       -11.6811
  58   2.0000      -0.427500       -11.6329
  59   2.0000      -0.388151       -10.5621
  60   2.0000      -0.386500       -10.5172
  61   2.0000      -0.290561        -7.9066
  62   2.0000      -0.283668        -7.7190
  63   2.0000      -0.278237        -7.5712
  64   2.0000      -0.269079        -7.3220
  65   2.0000      -0.262564        -7.1447
  66   0.0000      -0.014880        -0.4049
  67   0.0000       0.011337         0.3085
  68   0.0000       0.045298         1.2326
  69   0.0000       0.052384         1.4255
  70   0.0000       0.057170         1.5557

MULLIKEN ATOMIC CHARGES
-----------------------
   0 Lu:    0.866746
   1 C :   -0.271647
   2 C :   -0.318848
   3 C :   -0.240740
   4 C :   -0.320882
   5 C :   -0.282656
   6 H :    0.239817
   7 H :    0.246911
   8 H :    0.240293
   9 H :    0.230879
  10 H :    0.230845
  11 C :   -0.321201
  12 C :   -0.272059
  13 C :   -0.307288
  14 C :   -0.251476
  15 H :    0.240701
  16 C :   -0.281546
  17 H :    0.245759
  18 H :    0.231813
  19 H :    0.231238
  20 H :    0.237904
  21 C :   -0.964840
  22 H :    0.248681
  23 H :    0.249034
  24 H :    0.265909
  25 C :   -1.087119
  26 H :    0.263072
  27 H :    0.217130
  28 H :    0.218551
  29 H :    0.215018
Sum of atomic charges:    0.0000000

LOEWDIN ATOMIC CHARGES
----------------------
   0 Lu:    0.014676
   1 C :   -0.144008
   2 C :   -0.153132
   3 C :   -0.130170
   4 C :   -0.152424
   5 C :   -0.132527
   6 H :    0.154763
   7 H :    0.160147
   8 H :    0.154983
   9 H :    0.151231
  10 H :    0.150165
  11 C :   -0.150878
  12 C :   -0.131920
  13 C :   -0.150767
  14 C :   -0.132265
  15 H :    0.155266
  16 C :   -0.147971
  17 H :    0.159650
  18 H :    0.150288
  19 H :    0.151806
  20 H :    0.153539
  21 C :   -0.499245
  22 H :    0.144192
  23 H :    0.145151
  24 H :    0.167588
  25 C :   -0.640901
  26 H :    0.143412
  27 H :    0.143646
  28 H :    0.132540
  29 H :    0.133165

  Mayer bond orders larger than 0.100000
B(  0-Lu,  1-C ) :   0.2552 B(  0-Lu,  2-C ) :   0.2584 B(  0-Lu,  3-C ) :   0.2356
B(  0-Lu,  4-C ) :   0.2796 B(  0-Lu,  5-C ) :   0.2475 B(  0-Lu, 11-C ) :   0.2819
B(  0-Lu, 12-C ) :   0.2380 B(  0-Lu, 13-C ) :   0.2536 B(  0-Lu, 14-C ) :   0.2396
B(  0-Lu, 16-C ) :   0.2636 B(  0-Lu, 25-C ) :   0.8133 B(  1-C ,  2-C ) :   1.2728
B(  1-C ,  5-C ) :   1.3105 B(  1-C ,  8-H ) :   0.9132 B(  2-C ,  3-C ) :   1.3140
B(  2-C ,  9-H ) :   0.9223 B(  3-C ,  4-C ) :   1.2925 B(  3-C , 10-H ) :   0.9180
B(  4-C ,  5-C ) :   1.2755 B(  4-C ,  6-H ) :   0.9165 B(  5-C ,  7-H ) :   0.9155
B( 11-C , 12-C ) :   1.2825 B( 11-C , 14-C ) :   1.2908 B( 11-C , 15-H ) :   0.9159
B( 12-C , 16-C ) :   1.3078 B( 12-C , 17-H ) :   0.9154 B( 13-C , 14-C ) :   1.3130
B( 13-C , 16-C ) :   1.2738 B( 13-C , 19-H ) :   0.9207 B( 14-C , 18-H ) :   0.9180
B( 16-C , 20-H ) :   0.9144 B( 21-C , 22-H ) :   0.9181 B( 21-C , 23-H ) :   0.9197
B( 21-C , 24-H ) :   0.8729 B( 21-C , 26-H ) :   0.8873 B( 25-C , 27-H ) :   0.8931
B( 25-C , 28-H ) :   0.9082 B( 25-C , 29-H ) :   0.9033

Dispersion correction           -0.017504827
FINAL SINGLE POINT ENERGY     -1702.382010121735
Dispersion correction            ... done

DIPOLE MOMENT
-------------
                                X             Y             Z
Electronic contribution:     -5.56631      16.13454      -7.93257
Nuclear contribution   :      5.66667     -16.73977       8.26689
                        -----------------------------------------
Total Dipole Moment    :      0.10036      -0.60523       0.33432
                        -----------------------------------------
Magnitude (a.u.)       :      0.69867
Magnitude (Debye)      :      1.77589

Rotational constants in cm-1:     0.028505     0.019765     0.017590
Rotational constants in MHz :   854.563019   592.543800   527.329161

                             ****ORCA TERMINATED NORMALLY****
TOTAL RUN TIME: 0 days 0 hours 8 minutes 47 seconds 211 msec
