                         Program Version 5.0.3 -  RELEASE  -
|  1> ! EnGrad PBEh-3c
|  2> %output
|  3> xyzfile=True
|  4> end
|  5> %scf
|  6> maxiter 250
|  7> end
|  8> %output
|  9> Print[P_Hirshfeld] = 1
| 10> end
| 11> % maxcore
| 12> 4000
| 13> *xyz 0 1
| 14> Lu   0.03672768   0.34612782  -0.19576038
| 15> C    0.28537812   1.05574904   2.31721163
| 16> C    1.21569800   0.00633334   2.17405452
| 17> C    2.23218401   0.42791502   1.30959336
| 18> C    1.93382056   1.74386729   0.89577904
| 19> C    0.72974953   2.13145180   1.52926087
| 20> H    2.54957358   2.37015199   0.27428964
| 21> H    0.25843451   3.10309263   1.46235453
| 22> H   -0.59731774   1.04809419   2.92944600
| 23> H    1.21115440  -0.92941358   2.74262982
| 24> H    3.10069390  -0.14343946   1.01835024
| 25> C    1.05658978  -0.01783567  -2.55150284
| 26> C   -0.26342721  -0.51584336  -2.61903561
| 27> C    0.94607860  -1.90708078  -1.29023149
| 28> C    1.80842063  -0.89686762  -1.73601998
| 29> H    1.43944966   0.83389683  -3.08567139
| 30> C   -0.32654873  -1.68139491  -1.83753284
| 31> H   -1.07036490  -0.09724175  -3.20463758
| 32> H    2.85777073  -0.81104237  -1.52161765
| 33> H    1.25468551  -2.77828433  -0.69467255
| 34> H   -1.20390220  -2.30458038  -1.72557799
| 35> C   -2.25685750  -1.67365326   1.38268947
| 36> H   -2.40059982  -1.48905531   2.39763125
| 37> H   -2.88302254  -2.42544103   1.02953168
| 38> H   -2.36084449  -0.80492263   0.81026647
| 39> C   -1.85075126   1.66171209  -0.66175797
| 40> H   -1.14689773  -2.06414371   1.27225239
| 41> H   -1.52771622   2.49987795  -1.30666948
| 42> H   -2.40824987   2.16765720   0.13739324
| 43> H   -2.62990039   1.17212425  -1.26520133
| 44> *
| 45>
| 46>                          ****END OF INPUT****

CARTESIAN COORDINATES (ANGSTROEM)
---------------------------------
  Lu     0.036728    0.346128   -0.195760
  C      0.285378    1.055749    2.317212
  C      1.215698    0.006333    2.174055
  C      2.232184    0.427915    1.309593
  C      1.933821    1.743867    0.895779
  C      0.729750    2.131452    1.529261
  H      2.549574    2.370152    0.274290
  H      0.258435    3.103093    1.462355
  H     -0.597318    1.048094    2.929446
  H      1.211154   -0.929414    2.742630
  H      3.100694   -0.143439    1.018350
  C      1.056590   -0.017836   -2.551503
  C     -0.263427   -0.515843   -2.619036
  C      0.946079   -1.907081   -1.290231
  C      1.808421   -0.896868   -1.736020
  H      1.439450    0.833897   -3.085671
  C     -0.326549   -1.681395   -1.837533
  H     -1.070365   -0.097242   -3.204638
  H      2.857771   -0.811042   -1.521618
  H      1.254686   -2.778284   -0.694673
  H     -1.203902   -2.304580   -1.725578
  C     -2.256857   -1.673653    1.382689
  H     -2.400600   -1.489055    2.397631
  H     -2.883023   -2.425441    1.029532
  H     -2.360844   -0.804923    0.810266
  C     -1.850751    1.661712   -0.661758
  H     -1.146898   -2.064144    1.272252
  H     -1.527716    2.499878   -1.306669
  H     -2.408250    2.167657    0.137393
  H     -2.629900    1.172124   -1.265201

 Total Charge           Charge          ....    0
 Multiplicity           Mult            ....    1
 Number of Electrons    NEL             ....  132
 Basis Dimension        Dim             ....  295

ORBITAL ENERGIES
----------------

  NO   OCC          E(Eh)            E(eV)
   0   2.0000     -19.251464      -523.8590
   1   2.0000     -12.624000      -343.5165
   2   2.0000     -12.621473      -343.4477
   3   2.0000     -12.620947      -343.4334
   4   2.0000     -10.445778      -284.2441
   5   2.0000     -10.445574      -284.2385
   6   2.0000     -10.445014      -284.2233
   7   2.0000     -10.444372      -284.2058
   8   2.0000     -10.443379      -284.1788
   9   2.0000     -10.442808      -284.1633
  10   2.0000     -10.442435      -284.1531
  11   2.0000     -10.442280      -284.1489
  12   2.0000     -10.441616      -284.1308
  13   2.0000     -10.440780      -284.1081
  14   2.0000     -10.436927      -284.0032
  15   2.0000     -10.363439      -282.0035
  16   2.0000      -5.893052      -160.3581
  17   2.0000      -5.892751      -160.3499
  18   2.0000      -5.892163      -160.3339
  19   2.0000      -5.890734      -160.2950
  20   2.0000      -5.890502      -160.2887
  21   2.0000      -2.435056       -66.2612
  22   2.0000      -1.273368       -34.6501
  23   2.0000      -1.272622       -34.6298
  24   2.0000      -1.261741       -34.3337
  25   2.0000      -0.979774       -26.6610
  26   2.0000      -0.971469       -26.4350
  27   2.0000      -0.808756       -22.0074
  28   2.0000      -0.794248       -21.6126
  29   2.0000      -0.791713       -21.5436
  30   2.0000      -0.790705       -21.5162
  31   2.0000      -0.790165       -21.5015
  32   2.0000      -0.702976       -19.1290
  33   2.0000      -0.613456       -16.6930
  34   2.0000      -0.611258       -16.6332
  35   2.0000      -0.608993       -16.5716
  36   2.0000      -0.607587       -16.5333
  37   2.0000      -0.594854       -16.1868
  38   2.0000      -0.590885       -16.0788
  39   2.0000      -0.560829       -15.2609
  40   2.0000      -0.559479       -15.2242
  41   2.0000      -0.559379       -15.2215
  42   2.0000      -0.558254       -15.1909
  43   2.0000      -0.557689       -15.1755
  44   2.0000      -0.556408       -15.1406
  45   2.0000      -0.554810       -15.0971
  46   2.0000      -0.490286       -13.3414
  47   2.0000      -0.486055       -13.2262
  48   2.0000      -0.465999       -12.6805
  49   2.0000      -0.454641       -12.3714
  50   2.0000      -0.451863       -12.2958
  51   2.0000      -0.449902       -12.2425
  52   2.0000      -0.448259       -12.1977
  53   2.0000      -0.447129       -12.1670
  54   2.0000      -0.433423       -11.7940
  55   2.0000      -0.432121       -11.7586
  56   2.0000      -0.431289       -11.7360
  57   2.0000      -0.428885       -11.6705
  58   2.0000      -0.426844       -11.6150
  59   2.0000      -0.391617       -10.6564
  60   2.0000      -0.390515       -10.6265
  61   2.0000      -0.290891        -7.9155
  62   2.0000      -0.284024        -7.7287
  63   2.0000      -0.278028        -7.5655
  64   2.0000      -0.265601        -7.2274
  65   2.0000      -0.263241        -7.1632
  66   0.0000      -0.015952        -0.4341
  67   0.0000       0.010263         0.2793
  68   0.0000       0.043714         1.1895
  69   0.0000       0.053537         1.4568
  70   0.0000       0.056705         1.5430

MULLIKEN ATOMIC CHARGES
-----------------------
   0 Lu:    0.854367
   1 C :   -0.271842
   2 C :   -0.318332
   3 C :   -0.237506
   4 C :   -0.326347
   5 C :   -0.279849
   6 H :    0.240228
   7 H :    0.247042
   8 H :    0.240399
   9 H :    0.230334
  10 H :    0.231582
  11 C :   -0.326871
  12 C :   -0.268037
  13 C :   -0.304000
  14 C :   -0.251183
  15 H :    0.240799
  16 C :   -0.282266
  17 H :    0.245958
  18 H :    0.232443
  19 H :    0.230689
  20 H :    0.237796
  21 C :   -0.940790
  22 H :    0.262658
  23 H :    0.263552
  24 H :    0.275395
  25 C :   -1.087090
  26 H :    0.203345
  27 H :    0.217650
  28 H :    0.222661
  29 H :    0.217216
Sum of atomic charges:    0.0000000

LOEWDIN ATOMIC CHARGES
----------------------
   0 Lu:    0.016065
   1 C :   -0.144857
   2 C :   -0.152004
   3 C :   -0.129674
   4 C :   -0.153514
   5 C :   -0.131113
   6 H :    0.155060
   7 H :    0.160098
   8 H :    0.155080
   9 H :    0.151116
  10 H :    0.150558
  11 C :   -0.151515
  12 C :   -0.130982
  13 C :   -0.149226
  14 C :   -0.132741
  15 H :    0.155362
  16 C :   -0.148832
  17 H :    0.159585
  18 H :    0.150653
  19 H :    0.151699
  20 H :    0.153744
  21 C :   -0.486369
  22 H :    0.142577
  23 H :    0.142574
  24 H :    0.159546
  25 C :   -0.647309
  26 H :    0.144916
  27 H :    0.143329
  28 H :    0.132918
  29 H :    0.133257

  Mayer bond orders larger than 0.100000
B(  0-Lu,  1-C ) :   0.2543 B(  0-Lu,  2-C ) :   0.2586 B(  0-Lu,  3-C ) :   0.2359
B(  0-Lu,  4-C ) :   0.2823 B(  0-Lu,  5-C ) :   0.2482 B(  0-Lu, 11-C ) :   0.2839
B(  0-Lu, 12-C ) :   0.2383 B(  0-Lu, 13-C ) :   0.2533 B(  0-Lu, 14-C ) :   0.2412
B(  0-Lu, 16-C ) :   0.2622 B(  0-Lu, 25-C ) :   0.8219 B(  1-C ,  2-C ) :   1.2718
B(  1-C ,  5-C ) :   1.3117 B(  1-C ,  8-H ) :   0.9140 B(  2-C ,  3-C ) :   1.3155
B(  2-C ,  9-H ) :   0.9218 B(  3-C ,  4-C ) :   1.2897 B(  3-C , 10-H ) :   0.9179
B(  4-C ,  5-C ) :   1.2747 B(  4-C ,  6-H ) :   0.9166 B(  5-C ,  7-H ) :   0.9146
B( 11-C , 12-C ) :   1.2830 B( 11-C , 14-C ) :   1.2881 B( 11-C , 15-H ) :   0.9159
B( 12-C , 16-C ) :   1.3080 B( 12-C , 17-H ) :   0.9145 B( 13-C , 14-C ) :   1.3131
B( 13-C , 16-C ) :   1.2747 B( 13-C , 19-H ) :   0.9201 B( 14-C , 18-H ) :   0.9180
B( 16-C , 20-H ) :   0.9154 B( 21-C , 22-H ) :   0.9081 B( 21-C , 23-H ) :   0.9092
B( 21-C , 24-H ) :   0.8698 B( 21-C , 26-H ) :   0.9144 B( 25-C , 27-H ) :   0.8944
B( 25-C , 28-H ) :   0.9080 B( 25-C , 29-H ) :   0.9040

Dispersion correction           -0.017480689
FINAL SINGLE POINT ENERGY     -1702.383277404791
Dispersion correction            ... done

DIPOLE MOMENT
-------------
                                X             Y             Z
Electronic contribution:     -5.11508      16.11196      -7.97008
Nuclear contribution   :      5.24887     -16.73641       8.31345
                        -----------------------------------------
Total Dipole Moment    :      0.13379      -0.62446       0.34336
                        -----------------------------------------
Magnitude (a.u.)       :      0.72508
Magnitude (Debye)      :      1.84301

Rotational constants in cm-1:     0.028230     0.019809     0.017448
Rotational constants in MHz :   846.321676   593.857357   523.076580

                             ****ORCA TERMINATED NORMALLY****
TOTAL RUN TIME: 0 days 0 hours 8 minutes 24 seconds 322 msec
