                         Program Version 5.0.3 -  RELEASE  -
|  1> ! EnGrad PBEh-3c
|  2> %output
|  3> xyzfile=True
|  4> end
|  5> %scf
|  6> maxiter 250
|  7> end
|  8> %output
|  9> Print[P_Hirshfeld] = 1
| 10> end
| 11> % maxcore
| 12> 4000
| 13> *xyz 0 1
| 14> Lu   0.03453834   0.35441453  -0.19967358
| 15> C    0.28969438   1.05623006   2.31940116
| 16> C    1.21789621  -0.00022522   2.17875589
| 17> C    2.23484237   0.43083188   1.30780918
| 18> C    1.93119327   1.74324647   0.89658541
| 19> C    0.73004892   2.13291286   1.53209766
| 20> H    2.54807202   2.37232916   0.27281671
| 21> H    0.25522712   3.10077675   1.46290020
| 22> H   -0.59437398   1.04572514   2.93446470
| 23> H    1.21341998  -0.93029746   2.73735450
| 24> H    3.10199113  -0.14127447   1.01710105
| 25> C    1.05524346  -0.01976099  -2.54950825
| 26> C   -0.26380337  -0.51727234  -2.62177336
| 27> C    0.95186630  -1.91437830  -1.28500200
| 28> C    1.80647492  -0.89336045  -1.73840574
| 29> H    1.43733980   0.83590987  -3.08640919
| 30> C   -0.32809086  -1.68337626  -1.83936026
| 31> H   -1.07262094  -0.09869143  -3.20149005
| 32> H    2.85906425  -0.80932056  -1.52183703
| 33> H    1.25419627  -2.77425583  -0.69461386
| 34> H   -1.19929845  -2.30914095  -1.72590068
| 35> C   -2.23627635  -1.67678295   1.37888580
| 36> H   -2.40257025  -1.48623991   2.40685120
| 37> H   -2.88357979  -2.43827862   1.02820185
| 38> H   -2.37116878  -0.79340402   0.80289390
| 39> C   -1.84921478   1.66163874  -0.66347154
| 40> H   -1.17708406  -2.05083283   1.27129819
| 41> H   -1.52451265   2.49756441  -1.30599249
| 42> H   -2.40419978   2.16465372   0.13637139
| 43> H   -2.62574286   1.17288275  -1.26569705
| 44> *
| 45>
| 46>                          ****END OF INPUT****

CARTESIAN COORDINATES (ANGSTROEM)
---------------------------------
  Lu     0.034538    0.354415   -0.199674
  C      0.289694    1.056230    2.319401
  C      1.217896   -0.000225    2.178756
  C      2.234842    0.430832    1.307809
  C      1.931193    1.743246    0.896585
  C      0.730049    2.132913    1.532098
  H      2.548072    2.372329    0.272817
  H      0.255227    3.100777    1.462900
  H     -0.594374    1.045725    2.934465
  H      1.213420   -0.930297    2.737354
  H      3.101991   -0.141274    1.017101
  C      1.055243   -0.019761   -2.549508
  C     -0.263803   -0.517272   -2.621773
  C      0.951866   -1.914378   -1.285002
  C      1.806475   -0.893360   -1.738406
  H      1.437340    0.835910   -3.086409
  C     -0.328091   -1.683376   -1.839360
  H     -1.072621   -0.098691   -3.201490
  H      2.859064   -0.809321   -1.521837
  H      1.254196   -2.774256   -0.694614
  H     -1.199298   -2.309141   -1.725901
  C     -2.236276   -1.676783    1.378886
  H     -2.402570   -1.486240    2.406851
  H     -2.883580   -2.438279    1.028202
  H     -2.371169   -0.793404    0.802894
  C     -1.849215    1.661639   -0.663472
  H     -1.177084   -2.050833    1.271298
  H     -1.524513    2.497564   -1.305992
  H     -2.404200    2.164654    0.136371
  H     -2.625743    1.172883   -1.265697

 Total Charge           Charge          ....    0
 Multiplicity           Mult            ....    1
 Number of Electrons    NEL             ....  132
 Basis Dimension        Dim             ....  295

ORBITAL ENERGIES
----------------

  NO   OCC          E(Eh)            E(eV)
   0   2.0000     -19.251558      -523.8615
   1   2.0000     -12.624090      -343.5190
   2   2.0000     -12.621577      -343.4506
   3   2.0000     -12.621035      -343.4358
   4   2.0000     -10.445741      -284.2431
   5   2.0000     -10.445513      -284.2369
   6   2.0000     -10.445135      -284.2266
   7   2.0000     -10.444770      -284.2166
   8   2.0000     -10.443923      -284.1936
   9   2.0000     -10.442873      -284.1650
  10   2.0000     -10.442714      -284.1607
  11   2.0000     -10.442512      -284.1552
  12   2.0000     -10.441454      -284.1264
  13   2.0000     -10.440816      -284.1091
  14   2.0000     -10.436207      -283.9836
  15   2.0000     -10.362935      -281.9898
  16   2.0000      -5.893145      -160.3606
  17   2.0000      -5.892850      -160.3526
  18   2.0000      -5.892253      -160.3364
  19   2.0000      -5.890833      -160.2977
  20   2.0000      -5.890598      -160.2913
  21   2.0000      -2.435158       -66.2640
  22   2.0000      -1.273487       -34.6533
  23   2.0000      -1.272571       -34.6284
  24   2.0000      -1.261867       -34.3371
  25   2.0000      -0.978661       -26.6307
  26   2.0000      -0.970471       -26.4079
  27   2.0000      -0.806878       -21.9563
  28   2.0000      -0.793873       -21.6024
  29   2.0000      -0.791414       -21.5355
  30   2.0000      -0.790576       -21.5127
  31   2.0000      -0.789911       -21.4946
  32   2.0000      -0.704508       -19.1706
  33   2.0000      -0.613418       -16.6920
  34   2.0000      -0.611176       -16.6309
  35   2.0000      -0.609126       -16.5752
  36   2.0000      -0.608186       -16.5496
  37   2.0000      -0.595216       -16.1967
  38   2.0000      -0.590975       -16.0813
  39   2.0000      -0.560933       -15.2638
  40   2.0000      -0.559566       -15.2266
  41   2.0000      -0.559463       -15.2238
  42   2.0000      -0.558389       -15.1945
  43   2.0000      -0.557781       -15.1780
  44   2.0000      -0.556518       -15.1436
  45   2.0000      -0.554909       -15.0998
  46   2.0000      -0.484159       -13.1746
  47   2.0000      -0.478549       -13.0220
  48   2.0000      -0.469166       -12.7667
  49   2.0000      -0.458899       -12.4873
  50   2.0000      -0.452173       -12.3043
  51   2.0000      -0.449798       -12.2396
  52   2.0000      -0.449352       -12.2275
  53   2.0000      -0.448345       -12.2001
  54   2.0000      -0.432469       -11.7681
  55   2.0000      -0.431851       -11.7513
  56   2.0000      -0.430408       -11.7120
  57   2.0000      -0.429519       -11.6878
  58   2.0000      -0.428210       -11.6522
  59   2.0000      -0.393035       -10.6950
  60   2.0000      -0.392105       -10.6697
  61   2.0000      -0.290830        -7.9139
  62   2.0000      -0.283620        -7.7177
  63   2.0000      -0.277911        -7.5623
  64   2.0000      -0.266010        -7.2385
  65   2.0000      -0.262955        -7.1554
  66   0.0000      -0.016044        -0.4366
  67   0.0000       0.010655         0.2899
  68   0.0000       0.044268         1.2046
  69   0.0000       0.053211         1.4479
  70   0.0000       0.056937         1.5493

MULLIKEN ATOMIC CHARGES
-----------------------
   0 Lu:    0.859836
   1 C :   -0.274003
   2 C :   -0.317661
   3 C :   -0.237093
   4 C :   -0.329597
   5 C :   -0.278148
   6 H :    0.240254
   7 H :    0.247853
   8 H :    0.239930
   9 H :    0.230839
  10 H :    0.231223
  11 C :   -0.329234
  12 C :   -0.265172
  13 C :   -0.303129
  14 C :   -0.250781
  15 H :    0.241091
  16 C :   -0.286859
  17 H :    0.246603
  18 H :    0.231986
  19 H :    0.231373
  20 H :    0.237447
  21 C :   -0.946079
  22 H :    0.257975
  23 H :    0.258803
  24 H :    0.271062
  25 C :   -1.090684
  26 H :    0.220100
  27 H :    0.218706
  28 H :    0.224272
  29 H :    0.219092
Sum of atomic charges:    0.0000000

LOEWDIN ATOMIC CHARGES
----------------------
   0 Lu:    0.021399
   1 C :   -0.143799
   2 C :   -0.153163
   3 C :   -0.129107
   4 C :   -0.154167
   5 C :   -0.133050
   6 H :    0.155228
   7 H :    0.160431
   8 H :    0.154621
   9 H :    0.150933
  10 H :    0.150172
  11 C :   -0.152668
  12 C :   -0.131911
  13 C :   -0.150515
  14 C :   -0.131847
  15 H :    0.155835
  16 C :   -0.148049
  17 H :    0.159730
  18 H :    0.150443
  19 H :    0.151450
  20 H :    0.152949
  21 C :   -0.492445
  22 H :    0.142699
  23 H :    0.142862
  24 H :    0.161474
  25 C :   -0.647903
  26 H :    0.146105
  27 H :    0.144176
  28 H :    0.133870
  29 H :    0.134245

  Mayer bond orders larger than 0.100000
B(  0-Lu,  1-C ) :   0.2532 B(  0-Lu,  2-C ) :   0.2575 B(  0-Lu,  3-C ) :   0.2345
B(  0-Lu,  4-C ) :   0.2825 B(  0-Lu,  5-C ) :   0.2482 B(  0-Lu, 11-C ) :   0.2844
B(  0-Lu, 12-C ) :   0.2376 B(  0-Lu, 13-C ) :   0.2525 B(  0-Lu, 14-C ) :   0.2397
B(  0-Lu, 16-C ) :   0.2618 B(  0-Lu, 25-C ) :   0.8234 B(  1-C ,  2-C ) :   1.2739
B(  1-C ,  5-C ) :   1.3131 B(  1-C ,  8-H ) :   0.9139 B(  2-C ,  3-C ) :   1.3142
B(  2-C ,  9-H ) :   0.9221 B(  3-C ,  4-C ) :   1.2932 B(  3-C , 10-H ) :   0.9181
B(  4-C ,  5-C ) :   1.2711 B(  4-C ,  6-H ) :   0.9163 B(  5-C ,  7-H ) :   0.9139
B( 11-C , 12-C ) :   1.2791 B( 11-C , 14-C ) :   1.2904 B( 11-C , 15-H ) :   0.9156
B( 12-C , 16-C ) :   1.3110 B( 12-C , 17-H ) :   0.9139 B( 13-C , 14-C ) :   1.3129
B( 13-C , 16-C ) :   1.2750 B( 13-C , 19-H ) :   0.9206 B( 14-C , 18-H ) :   0.9181
B( 16-C , 20-H ) :   0.9156 B( 21-C , 22-H ) :   0.9112 B( 21-C , 23-H ) :   0.9122
B( 21-C , 24-H ) :   0.8726 B( 21-C , 26-H ) :   0.9072 B( 25-C , 27-H ) :   0.8935
B( 25-C , 28-H ) :   0.9074 B( 25-C , 29-H ) :   0.9034

Dispersion correction           -0.017477990
FINAL SINGLE POINT ENERGY     -1702.390431199078
Dispersion correction            ... done

DIPOLE MOMENT
-------------
                                X             Y             Z
Electronic contribution:     -5.26246      16.55351      -8.17770
Nuclear contribution   :      5.39399     -17.16195       8.50989
                        -----------------------------------------
Total Dipole Moment    :      0.13153      -0.60844       0.33219
                        -----------------------------------------
Magnitude (a.u.)       :      0.70559
Magnitude (Debye)      :      1.79345

Rotational constants in cm-1:     0.028236     0.019761     0.017461
Rotational constants in MHz :   846.484493   592.433334   523.482187

                             ****ORCA TERMINATED NORMALLY****
TOTAL RUN TIME: 0 days 0 hours 8 minutes 30 seconds 116 msec
