                         Program Version 5.0.3 -  RELEASE  -
|  1> ! EnGrad PBEh-3c
|  2> %output
|  3> xyzfile=True
|  4> end
|  5> %scf
|  6> maxiter 250
|  7> end
|  8> %output
|  9> Print[P_Hirshfeld] = 1
| 10> end
| 11> % maxcore
| 12> 4000
| 13> *xyz 0 1
| 14> Lu   0.03444757   0.38408110  -0.21431913
| 15> C    0.30445293   1.05086001   2.33184393
| 16> C    1.23107713  -0.00754300   2.18338356
| 17> C    2.23821514   0.43555409   1.30667460
| 18> C    1.92492752   1.74687064   0.89495965
| 19> C    0.73120259   2.13597394   1.54586777
| 20> H    2.53901602   2.37950332   0.26821046
| 21> H    0.24048110   3.09234036   1.46550010
| 22> H   -0.57925928   1.03589104   2.95594595
| 23> H    1.22296035  -0.94319148   2.71888187
| 24> H    3.10928419  -0.13137915   1.01026706
| 25> C    1.04859427  -0.01799895  -2.54883510
| 26> C   -0.26642371  -0.52936595  -2.62911094
| 27> C    0.96078932  -1.92022637  -1.28150651
| 28> C    1.80433457  -0.88986831  -1.73740358
| 29> H    1.42669406   0.84092564  -3.08690598
| 30> C   -0.31964749  -1.69139329  -1.84013222
| 31> H   -1.08360290  -0.10412125  -3.18931844
| 32> H    2.86109967  -0.80017103  -1.52416805
| 33> H    1.25669305  -2.76676877  -0.68652875
| 34> H   -1.18359926  -2.33204365  -1.72717580
| 35> C   -2.19784153  -1.67767662   1.36714735
| 36> H   -2.40872443  -1.47538710   2.43232396
| 37> H   -2.87571954  -2.48065141   1.02762255
| 38> H   -2.41665851  -0.75643817   0.77892894
| 39> C   -1.84431806   1.66350877  -0.67185206
| 40> H   -1.27299321  -2.00268350   1.26321395
| 41> H   -1.50899863   2.48940005  -1.30459124
| 42> H   -2.38597443   2.15158893   0.13484216
| 43> H   -2.60867468   1.17370724  -1.26968694
| 44> *
| 45>
| 46>                          ****END OF INPUT****

CARTESIAN COORDINATES (ANGSTROEM)
---------------------------------
  Lu     0.034448    0.384081   -0.214319
  C      0.304453    1.050860    2.331844
  C      1.231077   -0.007543    2.183384
  C      2.238215    0.435554    1.306675
  C      1.924928    1.746871    0.894960
  C      0.731203    2.135974    1.545868
  H      2.539016    2.379503    0.268210
  H      0.240481    3.092340    1.465500
  H     -0.579259    1.035891    2.955946
  H      1.222960   -0.943191    2.718882
  H      3.109284   -0.131379    1.010267
  C      1.048594   -0.017999   -2.548835
  C     -0.266424   -0.529366   -2.629111
  C      0.960789   -1.920226   -1.281507
  C      1.804335   -0.889868   -1.737404
  H      1.426694    0.840926   -3.086906
  C     -0.319647   -1.691393   -1.840132
  H     -1.083603   -0.104121   -3.189318
  H      2.861100   -0.800171   -1.524168
  H      1.256693   -2.766769   -0.686529
  H     -1.183599   -2.332044   -1.727176
  C     -2.197842   -1.677677    1.367147
  H     -2.408724   -1.475387    2.432324
  H     -2.875720   -2.480651    1.027623
  H     -2.416659   -0.756438    0.778929
  C     -1.844318    1.663509   -0.671852
  H     -1.272993   -2.002683    1.263214
  H     -1.508999    2.489400   -1.304591
  H     -2.385974    2.151589    0.134842
  H     -2.608675    1.173707   -1.269687

 Total Charge           Charge          ....    0
 Multiplicity           Mult            ....    1
 Number of Electrons    NEL             ....  132
 Basis Dimension        Dim             ....  295

ORBITAL ENERGIES
----------------

  NO   OCC          E(Eh)            E(eV)
   0   2.0000     -19.251869      -523.8700
   1   2.0000     -12.624377      -343.5268
   2   2.0000     -12.621920      -343.4599
   3   2.0000     -12.621333      -343.4439
   4   2.0000     -10.445641      -284.2403
   5   2.0000     -10.445370      -284.2330
   6   2.0000     -10.445006      -284.2231
   7   2.0000     -10.444723      -284.2154
   8   2.0000     -10.444113      -284.1988
   9   2.0000     -10.443518      -284.1826
  10   2.0000     -10.442648      -284.1589
  11   2.0000     -10.442576      -284.1569
  12   2.0000     -10.441550      -284.1290
  13   2.0000     -10.441065      -284.1158
  14   2.0000     -10.434405      -283.9346
  15   2.0000     -10.360967      -281.9363
  16   2.0000      -5.893440      -160.3686
  17   2.0000      -5.893168      -160.3613
  18   2.0000      -5.892551      -160.3445
  19   2.0000      -5.891160      -160.3066
  20   2.0000      -5.890920      -160.3001
  21   2.0000      -2.435506       -66.2735
  22   2.0000      -1.273839       -34.6629
  23   2.0000      -1.272593       -34.6290
  24   2.0000      -1.262393       -34.3515
  25   2.0000      -0.977660       -26.6035
  26   2.0000      -0.969775       -26.3889
  27   2.0000      -0.807396       -21.9704
  28   2.0000      -0.793232       -21.5849
  29   2.0000      -0.791364       -21.5341
  30   2.0000      -0.790374       -21.5072
  31   2.0000      -0.789098       -21.4725
  32   2.0000      -0.709360       -19.3027
  33   2.0000      -0.613226       -16.6867
  34   2.0000      -0.610993       -16.6260
  35   2.0000      -0.609125       -16.5751
  36   2.0000      -0.608202       -16.5500
  37   2.0000      -0.595070       -16.1927
  38   2.0000      -0.590476       -16.0677
  39   2.0000      -0.561270       -15.2729
  40   2.0000      -0.559853       -15.2344
  41   2.0000      -0.559738       -15.2312
  42   2.0000      -0.558761       -15.2046
  43   2.0000      -0.558088       -15.1863
  44   2.0000      -0.556877       -15.1534
  45   2.0000      -0.555238       -15.1088
  46   2.0000      -0.493068       -13.4171
  47   2.0000      -0.470769       -12.8103
  48   2.0000      -0.462251       -12.5785
  49   2.0000      -0.458492       -12.4762
  50   2.0000      -0.452484       -12.3127
  51   2.0000      -0.451221       -12.2783
  52   2.0000      -0.449465       -12.2306
  53   2.0000      -0.446775       -12.1574
  54   2.0000      -0.432323       -11.7641
  55   2.0000      -0.431437       -11.7400
  56   2.0000      -0.429812       -11.6958
  57   2.0000      -0.428747       -11.6668
  58   2.0000      -0.428303       -11.6547
  59   2.0000      -0.398395       -10.8409
  60   2.0000      -0.398006       -10.8303
  61   2.0000      -0.290537        -7.9059
  62   2.0000      -0.283218        -7.7068
  63   2.0000      -0.278076        -7.5668
  64   2.0000      -0.266414        -7.2495
  65   2.0000      -0.262088        -7.1318
  66   0.0000      -0.017238        -0.4691
  67   0.0000       0.012445         0.3386
  68   0.0000       0.044281         1.2050
  69   0.0000       0.052024         1.4156
  70   0.0000       0.057308         1.5594

MULLIKEN ATOMIC CHARGES
-----------------------
   0 Lu:    0.871736
   1 C :   -0.281953
   2 C :   -0.309347
   3 C :   -0.234952
   4 C :   -0.345041
   5 C :   -0.272193
   6 H :    0.241058
   7 H :    0.250015
   8 H :    0.238500
   9 H :    0.231074
  10 H :    0.230237
  11 C :   -0.344126
  12 C :   -0.254252
  13 C :   -0.291852
  14 C :   -0.253165
  15 H :    0.242183
  16 C :   -0.298168
  17 H :    0.248203
  18 H :    0.231175
  19 H :    0.231450
  20 H :    0.235683
  21 C :   -0.955589
  22 H :    0.244349
  23 H :    0.245804
  24 H :    0.259078
  25 C :   -1.099416
  26 H :    0.263693
  27 H :    0.222033
  28 H :    0.229080
  29 H :    0.224707
Sum of atomic charges:   -0.0000000

LOEWDIN ATOMIC CHARGES
----------------------
   0 Lu:    0.037255
   1 C :   -0.143957
   2 C :   -0.153844
   3 C :   -0.128457
   4 C :   -0.157959
   5 C :   -0.135973
   6 H :    0.155721
   7 H :    0.160830
   8 H :    0.153715
   9 H :    0.150535
  10 H :    0.149610
  11 C :   -0.156516
  12 C :   -0.133161
  13 C :   -0.150918
  14 C :   -0.131831
  15 H :    0.156467
  16 C :   -0.148527
  17 H :    0.159880
  18 H :    0.150122
  19 H :    0.150921
  20 H :    0.151828
  21 C :   -0.499414
  22 H :    0.143130
  23 H :    0.143194
  24 H :    0.167102
  25 C :   -0.650611
  26 H :    0.140004
  27 H :    0.146881
  28 H :    0.136797
  29 H :    0.137179

  Mayer bond orders larger than 0.100000
B(  0-Lu,  1-C ) :   0.2502 B(  0-Lu,  2-C ) :   0.2493 B(  0-Lu,  3-C ) :   0.2307
B(  0-Lu,  4-C ) :   0.2874 B(  0-Lu,  5-C ) :   0.2479 B(  0-Lu, 11-C ) :   0.2900
B(  0-Lu, 12-C ) :   0.2350 B(  0-Lu, 13-C ) :   0.2453 B(  0-Lu, 14-C ) :   0.2384
B(  0-Lu, 16-C ) :   0.2578 B(  0-Lu, 25-C ) :   0.8301 B(  1-C ,  2-C ) :   1.2782
B(  1-C ,  5-C ) :   1.3156 B(  1-C ,  8-H ) :   0.9143 B(  2-C ,  3-C ) :   1.3191
B(  2-C ,  9-H ) :   0.9215 B(  3-C ,  4-C ) :   1.2927 B(  3-C , 10-H ) :   0.9185
B(  4-C ,  5-C ) :   1.2656 B(  4-C ,  6-H ) :   0.9158 B(  5-C ,  7-H ) :   0.9111
B( 11-C , 12-C ) :   1.2746 B( 11-C , 14-C ) :   1.2881 B( 11-C , 15-H ) :   0.9148
B( 12-C , 16-C ) :   1.3151 B( 12-C , 17-H ) :   0.9113 B( 13-C , 14-C ) :   1.3164
B( 13-C , 16-C ) :   1.2789 B( 13-C , 19-H ) :   0.9207 B( 14-C , 18-H ) :   0.9185
B( 16-C , 20-H ) :   0.9166 B( 21-C , 22-H ) :   0.9209 B( 21-C , 23-H ) :   0.9214
B( 21-C , 24-H ) :   0.8826 B( 21-C , 26-H ) :   0.8822 B( 25-C , 27-H ) :   0.8904
B( 25-C , 28-H ) :   0.9056 B( 25-C , 29-H ) :   0.9020

Dispersion correction           -0.017467387
FINAL SINGLE POINT ENERGY     -1702.383029246682
Dispersion correction            ... done

DIPOLE MOMENT
-------------
                                X             Y             Z
Electronic contribution:     -5.37177      18.07251      -8.92535
Nuclear contribution   :      5.48787     -18.63895       9.23197
                        -----------------------------------------
Total Dipole Moment    :      0.11610      -0.56643       0.30662
                        -----------------------------------------
Magnitude (a.u.)       :      0.65448
Magnitude (Debye)      :      1.66355

Rotational constants in cm-1:     0.028237     0.019629     0.017479
Rotational constants in MHz :   846.515360   588.453925   523.996250

                             ****ORCA TERMINATED NORMALLY****
TOTAL RUN TIME: 0 days 0 hours 8 minutes 30 seconds 416 msec
