                         Program Version 5.0.3 -  RELEASE  -
|  1> ! EnGrad PBEh-3c
|  2> %output
|  3> xyzfile=True
|  4> end
|  5> %scf
|  6> maxiter 250
|  7> end
|  8> %output
|  9> Print[P_Hirshfeld] = 1
| 10> end
| 11> % maxcore
| 12> 4000
| 13> *xyz 0 1
| 14> Lu   0.04660625   0.37940246  -0.21324859
| 15> C    0.30167869   1.05058298   2.32991686
| 16> C    1.23045071  -0.00988844   2.18412529
| 17> C    2.23940914   0.43628399   1.30199315
| 18> C    1.92305210   1.74706462   0.89597342
| 19> C    0.73175967   2.13544854   1.54707865
| 20> H    2.53866873   2.38033585   0.26637609
| 21> H    0.23889470   3.09174715   1.46565372
| 22> H   -0.57826059   1.03498444   2.95899321
| 23> H    1.22271357  -0.94274217   2.71405016
| 24> H    3.10915517  -0.13012902   1.00977740
| 25> C    1.04732028  -0.02038833  -2.54749972
| 26> C   -0.26579355  -0.52842301  -2.62950407
| 27> C    0.96313854  -1.92142482  -1.27871325
| 28> C    1.80342603  -0.88511384  -1.73731022
| 29> H    1.42639393   0.84271627  -3.08731394
| 30> C   -0.32541892  -1.69171340  -1.83841798
| 31> H   -1.08452808  -0.10485173  -3.18824312
| 32> H    2.86142602  -0.79886714  -1.52363964
| 33> H    1.25544082  -2.76277396  -0.68638032
| 34> H   -1.18114350  -2.33369207  -1.72653571
| 35> C   -2.24392783  -1.66104883   1.37257412
| 36> H   -2.40995560  -1.47223495   2.43677366
| 37> H   -2.87951443  -2.48492123   1.02489217
| 38> H   -2.42228318  -0.75321035   0.77694668
| 39> C   -1.84494115   1.66517271  -0.67409879
| 40> H   -1.22583703  -2.01545635   1.25616293
| 41> H   -1.50557584   2.49121367  -1.30660994
| 42> H   -2.38343132   2.15030706   0.13975729
| 43> H   -2.60869169   1.17016273  -1.27227183
| 44> *
| 45>
| 46>                          ****END OF INPUT****

CARTESIAN COORDINATES (ANGSTROEM)
---------------------------------
  Lu     0.046606    0.379402   -0.213249
  C      0.301679    1.050583    2.329917
  C      1.230451   -0.009888    2.184125
  C      2.239409    0.436284    1.301993
  C      1.923052    1.747065    0.895973
  C      0.731760    2.135449    1.547079
  H      2.538669    2.380336    0.266376
  H      0.238895    3.091747    1.465654
  H     -0.578261    1.034984    2.958993
  H      1.222714   -0.942742    2.714050
  H      3.109155   -0.130129    1.009777
  C      1.047320   -0.020388   -2.547500
  C     -0.265794   -0.528423   -2.629504
  C      0.963139   -1.921425   -1.278713
  C      1.803426   -0.885114   -1.737310
  H      1.426394    0.842716   -3.087314
  C     -0.325419   -1.691713   -1.838418
  H     -1.084528   -0.104852   -3.188243
  H      2.861426   -0.798867   -1.523640
  H      1.255441   -2.762774   -0.686380
  H     -1.181143   -2.333692   -1.726536
  C     -2.243928   -1.661049    1.372574
  H     -2.409956   -1.472235    2.436774
  H     -2.879514   -2.484921    1.024892
  H     -2.422283   -0.753210    0.776947
  C     -1.844941    1.665173   -0.674099
  H     -1.225837   -2.015456    1.256163
  H     -1.505576    2.491214   -1.306610
  H     -2.383431    2.150307    0.139757
  H     -2.608692    1.170163   -1.272272

 Total Charge           Charge          ....    0
 Multiplicity           Mult            ....    1
 Number of Electrons    NEL             ....  132
 Basis Dimension        Dim             ....  295

ORBITAL ENERGIES
----------------

  NO   OCC          E(Eh)            E(eV)
   0   2.0000     -19.251557      -523.8615
   1   2.0000     -12.624077      -343.5186
   2   2.0000     -12.621595      -343.4511
   3   2.0000     -12.621021      -343.4354
   4   2.0000     -10.446117      -284.2533
   5   2.0000     -10.445795      -284.2445
   6   2.0000     -10.445484      -284.2361
   7   2.0000     -10.445149      -284.2269
   8   2.0000     -10.444589      -284.2117
   9   2.0000     -10.444128      -284.1992
  10   2.0000     -10.443191      -284.1737
  11   2.0000     -10.442988      -284.1682
  12   2.0000     -10.442029      -284.1421
  13   2.0000     -10.441575      -284.1297
  14   2.0000     -10.441205      -284.1196
  15   2.0000     -10.361346      -281.9466
  16   2.0000      -5.893131      -160.3602
  17   2.0000      -5.892856      -160.3528
  18   2.0000      -5.892243      -160.3361
  19   2.0000      -5.890834      -160.2977
  20   2.0000      -5.890601      -160.2914
  21   2.0000      -2.435194       -66.2650
  22   2.0000      -1.273570       -34.6556
  23   2.0000      -1.272531       -34.6273
  24   2.0000      -1.261968       -34.3399
  25   2.0000      -0.977650       -26.6032
  26   2.0000      -0.969535       -26.3824
  27   2.0000      -0.799502       -21.7556
  28   2.0000      -0.793556       -21.5937
  29   2.0000      -0.791633       -21.5414
  30   2.0000      -0.790517       -21.5111
  31   2.0000      -0.789677       -21.4882
  32   2.0000      -0.707254       -19.2454
  33   2.0000      -0.614187       -16.7129
  34   2.0000      -0.611929       -16.6514
  35   2.0000      -0.609853       -16.5949
  36   2.0000      -0.608120       -16.5478
  37   2.0000      -0.595583       -16.2066
  38   2.0000      -0.590914       -16.0796
  39   2.0000      -0.560976       -15.2649
  40   2.0000      -0.559532       -15.2256
  41   2.0000      -0.559416       -15.2225
  42   2.0000      -0.558439       -15.1959
  43   2.0000      -0.557782       -15.1780
  44   2.0000      -0.556545       -15.1444
  45   2.0000      -0.554901       -15.0996
  46   2.0000      -0.476323       -12.9614
  47   2.0000      -0.471607       -12.8331
  48   2.0000      -0.467762       -12.7285
  49   2.0000      -0.457606       -12.4521
  50   2.0000      -0.452975       -12.3261
  51   2.0000      -0.451591       -12.2884
  52   2.0000      -0.449911       -12.2427
  53   2.0000      -0.447811       -12.1855
  54   2.0000      -0.434176       -11.8145
  55   2.0000      -0.431595       -11.7443
  56   2.0000      -0.430018       -11.7014
  57   2.0000      -0.428916       -11.6714
  58   2.0000      -0.427339       -11.6285
  59   2.0000      -0.397434       -10.8147
  60   2.0000      -0.397163       -10.8074
  61   2.0000      -0.290673        -7.9096
  62   2.0000      -0.283877        -7.7247
  63   2.0000      -0.278063        -7.5665
  64   2.0000      -0.264302        -7.1920
  65   2.0000      -0.262897        -7.1538
  66   0.0000      -0.017417        -0.4739
  67   0.0000       0.011074         0.3013
  68   0.0000       0.043625         1.1871
  69   0.0000       0.052520         1.4291
  70   0.0000       0.056920         1.5489

MULLIKEN ATOMIC CHARGES
-----------------------
   0 Lu:    0.863116
   1 C :   -0.285298
   2 C :   -0.305640
   3 C :   -0.240015
   4 C :   -0.344270
   5 C :   -0.266540
   6 H :    0.241502
   7 H :    0.250368
   8 H :    0.238193
   9 H :    0.231889
  10 H :    0.230987
  11 C :   -0.341308
  12 C :   -0.250361
  13 C :   -0.290783
  14 C :   -0.256511
  15 H :    0.242472
  16 C :   -0.300882
  17 H :    0.248352
  18 H :    0.231759
  19 H :    0.232236
  20 H :    0.235831
  21 C :   -0.939285
  22 H :    0.248912
  23 H :    0.248847
  24 H :    0.265360
  25 C :   -1.092572
  26 H :    0.234235
  27 H :    0.220187
  28 H :    0.226760
  29 H :    0.222458
Sum of atomic charges:   -0.0000000

LOEWDIN ATOMIC CHARGES
----------------------
   0 Lu:    0.028925
   1 C :   -0.142906
   2 C :   -0.152832
   3 C :   -0.128494
   4 C :   -0.157306
   5 C :   -0.134557
   6 H :    0.156132
   7 H :    0.161117
   8 H :    0.153795
   9 H :    0.150504
  10 H :    0.149981
  11 C :   -0.155751
  12 C :   -0.131388
  13 C :   -0.150206
  14 C :   -0.131889
  15 H :    0.156960
  16 C :   -0.147671
  17 H :    0.159963
  18 H :    0.150645
  19 H :    0.150757
  20 H :    0.151714
  21 C :   -0.497339
  22 H :    0.142515
  23 H :    0.142410
  24 H :    0.164892
  25 C :   -0.651135
  26 H :    0.143841
  27 H :    0.145629
  28 H :    0.135724
  29 H :    0.135970

  Mayer bond orders larger than 0.100000
B(  0-Lu,  1-C ) :   0.2506 B(  0-Lu,  2-C ) :   0.2513 B(  0-Lu,  3-C ) :   0.2349
B(  0-Lu,  4-C ) :   0.2882 B(  0-Lu,  5-C ) :   0.2469 B(  0-Lu, 11-C ) :   0.2893
B(  0-Lu, 12-C ) :   0.2342 B(  0-Lu, 13-C ) :   0.2484 B(  0-Lu, 14-C ) :   0.2419
B(  0-Lu, 16-C ) :   0.2589 B(  0-Lu, 25-C ) :   0.8296 B(  1-C ,  2-C ) :   1.2785
B(  1-C ,  5-C ) :   1.3156 B(  1-C ,  8-H ) :   0.9150 B(  2-C ,  3-C ) :   1.3163
B(  2-C ,  9-H ) :   0.9212 B(  3-C ,  4-C ) :   1.2911 B(  3-C , 10-H ) :   0.9186
B(  4-C ,  5-C ) :   1.2658 B(  4-C ,  6-H ) :   0.9153 B(  5-C ,  7-H ) :   0.9108
B( 11-C , 12-C ) :   1.2754 B( 11-C , 14-C ) :   1.2867 B( 11-C , 15-H ) :   0.9143
B( 12-C , 16-C ) :   1.3156 B( 12-C , 17-H ) :   0.9113 B( 13-C , 14-C ) :   1.3135
B( 13-C , 16-C ) :   1.2781 B( 13-C , 19-H ) :   0.9205 B( 14-C , 18-H ) :   0.9184
B( 16-C , 20-H ) :   0.9173 B( 21-C , 22-H ) :   0.9155 B( 21-C , 23-H ) :   0.9167
B( 21-C , 24-H ) :   0.8782 B( 21-C , 26-H ) :   0.8969 B( 25-C , 27-H ) :   0.8916
B( 25-C , 28-H ) :   0.9066 B( 25-C , 29-H ) :   0.9032

Dispersion correction           -0.017465330
FINAL SINGLE POINT ENERGY     -1702.391953320964
Dispersion correction            ... done

DIPOLE MOMENT
-------------
                                X             Y             Z
Electronic contribution:     -4.65618      17.79776      -8.87113
Nuclear contribution   :      4.81092     -18.37753       9.18208
                        -----------------------------------------
Total Dipole Moment    :      0.15474      -0.57977       0.31096
                        -----------------------------------------
Magnitude (a.u.)       :      0.67585
Magnitude (Debye)      :      1.71787

Rotational constants in cm-1:     0.028181     0.019670     0.017440
Rotational constants in MHz :   844.853448   589.692471   522.843046

                             ****ORCA TERMINATED NORMALLY****
TOTAL RUN TIME: 0 days 0 hours 8 minutes 26 seconds 997 msec
