                         Program Version 5.0.3 -  RELEASE  -
|  1> ! EnGrad PBEh-3c
|  2> %output
|  3> xyzfile=True
|  4> end
|  5> %scf
|  6> maxiter 250
|  7> end
|  8> %output
|  9> Print[P_Hirshfeld] = 1
| 10> end
| 11> % maxcore
| 12> 4000
| 13> *xyz 0 1
| 14> Lu   0.06040699   0.37532740  -0.21274670
| 15> C    0.29997810   1.04778219   2.32953581
| 16> C    1.23180551  -0.00716808   2.18071774
| 17> C    2.23808206   0.43593756   1.29921755
| 18> C    1.92282082   1.74925030   0.89546414
| 19> C    0.73148250   2.13501947   1.54960080
| 20> H    2.53651620   2.38112603   0.26478244
| 21> H    0.23608463   3.09030093   1.46627254
| 22> H   -0.57559337   1.03324680   2.96394965
| 23> H    1.22311669  -0.94609356   2.70850367
| 24> H    3.11044235  -0.12808755   1.00804037
| 25> C    1.04601523  -0.01911473  -2.54898148
| 26> C   -0.26671227  -0.53032930  -2.62879063
| 27> C    0.96152219  -1.91628984  -1.28041160
| 28> C    1.80388457  -0.88314111  -1.73438002
| 29> H    1.42439113   0.84338178  -3.08668614
| 30> C   -0.32474994  -1.69128398  -1.83548519
| 31> H   -1.08645630  -0.10594469  -3.18644092
| 32> H    2.86101466  -0.79615065  -1.52356149
| 33> H    1.25576509  -2.76081117  -0.68304800
| 34> H   -1.17929538  -2.33868560  -1.72564993
| 35> C   -2.25860990  -1.65623671   1.37335526
| 36> H   -2.41391333  -1.46710630   2.44289976
| 37> H   -2.88427704  -2.49038604   1.02284340
| 38> H   -2.43526205  -0.74709334   0.77375737
| 39> C   -1.84378733   1.66608941  -0.67663699
| 40> H   -1.20977179  -2.01425945   1.25061185
| 41> H   -1.50042325   2.49352548  -1.30934026
| 42> H   -2.37911355   2.14792464   0.14548154
| 43> H   -2.60776843   1.16591863  -1.27593154
| 44> *
| 45>
| 46>                          ****END OF INPUT****

CARTESIAN COORDINATES (ANGSTROEM)
---------------------------------
  Lu     0.060407    0.375327   -0.212747
  C      0.299978    1.047782    2.329536
  C      1.231806   -0.007168    2.180718
  C      2.238082    0.435938    1.299218
  C      1.922821    1.749250    0.895464
  C      0.731483    2.135019    1.549601
  H      2.536516    2.381126    0.264782
  H      0.236085    3.090301    1.466273
  H     -0.575593    1.033247    2.963950
  H      1.223117   -0.946094    2.708504
  H      3.110442   -0.128088    1.008040
  C      1.046015   -0.019115   -2.548981
  C     -0.266712   -0.530329   -2.628791
  C      0.961522   -1.916290   -1.280412
  C      1.803885   -0.883141   -1.734380
  H      1.424391    0.843382   -3.086686
  C     -0.324750   -1.691284   -1.835485
  H     -1.086456   -0.105945   -3.186441
  H      2.861015   -0.796151   -1.523561
  H      1.255765   -2.760811   -0.683048
  H     -1.179295   -2.338686   -1.725650
  C     -2.258610   -1.656237    1.373355
  H     -2.413913   -1.467106    2.442900
  H     -2.884277   -2.490386    1.022843
  H     -2.435262   -0.747093    0.773757
  C     -1.843787    1.666089   -0.676637
  H     -1.209772   -2.014259    1.250612
  H     -1.500423    2.493525   -1.309340
  H     -2.379114    2.147925    0.145482
  H     -2.607768    1.165919   -1.275932

 Total Charge           Charge          ....    0
 Multiplicity           Mult            ....    1
 Number of Electrons    NEL             ....  132
 Basis Dimension        Dim             ....  295

ORBITAL ENERGIES
----------------

  NO   OCC          E(Eh)            E(eV)
   0   2.0000     -19.251100      -523.8491
   1   2.0000     -12.623625      -343.5063
   2   2.0000     -12.621131      -343.4384
   3   2.0000     -12.620561      -343.4229
   4   2.0000     -10.446399      -284.2610
   5   2.0000     -10.445908      -284.2476
   6   2.0000     -10.445805      -284.2448
   7   2.0000     -10.445320      -284.2316
   8   2.0000     -10.445227      -284.2291
   9   2.0000     -10.444663      -284.2137
  10   2.0000     -10.444380      -284.2060
  11   2.0000     -10.443523      -284.1827
  12   2.0000     -10.443251      -284.1753
  13   2.0000     -10.442634      -284.1585
  14   2.0000     -10.441967      -284.1404
  15   2.0000     -10.361954      -281.9631
  16   2.0000      -5.892670      -160.3477
  17   2.0000      -5.892396      -160.3402
  18   2.0000      -5.891782      -160.3235
  19   2.0000      -5.890363      -160.2849
  20   2.0000      -5.890137      -160.2788
  21   2.0000      -2.434745       -66.2528
  22   2.0000      -1.273164       -34.6445
  23   2.0000      -1.272395       -34.6236
  24   2.0000      -1.261481       -34.3266
  25   2.0000      -0.978537       -26.6273
  26   2.0000      -0.970208       -26.4007
  27   2.0000      -0.796058       -21.6618
  28   2.0000      -0.793927       -21.6038
  29   2.0000      -0.792066       -21.5532
  30   2.0000      -0.790641       -21.5144
  31   2.0000      -0.790234       -21.5034
  32   2.0000      -0.704852       -19.1800
  33   2.0000      -0.614146       -16.7118
  34   2.0000      -0.611912       -16.6510
  35   2.0000      -0.609992       -16.5987
  36   2.0000      -0.608745       -16.5648
  37   2.0000      -0.595912       -16.2156
  38   2.0000      -0.591245       -16.0886
  39   2.0000      -0.560535       -15.2529
  40   2.0000      -0.559067       -15.2130
  41   2.0000      -0.558942       -15.2096
  42   2.0000      -0.557953       -15.1827
  43   2.0000      -0.557323       -15.1655
  44   2.0000      -0.556072       -15.1315
  45   2.0000      -0.554424       -15.0866
  46   2.0000      -0.475289       -12.9333
  47   2.0000      -0.469404       -12.7731
  48   2.0000      -0.467016       -12.7081
  49   2.0000      -0.455860       -12.4046
  50   2.0000      -0.453108       -12.3297
  51   2.0000      -0.451298       -12.2804
  52   2.0000      -0.449703       -12.2370
  53   2.0000      -0.448425       -12.2023
  54   2.0000      -0.433943       -11.8082
  55   2.0000      -0.431447       -11.7403
  56   2.0000      -0.430963       -11.7271
  57   2.0000      -0.429420       -11.6851
  58   2.0000      -0.428511       -11.6604
  59   2.0000      -0.396359       -10.7855
  60   2.0000      -0.395944       -10.7742
  61   2.0000      -0.290853        -7.9145
  62   2.0000      -0.284735        -7.7480
  63   2.0000      -0.278336        -7.5739
  64   2.0000      -0.263955        -7.1826
  65   2.0000      -0.262026        -7.1301
  66   0.0000      -0.017681        -0.4811
  67   0.0000       0.010412         0.2833
  68   0.0000       0.043234         1.1765
  69   0.0000       0.052692         1.4338
  70   0.0000       0.056335         1.5329

MULLIKEN ATOMIC CHARGES
-----------------------
   0 Lu:    0.855590
   1 C :   -0.288001
   2 C :   -0.300908
   3 C :   -0.244642
   4 C :   -0.344301
   5 C :   -0.262166
   6 H :    0.242167
   7 H :    0.250580
   8 H :    0.238070
   9 H :    0.232378
  10 H :    0.231645
  11 C :   -0.340537
  12 C :   -0.246961
  13 C :   -0.288012
  14 C :   -0.261155
  15 H :    0.242868
  16 C :   -0.301198
  17 H :    0.248342
  18 H :    0.232544
  19 H :    0.232620
  20 H :    0.235831
  21 C :   -0.931126
  22 H :    0.248710
  23 H :    0.248689
  24 H :    0.267121
  25 C :   -1.085164
  26 H :    0.224855
  27 H :    0.218068
  28 H :    0.224184
  29 H :    0.219908
Sum of atomic charges:   -0.0000000

LOEWDIN ATOMIC CHARGES
----------------------
   0 Lu:    0.021394
   1 C :   -0.142710
   2 C :   -0.151411
   3 C :   -0.128880
   4 C :   -0.157093
   5 C :   -0.132270
   6 H :    0.156449
   7 H :    0.161081
   8 H :    0.154153
   9 H :    0.150771
  10 H :    0.150550
  11 C :   -0.154950
  12 C :   -0.129273
  13 C :   -0.148990
  14 C :   -0.132671
  15 H :    0.157035
  16 C :   -0.147435
  17 H :    0.159944
  18 H :    0.151198
  19 H :    0.151079
  20 H :    0.152220
  21 C :   -0.495984
  22 H :    0.142346
  23 H :    0.142161
  24 H :    0.165059
  25 C :   -0.651101
  26 H :    0.143627
  27 H :    0.144371
  28 H :    0.134609
  29 H :    0.134721

  Mayer bond orders larger than 0.100000
B(  0-Lu,  1-C ) :   0.2509 B(  0-Lu,  2-C ) :   0.2520 B(  0-Lu,  3-C ) :   0.2390
B(  0-Lu,  4-C ) :   0.2900 B(  0-Lu,  5-C ) :   0.2459 B(  0-Lu, 11-C ) :   0.2901
B(  0-Lu, 12-C ) :   0.2332 B(  0-Lu, 13-C ) :   0.2502 B(  0-Lu, 14-C ) :   0.2464
B(  0-Lu, 16-C ) :   0.2586 B(  0-Lu, 25-C ) :   0.8285 B(  1-C ,  2-C ) :   1.2778
B(  1-C ,  5-C ) :   1.3156 B(  1-C ,  8-H ) :   0.9158 B(  2-C ,  3-C ) :   1.3158
B(  2-C ,  9-H ) :   0.9205 B(  3-C ,  4-C ) :   1.2868 B(  3-C , 10-H ) :   0.9186
B(  4-C ,  5-C ) :   1.2677 B(  4-C ,  6-H ) :   0.9149 B(  5-C ,  7-H ) :   0.9105
B( 11-C , 12-C ) :   1.2780 B( 11-C , 14-C ) :   1.2835 B( 11-C , 15-H ) :   0.9141
B( 12-C , 16-C ) :   1.3151 B( 12-C , 17-H ) :   0.9112 B( 13-C , 14-C ) :   1.3113
B( 13-C , 16-C ) :   1.2781 B( 13-C , 19-H ) :   0.9198 B( 14-C , 18-H ) :   0.9184
B( 16-C , 20-H ) :   0.9177 B( 21-C , 22-H ) :   0.9144 B( 21-C , 23-H ) :   0.9155
B( 21-C , 24-H ) :   0.8772 B( 21-C , 26-H ) :   0.9002 B( 25-C , 27-H ) :   0.8927
B( 25-C , 28-H ) :   0.9074 B( 25-C , 29-H ) :   0.9044

Dispersion correction           -0.017469123
FINAL SINGLE POINT ENERGY     -1702.392223917878
Dispersion correction            ... done

DIPOLE MOMENT
-------------
                                X             Y             Z
Electronic contribution:     -3.91435      17.55400      -8.83136
Nuclear contribution   :      4.09850     -18.14784       9.14848
                        -----------------------------------------
Total Dipole Moment    :      0.18416      -0.59384       0.31712
                        -----------------------------------------
Magnitude (a.u.)       :      0.69794
Magnitude (Debye)      :      1.77403

Rotational constants in cm-1:     0.028212     0.019706     0.017439
Rotational constants in MHz :   845.782500   590.760339   522.811980

                             ****ORCA TERMINATED NORMALLY****
TOTAL RUN TIME: 0 days 0 hours 8 minutes 53 seconds 274 msec
