                         Program Version 5.0.3 -  RELEASE  -
|  1> ! EnGrad PBEh-3c
|  2> %output
|  3> xyzfile=True
|  4> end
|  5> %scf
|  6> maxiter 250
|  7> end
|  8> %output
|  9> Print[P_Hirshfeld] = 1
| 10> end
| 11> % maxcore
| 12> 4000
| 13> *xyz 0 1
| 14> Lu   0.09566554   0.36380850  -0.21158773
| 15> C    0.29483113   1.04206962   2.32865243
| 16> C    1.23405737  -0.00395881   2.17104180
| 17> C    2.23615177   0.43706497   1.28971853
| 18> C    1.92218681   1.75575142   0.89567102
| 19> C    0.73000394   2.13247773   1.55500945
| 20> H    2.52945657   2.38376941   0.25954740
| 21> H    0.22718710   3.08630420   1.46819618
| 22> H   -0.56732336   1.02750524   2.97734075
| 23> H    1.22332944  -0.95453053   2.68920435
| 24> H    3.11322070  -0.12169314   1.00251126
| 25> C    1.04267568  -0.01769104  -2.55268600
| 26> C   -0.26914016  -0.53287078  -2.62555550
| 27> C    0.95844414  -1.90507315  -1.27953117
| 28> C    1.80446802  -0.87414378  -1.72934670
| 29> H    1.41801245   0.84602034  -3.08498876
| 30> C   -0.32484078  -1.69137177  -1.82808652
| 31> H   -1.09247471  -0.10906368  -3.18108964
| 32> H    2.85951673  -0.78745330  -1.52255151
| 33> H    1.25534363  -2.75125245  -0.67400734
| 34> H   -1.17261577  -2.35143101  -1.72186647
| 35> C   -2.29080599  -1.64689885   1.37397333
| 36> H   -2.42455657  -1.45515173   2.44035415
| 37> H   -2.88891130  -2.48961888   1.02428895
| 38> H   -2.47253854  -0.74569423   0.77540750
| 39> C   -1.83515608   1.66497378  -0.68244748
| 40> H   -1.18534064  -2.00093652   1.23715033
| 41> H   -1.48618949   2.50059790  -1.31726373
| 42> H   -2.36334930   2.13866216   0.16064511
| 43> H   -2.60332413   1.15421606  -1.28566402
| 44> *
| 45>
| 46>                          ****END OF INPUT****

CARTESIAN COORDINATES (ANGSTROEM)
---------------------------------
  Lu     0.095666    0.363808   -0.211588
  C      0.294831    1.042070    2.328652
  C      1.234057   -0.003959    2.171042
  C      2.236152    0.437065    1.289719
  C      1.922187    1.755751    0.895671
  C      0.730004    2.132478    1.555009
  H      2.529457    2.383769    0.259547
  H      0.227187    3.086304    1.468196
  H     -0.567323    1.027505    2.977341
  H      1.223329   -0.954531    2.689204
  H      3.113221   -0.121693    1.002511
  C      1.042676   -0.017691   -2.552686
  C     -0.269140   -0.532871   -2.625555
  C      0.958444   -1.905073   -1.279531
  C      1.804468   -0.874144   -1.729347
  H      1.418012    0.846020   -3.084989
  C     -0.324841   -1.691372   -1.828087
  H     -1.092475   -0.109064   -3.181090
  H      2.859517   -0.787453   -1.522552
  H      1.255344   -2.751252   -0.674007
  H     -1.172616   -2.351431   -1.721866
  C     -2.290806   -1.646899    1.373973
  H     -2.424557   -1.455152    2.440354
  H     -2.888911   -2.489619    1.024289
  H     -2.472539   -0.745694    0.775408
  C     -1.835156    1.664974   -0.682447
  H     -1.185341   -2.000937    1.237150
  H     -1.486189    2.500598   -1.317264
  H     -2.363349    2.138662    0.160645
  H     -2.603324    1.154216   -1.285664

 Total Charge           Charge          ....    0
 Multiplicity           Mult            ....    1
 Number of Electrons    NEL             ....  132
 Basis Dimension        Dim             ....  295

ORBITAL ENERGIES
----------------

  NO   OCC          E(Eh)            E(eV)
   0   2.0000     -19.249459      -523.8044
   1   2.0000     -12.622001      -343.4621
   2   2.0000     -12.619470      -343.3932
   3   2.0000     -12.618897      -343.3776
   4   2.0000     -10.447928      -284.3026
   5   2.0000     -10.447103      -284.2801
   6   2.0000     -10.446444      -284.2622
   7   2.0000     -10.446255      -284.2570
   8   2.0000     -10.445686      -284.2416
   9   2.0000     -10.445149      -284.2270
  10   2.0000     -10.445070      -284.2248
  11   2.0000     -10.444418      -284.2071
  12   2.0000     -10.443946      -284.1942
  13   2.0000     -10.443864      -284.1920
  14   2.0000     -10.442898      -284.1657
  15   2.0000     -10.363940      -282.0171
  16   2.0000      -5.891023      -160.3029
  17   2.0000      -5.890748      -160.2954
  18   2.0000      -5.890121      -160.2783
  19   2.0000      -5.888675      -160.2390
  20   2.0000      -5.888467      -160.2333
  21   2.0000      -2.433160       -66.2097
  22   2.0000      -1.271783       -34.6070
  23   2.0000      -1.271703       -34.6048
  24   2.0000      -1.259934       -34.2845
  25   2.0000      -0.980188       -26.6723
  26   2.0000      -0.971229       -26.4285
  27   2.0000      -0.795368       -21.6431
  28   2.0000      -0.793697       -21.5976
  29   2.0000      -0.793316       -21.5872
  30   2.0000      -0.791396       -21.5350
  31   2.0000      -0.790254       -21.5039
  32   2.0000      -0.698640       -19.0110
  33   2.0000      -0.615001       -16.7350
  34   2.0000      -0.612732       -16.6733
  35   2.0000      -0.610495       -16.6124
  36   2.0000      -0.609662       -16.5898
  37   2.0000      -0.596800       -16.2397
  38   2.0000      -0.592040       -16.1102
  39   2.0000      -0.558950       -15.2098
  40   2.0000      -0.557425       -15.1683
  41   2.0000      -0.557266       -15.1640
  42   2.0000      -0.556241       -15.1361
  43   2.0000      -0.555680       -15.1208
  44   2.0000      -0.554371       -15.0852
  45   2.0000      -0.552731       -15.0406
  46   2.0000      -0.475304       -12.9337
  47   2.0000      -0.472059       -12.8454
  48   2.0000      -0.465719       -12.6729
  49   2.0000      -0.454654       -12.3718
  50   2.0000      -0.452569       -12.3150
  51   2.0000      -0.451286       -12.2801
  52   2.0000      -0.450498       -12.2587
  53   2.0000      -0.445717       -12.1286
  54   2.0000      -0.434333       -11.8188
  55   2.0000      -0.432228       -11.7615
  56   2.0000      -0.432220       -11.7613
  57   2.0000      -0.430481       -11.7140
  58   2.0000      -0.429123       -11.6770
  59   2.0000      -0.393330       -10.7030
  60   2.0000      -0.392195       -10.6722
  61   2.0000      -0.291170        -7.9231
  62   2.0000      -0.286759        -7.8031
  63   2.0000      -0.278951        -7.5906
  64   2.0000      -0.266223        -7.2443
  65   2.0000      -0.257125        -6.9967
  66   0.0000      -0.018187        -0.4949
  67   0.0000       0.008674         0.2360
  68   0.0000       0.042559         1.1581
  69   0.0000       0.053209         1.4479
  70   0.0000       0.054776         1.4905

MULLIKEN ATOMIC CHARGES
-----------------------
   0 Lu:    0.840010
   1 C :   -0.292145
   2 C :   -0.292130
   3 C :   -0.257609
   4 C :   -0.340284
   5 C :   -0.254185
   6 H :    0.243827
   7 H :    0.250930
   8 H :    0.237553
   9 H :    0.233780
  10 H :    0.233371
  11 C :   -0.333483
  12 C :   -0.242789
  13 C :   -0.284974
  14 C :   -0.273113
  15 H :    0.243934
  16 C :   -0.298689
  17 H :    0.248141
  18 H :    0.234503
  19 H :    0.233892
  20 H :    0.235890
  21 C :   -0.921171
  22 H :    0.250066
  23 H :    0.250807
  24 H :    0.272104
  25 C :   -1.067942
  26 H :    0.206071
  27 H :    0.212390
  28 H :    0.217874
  29 H :    0.213369
Sum of atomic charges:    0.0000000

LOEWDIN ATOMIC CHARGES
----------------------
   0 Lu:    0.002579
   1 C :   -0.141340
   2 C :   -0.148621
   3 C :   -0.129682
   4 C :   -0.156062
   5 C :   -0.127125
   6 H :    0.157245
   7 H :    0.161049
   8 H :    0.154868
   9 H :    0.151247
  10 H :    0.151890
  11 C :   -0.151897
  12 C :   -0.124794
  13 C :   -0.146716
  14 C :   -0.134409
  15 H :    0.157370
  16 C :   -0.145389
  17 H :    0.159965
  18 H :    0.152572
  19 H :    0.151662
  20 H :    0.153195
  21 C :   -0.492653
  22 H :    0.141838
  23 H :    0.141551
  24 H :    0.164358
  25 C :   -0.649718
  26 H :    0.142013
  27 H :    0.141342
  28 H :    0.131937
  29 H :    0.131728

  Mayer bond orders larger than 0.100000
B(  0-Lu,  1-C ) :   0.2509 B(  0-Lu,  2-C ) :   0.2551 B(  0-Lu,  3-C ) :   0.2496
B(  0-Lu,  4-C ) :   0.2928 B(  0-Lu,  5-C ) :   0.2430 B(  0-Lu, 11-C ) :   0.2896
B(  0-Lu, 12-C ) :   0.2316 B(  0-Lu, 13-C ) :   0.2564 B(  0-Lu, 14-C ) :   0.2579
B(  0-Lu, 16-C ) :   0.2577 B(  0-Lu, 25-C ) :   0.8243 B(  1-C ,  2-C ) :   1.2761
B(  1-C ,  5-C ) :   1.3163 B(  1-C ,  8-H ) :   0.9180 B(  2-C ,  3-C ) :   1.3128
B(  2-C ,  9-H ) :   0.9188 B(  3-C ,  4-C ) :   1.2780 B(  3-C , 10-H ) :   0.9186
B(  4-C ,  5-C ) :   1.2721 B(  4-C ,  6-H ) :   0.9137 B(  5-C ,  7-H ) :   0.9098
B( 11-C , 12-C ) :   1.2838 B( 11-C , 14-C ) :   1.2782 B( 11-C , 15-H ) :   0.9133
B( 12-C , 16-C ) :   1.3136 B( 12-C , 17-H ) :   0.9113 B( 13-C , 14-C ) :   1.3027
B( 13-C , 16-C ) :   1.2791 B( 13-C , 19-H ) :   0.9184 B( 14-C , 18-H ) :   0.9181
B( 16-C , 20-H ) :   0.9187 B( 21-C , 22-H ) :   0.9123 B( 21-C , 23-H ) :   0.9130
B( 21-C , 24-H ) :   0.8769 B( 21-C , 26-H ) :   0.9070 B( 25-C , 27-H ) :   0.8955
B( 25-C , 28-H ) :   0.9091 B( 25-C , 29-H ) :   0.9072

Dispersion correction           -0.017491139
FINAL SINGLE POINT ENERGY     -1702.390146206003
Dispersion correction            ... done

DIPOLE MOMENT
-------------
                                X             Y             Z
Electronic contribution:     -2.03983      16.88337      -8.73648
Nuclear contribution   :      2.28568     -17.50549       9.06514
                        -----------------------------------------
Total Dipole Moment    :      0.24585      -0.62212       0.32866
                        -----------------------------------------
Magnitude (a.u.)       :      0.74531
Magnitude (Debye)      :      1.89443

Rotational constants in cm-1:     0.028314     0.019813     0.017449
Rotational constants in MHz :   848.826304   593.972615   523.120833

                             ****ORCA TERMINATED NORMALLY****
TOTAL RUN TIME: 0 days 0 hours 8 minutes 24 seconds 273 msec
