                         Program Version 5.0.3 -  RELEASE  -
|  1> ! EnGrad PBEh-3c
|  2> %output
|  3> xyzfile=True
|  4> end
|  5> %scf
|  6> maxiter 250
|  7> end
|  8> %output
|  9> Print[P_Hirshfeld] = 1
| 10> end
| 11> % maxcore
| 12> 4000
| 13> *xyz 0 1
| 14> Lu   0.10911259   0.35281450  -0.20887350
| 15> C    0.29605133   1.03638948   2.32466534
| 16> C    1.23142607  -0.00143447   2.16073174
| 17> C    2.23375880   0.43938296   1.28604353
| 18> C    1.92310189   1.75897729   0.89755641
| 19> C    0.72500313   2.13469636   1.55441870
| 20> H    2.52461162   2.38644703   0.25568453
| 21> H    0.22343361   3.08239274   1.46985515
| 22> H   -0.56516733   1.02398356   2.98364189
| 23> H    1.22128858  -0.95949575   2.67530780
| 24> H    3.11452699  -0.11843556   0.99763974
| 25> C    1.04182455  -0.01542215  -2.55734521
| 26> C   -0.27385115  -0.53297233  -2.62054129
| 27> C    0.95608760  -1.89338737  -1.27788704
| 28> C    1.80267064  -0.87250773  -1.72678326
| 29> H    1.41350517   0.84762558  -3.08388002
| 30> C   -0.32094566  -1.68788809  -1.82425374
| 31> H   -1.09470978  -0.11059301  -3.17838827
| 32> H    2.85875350  -0.78041608  -1.52078932
| 33> H    1.25517844  -2.74452903  -0.66624874
| 34> H   -1.17136747  -2.35646229  -1.71708345
| 35> C   -2.28019458  -1.64742683   1.37013598
| 36> H   -2.43428921  -1.44915886   2.42626216
| 37> H   -2.89439133  -2.47691501   1.02921944
| 38> H   -2.49617186  -0.75744103   0.78462380
| 39> C   -1.82576365   1.66240975  -0.68656559
| 40> H   -1.19005576  -1.98391668   1.23292708
| 41> H   -1.48141694   2.50198958  -1.31880798
| 42> H   -2.34798957   2.12872436   0.16505786
| 43> H   -2.59528296   1.14986687  -1.28698165
| 44> *
| 45>
| 46>                          ****END OF INPUT****

CARTESIAN COORDINATES (ANGSTROEM)
---------------------------------
  Lu     0.109113    0.352814   -0.208873
  C      0.296051    1.036389    2.324665
  C      1.231426   -0.001434    2.160732
  C      2.233759    0.439383    1.286044
  C      1.923102    1.758977    0.897556
  C      0.725003    2.134696    1.554419
  H      2.524612    2.386447    0.255685
  H      0.223434    3.082393    1.469855
  H     -0.565167    1.023984    2.983642
  H      1.221289   -0.959496    2.675308
  H      3.114527   -0.118436    0.997640
  C      1.041825   -0.015422   -2.557345
  C     -0.273851   -0.532972   -2.620541
  C      0.956088   -1.893387   -1.277887
  C      1.802671   -0.872508   -1.726783
  H      1.413505    0.847626   -3.083880
  C     -0.320946   -1.687888   -1.824254
  H     -1.094710   -0.110593   -3.178388
  H      2.858753   -0.780416   -1.520789
  H      1.255178   -2.744529   -0.666249
  H     -1.171367   -2.356462   -1.717083
  C     -2.280195   -1.647427    1.370136
  H     -2.434289   -1.449159    2.426262
  H     -2.894391   -2.476915    1.029219
  H     -2.496172   -0.757441    0.784624
  C     -1.825764    1.662410   -0.686566
  H     -1.190056   -1.983917    1.232927
  H     -1.481417    2.501990   -1.318808
  H     -2.347990    2.128724    0.165058
  H     -2.595283    1.149867   -1.286982

 Total Charge           Charge          ....    0
 Multiplicity           Mult            ....    1
 Number of Electrons    NEL             ....  132
 Basis Dimension        Dim             ....  295

ORBITAL ENERGIES
----------------

  NO   OCC          E(Eh)            E(eV)
   0   2.0000     -19.248236      -523.7711
   1   2.0000     -12.620786      -343.4291
   2   2.0000     -12.618232      -343.3596
   3   2.0000     -12.617656      -343.3439
   4   2.0000     -10.446834      -284.2728
   5   2.0000     -10.446235      -284.2565
   6   2.0000     -10.446139      -284.2539
   7   2.0000     -10.445569      -284.2384
   8   2.0000     -10.445378      -284.2332
   9   2.0000     -10.444995      -284.2228
  10   2.0000     -10.444672      -284.2140
  11   2.0000     -10.444112      -284.1987
  12   2.0000     -10.443981      -284.1952
  13   2.0000     -10.443442      -284.1805
  14   2.0000     -10.442998      -284.1684
  15   2.0000     -10.363136      -281.9953
  16   2.0000      -5.889795      -160.2695
  17   2.0000      -5.889515      -160.2619
  18   2.0000      -5.888879      -160.2445
  19   2.0000      -5.887422      -160.2049
  20   2.0000      -5.887219      -160.1994
  21   2.0000      -2.431982       -66.1776
  22   2.0000      -1.271109       -34.5886
  23   2.0000      -1.270734       -34.5784
  24   2.0000      -1.258887       -34.2561
  25   2.0000      -0.981831       -26.7170
  26   2.0000      -0.972512       -26.4634
  27   2.0000      -0.796448       -21.6724
  28   2.0000      -0.794938       -21.6314
  29   2.0000      -0.793953       -21.6046
  30   2.0000      -0.792289       -21.5593
  31   2.0000      -0.791860       -21.5476
  32   2.0000      -0.696961       -18.9653
  33   2.0000      -0.615406       -16.7460
  34   2.0000      -0.613122       -16.6839
  35   2.0000      -0.610711       -16.6183
  36   2.0000      -0.608697       -16.5635
  37   2.0000      -0.597198       -16.2506
  38   2.0000      -0.592280       -16.1168
  39   2.0000      -0.557747       -15.1771
  40   2.0000      -0.556209       -15.1352
  41   2.0000      -0.556038       -15.1306
  42   2.0000      -0.554969       -15.1015
  43   2.0000      -0.554443       -15.0872
  44   2.0000      -0.553102       -15.0507
  45   2.0000      -0.551495       -15.0070
  46   2.0000      -0.473927       -12.8962
  47   2.0000      -0.471068       -12.8184
  48   2.0000      -0.468356       -12.7446
  49   2.0000      -0.456585       -12.4243
  50   2.0000      -0.453962       -12.3529
  51   2.0000      -0.451386       -12.2828
  52   2.0000      -0.450678       -12.2636
  53   2.0000      -0.448763       -12.2115
  54   2.0000      -0.434838       -11.8326
  55   2.0000      -0.433908       -11.8072
  56   2.0000      -0.431856       -11.7514
  57   2.0000      -0.431234       -11.7345
  58   2.0000      -0.428632       -11.6637
  59   2.0000      -0.392255       -10.6738
  60   2.0000      -0.390932       -10.6378
  61   2.0000      -0.291381        -7.9289
  62   2.0000      -0.287645        -7.8272
  63   2.0000      -0.279312        -7.6005
  64   2.0000      -0.267531        -7.2799
  65   2.0000      -0.255068        -6.9408
  66   0.0000      -0.017918        -0.4876
  67   0.0000       0.008417         0.2290
  68   0.0000       0.042930         1.1682
  69   0.0000       0.053673         1.4605
  70   0.0000       0.053940         1.4678

MULLIKEN ATOMIC CHARGES
-----------------------
   0 Lu:    0.834191
   1 C :   -0.290263
   2 C :   -0.291933
   3 C :   -0.262205
   4 C :   -0.334198
   5 C :   -0.255521
   6 H :    0.243965
   7 H :    0.250985
   8 H :    0.236970
   9 H :    0.234520
  10 H :    0.234012
  11 C :   -0.327759
  12 C :   -0.245364
  13 C :   -0.287561
  14 C :   -0.275954
  15 H :    0.244162
  16 C :   -0.292783
  17 H :    0.247718
  18 H :    0.235304
  19 H :    0.234435
  20 H :    0.235991
  21 C :   -0.929335
  22 H :    0.250362
  23 H :    0.250600
  24 H :    0.274167
  25 C :   -1.063588
  26 H :    0.210507
  27 H :    0.211445
  28 H :    0.215728
  29 H :    0.211400
Sum of atomic charges:   -0.0000000

LOEWDIN ATOMIC CHARGES
----------------------
   0 Lu:   -0.005047
   1 C :   -0.139626
   2 C :   -0.148820
   3 C :   -0.130479
   4 C :   -0.153727
   5 C :   -0.126097
   6 H :    0.157102
   7 H :    0.160778
   8 H :    0.155224
   9 H :    0.151868
  10 H :    0.152585
  11 C :   -0.149992
  12 C :   -0.122471
  13 C :   -0.146845
  14 C :   -0.134213
  15 H :    0.157157
  16 C :   -0.144133
  17 H :    0.159890
  18 H :    0.153191
  19 H :    0.152418
  20 H :    0.153992
  21 C :   -0.494525
  22 H :    0.141335
  23 H :    0.141134
  24 H :    0.163571
  25 C :   -0.649277
  26 H :    0.143402
  27 H :    0.140164
  28 H :    0.130868
  29 H :    0.130573

  Mayer bond orders larger than 0.100000
B(  0-Lu,  1-C ) :   0.2509 B(  0-Lu,  2-C ) :   0.2578 B(  0-Lu,  3-C ) :   0.2540
B(  0-Lu,  4-C ) :   0.2912 B(  0-Lu,  5-C ) :   0.2424 B(  0-Lu, 11-C ) :   0.2892
B(  0-Lu, 12-C ) :   0.2313 B(  0-Lu, 13-C ) :   0.2606 B(  0-Lu, 14-C ) :   0.2620
B(  0-Lu, 16-C ) :   0.2579 B(  0-Lu, 25-C ) :   0.8228 B(  1-C ,  2-C ) :   1.2773
B(  1-C ,  5-C ) :   1.3151 B(  1-C ,  8-H ) :   0.9186 B(  2-C ,  3-C ) :   1.3070
B(  2-C ,  9-H ) :   0.9180 B(  3-C ,  4-C ) :   1.2783 B(  3-C , 10-H ) :   0.9182
B(  4-C ,  5-C ) :   1.2751 B(  4-C ,  6-H ) :   0.9129 B(  5-C ,  7-H ) :   0.9103
B( 11-C , 12-C ) :   1.2860 B( 11-C , 14-C ) :   1.2773 B( 11-C , 15-H ) :   0.9130
B( 12-C , 16-C ) :   1.3142 B( 12-C , 17-H ) :   0.9121 B( 13-C , 14-C ) :   1.2995
B( 13-C , 16-C ) :   1.2767 B( 13-C , 19-H ) :   0.9177 B( 14-C , 18-H ) :   0.9175
B( 16-C , 20-H ) :   0.9185 B( 21-C , 22-H ) :   0.9131 B( 21-C , 23-H ) :   0.9143
B( 21-C , 24-H ) :   0.8783 B( 21-C , 26-H ) :   0.9060 B( 25-C , 27-H ) :   0.8970
B( 25-C , 28-H ) :   0.9096 B( 25-C , 29-H ) :   0.9082

Dispersion correction           -0.017523439
FINAL SINGLE POINT ENERGY     -1702.392098894714
Dispersion correction            ... done

DIPOLE MOMENT
-------------
                                X             Y             Z
Electronic contribution:     -1.35850      16.26744      -8.55892
Nuclear contribution   :      1.61506     -16.90673       8.89490
                        -----------------------------------------
Total Dipole Moment    :      0.25656      -0.63928       0.33598
                        -----------------------------------------
Magnitude (a.u.)       :      0.76641
Magnitude (Debye)      :      1.94807

Rotational constants in cm-1:     0.028478     0.019898     0.017506
Rotational constants in MHz :   853.746031   596.528454   524.828026

                             ****ORCA TERMINATED NORMALLY****
TOTAL RUN TIME: 0 days 0 hours 8 minutes 35 seconds 410 msec
