                         Program Version 5.0.4 -  RELEASE  -
|  1> ! PBEh-3c OPT pal4
|  2>
|  3> %geom
|  4>  maxiter 600
|  5> end
|  6>
|  7> *xyzfile 1 1 reaction-4-rct-xtb.xyz
|  8>
|  9>                          ****END OF INPUT****
 Total Charge           Charge          ....    1
 Multiplicity           Mult            ....    1
 Number of Electrons    NEL             ....  164
Dispersion correction           -0.029513402
FINAL SINGLE POINT ENERGY     -1288.424103022905
Dispersion correction            ... done
Dispersion correction           -0.029314579
FINAL SINGLE POINT ENERGY     -1288.430232990230
Dispersion correction            ... done
Dispersion correction           -0.029532706
FINAL SINGLE POINT ENERGY     -1288.432410494487
Dispersion correction            ... done
FINAL SINGLE POINT ENERGY     -1288.432965119137
FINAL SINGLE POINT ENERGY     -1288.433142962000
FINAL SINGLE POINT ENERGY     -1288.433452016742
FINAL SINGLE POINT ENERGY     -1288.433536387017
FINAL SINGLE POINT ENERGY     -1288.433646177277
FINAL SINGLE POINT ENERGY     -1288.433751661434
FINAL SINGLE POINT ENERGY     -1288.433882181829
FINAL SINGLE POINT ENERGY     -1288.434453015961
FINAL SINGLE POINT ENERGY     -1288.434468163249
FINAL SINGLE POINT ENERGY     -1288.434485810355
FINAL SINGLE POINT ENERGY     -1288.434507519980
FINAL SINGLE POINT ENERGY     -1288.434534197637
FINAL SINGLE POINT ENERGY     -1288.434565417469
FINAL SINGLE POINT ENERGY     -1288.434579299153
Dispersion correction            ... done
Dispersion correction           -0.029905751
FINAL SINGLE POINT ENERGY     -1288.434587502649
Dispersion correction            ... done
Dispersion correction           -0.029906846
FINAL SINGLE POINT ENERGY     -1288.434587788099
Dispersion correction            ... done
                    ***********************HURRAY********************

CARTESIAN COORDINATES (ANGSTROEM)
---------------------------------
  Ir     0.429953   -0.668914    1.122255
  C      0.104442   -2.538852    2.134995
  C      1.420603   -2.064182    2.453869
  C      1.289090   -2.388454    0.162479
  C      0.026624   -2.750549    0.738550
  C      2.139996   -1.989783    1.232743
  N     -0.828007    0.113051   -0.349122
  C     -2.265218    0.305685    0.011479
  C     -2.692796    1.754944   -0.169234
  H     -3.714399    1.880515    0.187915
  H     -2.674823    2.068108   -1.214208
  H     -2.060356    2.435212    0.399548
  C     -3.160482   -0.665467   -0.748124
  H     -2.346349    0.068344    1.069779
  H     -4.172509   -0.611408   -0.348991
  H     -3.225589   -0.439595   -1.813158
  H     -2.820200   -1.695593   -0.639891
  C     -0.518974    0.302840   -1.577976
  C      0.760845    0.185168   -2.226270
  H     -1.335574    0.558411   -2.253596
  C      2.054075    0.374215   -1.791854
  C      3.002706    0.174509   -2.812436
  S      0.736991   -0.206452   -3.912862
  C      2.428713   -0.158152   -4.007892
  H      2.317755    0.709998   -0.802060
  H      4.067628    0.289186   -2.677644
  H      2.928285   -0.373632   -4.939686
  H     -0.698789   -2.693113    2.841524
  H      1.801897   -1.844052    3.439204
  H      3.154791   -1.632634    1.125129
  O      1.302802    1.249808    1.186259
  O     -0.415432    0.815840    2.370419
  C      0.435913    1.673552    2.005396
  C      0.436783    3.068831    2.514189
  H      0.732639    3.766573    1.733423
  H      1.166494    3.155955    3.321426
  H     -0.537422    3.342008    2.911488
  H      1.565101   -2.458342   -0.878604
  H     -0.837208   -3.113587    0.201560

 Multiplicity           Mult            ....    1
 Number of Electrons    NEL             ....  164
 Basis Dimension        Dim             ....  358

ORBITAL ENERGIES
----------------

  NO   OCC          E(Eh)            E(eV)
   0   2.0000     -89.746425     -2442.1244
   1   2.0000     -19.641324      -534.4676
   2   2.0000     -19.640670      -534.4498
   3   2.0000     -14.827167      -403.4677
   4   2.0000     -10.706852      -291.3482
   5   2.0000     -10.654612      -289.9267
   6   2.0000     -10.633862      -289.3621
   7   2.0000     -10.630707      -289.2762
   8   2.0000     -10.627384      -289.1858
   9   2.0000     -10.620095      -288.9875
  10   2.0000     -10.617904      -288.9278
  11   2.0000     -10.611607      -288.7565
  12   2.0000     -10.608706      -288.6776
  13   2.0000     -10.601550      -288.4829
  14   2.0000     -10.583765      -287.9989
  15   2.0000     -10.571983      -287.6783
  16   2.0000     -10.558175      -287.3025
  17   2.0000     -10.550683      -287.0987
  18   2.0000     -10.546169      -286.9758
  19   2.0000      -8.386121      -228.1979
  20   2.0000      -6.276199      -170.7840
  21   2.0000      -6.272658      -170.6877
  22   2.0000      -6.270756      -170.6360
  23   2.0000      -4.029291      -109.6426
  24   2.0000      -2.349623       -63.9365
  25   2.0000      -2.313932       -62.9653
  26   2.0000      -2.311428       -62.8972
  27   2.0000      -1.351697       -36.7815
  28   2.0000      -1.226504       -33.3749
  29   2.0000      -1.195077       -32.5197
  30   2.0000      -1.167999       -31.7829
  31   2.0000      -1.117188       -30.4002
  32   2.0000      -1.010594       -27.4997
  33   2.0000      -0.980298       -26.6753
  34   2.0000      -0.973991       -26.5036
  35   2.0000      -0.960592       -26.1390
  36   2.0000      -0.958314       -26.0771
  37   2.0000      -0.952252       -25.9121
  38   2.0000      -0.895083       -24.3564
  39   2.0000      -0.865475       -23.5508
  40   2.0000      -0.793059       -21.5802
  41   2.0000      -0.782611       -21.2959
  42   2.0000      -0.782360       -21.2891
  43   2.0000      -0.769021       -20.9261
  44   2.0000      -0.768335       -20.9074
  45   2.0000      -0.752529       -20.4773
  46   2.0000      -0.736733       -20.0475
  47   2.0000      -0.716379       -19.4937
  48   2.0000      -0.694655       -18.9025
  49   2.0000      -0.686801       -18.6888
  50   2.0000      -0.684058       -18.6142
  51   2.0000      -0.668402       -18.1881
  52   2.0000      -0.647614       -17.6225
  53   2.0000      -0.635267       -17.2865
  54   2.0000      -0.634058       -17.2536
  55   2.0000      -0.629518       -17.1301
  56   2.0000      -0.622077       -16.9276
  57   2.0000      -0.607926       -16.5425
  58   2.0000      -0.603163       -16.4129
  59   2.0000      -0.602360       -16.3910
  60   2.0000      -0.591376       -16.0922
  61   2.0000      -0.584100       -15.8942
  62   2.0000      -0.579596       -15.7716
  63   2.0000      -0.575303       -15.6548
  64   2.0000      -0.570760       -15.5312
  65   2.0000      -0.564819       -15.3695
  66   2.0000      -0.560440       -15.2504
  67   2.0000      -0.542927       -14.7738
  68   2.0000      -0.537515       -14.6265
  69   2.0000      -0.535421       -14.5695
  70   2.0000      -0.530655       -14.4398
  71   2.0000      -0.522142       -14.2082
  72   2.0000      -0.516511       -14.0550
  73   2.0000      -0.508809       -13.8454
  74   2.0000      -0.502088       -13.6625
  75   2.0000      -0.482059       -13.1175
  76   2.0000      -0.476522       -12.9668
  77   2.0000      -0.462745       -12.5919
  78   2.0000      -0.437286       -11.8991
  79   2.0000      -0.428431       -11.6582
  80   2.0000      -0.419131       -11.4051
  81   2.0000      -0.398448       -10.8423
  82   0.0000      -0.173526        -4.7219
  83   0.0000      -0.165384        -4.5003
  84   0.0000      -0.136497        -3.7143
  85   0.0000      -0.088978        -2.4212
  86   0.0000      -0.083181        -2.2635

MULLIKEN ATOMIC CHARGES
-----------------------
   0 Ir:    0.577287
   1 C :   -0.229184
   2 C :   -0.255931
   3 C :   -0.266657
   4 C :   -0.203032
   5 C :   -0.192983
   6 N :   -0.455128
   7 C :   -0.165694
   8 C :   -0.631337
   9 H :    0.257190
  10 H :    0.221493
  11 H :    0.245429
  12 C :   -0.639043
  13 H :    0.283667
  14 H :    0.262714
  15 H :    0.223782
  16 H :    0.234205
  17 C :    0.073555
  18 C :   -0.232900
  19 H :    0.266845
  20 C :   -0.215698
  21 C :   -0.146037
  22 S :    0.296845
  23 C :   -0.418847
  24 H :    0.305747
  25 H :    0.266816
  26 H :    0.295941
  27 H :    0.299654
  28 H :    0.293733
  29 H :    0.296747
  30 O :   -0.493039
  31 O :   -0.478670
  32 C :    0.679142
  33 C :   -0.776235
  34 H :    0.276891
  35 H :    0.285348
  36 H :    0.276009
  37 H :    0.295395
  38 H :    0.285978
Sum of atomic charges:    1.0000000

LOEWDIN ATOMIC CHARGES
----------------------
   0 Ir:   -0.197586
   1 C :   -0.031213
   2 C :   -0.086038
   3 C :   -0.080367
   4 C :   -0.052007
   5 C :   -0.013564
   6 N :   -0.035104
   7 C :   -0.070183
   8 C :   -0.349477
   9 H :    0.151085
  10 H :    0.132469
  11 H :    0.139150
  12 C :   -0.351651
  13 H :    0.155786
  14 H :    0.152928
  15 H :    0.132416
  16 H :    0.133460
  17 C :    0.035602
  18 C :   -0.233612
  19 H :    0.151593
  20 C :   -0.119573
  21 C :   -0.166344
  22 S :    0.451649
  23 C :   -0.255475
  24 H :    0.177802
  25 H :    0.159267
  26 H :    0.167963
  27 H :    0.189316
  28 H :    0.187117
  29 H :    0.188385
  30 O :   -0.184699
  31 O :   -0.173786
  32 C :    0.185557
  33 C :   -0.373294
  34 H :    0.169026
  35 H :    0.178965
  36 H :    0.166405
  37 H :    0.186210
  38 H :    0.181825

  Mayer bond orders larger than 0.100000
B(  0-Ir,  1-C ) :   0.4694 B(  0-Ir,  2-C ) :   0.4543 B(  0-Ir,  3-C ) :   0.5033
B(  0-Ir,  4-C ) :   0.4604 B(  0-Ir,  5-C ) :   0.4316 B(  0-Ir,  6-N ) :   0.4740
B(  0-Ir, 30-O ) :   0.5276 B(  0-Ir, 31-O ) :   0.5100 B(  1-C ,  2-C ) :   1.1413
B(  1-C ,  4-C ) :   1.2027 B(  1-C , 27-H ) :   0.9008 B(  2-C ,  5-C ) :   1.1914
B(  2-C , 28-H ) :   0.9077 B(  3-C ,  4-C ) :   1.1068 B(  3-C ,  5-C ) :   1.1785
B(  3-C , 37-H ) :   0.9026 B(  4-C , 38-H ) :   0.9054 B(  5-C , 29-H ) :   0.9012
B(  6-N ,  7-C ) :   0.8743 B(  6-N , 17-C ) :   1.6633 B(  7-C ,  8-C ) :   0.9834
B(  7-C , 12-C ) :   0.9775 B(  7-C , 13-H ) :   0.8814 B(  8-C ,  9-H ) :   0.9076
B(  8-C , 10-H ) :   0.9158 B(  8-C , 11-H ) :   0.9143 B( 12-C , 14-H ) :   0.9066
B( 12-C , 15-H ) :   0.9158 B( 12-C , 16-H ) :   0.9163 B( 17-C , 18-C ) :   1.0903
B( 17-C , 19-H ) :   0.8808 B( 18-C , 20-C ) :   1.4247 B( 18-C , 22-S ) :   1.1664
B( 20-C , 21-C ) :   1.3281 B( 20-C , 24-H ) :   0.8718 B( 21-C , 23-C ) :   1.4811
B( 21-C , 25-H ) :   0.9027 B( 22-S , 23-C ) :   1.2615 B( 23-C , 26-H ) :   0.8925
B( 30-O , 32-C ) :   1.3934 B( 31-O , 32-C ) :   1.4261 B( 32-C , 33-C ) :   0.9693
B( 33-C , 34-H ) :   0.8974 B( 33-C , 35-H ) :   0.8870 B( 33-C , 36-H ) :   0.9001

Dispersion correction           -0.029905733
FINAL SINGLE POINT ENERGY     -1288.434589014226

DIPOLE MOMENT
-------------
                                X             Y             Z
Electronic contribution:     23.49825     -60.34899     132.11182
Nuclear contribution   :    -23.52247      60.06957    -132.54525
                        -----------------------------------------
Total Dipole Moment    :     -0.02422      -0.27941      -0.43343
                        -----------------------------------------
Magnitude (a.u.)       :      0.51625
Magnitude (Debye)      :      1.31221

Rotational constants in cm-1:     0.011932     0.007644     0.006765
Rotational constants in MHz :   357.711725   229.158855   202.805193

                             ****ORCA TERMINATED NORMALLY****
TOTAL RUN TIME: 0 days 1 hours 10 minutes 51 seconds 845 msec
