                         Program Version 5.0.4 -  RELEASE  -
|  1> ! PBEh-3c OPT pal4
|  2>
|  3> %geom
|  4>  maxiter 600
|  5> end
|  6>
|  7> *xyzfile 1 1 reaction-4-prod-xtb.xyz
|  8>
|  9>                          ****END OF INPUT****
 Total Charge           Charge          ....    1
 Multiplicity           Mult            ....    1
 Number of Electrons    NEL             ....  164
Dispersion correction           -0.030117779
FINAL SINGLE POINT ENERGY     -1288.434734538502
Dispersion correction            ... done
Dispersion correction           -0.030359938
FINAL SINGLE POINT ENERGY     -1288.440342025645
Dispersion correction            ... done
Dispersion correction           -0.030312073
FINAL SINGLE POINT ENERGY     -1288.441572372547
Dispersion correction            ... done
FINAL SINGLE POINT ENERGY     -1288.441530544688
FINAL SINGLE POINT ENERGY     -1288.442047801271
FINAL SINGLE POINT ENERGY     -1288.442164845285
FINAL SINGLE POINT ENERGY     -1288.442347267110
FINAL SINGLE POINT ENERGY     -1288.442503723956
FINAL SINGLE POINT ENERGY     -1288.442660402388
FINAL SINGLE POINT ENERGY     -1288.442783533086
FINAL SINGLE POINT ENERGY     -1288.442983880512
FINAL SINGLE POINT ENERGY     -1288.442991812443
FINAL SINGLE POINT ENERGY     -1288.443000709158
FINAL SINGLE POINT ENERGY     -1288.443017983605
FINAL SINGLE POINT ENERGY     -1288.443045210462
FINAL SINGLE POINT ENERGY     -1288.443061600001
FINAL SINGLE POINT ENERGY     -1288.443084975663
Dispersion correction            ... done
Dispersion correction           -0.030500256
FINAL SINGLE POINT ENERGY     -1288.443089958835
Dispersion correction            ... done
Dispersion correction           -0.030499502
FINAL SINGLE POINT ENERGY     -1288.443094143790
Dispersion correction            ... done
                    ***********************HURRAY********************

CARTESIAN COORDINATES (ANGSTROEM)
---------------------------------
  Ir     0.568420   -0.800883    0.383271
  C      0.300541   -2.895335    0.677391
  C     -0.158989   -2.319796    1.921868
  C      2.065172   -1.767154    1.642061
  C      1.695061   -2.615192    0.563753
  C      0.906841   -1.627920    2.491076
  N     -1.200254   -0.249400   -0.607865
  C     -2.517623   -0.321210    0.035390
  C     -2.589722    0.640329    1.215618
  H     -3.553016    0.534770    1.713531
  H     -2.497334    1.674262    0.882612
  H     -1.814827    0.449577    1.955924
  C     -3.686858   -0.102462   -0.912608
  H     -2.589042   -1.342702    0.420967
  H     -4.614092   -0.291220   -0.374020
  H     -3.739785    0.924016   -1.279626
  H     -3.669537   -0.780610   -1.766631
  C     -1.043918    0.166571   -1.815323
  C      0.288919    0.132285   -2.313129
  H     -1.880687    0.501558   -2.418551
  C      1.261991   -0.345825   -1.457860
  C      2.521540   -0.384253   -2.109395
  S      0.884205    0.516052   -3.876979
  C      2.453692    0.054888   -3.408959
  H      2.257781    1.433510   -0.777854
  H      3.443994   -0.727906   -1.661709
  H      3.266149    0.118377   -4.117131
  H     -0.267669   -3.544133    0.027474
  H     -1.158534   -2.389005    2.323658
  H      0.864342   -1.040294    3.396744
  O      2.222911    2.259312   -0.258164
  O      0.625118    1.250779    0.946686
  C      1.318664    2.229987    0.672175
  C      1.174905    3.509216    1.425132
  H      0.976872    4.331016    0.737203
  H      2.109232    3.744906    1.936187
  H      0.374445    3.442053    2.154512
  H      3.058632   -1.407165    1.861678
  H      2.342477   -2.961018   -0.229090

 Multiplicity           Mult            ....    1
 Number of Electrons    NEL             ....  164
 Basis Dimension        Dim             ....  358

ORBITAL ENERGIES
----------------

  NO   OCC          E(Eh)            E(eV)
   0   2.0000     -89.743450     -2442.0434
   1   2.0000     -19.686552      -535.6983
   2   2.0000     -19.666948      -535.1649
   3   2.0000     -14.812597      -403.0713
   4   2.0000     -10.741441      -292.2895
   5   2.0000     -10.638509      -289.4886
   6   2.0000     -10.617545      -288.9181
   7   2.0000     -10.613162      -288.7988
   8   2.0000     -10.610278      -288.7203
   9   2.0000     -10.608021      -288.6589
  10   2.0000     -10.605766      -288.5976
  11   2.0000     -10.604233      -288.5558
  12   2.0000     -10.603301      -288.5305
  13   2.0000     -10.592687      -288.2417
  14   2.0000     -10.583711      -287.9974
  15   2.0000     -10.573998      -287.7331
  16   2.0000     -10.569030      -287.5979
  17   2.0000     -10.544662      -286.9348
  18   2.0000     -10.540943      -286.8336
  19   2.0000      -8.382768      -228.1067
  20   2.0000      -6.272766      -170.6906
  21   2.0000      -6.269420      -170.5996
  22   2.0000      -6.267431      -170.5455
  23   2.0000      -4.008751      -109.0837
  24   2.0000      -2.324359       -63.2490
  25   2.0000      -2.296756       -62.4979
  26   2.0000      -2.292228       -62.3747
  27   2.0000      -1.382385       -37.6166
  28   2.0000      -1.288350       -35.0578
  29   2.0000      -1.188262       -32.3342
  30   2.0000      -1.149356       -31.2756
  31   2.0000      -1.110273       -30.2121
  32   2.0000      -1.013330       -27.5741
  33   2.0000      -0.982216       -26.7274
  34   2.0000      -0.964999       -26.2590
  35   2.0000      -0.953478       -25.9455
  36   2.0000      -0.949964       -25.8498
  37   2.0000      -0.942654       -25.6509
  38   2.0000      -0.892825       -24.2950
  39   2.0000      -0.854645       -23.2561
  40   2.0000      -0.839234       -22.8367
  41   2.0000      -0.784865       -21.3573
  42   2.0000      -0.770871       -20.9765
  43   2.0000      -0.769796       -20.9472
  44   2.0000      -0.765371       -20.8268
  45   2.0000      -0.760038       -20.6817
  46   2.0000      -0.751694       -20.4546
  47   2.0000      -0.716578       -19.4991
  48   2.0000      -0.700705       -19.0672
  49   2.0000      -0.691235       -18.8095
  50   2.0000      -0.684565       -18.6280
  51   2.0000      -0.676875       -18.4187
  52   2.0000      -0.652055       -17.7433
  53   2.0000      -0.633526       -17.2391
  54   2.0000      -0.621507       -16.9121
  55   2.0000      -0.618510       -16.8305
  56   2.0000      -0.610789       -16.6204
  57   2.0000      -0.602581       -16.3971
  58   2.0000      -0.596427       -16.2296
  59   2.0000      -0.588703       -16.0194
  60   2.0000      -0.588155       -16.0045
  61   2.0000      -0.586809       -15.9679
  62   2.0000      -0.583923       -15.8894
  63   2.0000      -0.577578       -15.7167
  64   2.0000      -0.570887       -15.5346
  65   2.0000      -0.562341       -15.3021
  66   2.0000      -0.552401       -15.0316
  67   2.0000      -0.547498       -14.8982
  68   2.0000      -0.543679       -14.7943
  69   2.0000      -0.537143       -14.6164
  70   2.0000      -0.533802       -14.5255
  71   2.0000      -0.530546       -14.4369
  72   2.0000      -0.512742       -13.9524
  73   2.0000      -0.504857       -13.7379
  74   2.0000      -0.499719       -13.5981
  75   2.0000      -0.481859       -13.1121
  76   2.0000      -0.471059       -12.8182
  77   2.0000      -0.451426       -12.2839
  78   2.0000      -0.437635       -11.9087
  79   2.0000      -0.411743       -11.2041
  80   2.0000      -0.405481       -11.0337
  81   2.0000      -0.380162       -10.3447
  82   0.0000      -0.171445        -4.6652
  83   0.0000      -0.141446        -3.8490
  84   0.0000      -0.110772        -3.0142
  85   0.0000      -0.103711        -2.8221
  86   0.0000      -0.074884        -2.0377

MULLIKEN ATOMIC CHARGES
-----------------------
   0 Ir:    0.558450
   1 C :   -0.298382
   2 C :   -0.223015
   3 C :   -0.286798
   4 C :   -0.201852
   5 C :   -0.168524
   6 N :   -0.467500
   7 C :   -0.085967
   8 C :   -0.645873
   9 H :    0.249294
  10 H :    0.230123
  11 H :    0.255634
  12 C :   -0.700256
  13 H :    0.241212
  14 H :    0.270107
  15 H :    0.229847
  16 H :    0.246478
  17 C :    0.064966
  18 C :   -0.226367
  19 H :    0.281795
  20 C :   -0.214973
  21 C :   -0.250788
  22 S :    0.312216
  23 C :   -0.409519
  24 H :    0.523943
  25 H :    0.259622
  26 H :    0.293923
  27 H :    0.282893
  28 H :    0.275555
  29 H :    0.281763
  30 O :   -0.542007
  31 O :   -0.438879
  32 C :    0.628944
  33 C :   -0.742587
  34 H :    0.286191
  35 H :    0.287162
  36 H :    0.277164
  37 H :    0.274904
  38 H :    0.291105
Sum of atomic charges:    1.0000000

LOEWDIN ATOMIC CHARGES
----------------------
   0 Ir:   -0.280421
   1 C :   -0.076770
   2 C :   -0.084943
   3 C :   -0.107950
   4 C :   -0.031638
   5 C :   -0.047356
   6 N :   -0.033827
   7 C :   -0.063593
   8 C :   -0.347004
   9 H :    0.144343
  10 H :    0.137583
  11 H :    0.144618
  12 C :   -0.366111
  13 H :    0.135888
  14 H :    0.155224
  15 H :    0.135934
  16 H :    0.139644
  17 C :    0.033769
  18 C :   -0.251373
  19 H :    0.156846
  20 C :   -0.107719
  21 C :   -0.200114
  22 S :    0.458566
  23 C :   -0.249432
  24 H :    0.358573
  25 H :    0.155799
  26 H :    0.166563
  27 H :    0.181699
  28 H :    0.175421
  29 H :    0.178596
  30 O :   -0.215091
  31 O :   -0.112822
  32 C :    0.207643
  33 C :   -0.368570
  34 H :    0.175769
  35 H :    0.177619
  36 H :    0.163630
  37 H :    0.177049
  38 H :    0.183963

  Mayer bond orders larger than 0.100000
B(  0-Ir,  1-C ) :   0.5339 B(  0-Ir,  2-C ) :   0.2979 B(  0-Ir,  3-C ) :   0.4838
B(  0-Ir,  4-C ) :   0.4152 B(  0-Ir,  5-C ) :   0.3035 B(  0-Ir,  6-N ) :   0.4735
B(  0-Ir, 20-C ) :   0.7001 B(  0-Ir, 31-O ) :   0.3995 B(  1-C ,  2-C ) :   1.1150
B(  1-C ,  4-C ) :   1.1719 B(  1-C , 27-H ) :   0.9129 B(  2-C ,  5-C ) :   1.3418
B(  2-C , 28-H ) :   0.9101 B(  3-C ,  4-C ) :   1.1974 B(  3-C ,  5-C ) :   1.1117
B(  3-C , 37-H ) :   0.9157 B(  4-C , 38-H ) :   0.9015 B(  5-C , 29-H ) :   0.9082
B(  6-N ,  7-C ) :   0.9141 B(  6-N , 17-C ) :   1.6071 B(  7-C ,  8-C ) :   0.9761
B(  7-C , 12-C ) :   0.9941 B(  7-C , 13-H ) :   0.8849 B(  8-C ,  9-H ) :   0.9080
B(  8-C , 10-H ) :   0.9156 B(  8-C , 11-H ) :   0.8994 B( 12-C , 14-H ) :   0.9051
B( 12-C , 15-H ) :   0.9114 B( 12-C , 16-H ) :   0.9128 B( 17-C , 18-C ) :   1.1504
B( 17-C , 19-H ) :   0.8758 B( 18-C , 20-C ) :   1.3525 B( 18-C , 22-S ) :   1.1430
B( 20-C , 21-C ) :   1.3174 B( 21-C , 23-C ) :   1.4671 B( 21-C , 25-H ) :   0.9053
B( 22-S , 23-C ) :   1.2741 B( 23-C , 26-H ) :   0.8936 B( 24-H , 30-O ) :   0.6346
B( 30-O , 32-C ) :   1.2932 B( 31-O , 32-C ) :   1.6143 B( 32-C , 33-C ) :   0.9554
B( 33-C , 34-H ) :   0.8873 B( 33-C , 35-H ) :   0.8849 B( 33-C , 36-H ) :   0.9059

Dispersion correction           -0.030500005
FINAL SINGLE POINT ENERGY     -1288.443094101118

DIPOLE MOMENT
-------------
                                X             Y             Z
Electronic contribution:     33.31532     -79.61636      69.80426
Nuclear contribution   :    -33.52029      80.17298     -69.36634
                        -----------------------------------------
Total Dipole Moment    :     -0.20497       0.55662       0.43792
                        -----------------------------------------
Magnitude (a.u.)       :      0.73730
Magnitude (Debye)      :      1.87406

Rotational constants in cm-1:     0.010853     0.008559     0.008012
Rotational constants in MHz :   325.374294   256.598707   240.199071

                             ****ORCA TERMINATED NORMALLY****
TOTAL RUN TIME: 0 days 1 hours 1 minutes 36 seconds 647 msec
