                         Program Version 5.0.3 -  RELEASE  -
|  1> ! EnGrad PBEh-3c
|  2> %output
|  3> xyzfile=True
|  4> end
|  5> %scf
|  6> maxiter 250
|  7> end
|  8> %output
|  9> Print[P_Hirshfeld] = 1
| 10> end
| 11> % maxcore
| 12> 4000
| 13> *xyz 0 1
| 14> Pd   0.67796684   0.57527546  -0.52151506
| 15> O    2.27685233   1.63127442   0.32178576
| 16> C    1.70639142   2.74102967   0.26255810
| 17> O    0.48455501   2.74445662  -0.08286020
| 18> C    2.45120981   4.00426207   0.54878780
| 19> H    1.80423748   4.72553979   1.04207245
| 20> H    2.78831238   4.43750849  -0.39442037
| 21> H    3.32953401   3.80696726   1.15853642
| 22> N   -1.15948550  -0.26810595  -1.14053029
| 23> C   -1.24406374  -0.87268509  -2.49225597
| 24> H   -0.95831582  -0.16307007  -3.26637593
| 25> H   -2.26065740  -1.21379022  -2.72517038
| 26> H   -0.59255987  -1.73451017  -2.58619985
| 27> C   -2.08992861   0.87078941  -1.18833341
| 28> H   -2.04706052   1.41666846  -0.25578496
| 29> H   -3.12159494   0.55532616  -1.37396007
| 30> H   -1.79891072   1.57347266  -1.96628197
| 31> C   -1.44666681  -0.93963094   1.28535054
| 32> C   -0.40914403  -1.59180520   1.95273625
| 33> C   -0.28617957  -1.54532790   3.32777450
| 34> C   -1.20856790  -0.84399852   4.08132296
| 35> C   -2.36241262  -0.40682875   3.44153151
| 36> C   -2.40000427  -0.25894804   2.04884364
| 37> H   -1.09140805  -0.79553615   5.15618772
| 38> H   -3.12731681  -0.01483630   4.10367899
| 39> H    0.33978435  -2.17600242   1.43212103
| 40> H    0.54859428  -2.02128677   3.82487543
| 41> H   -3.67228680   0.79753743   1.72667365
| 42> C   -1.62678501  -1.28212324  -0.16415104
| 43> H   -2.69484854  -1.49391802  -0.30843415
| 44> H   -1.11276261  -2.21007332  -0.42750766
| 45> O    1.69236678  -1.02085007  -1.05383732
| 46> C    2.27962658  -0.86832987  -2.20511318
| 47> O    1.99664624  -0.00323968  -3.01429709
| 48> C    3.37531719  -1.84981447  -2.57737393
| 49> H    3.03971698  -2.86668666  -2.37922956
| 50> H    4.25722800  -1.65947511  -1.96625874
| 51> H    3.66261782  -1.77923495  -3.62492824
| 52> *
| 53>
| 54>                          ****END OF INPUT****

CARTESIAN COORDINATES (ANGSTROEM)
---------------------------------
  Pd     0.677967    0.575275   -0.521515
  O      2.276852    1.631274    0.321786
  C      1.706391    2.741030    0.262558
  O      0.484555    2.744457   -0.082860
  C      2.451210    4.004262    0.548788
  H      1.804237    4.725540    1.042072
  H      2.788312    4.437508   -0.394420
  H      3.329534    3.806967    1.158536
  N     -1.159485   -0.268106   -1.140530
  C     -1.244064   -0.872685   -2.492256
  H     -0.958316   -0.163070   -3.266376
  H     -2.260657   -1.213790   -2.725170
  H     -0.592560   -1.734510   -2.586200
  C     -2.089929    0.870789   -1.188333
  H     -2.047061    1.416668   -0.255785
  H     -3.121595    0.555326   -1.373960
  H     -1.798911    1.573473   -1.966282
  C     -1.446667   -0.939631    1.285351
  C     -0.409144   -1.591805    1.952736
  C     -0.286180   -1.545328    3.327774
  C     -1.208568   -0.843999    4.081323
  C     -2.362413   -0.406829    3.441532
  C     -2.400004   -0.258948    2.048844
  H     -1.091408   -0.795536    5.156188
  H     -3.127317   -0.014836    4.103679
  H      0.339784   -2.176002    1.432121
  H      0.548594   -2.021287    3.824875
  H     -3.672287    0.797537    1.726674
  C     -1.626785   -1.282123   -0.164151
  H     -2.694849   -1.493918   -0.308434
  H     -1.112763   -2.210073   -0.427508
  O      1.692367   -1.020850   -1.053837
  C      2.279627   -0.868330   -2.205113
  O      1.996646   -0.003240   -3.014297
  C      3.375317   -1.849814   -2.577374
  H      3.039717   -2.866687   -2.379230
  H      4.257228   -1.659475   -1.966259
  H      3.662618   -1.779235   -3.624928

 Total Charge           Charge          ....    0
 Multiplicity           Mult            ....    1
 Number of Electrons    NEL             ....  154
 Basis Dimension        Dim             ....  339

ORBITAL ENERGIES
----------------

  NO   OCC          E(Eh)            E(eV)
   0   2.0000     -19.492451      -530.4166
   1   2.0000     -19.482149      -530.1362
   2   2.0000     -19.480033      -530.0786
   3   2.0000     -19.431037      -528.7454
   4   2.0000     -14.726041      -400.7160
   5   2.0000     -10.561215      -287.3853
   6   2.0000     -10.533757      -286.6381
   7   2.0000     -10.513385      -286.0838
   8   2.0000     -10.501960      -285.7729
   9   2.0000     -10.484129      -285.2877
  10   2.0000     -10.480503      -285.1890
  11   2.0000     -10.480065      -285.1771
  12   2.0000     -10.465267      -284.7744
  13   2.0000     -10.461953      -284.6842
  14   2.0000     -10.461098      -284.6609
  15   2.0000     -10.456192      -284.5274
  16   2.0000     -10.436612      -283.9946
  17   2.0000     -10.416879      -283.4577
  18   2.0000      -3.660252       -99.6005
  19   2.0000      -2.307293       -62.7846
  20   2.0000      -2.306006       -62.7496
  21   2.0000      -2.268585       -61.7313
  22   2.0000      -1.193189       -32.4683
  23   2.0000      -1.152559       -31.3627
  24   2.0000      -1.079951       -29.3870
  25   2.0000      -1.071596       -29.1596
  26   2.0000      -1.054943       -28.7064
  27   2.0000      -0.976876       -26.5821
  28   2.0000      -0.885943       -24.1077
  29   2.0000      -0.846110       -23.0238
  30   2.0000      -0.827922       -22.5289
  31   2.0000      -0.819529       -22.3005
  32   2.0000      -0.803256       -21.8577
  33   2.0000      -0.798113       -21.7178
  34   2.0000      -0.722172       -19.6513
  35   2.0000      -0.691938       -18.8286
  36   2.0000      -0.670565       -18.2470
  37   2.0000      -0.606688       -16.5088
  38   2.0000      -0.594355       -16.1732
  39   2.0000      -0.592577       -16.1248
  40   2.0000      -0.578857       -15.7515
  41   2.0000      -0.572545       -15.5797
  42   2.0000      -0.555431       -15.1140
  43   2.0000      -0.536050       -14.5867
  44   2.0000      -0.534997       -14.5580
  45   2.0000      -0.532693       -14.4953
  46   2.0000      -0.520116       -14.1531
  47   2.0000      -0.516017       -14.0415
  48   2.0000      -0.511846       -13.9280
  49   2.0000      -0.497865       -13.5476
  50   2.0000      -0.490837       -13.3563
  51   2.0000      -0.490460       -13.3461
  52   2.0000      -0.476671       -12.9709
  53   2.0000      -0.468508       -12.7488
  54   2.0000      -0.455571       -12.3967
  55   2.0000      -0.453499       -12.3403
  56   2.0000      -0.442962       -12.0536
  57   2.0000      -0.440892       -11.9973
  58   2.0000      -0.437466       -11.9040
  59   2.0000      -0.433781       -11.8038
  60   2.0000      -0.433045       -11.7838
  61   2.0000      -0.423181       -11.5153
  62   2.0000      -0.414908       -11.2902
  63   2.0000      -0.405580       -11.0364
  64   2.0000      -0.385866       -10.4999
  65   2.0000      -0.372397       -10.1334
  66   2.0000      -0.366935        -9.9848
  67   2.0000      -0.358609        -9.7583
  68   2.0000      -0.348543        -9.4843
  69   2.0000      -0.341814        -9.3012
  70   2.0000      -0.320063        -8.7093
  71   2.0000      -0.315654        -8.5894
  72   2.0000      -0.306258        -8.3337
  73   2.0000      -0.303270        -8.2524
  74   2.0000      -0.298829        -8.1316
  75   2.0000      -0.296188        -8.0597
  76   2.0000      -0.271387        -7.3848
  77   0.0000      -0.054887        -1.4935
  78   0.0000      -0.018287        -0.4976
  79   0.0000      -0.006367        -0.1732
  80   0.0000       0.006350         0.1728
  81   0.0000       0.054756         1.4900

MULLIKEN ATOMIC CHARGES
-----------------------
   0 Pd:    0.533218
   1 O :   -0.472295
   2 C :    0.652082
   3 O :   -0.516155
   4 C :   -0.765678
   5 H :    0.250751
   6 H :    0.260679
   7 H :    0.253991
   8 N :   -0.485444
   9 C :   -0.530898
  10 H :    0.286762
  11 H :    0.224029
  12 H :    0.270183
  13 C :   -0.545986
  14 H :    0.294361
  15 H :    0.227977
  16 H :    0.281125
  17 C :    0.030686
  18 C :   -0.233614
  19 C :   -0.215336
  20 C :   -0.212065
  21 C :   -0.213845
  22 C :   -0.172285
  23 H :    0.231935
  24 H :    0.232669
  25 H :    0.264657
  26 H :    0.234044
  27 H :    0.121721
  28 C :   -0.343764
  29 H :    0.248368
  30 H :    0.275365
  31 O :   -0.557650
  32 C :    0.567371
  33 O :   -0.450932
  34 C :   -0.738892
  35 H :    0.223120
  36 H :    0.243640
  37 H :    0.246108
Sum of atomic charges:   -0.0000000

LOEWDIN ATOMIC CHARGES
----------------------
   0 Pd:   -0.261531
   1 O :   -0.144698
   2 C :    0.173943
   3 O :   -0.217059
   4 C :   -0.377117
   5 H :    0.153363
   6 H :    0.164273
   7 H :    0.153587
   8 N :   -0.042505
   9 C :   -0.234540
  10 H :    0.159637
  11 H :    0.122300
  12 H :    0.148521
  13 C :   -0.236801
  14 H :    0.162066
  15 H :    0.125216
  16 H :    0.157137
  17 C :   -0.065327
  18 C :   -0.100776
  19 C :   -0.126325
  20 C :   -0.125671
  21 C :   -0.137604
  22 C :   -0.078727
  23 H :    0.141043
  24 H :    0.140278
  25 H :    0.163983
  26 H :    0.141578
  27 H :    0.101857
  28 C :   -0.103787
  29 H :    0.138579
  30 H :    0.156525
  31 O :   -0.190607
  32 C :    0.133142
  33 O :   -0.247823
  34 C :   -0.380334
  35 H :    0.138272
  36 H :    0.151039
  37 H :    0.144894

  Mayer bond orders larger than 0.100000
B(  0-Pd,  1-O ) :   0.5501 B(  0-Pd,  3-O ) :   0.4621 B(  0-Pd,  8-N ) :   0.4258
B(  0-Pd, 31-O ) :   0.6594 B(  0-Pd, 33-O ) :   0.1176 B(  1-O ,  2-C ) :   1.4535
B(  1-O ,  3-O ) :   0.1002 B(  2-C ,  3-O ) :   1.5008 B(  2-C ,  4-C ) :   0.9535
B(  4-C ,  5-H ) :   0.9106 B(  4-C ,  6-H ) :   0.9032 B(  4-C ,  7-H ) :   0.9094
B(  8-N ,  9-C ) :   0.9204 B(  8-N , 13-C ) :   0.9162 B(  8-N , 28-C ) :   0.8949
B(  9-C , 10-H ) :   0.8968 B(  9-C , 11-H ) :   0.9007 B(  9-C , 12-H ) :   0.9032
B( 13-C , 14-H ) :   0.8848 B( 13-C , 15-H ) :   0.9031 B( 13-C , 16-H ) :   0.8969
B( 17-C , 18-C ) :   1.3959 B( 17-C , 22-C ) :   1.4036 B( 17-C , 28-C ) :   0.9496
B( 18-C , 19-C ) :   1.4420 B( 18-C , 25-H ) :   0.8952 B( 19-C , 20-C ) :   1.4229
B( 19-C , 26-H ) :   0.9121 B( 20-C , 21-C ) :   1.4180 B( 20-C , 23-H ) :   0.9130
B( 21-C , 22-C ) :   1.4197 B( 21-C , 24-H ) :   0.9144 B( 22-C , 27-H ) :   0.9109
B( 28-C , 29-H ) :   0.8988 B( 28-C , 30-H ) :   0.9034 B( 31-O , 32-C ) :   1.2368
B( 32-C , 33-O ) :   1.8713 B( 32-C , 34-C ) :   0.9393 B( 34-C , 35-H ) :   0.9172
B( 34-C , 36-H ) :   0.9120 B( 34-C , 37-H ) :   0.9189

Dispersion correction           -0.026295942
FINAL SINGLE POINT ENERGY      -988.438915954392
Dispersion correction            ... done

DIPOLE MOMENT
-------------
                                X             Y             Z
Electronic contribution:     29.93714      28.09387     -26.29505
Nuclear contribution   :    -31.67222     -28.66130      27.11627
                        -----------------------------------------
Total Dipole Moment    :     -1.73508      -0.56743       0.82122
                        -----------------------------------------
Magnitude (a.u.)       :      2.00172
Magnitude (Debye)      :      5.08797

Rotational constants in cm-1:     0.013296     0.008321     0.007051
Rotational constants in MHz :   398.601771   249.461853   211.390398

                             ****ORCA TERMINATED NORMALLY****
TOTAL RUN TIME: 0 days 0 hours 13 minutes 37 seconds 920 msec
