                         Program Version 5.0.3 -  RELEASE  -
|  1> ! EnGrad PBEh-3c
|  2> %output
|  3> xyzfile=True
|  4> end
|  5> %scf
|  6> maxiter 250
|  7> end
|  8> %output
|  9> Print[P_Hirshfeld] = 1
| 10> end
| 11> % maxcore
| 12> 4000
| 13> *xyz 0 1
| 14> Pd   0.68686816   0.58620016  -0.50887605
| 15> O    2.27176697   1.58360973   0.33334132
| 16> C    1.66831380   2.73323367   0.25863468
| 17> O    0.49674057   2.74380838  -0.08648087
| 18> C    2.46539573   3.98637916   0.55271509
| 19> H    1.82952446   4.71896648   1.04311730
| 20> H    2.80781408   4.41499615  -0.39116845
| 21> H    3.34138726   3.78246404   1.16457288
| 22> N   -1.18790628  -0.28908794  -1.16027060
| 23> C   -1.23370986  -0.93109212  -2.48279132
| 24> H   -0.95084241  -0.22959694  -3.25481683
| 25> H   -2.25998814  -1.26510541  -2.70349974
| 26> H   -0.58813633  -1.78622955  -2.54121236
| 27> C   -2.09366227   0.85264025  -1.20580636
| 28> H   -2.07241714   1.40575620  -0.28886357
| 29> H   -3.12375363   0.52410181  -1.40996063
| 30> H   -1.78948831   1.52695848  -2.00208203
| 31> C   -1.46299015  -0.94318646   1.27866577
| 32> C   -0.43725987  -1.62291557   1.98046918
| 33> C   -0.30466848  -1.55456527   3.34583926
| 34> C   -1.22023535  -0.87166239   4.07677312
| 35> C   -2.31989912  -0.31035650   3.44917831
| 36> C   -2.45770780  -0.17354653   2.07775605
| 37> H   -1.09367301  -0.78319454   5.16118505
| 38> H   -3.08941026   0.06184925   4.08655882
| 39> H    0.27274145  -2.22808008   1.43851128
| 40> H    0.49148680  -2.07365364   3.83830529
| 41> H   -3.47316057   0.87732941   1.75001761
| 42> C   -1.66042514  -1.28035759  -0.15831012
| 43> H   -2.72684750  -1.46863312  -0.29200708
| 44> H   -1.17306882  -2.22590700  -0.39207459
| 45> O    1.71591608  -1.01695745  -1.06231773
| 46> C    2.27835695  -0.83435820  -2.25058984
| 47> O    1.96007103   0.00752792  -3.02483758
| 48> C    3.39067303  -1.80385666  -2.58292174
| 49> H    3.08898736  -2.82077310  -2.41728440
| 50> H    4.27190920  -1.59775397  -1.98065182
| 51> H    3.68255205  -1.69689564  -3.64131081
| 52> *
| 53>
| 54>                          ****END OF INPUT****

CARTESIAN COORDINATES (ANGSTROEM)
---------------------------------
  Pd     0.686868    0.586200   -0.508876
  O      2.271767    1.583610    0.333341
  C      1.668314    2.733234    0.258635
  O      0.496741    2.743808   -0.086481
  C      2.465396    3.986379    0.552715
  H      1.829524    4.718966    1.043117
  H      2.807814    4.414996   -0.391168
  H      3.341387    3.782464    1.164573
  N     -1.187906   -0.289088   -1.160271
  C     -1.233710   -0.931092   -2.482791
  H     -0.950842   -0.229597   -3.254817
  H     -2.259988   -1.265105   -2.703500
  H     -0.588136   -1.786230   -2.541212
  C     -2.093662    0.852640   -1.205806
  H     -2.072417    1.405756   -0.288864
  H     -3.123754    0.524102   -1.409961
  H     -1.789488    1.526958   -2.002082
  C     -1.462990   -0.943186    1.278666
  C     -0.437260   -1.622916    1.980469
  C     -0.304668   -1.554565    3.345839
  C     -1.220235   -0.871662    4.076773
  C     -2.319899   -0.310356    3.449178
  C     -2.457708   -0.173547    2.077756
  H     -1.093673   -0.783195    5.161185
  H     -3.089410    0.061849    4.086559
  H      0.272741   -2.228080    1.438511
  H      0.491487   -2.073654    3.838305
  H     -3.473161    0.877329    1.750018
  C     -1.660425   -1.280358   -0.158310
  H     -2.726847   -1.468633   -0.292007
  H     -1.173069   -2.225907   -0.392075
  O      1.715916   -1.016957   -1.062318
  C      2.278357   -0.834358   -2.250590
  O      1.960071    0.007528   -3.024838
  C      3.390673   -1.803857   -2.582922
  H      3.088987   -2.820773   -2.417284
  H      4.271909   -1.597754   -1.980652
  H      3.682552   -1.696896   -3.641311

 Total Charge           Charge          ....    0
 Multiplicity           Mult            ....    1
 Number of Electrons    NEL             ....  154
 Basis Dimension        Dim             ....  339

ORBITAL ENERGIES
----------------

  NO   OCC          E(Eh)            E(eV)
   0   2.0000     -19.494103      -530.4615
   1   2.0000     -19.489799      -530.3444
   2   2.0000     -19.473887      -529.9114
   3   2.0000     -19.437754      -528.9282
   4   2.0000     -14.718624      -400.5141
   5   2.0000     -10.566401      -287.5264
   6   2.0000     -10.531784      -286.5844
   7   2.0000     -10.508096      -285.9398
   8   2.0000     -10.496802      -285.6325
   9   2.0000     -10.489371      -285.4303
  10   2.0000     -10.479426      -285.1597
  11   2.0000     -10.476673      -285.0848
  12   2.0000     -10.460726      -284.6508
  13   2.0000     -10.457840      -284.5723
  14   2.0000     -10.456648      -284.5399
  15   2.0000     -10.451192      -284.3914
  16   2.0000     -10.438882      -284.0564
  17   2.0000     -10.414680      -283.3978
  18   2.0000      -3.656342       -99.4941
  19   2.0000      -2.303843       -62.6908
  20   2.0000      -2.301548       -62.6283
  21   2.0000      -2.265030       -61.6346
  22   2.0000      -1.200241       -32.6602
  23   2.0000      -1.156932       -31.4817
  24   2.0000      -1.078990       -29.3608
  25   2.0000      -1.076367       -29.2894
  26   2.0000      -1.054247       -28.6875
  27   2.0000      -0.968892       -26.3649
  28   2.0000      -0.882220       -24.0064
  29   2.0000      -0.848377       -23.0855
  30   2.0000      -0.825318       -22.4580
  31   2.0000      -0.821705       -22.3597
  32   2.0000      -0.798494       -21.7281
  33   2.0000      -0.797280       -21.6951
  34   2.0000      -0.719887       -19.5891
  35   2.0000      -0.684277       -18.6201
  36   2.0000      -0.669934       -18.2298
  37   2.0000      -0.608218       -16.5504
  38   2.0000      -0.595224       -16.1969
  39   2.0000      -0.586064       -15.9476
  40   2.0000      -0.577670       -15.7192
  41   2.0000      -0.571115       -15.5408
  42   2.0000      -0.554866       -15.0987
  43   2.0000      -0.541648       -14.7390
  44   2.0000      -0.537486       -14.6257
  45   2.0000      -0.527258       -14.3474
  46   2.0000      -0.522269       -14.2117
  47   2.0000      -0.514823       -14.0090
  48   2.0000      -0.512697       -13.9512
  49   2.0000      -0.497941       -13.5497
  50   2.0000      -0.491107       -13.3637
  51   2.0000      -0.487610       -13.2685
  52   2.0000      -0.477524       -12.9941
  53   2.0000      -0.469173       -12.7669
  54   2.0000      -0.456930       -12.4337
  55   2.0000      -0.455874       -12.4050
  56   2.0000      -0.448592       -12.2068
  57   2.0000      -0.443466       -12.0673
  58   2.0000      -0.438313       -11.9271
  59   2.0000      -0.431085       -11.7304
  60   2.0000      -0.430432       -11.7127
  61   2.0000      -0.419891       -11.4258
  62   2.0000      -0.409727       -11.1492
  63   2.0000      -0.402587       -10.9549
  64   2.0000      -0.386809       -10.5256
  65   2.0000      -0.382519       -10.4089
  66   2.0000      -0.372549       -10.1376
  67   2.0000      -0.361426        -9.8349
  68   2.0000      -0.349956        -9.5228
  69   2.0000      -0.343681        -9.3520
  70   2.0000      -0.315922        -8.5967
  71   2.0000      -0.313489        -8.5305
  72   2.0000      -0.307597        -8.3701
  73   2.0000      -0.302637        -8.2352
  74   2.0000      -0.299060        -8.1378
  75   2.0000      -0.292797        -7.9674
  76   2.0000      -0.272736        -7.4215
  77   0.0000      -0.052014        -1.4154
  78   0.0000      -0.016318        -0.4440
  79   0.0000       0.004325         0.1177
  80   0.0000       0.037180         1.0117
  81   0.0000       0.053250         1.4490

MULLIKEN ATOMIC CHARGES
-----------------------
   0 Pd:    0.519109
   1 O :   -0.505911
   2 C :    0.651398
   3 O :   -0.471790
   4 C :   -0.764422
   5 H :    0.246513
   6 H :    0.259290
   7 H :    0.258442
   8 N :   -0.473126
   9 C :   -0.524677
  10 H :    0.282253
  11 H :    0.216393
  12 H :    0.272518
  13 C :   -0.541248
  14 H :    0.288524
  15 H :    0.221437
  16 H :    0.276912
  17 C :    0.001219
  18 C :   -0.230361
  19 C :   -0.199779
  20 C :   -0.213421
  21 C :   -0.190722
  22 C :   -0.226555
  23 H :    0.229314
  24 H :    0.230715
  25 H :    0.260754
  26 H :    0.232598
  27 H :    0.172083
  28 C :   -0.343242
  29 H :    0.245928
  30 H :    0.271444
  31 O :   -0.567335
  32 C :    0.564213
  33 O :   -0.418337
  34 C :   -0.744561
  35 H :    0.231877
  36 H :    0.247440
  37 H :    0.235110
Sum of atomic charges:   -0.0000000

LOEWDIN ATOMIC CHARGES
----------------------
   0 Pd:   -0.266211
   1 O :   -0.177652
   2 C :    0.181705
   3 O :   -0.162090
   4 C :   -0.378911
   5 H :    0.150614
   6 H :    0.162779
   7 H :    0.154818
   8 N :   -0.052101
   9 C :   -0.233609
  10 H :    0.156789
  11 H :    0.119137
  12 H :    0.149327
  13 C :   -0.236616
  14 H :    0.158468
  15 H :    0.121820
  16 H :    0.155155
  17 C :   -0.050823
  18 C :   -0.101449
  19 C :   -0.126559
  20 C :   -0.127911
  21 C :   -0.140951
  22 C :   -0.109670
  23 H :    0.141175
  24 H :    0.137593
  25 H :    0.161033
  26 H :    0.142334
  27 H :    0.135242
  28 C :   -0.112721
  29 H :    0.137171
  30 H :    0.154918
  31 O :   -0.212153
  32 C :    0.126961
  33 O :   -0.210072
  34 C :   -0.382529
  35 H :    0.140832
  36 H :    0.152389
  37 H :    0.141769

  Mayer bond orders larger than 0.100000
B(  0-Pd,  1-O ) :   0.6061 B(  0-Pd,  3-O ) :   0.4191 B(  0-Pd,  8-N ) :   0.4011
B(  0-Pd, 31-O ) :   0.6844 B(  0-Pd, 33-O ) :   0.1089 B(  1-O ,  2-C ) :   1.3535
B(  1-O ,  3-O ) :   0.1010 B(  2-C ,  3-O ) :   1.5907 B(  2-C ,  4-C ) :   0.9506
B(  4-C ,  5-H ) :   0.9108 B(  4-C ,  6-H ) :   0.9040 B(  4-C ,  7-H ) :   0.9089
B(  8-N ,  9-C ) :   0.9262 B(  8-N , 13-C ) :   0.9253 B(  8-N , 28-C ) :   0.8974
B(  9-C , 10-H ) :   0.8983 B(  9-C , 11-H ) :   0.9034 B(  9-C , 12-H ) :   0.9022
B( 13-C , 14-H ) :   0.8869 B( 13-C , 15-H ) :   0.9045 B( 13-C , 16-H ) :   0.8993
B( 17-C , 18-C ) :   1.4449 B( 17-C , 22-C ) :   1.3364 B( 17-C , 28-C ) :   0.9584
B( 18-C , 19-C ) :   1.4073 B( 18-C , 25-H ) :   0.8973 B( 19-C , 20-C ) :   1.4587
B( 19-C , 26-H ) :   0.9123 B( 20-C , 21-C ) :   1.3886 B( 20-C , 23-H ) :   0.9143
B( 21-C , 22-C ) :   1.4601 B( 21-C , 24-H ) :   0.9132 B( 22-C , 27-H ) :   0.9187
B( 28-C , 29-H ) :   0.8977 B( 28-C , 30-H ) :   0.9053 B( 31-O , 32-C ) :   1.2022
B( 32-C , 33-O ) :   1.9208 B( 32-C , 34-C ) :   0.9347 B( 34-C , 35-H ) :   0.9149
B( 34-C , 36-H ) :   0.9113 B( 34-C , 37-H ) :   0.9227

Dispersion correction           -0.026108803
FINAL SINGLE POINT ENERGY      -988.467123562312
Dispersion correction            ... done

DIPOLE MOMENT
-------------
                                X             Y             Z
Electronic contribution:     30.48072      28.88920     -25.70400
Nuclear contribution   :    -32.24297     -29.24914      26.42329
                        -----------------------------------------
Total Dipole Moment    :     -1.76225      -0.35994       0.71930
                        -----------------------------------------
Magnitude (a.u.)       :      1.93713
Magnitude (Debye)      :      4.92379

Rotational constants in cm-1:     0.013306     0.008290     0.007025
Rotational constants in MHz :   398.892226   248.536670   210.609806

                             ****ORCA TERMINATED NORMALLY****
TOTAL RUN TIME: 0 days 0 hours 11 minutes 13 seconds 449 msec
