                         Program Version 5.0.3 -  RELEASE  -
|  1> ! EnGrad PBEh-3c
|  2> %output
|  3> xyzfile=True
|  4> end
|  5> %scf
|  6> maxiter 250
|  7> end
|  8> %output
|  9> Print[P_Hirshfeld] = 1
| 10> end
| 11> % maxcore
| 12> 4000
| 13> *xyz 0 1
| 14> Pd   0.68053539   0.57842788  -0.51786796
| 15> O    2.27538491   1.61752036   0.32512022
| 16> C    1.69540379   2.73878007   0.26142597
| 17> O    0.48807126   2.74426957  -0.08390497
| 18> C    2.45530328   3.99910180   0.54992105
| 19> H    1.81153426   4.72364300   1.04237395
| 20> H    2.79393976   4.43101236  -0.39348200
| 21> H    3.33295437   3.79989664   1.16027829
| 22> N   -1.16768656  -0.27416049  -1.14622653
| 23> C   -1.24107604  -0.88953894  -2.48952486
| 24> H   -0.95615930  -0.18226697  -3.26304045
| 25> H   -2.26046428  -1.22859766  -2.71891713
| 26> H   -0.59128342  -1.74943424  -2.57321832
| 27> C   -2.09100599   0.86555231  -1.19337538
| 28> H   -2.05437740   1.41351963  -0.26533008
| 29> H   -3.12221785   0.54631610  -1.38434834
| 30> H   -1.79619180   1.56005059  -1.97661239
| 31> C   -1.45137705  -0.94065691   1.28342159
| 32> C   -0.41725710  -1.60078237   1.96073883
| 33> C   -0.29151471  -1.54799342   3.33298724
| 34> C   -1.21193464  -0.85198116   4.08001006
| 35> C   -2.35014498  -0.37899085   3.44373806
| 36> C   -2.41665512  -0.23430470   2.05718656
| 37> H   -1.09206162  -0.79197487   5.15762974
| 38> H   -3.11637855   0.00729197   4.09873882
| 39> H    0.32043854  -2.19102988   1.43396499
| 40> H    0.53211542  -2.03639768   3.82875073
| 41> H   -3.61482721   0.82056209   1.73340975
| 42> C   -1.63649216  -1.28161374  -0.16246559
| 43> H   -2.70408212  -1.48662185  -0.30369398
| 44> H   -1.13016449  -2.21464226  -0.41728314
| 45> O    1.69916214  -1.01972682  -1.05628442
| 46> C    2.27926021  -0.85852705  -2.21823586
| 47> O    1.98609215  -0.00013260  -3.01733864
| 48> C    3.37974825  -1.83655295  -2.57897480
| 49> H    3.05393437  -2.85343791  -2.39021061
| 50> H    4.26146439  -1.64166494  -1.97041199
| 51> H    3.66837001  -1.75547523  -3.62965557
| 52> *
| 53>
| 54>                          ****END OF INPUT****

CARTESIAN COORDINATES (ANGSTROEM)
---------------------------------
  Pd     0.680535    0.578428   -0.517868
  O      2.275385    1.617520    0.325120
  C      1.695404    2.738780    0.261426
  O      0.488071    2.744270   -0.083905
  C      2.455303    3.999102    0.549921
  H      1.811534    4.723643    1.042374
  H      2.793940    4.431012   -0.393482
  H      3.332954    3.799897    1.160278
  N     -1.167687   -0.274160   -1.146227
  C     -1.241076   -0.889539   -2.489525
  H     -0.956159   -0.182267   -3.263040
  H     -2.260464   -1.228598   -2.718917
  H     -0.591283   -1.749434   -2.573218
  C     -2.091006    0.865552   -1.193375
  H     -2.054377    1.413520   -0.265330
  H     -3.122218    0.546316   -1.384348
  H     -1.796192    1.560051   -1.976612
  C     -1.451377   -0.940657    1.283422
  C     -0.417257   -1.600782    1.960739
  C     -0.291515   -1.547993    3.332987
  C     -1.211935   -0.851981    4.080010
  C     -2.350145   -0.378991    3.443738
  C     -2.416655   -0.234305    2.057187
  H     -1.092062   -0.791975    5.157630
  H     -3.116379    0.007292    4.098739
  H      0.320439   -2.191030    1.433965
  H      0.532115   -2.036398    3.828751
  H     -3.614827    0.820562    1.733410
  C     -1.636492   -1.281614   -0.162466
  H     -2.704082   -1.486622   -0.303694
  H     -1.130164   -2.214642   -0.417283
  O      1.699162   -1.019727   -1.056284
  C      2.279260   -0.858527   -2.218236
  O      1.986092   -0.000133   -3.017339
  C      3.379748   -1.836553   -2.578975
  H      3.053934   -2.853438   -2.390211
  H      4.261464   -1.641665   -1.970412
  H      3.668370   -1.755475   -3.629656

 Total Charge           Charge          ....    0
 Multiplicity           Mult            ....    1
 Number of Electrons    NEL             ....  154
 Basis Dimension        Dim             ....  339

ORBITAL ENERGIES
----------------

  NO   OCC          E(Eh)            E(eV)
   0   2.0000     -19.491653      -530.3949
   1   2.0000     -19.484020      -530.1871
   2   2.0000     -19.479760      -530.0712
   3   2.0000     -19.432910      -528.7964
   4   2.0000     -14.723883      -400.6572
   5   2.0000     -10.562708      -287.4259
   6   2.0000     -10.533104      -286.6203
   7   2.0000     -10.512103      -286.0489
   8   2.0000     -10.500364      -285.7294
   9   2.0000     -10.485678      -285.3298
  10   2.0000     -10.479867      -285.1717
  11   2.0000     -10.479332      -285.1571
  12   2.0000     -10.462760      -284.7062
  13   2.0000     -10.461403      -284.6692
  14   2.0000     -10.459563      -284.6192
  15   2.0000     -10.454583      -284.4837
  16   2.0000     -10.437243      -284.0118
  17   2.0000     -10.416120      -283.4370
  18   2.0000      -3.659129       -99.5700
  19   2.0000      -2.306275       -62.7569
  20   2.0000      -2.304730       -62.7149
  21   2.0000      -2.267550       -61.7032
  22   2.0000      -1.193215       -32.4690
  23   2.0000      -1.152913       -31.3723
  24   2.0000      -1.079614       -29.3778
  25   2.0000      -1.074423       -29.2365
  26   2.0000      -1.055605       -28.7245
  27   2.0000      -0.974272       -26.5113
  28   2.0000      -0.884835       -24.0776
  29   2.0000      -0.846662       -23.0389
  30   2.0000      -0.827138       -22.5076
  31   2.0000      -0.820097       -22.3160
  32   2.0000      -0.801600       -21.8126
  33   2.0000      -0.798158       -21.7190
  34   2.0000      -0.721465       -19.6321
  35   2.0000      -0.689437       -18.7605
  36   2.0000      -0.670553       -18.2467
  37   2.0000      -0.606862       -16.5136
  38   2.0000      -0.594515       -16.1776
  39   2.0000      -0.590548       -16.0696
  40   2.0000      -0.578456       -15.7406
  41   2.0000      -0.572191       -15.5701
  42   2.0000      -0.555138       -15.1061
  43   2.0000      -0.537038       -14.6135
  44   2.0000      -0.535560       -14.5733
  45   2.0000      -0.531364       -14.4592
  46   2.0000      -0.520261       -14.1570
  47   2.0000      -0.515517       -14.0279
  48   2.0000      -0.511976       -13.9316
  49   2.0000      -0.497704       -13.5432
  50   2.0000      -0.490707       -13.3528
  51   2.0000      -0.489627       -13.3234
  52   2.0000      -0.476597       -12.9689
  53   2.0000      -0.468494       -12.7484
  54   2.0000      -0.456065       -12.4102
  55   2.0000      -0.454075       -12.3560
  56   2.0000      -0.444333       -12.0909
  57   2.0000      -0.441231       -12.0065
  58   2.0000      -0.437053       -11.8928
  59   2.0000      -0.433251       -11.7894
  60   2.0000      -0.432582       -11.7712
  61   2.0000      -0.422056       -11.4847
  62   2.0000      -0.413452       -11.2506
  63   2.0000      -0.404854       -11.0166
  64   2.0000      -0.385150       -10.4805
  65   2.0000      -0.373643       -10.1673
  66   2.0000      -0.372223       -10.1287
  67   2.0000      -0.359528        -9.7832
  68   2.0000      -0.349172        -9.5015
  69   2.0000      -0.342674        -9.3246
  70   2.0000      -0.319075        -8.6825
  71   2.0000      -0.315112        -8.5746
  72   2.0000      -0.306712        -8.3461
  73   2.0000      -0.302975        -8.2444
  74   2.0000      -0.298944        -8.1347
  75   2.0000      -0.295602        -8.0437
  76   2.0000      -0.272010        -7.4018
  77   0.0000      -0.054095        -1.4720
  78   0.0000      -0.014871        -0.4047
  79   0.0000      -0.002840        -0.0773
  80   0.0000       0.012055         0.3280
  81   0.0000       0.054174         1.4742

MULLIKEN ATOMIC CHARGES
-----------------------
   0 Pd:    0.529353
   1 O :   -0.482833
   2 C :    0.652982
   3 O :   -0.504101
   4 C :   -0.765288
   5 H :    0.249523
   6 H :    0.260285
   7 H :    0.255345
   8 N :   -0.481751
   9 C :   -0.529109
  10 H :    0.285442
  11 H :    0.221777
  12 H :    0.270872
  13 C :   -0.544682
  14 H :    0.292759
  15 H :    0.226027
  16 H :    0.279937
  17 C :    0.019959
  18 C :   -0.231785
  19 C :   -0.211681
  20 C :   -0.212089
  21 C :   -0.206836
  22 C :   -0.187955
  23 H :    0.231447
  24 H :    0.232165
  25 H :    0.263231
  26 H :    0.233756
  27 H :    0.137859
  28 C :   -0.343710
  29 H :    0.247573
  30 H :    0.274255
  31 O :   -0.560534
  32 C :    0.566788
  33 O :   -0.441690
  34 C :   -0.740703
  35 H :    0.225700
  36 H :    0.244685
  37 H :    0.243026
Sum of atomic charges:   -0.0000000

LOEWDIN ATOMIC CHARGES
----------------------
   0 Pd:   -0.262475
   1 O :   -0.154820
   2 C :    0.176689
   3 O :   -0.201640
   4 C :   -0.377604
   5 H :    0.152572
   6 H :    0.163848
   7 H :    0.153963
   8 N :   -0.045177
   9 C :   -0.234304
  10 H :    0.158792
  11 H :    0.121360
  12 H :    0.148756
  13 C :   -0.236752
  14 H :    0.161037
  15 H :    0.124212
  16 H :    0.156546
  17 C :   -0.061018
  18 C :   -0.101021
  19 C :   -0.126427
  20 C :   -0.126459
  21 C :   -0.138776
  22 C :   -0.088418
  23 H :    0.141122
  24 H :    0.139338
  25 H :    0.163046
  26 H :    0.141763
  27 H :    0.113093
  28 C :   -0.106444
  29 H :    0.138102
  30 H :    0.156040
  31 O :   -0.196745
  32 C :    0.131341
  33 O :   -0.236978
  34 C :   -0.381072
  35 H :    0.139047
  36 H :    0.151418
  37 H :    0.144042

  Mayer bond orders larger than 0.100000
B(  0-Pd,  1-O ) :   0.5664 B(  0-Pd,  3-O ) :   0.4493 B(  0-Pd,  8-N ) :   0.4188
B(  0-Pd, 31-O ) :   0.6669 B(  0-Pd, 33-O ) :   0.1150 B(  1-O ,  2-C ) :   1.4239
B(  1-O ,  3-O ) :   0.1007 B(  2-C ,  3-O ) :   1.5265 B(  2-C ,  4-C ) :   0.9529
B(  4-C ,  5-H ) :   0.9107 B(  4-C ,  6-H ) :   0.9034 B(  4-C ,  7-H ) :   0.9092
B(  8-N ,  9-C ) :   0.9222 B(  8-N , 13-C ) :   0.9189 B(  8-N , 28-C ) :   0.8957
B(  9-C , 10-H ) :   0.8973 B(  9-C , 11-H ) :   0.9015 B(  9-C , 12-H ) :   0.9029
B( 13-C , 14-H ) :   0.8854 B( 13-C , 15-H ) :   0.9036 B( 13-C , 16-H ) :   0.8976
B( 17-C , 18-C ) :   1.4111 B( 17-C , 22-C ) :   1.3848 B( 17-C , 28-C ) :   0.9522
B( 18-C , 19-C ) :   1.4320 B( 18-C , 25-H ) :   0.8960 B( 19-C , 20-C ) :   1.4338
B( 19-C , 26-H ) :   0.9121 B( 20-C , 21-C ) :   1.4104 B( 20-C , 23-H ) :   0.9132
B( 21-C , 22-C ) :   1.4314 B( 21-C , 24-H ) :   0.9141 B( 22-C , 27-H ) :   0.9148
B( 28-C , 29-H ) :   0.8986 B( 28-C , 30-H ) :   0.9040 B( 31-O , 32-C ) :   1.2267
B( 32-C , 33-O ) :   1.8857 B( 32-C , 34-C ) :   0.9380 B( 34-C , 35-H ) :   0.9165
B( 34-C , 36-H ) :   0.9118 B( 34-C , 37-H ) :   0.9200

Dispersion correction           -0.026270560
FINAL SINGLE POINT ENERGY      -988.451273647587
Dispersion correction            ... done

DIPOLE MOMENT
-------------
                                X             Y             Z
Electronic contribution:     30.08652      28.32499     -26.12389
Nuclear contribution   :    -31.83691     -28.83093      26.91630
                        -----------------------------------------
Total Dipole Moment    :     -1.75040      -0.50594       0.79242
                        -----------------------------------------
Magnitude (a.u.)       :      1.98690
Magnitude (Debye)      :      5.05031

Rotational constants in cm-1:     0.013300     0.008313     0.007044
Rotational constants in MHz :   398.719381   249.202947   211.175083

                             ****ORCA TERMINATED NORMALLY****
TOTAL RUN TIME: 0 days 0 hours 14 minutes 4 seconds 132 msec
