                         Program Version 5.0.3 -  RELEASE  -
|  1> ! EnGrad PBEh-3c
|  2> %output
|  3> xyzfile=True
|  4> end
|  5> %scf
|  6> maxiter 250
|  7> end
|  8> %output
|  9> Print[P_Hirshfeld] = 1
| 10> end
| 11> % maxcore
| 12> 4000
| 13> *xyz 0 1
| 14> Pd   0.70293804   0.59241355  -0.48195901
| 15> O    2.23245111   1.51154444   0.35882349
| 16> C    1.64784191   2.68634455   0.26551689
| 17> O    0.49247413   2.74585093  -0.10365432
| 18> C    2.49421671   3.93769641   0.55986812
| 19> H    1.89112749   4.70347703   1.04597200
| 20> H    2.85558786   4.35959151  -0.38315681
| 21> H    3.36917387   3.72076225   1.17876566
| 22> N   -1.24060500  -0.34340262  -1.18972534
| 23> C   -1.22387509  -1.06623708  -2.45496547
| 24> H   -0.93032576  -0.39096614  -3.23054864
| 25> H   -2.25497355  -1.39189511  -2.65317541
| 26> H   -0.57343506  -1.91695974  -2.43081960
| 27> C   -2.10978264   0.80099878  -1.26449516
| 28> H   -2.13007968   1.38179775  -0.36464082
| 29> H   -3.12730751   0.45070411  -1.49694452
| 30> H   -1.76709823   1.41588203  -2.08860102
| 31> C   -1.52398259  -0.92786973   1.30847319
| 32> C   -0.52963429  -1.68608311   2.01923175
| 33> C   -0.35239420  -1.59066951   3.38573224
| 34> C   -1.24424741  -0.91493270   4.09068932
| 35> C   -2.23302945  -0.09353398   3.46033032
| 36> C   -2.53213665   0.01327931   2.10383857
| 37> H   -1.09968357  -0.75619718   5.16597875
| 38> H   -2.99485300   0.25633102   4.05842720
| 39> H    0.10982763  -2.35715884   1.45753682
| 40> H    0.35623072  -2.20256884   3.87666868
| 41> H   -3.00577932   1.06544451   1.80562795
| 42> C   -1.73821447  -1.27812256  -0.14182362
| 43> H   -2.80889653  -1.40678636  -0.25203743
| 44> H   -1.31950578  -2.26483717  -0.31115344
| 45> O    1.77460080  -0.99466070  -1.09582262
| 46> C    2.27576828  -0.78342174  -2.30862737
| 47> O    1.86336080   0.05506198  -3.08176951
| 48> C    3.43723780  -1.67869558  -2.61948518
| 49> H    3.20473535  -2.71472108  -2.50873213
| 50> H    4.30652880  -1.44588954  -2.01355100
| 51> H    3.73024366  -1.49819425  -3.67384448
| 52> *
| 53>
| 54>                          ****END OF INPUT****

CARTESIAN COORDINATES (ANGSTROEM)
---------------------------------
  Pd     0.702938    0.592414   -0.481959
  O      2.232451    1.511544    0.358823
  C      1.647842    2.686345    0.265517
  O      0.492474    2.745851   -0.103654
  C      2.494217    3.937696    0.559868
  H      1.891127    4.703477    1.045972
  H      2.855588    4.359592   -0.383157
  H      3.369174    3.720762    1.178766
  N     -1.240605   -0.343403   -1.189725
  C     -1.223875   -1.066237   -2.454965
  H     -0.930326   -0.390966   -3.230549
  H     -2.254974   -1.391895   -2.653175
  H     -0.573435   -1.916960   -2.430820
  C     -2.109783    0.800999   -1.264495
  H     -2.130080    1.381798   -0.364641
  H     -3.127308    0.450704   -1.496945
  H     -1.767098    1.415882   -2.088601
  C     -1.523983   -0.927870    1.308473
  C     -0.529634   -1.686083    2.019232
  C     -0.352394   -1.590670    3.385732
  C     -1.244247   -0.914933    4.090689
  C     -2.233029   -0.093534    3.460330
  C     -2.532137    0.013279    2.103839
  H     -1.099684   -0.756197    5.165979
  H     -2.994853    0.256331    4.058427
  H      0.109828   -2.357159    1.457537
  H      0.356231   -2.202569    3.876669
  H     -3.005779    1.065445    1.805628
  C     -1.738214   -1.278123   -0.141824
  H     -2.808897   -1.406786   -0.252037
  H     -1.319506   -2.264837   -0.311153
  O      1.774601   -0.994661   -1.095823
  C      2.275768   -0.783422   -2.308627
  O      1.863361    0.055062   -3.081770
  C      3.437238   -1.678696   -2.619485
  H      3.204735   -2.714721   -2.508732
  H      4.306529   -1.445890   -2.013551
  H      3.730244   -1.498194   -3.673844

 Total Charge           Charge          ....    0
 Multiplicity           Mult            ....    1
 Number of Electrons    NEL             ....  154
 Basis Dimension        Dim             ....  339

ORBITAL ENERGIES
----------------

  NO   OCC          E(Eh)            E(eV)
   0   2.0000     -19.506199      -530.7907
   1   2.0000     -19.502854      -530.6996
   2   2.0000     -19.471353      -529.8425
   3   2.0000     -19.437565      -528.9230
   4   2.0000     -14.708386      -400.2355
   5   2.0000     -10.578036      -287.8430
   6   2.0000     -10.533197      -286.6229
   7   2.0000     -10.496883      -285.6347
   8   2.0000     -10.491989      -285.5015
   9   2.0000     -10.491664      -285.4927
  10   2.0000     -10.477703      -285.1128
  11   2.0000     -10.471273      -284.9378
  12   2.0000     -10.465008      -284.7674
  13   2.0000     -10.458051      -284.5780
  14   2.0000     -10.456107      -284.5251
  15   2.0000     -10.451155      -284.3904
  16   2.0000     -10.445243      -284.2295
  17   2.0000     -10.414412      -283.3906
  18   2.0000      -3.656893       -99.5091
  19   2.0000      -2.306230       -62.7557
  20   2.0000      -2.301088       -62.6158
  21   2.0000      -2.265523       -61.6480
  22   2.0000      -1.211592       -32.9691
  23   2.0000      -1.144241       -31.1364
  24   2.0000      -1.089548       -29.6481
  25   2.0000      -1.076392       -29.2901
  26   2.0000      -1.046421       -28.4746
  27   2.0000      -0.959978       -26.1223
  28   2.0000      -0.874208       -23.7884
  29   2.0000      -0.853098       -23.2140
  30   2.0000      -0.824391       -22.4328
  31   2.0000      -0.823474       -22.4079
  32   2.0000      -0.801103       -21.7991
  33   2.0000      -0.790715       -21.5164
  34   2.0000      -0.714874       -19.4527
  35   2.0000      -0.685057       -18.6414
  36   2.0000      -0.665989       -18.1225
  37   2.0000      -0.616561       -16.7775
  38   2.0000      -0.596414       -16.2292
  39   2.0000      -0.584576       -15.9071
  40   2.0000      -0.575994       -15.6736
  41   2.0000      -0.566622       -15.4186
  42   2.0000      -0.557902       -15.1813
  43   2.0000      -0.553200       -15.0533
  44   2.0000      -0.545941       -14.8558
  45   2.0000      -0.528655       -14.3854
  46   2.0000      -0.525472       -14.2988
  47   2.0000      -0.517720       -14.0879
  48   2.0000      -0.509011       -13.8509
  49   2.0000      -0.495226       -13.4758
  50   2.0000      -0.492741       -13.4082
  51   2.0000      -0.487922       -13.2770
  52   2.0000      -0.477627       -12.9969
  53   2.0000      -0.471668       -12.8347
  54   2.0000      -0.459802       -12.5119
  55   2.0000      -0.454817       -12.3762
  56   2.0000      -0.452489       -12.3128
  57   2.0000      -0.449352       -12.2275
  58   2.0000      -0.443240       -12.0612
  59   2.0000      -0.426673       -11.6104
  60   2.0000      -0.425920       -11.5899
  61   2.0000      -0.417441       -11.3591
  62   2.0000      -0.408697       -11.1212
  63   2.0000      -0.404018       -10.9939
  64   2.0000      -0.387612       -10.5474
  65   2.0000      -0.383835       -10.4447
  66   2.0000      -0.377569       -10.2742
  67   2.0000      -0.361520        -9.8375
  68   2.0000      -0.353445        -9.6177
  69   2.0000      -0.341591        -9.2952
  70   2.0000      -0.315511        -8.5855
  71   2.0000      -0.312468        -8.5027
  72   2.0000      -0.307115        -8.3570
  73   2.0000      -0.303349        -8.2546
  74   2.0000      -0.297534        -8.0963
  75   2.0000      -0.287892        -7.8339
  76   2.0000      -0.272296        -7.4096
  77   0.0000      -0.053525        -1.4565
  78   0.0000      -0.026771        -0.7285
  79   0.0000       0.000091         0.0025
  80   0.0000       0.045850         1.2476
  81   0.0000       0.065313         1.7773

MULLIKEN ATOMIC CHARGES
-----------------------
   0 Pd:    0.522265
   1 O :   -0.512393
   2 C :    0.656446
   3 O :   -0.455961
   4 C :   -0.765180
   5 H :    0.247775
   6 H :    0.260879
   7 H :    0.257866
   8 N :   -0.453107
   9 C :   -0.516297
  10 H :    0.280593
  11 H :    0.208708
  12 H :    0.270894
  13 C :   -0.532814
  14 H :    0.275840
  15 H :    0.214662
  16 H :    0.273334
  17 C :   -0.013100
  18 C :   -0.244133
  19 C :   -0.164082
  20 C :   -0.228308
  21 C :   -0.192045
  22 C :   -0.266344
  23 H :    0.223380
  24 H :    0.228347
  25 H :    0.256613
  26 H :    0.231592
  27 H :    0.230519
  28 C :   -0.342722
  29 H :    0.241562
  30 H :    0.262161
  31 O :   -0.560559
  32 C :    0.571442
  33 O :   -0.443446
  34 C :   -0.744509
  35 H :    0.237928
  36 H :    0.250951
  37 H :    0.231245
Sum of atomic charges:    0.0000000

LOEWDIN ATOMIC CHARGES
----------------------
   0 Pd:   -0.252967
   1 O :   -0.163880
   2 C :    0.197950
   3 O :   -0.143788
   4 C :   -0.380990
   5 H :    0.150146
   6 H :    0.162597
   7 H :    0.154126
   8 N :   -0.069142
   9 C :   -0.232714
  10 H :    0.155278
  11 H :    0.115844
  12 H :    0.150177
  13 C :   -0.236176
  14 H :    0.153428
  15 H :    0.117618
  16 H :    0.153799
  17 C :   -0.030383
  18 C :   -0.108151
  19 C :   -0.122020
  20 C :   -0.134386
  21 C :   -0.131719
  22 C :   -0.149297
  23 H :    0.140441
  24 H :    0.135968
  25 H :    0.157219
  26 H :    0.143387
  27 H :    0.163032
  28 C :   -0.124308
  29 H :    0.134693
  30 H :    0.149932
  31 O :   -0.215481
  32 C :    0.140363
  33 O :   -0.238186
  34 C :   -0.381269
  35 H :    0.143939
  36 H :    0.153581
  37 H :    0.141340

  Mayer bond orders larger than 0.100000
B(  0-Pd,  1-O ) :   0.6449 B(  0-Pd,  3-O ) :   0.4077 B(  0-Pd,  8-N ) :   0.3705
B(  0-Pd, 31-O ) :   0.6762 B(  0-Pd, 33-O ) :   0.1091 B(  1-O ,  2-C ) :   1.3052
B(  1-O ,  3-O ) :   0.1024 B(  2-C ,  3-O ) :   1.6161 B(  2-C ,  4-C ) :   0.9467
B(  4-C ,  5-H ) :   0.9098 B(  4-C ,  6-H ) :   0.9032 B(  4-C ,  7-H ) :   0.9085
B(  8-N ,  9-C ) :   0.9311 B(  8-N , 13-C ) :   0.9372 B(  8-N , 28-C ) :   0.9037
B(  9-C , 10-H ) :   0.8975 B(  9-C , 11-H ) :   0.9054 B(  9-C , 12-H ) :   0.9035
B( 13-C , 14-H ) :   0.8921 B( 13-C , 15-H ) :   0.9046 B( 13-C , 16-H ) :   0.9018
B( 17-C , 18-C ) :   1.4985 B( 17-C , 22-C ) :   1.2500 B( 17-C , 28-C ) :   0.9673
B( 18-C , 19-C ) :   1.3432 B( 18-C , 25-H ) :   0.9000 B( 19-C , 20-C ) :   1.5091
B( 19-C , 26-H ) :   0.9129 B( 20-C , 21-C ) :   1.3244 B( 20-C , 23-H ) :   0.9172
B( 21-C , 22-C ) :   1.5282 B( 21-C , 24-H ) :   0.9112 B( 22-C , 27-H ) :   0.9057
B( 28-C , 29-H ) :   0.8949 B( 28-C , 30-H ) :   0.9083 B( 31-O , 32-C ) :   1.2190
B( 32-C , 33-O ) :   1.8923 B( 32-C , 34-C ) :   0.9368 B( 34-C , 35-H ) :   0.9126
B( 34-C , 36-H ) :   0.9093 B( 34-C , 37-H ) :   0.9236

Dispersion correction           -0.025535811
FINAL SINGLE POINT ENERGY      -988.467980736507
Dispersion correction            ... done

DIPOLE MOMENT
-------------
                                X             Y             Z
Electronic contribution:     31.84254      29.30560     -24.07165
Nuclear contribution   :    -33.36007     -29.53497      24.90772
                        -----------------------------------------
Total Dipole Moment    :     -1.51753      -0.22936       0.83607
                        -----------------------------------------
Magnitude (a.u.)       :      1.74772
Magnitude (Debye)      :      4.44235

Rotational constants in cm-1:     0.013323     0.008216     0.006954
Rotational constants in MHz :   399.426283   246.311211   208.489672

                             ****ORCA TERMINATED NORMALLY****
TOTAL RUN TIME: 0 days 0 hours 15 minutes 0 seconds 604 msec
