                         Program Version 5.0.3 -  RELEASE  -
|  1> ! EnGrad PBEh-3c
|  2> %output
|  3> xyzfile=True
|  4> end
|  5> %scf
|  6> maxiter 250
|  7> end
|  8> %output
|  9> Print[P_Hirshfeld] = 1
| 10> end
| 11> % maxcore
| 12> 4000
| 13> *xyz 0 1
| 14> Pd   0.68648953   0.58214496  -0.50832415
| 15> O    2.26397405   1.58935429   0.33407780
| 16> C    1.68276289   2.72484386   0.26251324
| 17> O    0.48924144   2.74468986  -0.08915392
| 18> C    2.46564561   3.98278160   0.55256476
| 19> H    1.83268839   4.71828333   1.04333023
| 20> H    2.81032447   4.41203027  -0.39073779
| 21> H    3.34258071   3.77886446   1.16519183
| 22> N   -1.18706668  -0.29256352  -1.15778755
| 23> C   -1.23650440  -0.93650142  -2.48033973
| 24> H   -0.94929331  -0.23773462  -3.25440484
| 25> H   -2.25900496  -1.27199853  -2.70144443
| 26> H   -0.58653972  -1.79395884  -2.53537188
| 27> C   -2.09599641   0.84839540  -1.21227746
| 28> H   -2.07449740   1.40508865  -0.29172469
| 29> H   -3.12357057   0.52090454  -1.41427393
| 30> H   -1.78845937   1.52173376  -2.00637650
| 31> C   -1.47067401  -0.93725836   1.29007975
| 32> C   -0.44712448  -1.62345343   1.97628496
| 33> C   -0.30769514  -1.55933579   3.34700570
| 34> C   -1.22052266  -0.86871230   4.08284837
| 35> C   -2.31901825  -0.30312270   3.44814792
| 36> C   -2.44734757  -0.16850231   2.06958564
| 37> H   -1.09408737  -0.78246595   5.15984872
| 38> H   -3.08407973   0.07348107   4.08802488
| 39> H    0.26446280  -2.23518330   1.44022986
| 40> H    0.48536914  -2.08056232   3.84148627
| 41> H   -3.45295568   0.88564645   1.75260376
| 42> C   -1.66352771  -1.28068586  -0.15697941
| 43> H   -2.73193948  -1.46540333  -0.28996480
| 44> H   -1.18048724  -2.22798296  -0.38907620
| 45> O    1.71921207  -1.01306480  -1.06679280
| 46> C    2.27833214  -0.83856571  -2.24225994
| 47> O    1.95347286   0.01453690  -3.03446295
| 48> C    3.39502771  -1.79459793  -2.58974157
| 49> H    3.09401395  -2.81657003  -2.42171102
| 50> H    4.27344152  -1.58963215  -1.98187739
| 51> H    3.68481467  -1.68709561  -3.64140001
| 52> *
| 53>
| 54>                          ****END OF INPUT****

CARTESIAN COORDINATES (ANGSTROEM)
---------------------------------
  Pd     0.686490    0.582145   -0.508324
  O      2.263974    1.589354    0.334078
  C      1.682763    2.724844    0.262513
  O      0.489241    2.744690   -0.089154
  C      2.465646    3.982782    0.552565
  H      1.832688    4.718283    1.043330
  H      2.810324    4.412030   -0.390738
  H      3.342581    3.778864    1.165192
  N     -1.187067   -0.292564   -1.157788
  C     -1.236504   -0.936501   -2.480340
  H     -0.949293   -0.237735   -3.254405
  H     -2.259005   -1.271999   -2.701444
  H     -0.586540   -1.793959   -2.535372
  C     -2.095996    0.848395   -1.212277
  H     -2.074497    1.405089   -0.291725
  H     -3.123571    0.520905   -1.414274
  H     -1.788459    1.521734   -2.006377
  C     -1.470674   -0.937258    1.290080
  C     -0.447124   -1.623453    1.976285
  C     -0.307695   -1.559336    3.347006
  C     -1.220523   -0.868712    4.082848
  C     -2.319018   -0.303123    3.448148
  C     -2.447348   -0.168502    2.069586
  H     -1.094087   -0.782466    5.159849
  H     -3.084080    0.073481    4.088025
  H      0.264463   -2.235183    1.440230
  H      0.485369   -2.080562    3.841486
  H     -3.452956    0.885646    1.752604
  C     -1.663528   -1.280686   -0.156979
  H     -2.731939   -1.465403   -0.289965
  H     -1.180487   -2.227983   -0.389076
  O      1.719212   -1.013065   -1.066793
  C      2.278332   -0.838566   -2.242260
  O      1.953473    0.014537   -3.034463
  C      3.395028   -1.794598   -2.589742
  H      3.094014   -2.816570   -2.421711
  H      4.273442   -1.589632   -1.981877
  H      3.684815   -1.687096   -3.641400

 Total Charge           Charge          ....    0
 Multiplicity           Mult            ....    1
 Number of Electrons    NEL             ....  154
 Basis Dimension        Dim             ....  339

ORBITAL ENERGIES
----------------

  NO   OCC          E(Eh)            E(eV)
   0   2.0000     -19.494390      -530.4693
   1   2.0000     -19.489669      -530.3409
   2   2.0000     -19.477245      -530.0028
   3   2.0000     -19.433790      -528.8203
   4   2.0000     -14.719583      -400.5402
   5   2.0000     -10.566552      -287.5305
   6   2.0000     -10.532558      -286.6055
   7   2.0000     -10.506904      -285.9074
   8   2.0000     -10.497582      -285.6537
   9   2.0000     -10.488188      -285.3981
  10   2.0000     -10.479337      -285.1573
  11   2.0000     -10.476810      -285.0885
  12   2.0000     -10.461086      -284.6606
  13   2.0000     -10.458904      -284.6012
  14   2.0000     -10.456779      -284.5434
  15   2.0000     -10.452356      -284.4231
  16   2.0000     -10.439220      -284.0656
  17   2.0000     -10.415044      -283.4077
  18   2.0000      -3.658166       -99.5437
  19   2.0000      -2.305696       -62.7412
  20   2.0000      -2.303478       -62.6808
  21   2.0000      -2.266606       -61.6775
  22   2.0000      -1.196602       -32.5612
  23   2.0000      -1.150821       -31.3154
  24   2.0000      -1.079705       -29.3803
  25   2.0000      -1.078239       -29.3404
  26   2.0000      -1.053416       -28.6649
  27   2.0000      -0.969501       -26.3815
  28   2.0000      -0.881773       -23.9943
  29   2.0000      -0.847637       -23.0654
  30   2.0000      -0.826263       -22.4838
  31   2.0000      -0.821164       -22.3450
  32   2.0000      -0.799215       -21.7478
  33   2.0000      -0.798284       -21.7224
  34   2.0000      -0.719556       -19.5801
  35   2.0000      -0.686424       -18.6785
  36   2.0000      -0.670275       -18.2391
  37   2.0000      -0.608943       -16.5702
  38   2.0000      -0.595197       -16.1961
  39   2.0000      -0.588599       -16.0166
  40   2.0000      -0.577523       -15.7152
  41   2.0000      -0.571173       -15.5424
  42   2.0000      -0.554948       -15.1009
  43   2.0000      -0.540634       -14.7114
  44   2.0000      -0.537917       -14.6375
  45   2.0000      -0.528174       -14.3723
  46   2.0000      -0.521777       -14.1983
  47   2.0000      -0.515361       -14.0237
  48   2.0000      -0.511312       -13.9135
  49   2.0000      -0.496977       -13.5234
  50   2.0000      -0.489953       -13.3323
  51   2.0000      -0.487191       -13.2572
  52   2.0000      -0.478227       -13.0132
  53   2.0000      -0.469294       -12.7701
  54   2.0000      -0.457216       -12.4415
  55   2.0000      -0.455493       -12.3946
  56   2.0000      -0.447326       -12.1724
  57   2.0000      -0.443140       -12.0584
  58   2.0000      -0.437845       -11.9144
  59   2.0000      -0.431656       -11.7460
  60   2.0000      -0.431132       -11.7317
  61   2.0000      -0.420547       -11.4437
  62   2.0000      -0.410034       -11.1576
  63   2.0000      -0.402458       -10.9514
  64   2.0000      -0.388141       -10.5619
  65   2.0000      -0.383482       -10.4351
  66   2.0000      -0.372043       -10.1238
  67   2.0000      -0.360367        -9.8061
  68   2.0000      -0.350065        -9.5258
  69   2.0000      -0.344907        -9.3854
  70   2.0000      -0.318178        -8.6581
  71   2.0000      -0.314139        -8.5482
  72   2.0000      -0.306834        -8.3494
  73   2.0000      -0.302677        -8.2363
  74   2.0000      -0.298589        -8.1250
  75   2.0000      -0.293591        -7.9890
  76   2.0000      -0.272045        -7.4027
  77   0.0000      -0.053977        -1.4688
  78   0.0000      -0.014695        -0.3999
  79   0.0000       0.003277         0.0892
  80   0.0000       0.037702         1.0259
  81   0.0000       0.052452         1.4273

MULLIKEN ATOMIC CHARGES
-----------------------
   0 Pd:    0.526555
   1 O :   -0.491319
   2 C :    0.655190
   3 O :   -0.491846
   4 C :   -0.765295
   5 H :    0.249023
   6 H :    0.260411
   7 H :    0.256138
   8 N :   -0.472950
   9 C :   -0.525655
  10 H :    0.284006
  11 H :    0.217923
  12 H :    0.271083
  13 C :   -0.541509
  14 H :    0.287748
  15 H :    0.222624
  16 H :    0.278508
  17 C :    0.009440
  18 C :   -0.230814
  19 C :   -0.204341
  20 C :   -0.212447
  21 C :   -0.195432
  22 C :   -0.227261
  23 H :    0.230384
  24 H :    0.230609
  25 H :    0.259872
  26 H :    0.232558
  27 H :    0.175037
  28 C :   -0.344036
  29 H :    0.245370
  30 H :    0.271108
  31 O :   -0.560133
  32 C :    0.567879
  33 O :   -0.441594
  34 C :   -0.742258
  35 H :    0.229212
  36 H :    0.246144
  37 H :    0.240069
Sum of atomic charges:   -0.0000000

LOEWDIN ATOMIC CHARGES
----------------------
   0 Pd:   -0.259762
   1 O :   -0.157935
   2 C :    0.182640
   3 O :   -0.186342
   4 C :   -0.378453
   5 H :    0.151875
   6 H :    0.163495
   7 H :    0.154036
   8 N :   -0.051123
   9 C :   -0.234007
  10 H :    0.157739
  11 H :    0.119657
  12 H :    0.149132
  13 C :   -0.236622
  14 H :    0.158797
  15 H :    0.122249
  16 H :    0.155783
  17 C :   -0.051943
  18 C :   -0.103020
  19 C :   -0.125548
  20 C :   -0.129295
  21 C :   -0.138427
  22 C :   -0.110628
  23 H :    0.141091
  24 H :    0.137197
  25 H :    0.160971
  26 H :    0.141867
  27 H :    0.137257
  28 C :   -0.111462
  29 H :    0.136767
  30 H :    0.154310
  31 O :   -0.200925
  32 C :    0.132472
  33 O :   -0.236346
  34 C :   -0.381248
  35 H :    0.140413
  36 H :    0.151979
  37 H :    0.143358

  Mayer bond orders larger than 0.100000
B(  0-Pd,  1-O ) :   0.5881 B(  0-Pd,  3-O ) :   0.4379 B(  0-Pd,  8-N ) :   0.4060
B(  0-Pd, 31-O ) :   0.6705 B(  0-Pd, 33-O ) :   0.1133 B(  1-O ,  2-C ) :   1.3911
B(  1-O ,  3-O ) :   0.1014 B(  2-C ,  3-O ) :   1.5504 B(  2-C ,  4-C ) :   0.9515
B(  4-C ,  5-H ) :   0.9105 B(  4-C ,  6-H ) :   0.9034 B(  4-C ,  7-H ) :   0.9090
B(  8-N ,  9-C ) :   0.9252 B(  8-N , 13-C ) :   0.9242 B(  8-N , 28-C ) :   0.8982
B(  9-C , 10-H ) :   0.8975 B(  9-C , 11-H ) :   0.9026 B(  9-C , 12-H ) :   0.9030
B( 13-C , 14-H ) :   0.8875 B( 13-C , 15-H ) :   0.9040 B( 13-C , 16-H ) :   0.8988
B( 17-C , 18-C ) :   1.4374 B( 17-C , 22-C ) :   1.3470 B( 17-C , 28-C ) :   0.9564
B( 18-C , 19-C ) :   1.4119 B( 18-C , 25-H ) :   0.8981 B( 19-C , 20-C ) :   1.4553
B( 19-C , 26-H ) :   0.9123 B( 20-C , 21-C ) :   1.3960 B( 20-C , 23-H ) :   0.9140
B( 21-C , 22-C ) :   1.4507 B( 21-C , 24-H ) :   0.9136 B( 22-C , 27-H ) :   0.9188
B( 28-C , 29-H ) :   0.8982 B( 28-C , 30-H ) :   0.9055 B( 31-O , 32-C ) :   1.2248
B( 32-C , 33-O ) :   1.8887 B( 32-C , 34-C ) :   0.9377 B( 34-C , 35-H ) :   0.9154
B( 34-C , 36-H ) :   0.9113 B( 34-C , 37-H ) :   0.9210

Dispersion correction           -0.026102583
FINAL SINGLE POINT ENERGY      -988.474118144167
Dispersion correction            ... done

DIPOLE MOMENT
-------------
                                X             Y             Z
Electronic contribution:     30.51273      28.60453     -25.58469
Nuclear contribution   :    -32.24174     -29.01804      26.38247
                        -----------------------------------------
Total Dipole Moment    :     -1.72901      -0.41352       0.79778
                        -----------------------------------------
Magnitude (a.u.)       :      1.94857
Magnitude (Debye)      :      4.95287

Rotational constants in cm-1:     0.013315     0.008289     0.007023
Rotational constants in MHz :   399.170912   248.492313   210.540484

                             ****ORCA TERMINATED NORMALLY****
TOTAL RUN TIME: 0 days 0 hours 14 minutes 8 seconds 952 msec
