                         Program Version 5.0.3 -  RELEASE  -
|  1> ! EnGrad PBEh-3c
|  2> %output
|  3> xyzfile=True
|  4> end
|  5> %scf
|  6> maxiter 250
|  7> end
|  8> %output
|  9> Print[P_Hirshfeld] = 1
| 10> end
| 11> % maxcore
| 12> 4000
| 13> *xyz 0 1
| 14> Pd   0.69967054   0.56955019  -0.46535770
| 15> O    2.19225825   1.45618776   0.38371486
| 16> C    1.64940977   2.65957066   0.27988849
| 17> O    0.48653444   2.74663150  -0.11938190
| 18> C    2.52339615   3.88157713   0.56680734
| 19> H    1.95024171   4.68464405   1.04797669
| 20> H    2.90227236   4.30226095  -0.37461115
| 21> H    3.39357427   3.65901929   1.19056605
| 22> N   -1.26616680  -0.40317512  -1.18456118
| 23> C   -1.22670215  -1.19230904  -2.41804222
| 24> H   -0.90420998  -0.54951959  -3.21169075
| 25> H   -2.24899897  -1.52219090  -2.60734201
| 26> H   -0.55697047  -2.04732569  -2.31804585
| 27> C   -2.13132676   0.74483474  -1.33636910
| 28> H   -2.17880065   1.35910908  -0.44035895
| 29> H   -3.13201963   0.38069487  -1.58278853
| 30> H   -1.74476285   1.31181251  -2.17504703
| 31> C   -1.58824356  -0.89648009   1.34831313
| 32> C   -0.64790152  -1.73199588   2.04095429
| 33> C   -0.41441625  -1.64848719   3.40251618
| 34> C   -1.28182689  -0.90041942   4.11512844
| 35> C   -2.14801606   0.07031858   3.45523822
| 36> C   -2.50195606   0.18173495   2.11246424
| 37> H   -1.10569445  -0.73522585   5.17421807
| 38> H   -2.89823209   0.47129326   4.05970777
| 39> H   -0.06151458  -2.48472309   1.48136785
| 40> H    0.23027551  -2.33435270   3.92490983
| 41> H   -2.60073972   1.22729881   1.84667617
| 42> C   -1.81240552  -1.27105731  -0.10532295
| 43> H   -2.89478147  -1.34209556  -0.21422429
| 44> H   -1.46126324  -2.30384662  -0.24056292
| 45> O    1.82886080  -0.95886253  -1.12921572
| 46> C    2.25947296  -0.70284783  -2.37205747
| 47> O    1.77553619   0.05776344  -3.12346156
| 48> C    3.49267706  -1.54323316  -2.67628215
| 49> H    3.31635171  -2.61251823  -2.60118394
| 50> H    4.33815186  -1.29355500  -2.04227967
| 51> H    3.77645155  -1.30120142  -3.70418937
| 52> *
| 53>
| 54>                          ****END OF INPUT****

CARTESIAN COORDINATES (ANGSTROEM)
---------------------------------
  Pd     0.699671    0.569550   -0.465358
  O      2.192258    1.456188    0.383715
  C      1.649410    2.659571    0.279888
  O      0.486534    2.746631   -0.119382
  C      2.523396    3.881577    0.566807
  H      1.950242    4.684644    1.047977
  H      2.902272    4.302261   -0.374611
  H      3.393574    3.659019    1.190566
  N     -1.266167   -0.403175   -1.184561
  C     -1.226702   -1.192309   -2.418042
  H     -0.904210   -0.549520   -3.211691
  H     -2.248999   -1.522191   -2.607342
  H     -0.556970   -2.047326   -2.318046
  C     -2.131327    0.744835   -1.336369
  H     -2.178801    1.359109   -0.440359
  H     -3.132020    0.380695   -1.582789
  H     -1.744763    1.311813   -2.175047
  C     -1.588244   -0.896480    1.348313
  C     -0.647902   -1.731996    2.040954
  C     -0.414416   -1.648487    3.402516
  C     -1.281827   -0.900419    4.115128
  C     -2.148016    0.070319    3.455238
  C     -2.501956    0.181735    2.112464
  H     -1.105694   -0.735226    5.174218
  H     -2.898232    0.471293    4.059708
  H     -0.061515   -2.484723    1.481368
  H      0.230276   -2.334353    3.924910
  H     -2.600740    1.227299    1.846676
  C     -1.812406   -1.271057   -0.105323
  H     -2.894781   -1.342096   -0.214224
  H     -1.461263   -2.303847   -0.240563
  O      1.828861   -0.958863   -1.129216
  C      2.259473   -0.702848   -2.372057
  O      1.775536    0.057763   -3.123462
  C      3.492677   -1.543233   -2.676282
  H      3.316352   -2.612518   -2.601184
  H      4.338152   -1.293555   -2.042280
  H      3.776452   -1.301201   -3.704189

 Total Charge           Charge          ....    0
 Multiplicity           Mult            ....    1
 Number of Electrons    NEL             ....  154
 Basis Dimension        Dim             ....  339

ORBITAL ENERGIES
----------------

  NO   OCC          E(Eh)            E(eV)
   0   2.0000     -19.508457      -530.8521
   1   2.0000     -19.506164      -530.7897
   2   2.0000     -19.466312      -529.7053
   3   2.0000     -19.444903      -529.1227
   4   2.0000     -14.704154      -400.1204
   5   2.0000     -10.583231      -287.9844
   6   2.0000     -10.532022      -286.5909
   7   2.0000     -10.498511      -285.6790
   8   2.0000     -10.491725      -285.4944
   9   2.0000     -10.480504      -285.1890
  10   2.0000     -10.477051      -285.0951
  11   2.0000     -10.471464      -284.9430
  12   2.0000     -10.468425      -284.8603
  13   2.0000     -10.463951      -284.7386
  14   2.0000     -10.460385      -284.6415
  15   2.0000     -10.459525      -284.6181
  16   2.0000     -10.450006      -284.3591
  17   2.0000     -10.412890      -283.3491
  18   2.0000      -3.655618       -99.4744
  19   2.0000      -2.306022       -62.7500
  20   2.0000      -2.298940       -62.5573
  21   2.0000      -2.264680       -61.6251
  22   2.0000      -1.204700       -32.7815
  23   2.0000      -1.161287       -31.6002
  24   2.0000      -1.088854       -29.6292
  25   2.0000      -1.070872       -29.1399
  26   2.0000      -1.050290       -28.5798
  27   2.0000      -0.956809       -26.0361
  28   2.0000      -0.869077       -23.6488
  29   2.0000      -0.857298       -23.3283
  30   2.0000      -0.828438       -22.5429
  31   2.0000      -0.819292       -22.2941
  32   2.0000      -0.794039       -21.6069
  33   2.0000      -0.787160       -21.4197
  34   2.0000      -0.712965       -19.4008
  35   2.0000      -0.685790       -18.6613
  36   2.0000      -0.662867       -18.0375
  37   2.0000      -0.621063       -16.9000
  38   2.0000      -0.594188       -16.1687
  39   2.0000      -0.579932       -15.7808
  40   2.0000      -0.570155       -15.5147
  41   2.0000      -0.560984       -15.2651
  42   2.0000      -0.559549       -15.2261
  43   2.0000      -0.554340       -15.0844
  44   2.0000      -0.546226       -14.8636
  45   2.0000      -0.529234       -14.4012
  46   2.0000      -0.527422       -14.3519
  47   2.0000      -0.513309       -13.9678
  48   2.0000      -0.510749       -13.8982
  49   2.0000      -0.497135       -13.5277
  50   2.0000      -0.492021       -13.3886
  51   2.0000      -0.490191       -13.3388
  52   2.0000      -0.473375       -12.8812
  53   2.0000      -0.472386       -12.8543
  54   2.0000      -0.460096       -12.5198
  55   2.0000      -0.451785       -12.2937
  56   2.0000      -0.449471       -12.2307
  57   2.0000      -0.448556       -12.2058
  58   2.0000      -0.440559       -11.9882
  59   2.0000      -0.428829       -11.6690
  60   2.0000      -0.423756       -11.5310
  61   2.0000      -0.418345       -11.3837
  62   2.0000      -0.411993       -11.2109
  63   2.0000      -0.404362       -11.0032
  64   2.0000      -0.386017       -10.5041
  65   2.0000      -0.381775       -10.3886
  66   2.0000      -0.379828       -10.3356
  67   2.0000      -0.362484        -9.8637
  68   2.0000      -0.354136        -9.6365
  69   2.0000      -0.339572        -9.2402
  70   2.0000      -0.315578        -8.5873
  71   2.0000      -0.310413        -8.4468
  72   2.0000      -0.306027        -8.3274
  73   2.0000      -0.301181        -8.1955
  74   2.0000      -0.297807        -8.1037
  75   2.0000      -0.286767        -7.8033
  76   2.0000      -0.274804        -7.4778
  77   0.0000      -0.052016        -1.4154
  78   0.0000      -0.038203        -1.0396
  79   0.0000      -0.003401        -0.0926
  80   0.0000       0.037709         1.0261
  81   0.0000       0.062456         1.6995

MULLIKEN ATOMIC CHARGES
-----------------------
   0 Pd:    0.524178
   1 O :   -0.516746
   2 C :    0.662926
   3 O :   -0.466183
   4 C :   -0.768375
   5 H :    0.249864
   6 H :    0.263603
   7 H :    0.260134
   8 N :   -0.449640
   9 C :   -0.515078
  10 H :    0.278417
  11 H :    0.211095
  12 H :    0.266342
  13 C :   -0.527412
  14 H :    0.267576
  15 H :    0.216519
  16 H :    0.271066
  17 C :   -0.009995
  18 C :   -0.243064
  19 C :   -0.166511
  20 C :   -0.234272
  21 C :   -0.205562
  22 C :   -0.267179
  23 H :    0.225097
  24 H :    0.230465
  25 H :    0.249504
  26 H :    0.233689
  27 H :    0.255352
  28 C :   -0.343053
  29 H :    0.237635
  30 H :    0.254581
  31 O :   -0.564800
  32 C :    0.558184
  33 O :   -0.404099
  34 C :   -0.745499
  35 H :    0.234424
  36 H :    0.249134
  37 H :    0.227684
Sum of atomic charges:    0.0000000

LOEWDIN ATOMIC CHARGES
----------------------
   0 Pd:   -0.250517
   1 O :   -0.157514
   2 C :    0.213902
   3 O :   -0.161255
   4 C :   -0.380245
   5 H :    0.152050
   6 H :    0.164574
   7 H :    0.154997
   8 N :   -0.079966
   9 C :   -0.233702
  10 H :    0.154598
  11 H :    0.116379
  12 H :    0.150771
  13 C :   -0.234688
  14 H :    0.151842
  15 H :    0.117641
  16 H :    0.153018
  17 C :   -0.022495
  18 C :   -0.115280
  19 C :   -0.114184
  20 C :   -0.141683
  21 C :   -0.120972
  22 C :   -0.170182
  23 H :    0.140050
  24 H :    0.138374
  25 H :    0.155195
  26 H :    0.144971
  27 H :    0.168780
  28 C :   -0.126651
  29 H :    0.133035
  30 H :    0.146223
  31 O :   -0.224304
  32 C :    0.125236
  33 O :   -0.194611
  34 C :   -0.385957
  35 H :    0.144279
  36 H :    0.151040
  37 H :    0.137248

  Mayer bond orders larger than 0.100000
B(  0-Pd,  1-O ) :   0.6557 B(  0-Pd,  3-O ) :   0.3946 B(  0-Pd,  8-N ) :   0.3568
B(  0-Pd, 31-O ) :   0.6921 B(  1-O ,  2-C ) :   1.2892 B(  1-O ,  3-O ) :   0.1034
B(  2-C ,  3-O ) :   1.6145 B(  2-C ,  4-C ) :   0.9487 B(  4-C ,  5-H ) :   0.9089
B(  4-C ,  6-H ) :   0.9010 B(  4-C ,  7-H ) :   0.9064 B(  8-N ,  9-C ) :   0.9296
B(  8-N , 13-C ) :   0.9376 B(  8-N , 28-C ) :   0.9055 B(  9-C , 10-H ) :   0.8972
B(  9-C , 11-H ) :   0.9046 B(  9-C , 12-H ) :   0.9058 B( 13-C , 14-H ) :   0.8965
B( 13-C , 15-H ) :   0.9036 B( 13-C , 16-H ) :   0.9030 B( 17-C , 18-C ) :   1.4992
B( 17-C , 22-C ) :   1.2406 B( 17-C , 28-C ) :   0.9656 B( 18-C , 19-C ) :   1.3297
B( 18-C , 25-H ) :   0.9037 B( 19-C , 20-C ) :   1.5056 B( 19-C , 26-H ) :   0.9127
B( 20-C , 21-C ) :   1.3184 B( 20-C , 23-H ) :   0.9157 B( 21-C , 22-C ) :   1.5340
B( 21-C , 24-H ) :   0.9081 B( 22-C , 27-H ) :   0.8909 B( 28-C , 29-H ) :   0.8935
B( 28-C , 30-H ) :   0.9109 B( 31-O , 32-C ) :   1.1954 B( 32-C , 33-O ) :   1.9470
B( 32-C , 34-C ) :   0.9250 B( 34-C , 35-H ) :   0.9167 B( 34-C , 36-H ) :   0.9114
B( 34-C , 37-H ) :   0.9220

Dispersion correction           -0.025440100
FINAL SINGLE POINT ENERGY      -988.441583038593
Dispersion correction            ... done

DIPOLE MOMENT
-------------
                                X             Y             Z
Electronic contribution:     32.09405      28.10466     -23.10138
Nuclear contribution   :    -33.39799     -28.26449      23.95796
                        -----------------------------------------
Total Dipole Moment    :     -1.30394      -0.15984       0.85658
                        -----------------------------------------
Magnitude (a.u.)       :      1.56829
Magnitude (Debye)      :      3.98627

Rotational constants in cm-1:     0.013390     0.008181     0.006891
Rotational constants in MHz :   401.436467   245.264573   206.592806

                             ****ORCA TERMINATED NORMALLY****
TOTAL RUN TIME: 0 days 0 hours 16 minutes 55 seconds 529 msec
