                         Program Version 5.0.3 -  RELEASE  -
|  1> ! EnGrad PBEh-3c
|  2> %output
|  3> xyzfile=True
|  4> end
|  5> %scf
|  6> maxiter 250
|  7> end
|  8> %output
|  9> Print[P_Hirshfeld] = 1
| 10> end
| 11> % maxcore
| 12> 4000
| 13> *xyz 0 1
| 14> Pd   0.69025235   0.57854949  -0.49605840
| 15> O    2.24350113   1.55133886   0.34824784
| 16> C    1.67324148   2.70621013   0.26747341
| 17> O    0.48846867   2.74524414  -0.09778319
| 18> C    2.48213183   3.95389047   0.55663063
| 19> H    1.86624667   4.70868023   1.04465667
| 20> H    2.83657310   4.38069410  -0.38613407
| 21> H    3.35713799   3.74465191   1.17243548
| 22> N   -1.20964762  -0.32414013  -1.16543070
| 23> C   -1.23370613  -1.00952756  -2.46255548
| 24> H   -0.93642324  -0.32674078  -3.24221113
| 25> H   -2.25614852  -1.34342167  -2.67458074
| 26> H   -0.57809850  -1.86628820  -2.47333119
| 27> C   -2.10608227   0.81883164  -1.24770226
| 28> H   -2.10427315   1.39196273  -0.33415574
| 29> H   -3.12598255   0.48087848  -1.46238028
| 30> H   -1.77598520   1.46180693  -2.05452737
| 31> C   -1.50423693  -0.92561727   1.30670380
| 32> C   -0.50444088  -1.65443935   1.99474630
| 33> C   -0.33816112  -1.58478610   3.36285244
| 34> C   -1.23802336  -0.87776382   4.09206346
| 35> C   -2.27020176  -0.19651533   3.45017201
| 36> C   -2.46293681  -0.06851907   2.08182632
| 37> H   -1.09740088  -0.76898018   5.16395078
| 38> H   -3.03102527   0.18704567   4.07994111
| 39> H    0.17140509  -2.30642014   1.45197364
| 40> H    0.41254682  -2.15301259   3.86530143
| 41> H   -3.20967113   0.98317894   1.77945888
| 42> C   -1.70602829  -1.27793717  -0.14223289
| 43> H   -2.77842646  -1.43020230  -0.26834294
| 44> H   -1.26064118  -2.24963998  -0.34667969
| 45> O    1.75051381  -0.99759152  -1.08461285
| 46> C    2.27294835  -0.79982194  -2.27931361
| 47> O    1.90267676   0.02687691  -3.05986964
| 48> C    3.42290395  -1.72284010  -2.61444656
| 49> H    3.15748536  -2.75831877  -2.47294567
| 50> H    4.29191457  -1.50511015  -1.99912060
| 51> H    3.71097451  -1.57693328  -3.65932467
| 52> *
| 53>
| 54>                          ****END OF INPUT****

CARTESIAN COORDINATES (ANGSTROEM)
---------------------------------
  Pd     0.690252    0.578549   -0.496058
  O      2.243501    1.551339    0.348248
  C      1.673241    2.706210    0.267473
  O      0.488469    2.745244   -0.097783
  C      2.482132    3.953890    0.556631
  H      1.866247    4.708680    1.044657
  H      2.836573    4.380694   -0.386134
  H      3.357138    3.744652    1.172435
  N     -1.209648   -0.324140   -1.165431
  C     -1.233706   -1.009528   -2.462555
  H     -0.936423   -0.326741   -3.242211
  H     -2.256149   -1.343422   -2.674581
  H     -0.578098   -1.866288   -2.473331
  C     -2.106082    0.818832   -1.247702
  H     -2.104273    1.391963   -0.334156
  H     -3.125983    0.480878   -1.462380
  H     -1.775985    1.461807   -2.054527
  C     -1.504237   -0.925617    1.306704
  C     -0.504441   -1.654439    1.994746
  C     -0.338161   -1.584786    3.362852
  C     -1.238023   -0.877764    4.092063
  C     -2.270202   -0.196515    3.450172
  C     -2.462937   -0.068519    2.081826
  H     -1.097401   -0.768980    5.163951
  H     -3.031025    0.187046    4.079941
  H      0.171405   -2.306420    1.451974
  H      0.412547   -2.153013    3.865301
  H     -3.209671    0.983179    1.779459
  C     -1.706028   -1.277937   -0.142233
  H     -2.778426   -1.430202   -0.268343
  H     -1.260641   -2.249640   -0.346680
  O      1.750514   -0.997592   -1.084613
  C      2.272948   -0.799822   -2.279314
  O      1.902677    0.026877   -3.059870
  C      3.422904   -1.722840   -2.614447
  H      3.157485   -2.758319   -2.472946
  H      4.291915   -1.505110   -1.999121
  H      3.710975   -1.576933   -3.659325

 Total Charge           Charge          ....    0
 Multiplicity           Mult            ....    1
 Number of Electrons    NEL             ....  154
 Basis Dimension        Dim             ....  339

ORBITAL ENERGIES
----------------

  NO   OCC          E(Eh)            E(eV)
   0   2.0000     -19.498188      -530.5727
   1   2.0000     -19.494096      -530.4613
   2   2.0000     -19.473708      -529.9065
   3   2.0000     -19.436358      -528.8902
   4   2.0000     -14.715040      -400.4166
   5   2.0000     -10.571011      -287.6518
   6   2.0000     -10.531343      -286.5724
   7   2.0000     -10.497137      -285.6416
   8   2.0000     -10.495198      -285.5888
   9   2.0000     -10.489834      -285.4429
  10   2.0000     -10.479046      -285.1493
  11   2.0000     -10.474832      -285.0347
  12   2.0000     -10.461148      -284.6623
  13   2.0000     -10.456385      -284.5327
  14   2.0000     -10.454964      -284.4940
  15   2.0000     -10.452153      -284.4175
  16   2.0000     -10.442047      -284.1426
  17   2.0000     -10.413228      -283.3583
  18   2.0000      -3.657117       -99.5152
  19   2.0000      -2.305193       -62.7275
  20   2.0000      -2.302036       -62.6416
  21   2.0000      -2.265683       -61.6524
  22   2.0000      -1.198583       -32.6151
  23   2.0000      -1.153849       -31.3978
  24   2.0000      -1.081841       -29.4384
  25   2.0000      -1.077499       -29.3202
  26   2.0000      -1.054281       -28.6884
  27   2.0000      -0.965738       -26.2791
  28   2.0000      -0.878312       -23.9001
  29   2.0000      -0.849296       -23.1105
  30   2.0000      -0.826909       -22.5013
  31   2.0000      -0.821422       -22.3520
  32   2.0000      -0.797883       -21.7115
  33   2.0000      -0.795537       -21.6477
  34   2.0000      -0.717570       -19.5261
  35   2.0000      -0.685333       -18.6489
  36   2.0000      -0.669332       -18.2135
  37   2.0000      -0.611961       -16.6523
  38   2.0000      -0.596072       -16.2199
  39   2.0000      -0.585826       -15.9411
  40   2.0000      -0.575644       -15.6641
  41   2.0000      -0.569310       -15.4917
  42   2.0000      -0.555510       -15.1162
  43   2.0000      -0.544274       -14.8104
  44   2.0000      -0.540065       -14.6959
  45   2.0000      -0.524955       -14.2848
  46   2.0000      -0.522937       -14.2298
  47   2.0000      -0.516527       -14.0554
  48   2.0000      -0.511607       -13.9215
  49   2.0000      -0.496930       -13.5222
  50   2.0000      -0.490671       -13.3518
  51   2.0000      -0.486337       -13.2339
  52   2.0000      -0.482074       -13.1179
  53   2.0000      -0.471880       -12.8405
  54   2.0000      -0.457238       -12.4421
  55   2.0000      -0.456509       -12.4223
  56   2.0000      -0.449082       -12.2201
  57   2.0000      -0.444911       -12.1066
  58   2.0000      -0.439077       -11.9479
  59   2.0000      -0.430561       -11.7162
  60   2.0000      -0.429872       -11.6974
  61   2.0000      -0.419431       -11.4133
  62   2.0000      -0.408923       -11.1274
  63   2.0000      -0.401258       -10.9188
  64   2.0000      -0.395123       -10.7519
  65   2.0000      -0.382687       -10.4134
  66   2.0000      -0.373926       -10.1751
  67   2.0000      -0.361444        -9.8354
  68   2.0000      -0.350700        -9.5430
  69   2.0000      -0.346169        -9.4197
  70   2.0000      -0.317138        -8.6298
  71   2.0000      -0.312918        -8.5149
  72   2.0000      -0.306169        -8.3313
  73   2.0000      -0.302388        -8.2284
  74   2.0000      -0.298391        -8.1196
  75   2.0000      -0.291554        -7.9336
  76   2.0000      -0.273160        -7.4331
  77   0.0000      -0.053457        -1.4546
  78   0.0000      -0.017701        -0.4817
  79   0.0000       0.005566         0.1515
  80   0.0000       0.048471         1.3190
  81   0.0000       0.067075         1.8252

MULLIKEN ATOMIC CHARGES
-----------------------
   0 Pd:    0.525401
   1 O :   -0.498843
   2 C :    0.658647
   3 O :   -0.484750
   4 C :   -0.766402
   5 H :    0.249346
   6 H :    0.261245
   7 H :    0.257349
   8 N :   -0.464521
   9 C :   -0.522847
  10 H :    0.282432
  11 H :    0.215452
  12 H :    0.270136
  13 C :   -0.537450
  14 H :    0.280148
  15 H :    0.220606
  16 H :    0.277253
  17 C :    0.010245
  18 C :   -0.233730
  19 C :   -0.195773
  20 C :   -0.215165
  21 C :   -0.190276
  22 C :   -0.257962
  23 H :    0.228826
  24 H :    0.226010
  25 H :    0.255811
  26 H :    0.231371
  27 H :    0.209272
  28 C :   -0.345012
  29 H :    0.242232
  30 H :    0.266516
  31 O :   -0.560814
  32 C :    0.564768
  33 O :   -0.429709
  34 C :   -0.744276
  35 H :    0.231087
  36 H :    0.246692
  37 H :    0.236686
Sum of atomic charges:    0.0000000

LOEWDIN ATOMIC CHARGES
----------------------
   0 Pd:   -0.256520
   1 O :   -0.158177
   2 C :    0.191438
   3 O :   -0.178886
   4 C :   -0.378911
   5 H :    0.151879
   6 H :    0.163782
   7 H :    0.154338
   8 N :   -0.058703
   9 C :   -0.234062
  10 H :    0.156795
  11 H :    0.118440
  12 H :    0.149532
  13 C :   -0.235948
  14 H :    0.155934
  15 H :    0.120783
  16 H :    0.155128
  17 C :   -0.042787
  18 C :   -0.106651
  19 C :   -0.122905
  20 C :   -0.133104
  21 C :   -0.135309
  22 C :   -0.130859
  23 H :    0.140946
  24 H :    0.135381
  25 H :    0.158621
  26 H :    0.142027
  27 H :    0.155946
  28 C :   -0.116241
  29 H :    0.135029
  30 H :    0.151950
  31 O :   -0.205860
  32 C :    0.127323
  33 O :   -0.222422
  34 C :   -0.382671
  35 H :    0.141499
  36 H :    0.151662
  37 H :    0.141585

  Mayer bond orders larger than 0.100000
B(  0-Pd,  1-O ) :   0.6085 B(  0-Pd,  3-O ) :   0.4251 B(  0-Pd,  8-N ) :   0.3914
B(  0-Pd, 31-O ) :   0.6783 B(  0-Pd, 33-O ) :   0.1093 B(  1-O ,  2-C ) :   1.3607
B(  1-O ,  3-O ) :   0.1020 B(  2-C ,  3-O ) :   1.5693 B(  2-C ,  4-C ) :   0.9510
B(  4-C ,  5-H ) :   0.9100 B(  4-C ,  6-H ) :   0.9027 B(  4-C ,  7-H ) :   0.9083
B(  8-N ,  9-C ) :   0.9273 B(  8-N , 13-C ) :   0.9290 B(  8-N , 28-C ) :   0.9011
B(  9-C , 10-H ) :   0.8976 B(  9-C , 11-H ) :   0.9032 B(  9-C , 12-H ) :   0.9037
B( 13-C , 14-H ) :   0.8907 B( 13-C , 15-H ) :   0.9038 B( 13-C , 16-H ) :   0.9000
B( 17-C , 18-C ) :   1.4538 B( 17-C , 22-C ) :   1.3135 B( 17-C , 28-C ) :   0.9597
B( 18-C , 19-C ) :   1.3954 B( 18-C , 25-H ) :   0.9008 B( 19-C , 20-C ) :   1.4678
B( 19-C , 26-H ) :   0.9128 B( 20-C , 21-C ) :   1.3823 B( 20-C , 23-H ) :   0.9150
B( 21-C , 22-C ) :   1.4660 B( 21-C , 24-H ) :   0.9141 B( 22-C , 27-H ) :   0.9171
B( 28-C , 29-H ) :   0.8977 B( 28-C , 30-H ) :   0.9073 B( 31-O , 32-C ) :   1.2171
B( 32-C , 33-O ) :   1.9078 B( 32-C , 34-C ) :   0.9344 B( 34-C , 35-H ) :   0.9157
B( 34-C , 36-H ) :   0.9116 B( 34-C , 37-H ) :   0.9215

Dispersion correction           -0.025706609
FINAL SINGLE POINT ENERGY      -988.492859640716
Dispersion correction            ... done

DIPOLE MOMENT
-------------
                                X             Y             Z
Electronic contribution:     30.91625      28.49326     -24.89495
Nuclear contribution   :    -32.57182     -28.80292      25.69034
                        -----------------------------------------
Total Dipole Moment    :     -1.65557      -0.30967       0.79539
                        -----------------------------------------
Magnitude (a.u.)       :      1.86264
Magnitude (Debye)      :      4.73446

Rotational constants in cm-1:     0.013354     0.008262     0.006991
Rotational constants in MHz :   400.342364   247.697092   209.583202

                             ****ORCA TERMINATED NORMALLY****
TOTAL RUN TIME: 0 days 0 hours 15 minutes 31 seconds 391 msec
