                         Program Version 5.0.3 -  RELEASE  -
|  1> ! EnGrad PBEh-3c
|  2> %output
|  3> xyzfile=True
|  4> end
|  5> %scf
|  6> maxiter 250
|  7> end
|  8> %output
|  9> Print[P_Hirshfeld] = 1
| 10> end
| 11> % maxcore
| 12> 4000
| 13> *xyz 0 1
| 14> Pd   0.67661646   0.49390141  -0.42420522
| 15> O    2.09020943   1.35077644   0.44480695
| 16> C    1.64651381   2.56770834   0.30949853
| 17> O    0.49058635   2.75604050  -0.14909615
| 18> C    2.59797749   3.75386094   0.58787249
| 19> H    2.10105206   4.62817310   1.04931123
| 20> H    3.01895348   4.15235588  -0.35096770
| 21> H    3.45492966   3.50001314   1.22007878
| 22> N   -1.32630426  -0.55192751  -1.15865218
| 23> C   -1.21805917  -1.51512618  -2.30844037
| 24> H   -0.83246691  -0.95357192  -3.16033899
| 25> H   -2.23759965  -1.85812785  -2.49198944
| 26> H   -0.52439987  -2.36462167  -2.02640254
| 27> C   -2.17364306   0.60505008  -1.50839022
| 28> H   -2.29554856   1.29791425  -0.64648961
| 29> H   -3.14901279   0.20319161  -1.80146618
| 30> H   -1.68638501   1.05244380  -2.39570329
| 31> C   -1.73543450  -0.80777527   1.43078160
| 32> C   -0.93300470  -1.86392217   2.09205939
| 33> C   -0.61077173  -1.78560213   3.47396917
| 34> C   -1.33876664  -0.85073903   4.14782218
| 35> C   -1.95661974   0.45783475   3.48082485
| 36> C   -2.30697833   0.55861768   2.13228871
| 37> H   -1.12472098  -0.68160448   5.20442810
| 38> H   -2.61713744   1.03302926   4.06399271
| 39> H   -0.52596440  -2.79664984   1.55022879
| 40> H   -0.10570478  -2.66263425   4.04070578
| 41> H   -1.69792140   1.63694226   1.91430997
| 42> C   -2.00339052  -1.26124069  -0.01159381
| 43> H   -3.10796029  -1.16820401  -0.11909710
| 44> H   -1.82322379  -2.38926143  -0.06370915
| 45> O    1.96209082  -0.84893942  -1.21968748
| 46> C    2.26895624  -0.61929230  -2.43377998
| 47> O    1.50845986   0.14440917  -3.32940858
| 48> C    3.61851447  -1.19617317  -2.81177904
| 49> H    3.60112258  -2.33526874  -2.84437159
| 50> H    4.41475949  -0.90495662  -2.11123631
| 51> H    3.89837780  -0.79830495  -3.79558199
| 52> *
| 53>
| 54>                          ****END OF INPUT****

CARTESIAN COORDINATES (ANGSTROEM)
---------------------------------
  Pd     0.676616    0.493901   -0.424205
  O      2.090209    1.350776    0.444807
  C      1.646514    2.567708    0.309499
  O      0.490586    2.756040   -0.149096
  C      2.597977    3.753861    0.587872
  H      2.101052    4.628173    1.049311
  H      3.018953    4.152356   -0.350968
  H      3.454930    3.500013    1.220079
  N     -1.326304   -0.551928   -1.158652
  C     -1.218059   -1.515126   -2.308440
  H     -0.832467   -0.953572   -3.160339
  H     -2.237600   -1.858128   -2.491989
  H     -0.524400   -2.364622   -2.026403
  C     -2.173643    0.605050   -1.508390
  H     -2.295549    1.297914   -0.646490
  H     -3.149013    0.203192   -1.801466
  H     -1.686385    1.052444   -2.395703
  C     -1.735434   -0.807775    1.430782
  C     -0.933005   -1.863922    2.092059
  C     -0.610772   -1.785602    3.473969
  C     -1.338767   -0.850739    4.147822
  C     -1.956620    0.457835    3.480825
  C     -2.306978    0.558618    2.132289
  H     -1.124721   -0.681604    5.204428
  H     -2.617137    1.033029    4.063993
  H     -0.525964   -2.796650    1.550229
  H     -0.105705   -2.662634    4.040706
  H     -1.697921    1.636942    1.914310
  C     -2.003391   -1.261241   -0.011594
  H     -3.107960   -1.168204   -0.119097
  H     -1.823224   -2.389261   -0.063709
  O      1.962091   -0.848939   -1.219687
  C      2.268956   -0.619292   -2.433780
  O      1.508460    0.144409   -3.329409
  C      3.618514   -1.196173   -2.811779
  H      3.601123   -2.335269   -2.844372
  H      4.414759   -0.904957   -2.111236
  H      3.898378   -0.798305   -3.795582

 Total Charge           Charge          ....    0
 Multiplicity           Mult            ....    1
 Number of Electrons    NEL             ....  154
 Basis Dimension        Dim             ....  339

ORBITAL ENERGIES
----------------

  NO   OCC          E(Eh)            E(eV)
   0   2.0000     -19.529466      -531.4238
   1   2.0000     -19.507307      -530.8208
   2   2.0000     -19.492171      -530.4089
   3   2.0000     -19.421645      -528.4898
   4   2.0000     -14.702358      -400.0715
   5   2.0000     -10.593637      -288.2675
   6   2.0000     -10.547510      -287.0123
   7   2.0000     -10.511874      -286.0426
   8   2.0000     -10.500312      -285.7280
   9   2.0000     -10.498722      -285.6847
  10   2.0000     -10.492486      -285.5150
  11   2.0000     -10.491339      -285.4838
  12   2.0000     -10.483988      -285.2838
  13   2.0000     -10.479497      -285.1616
  14   2.0000     -10.478082      -285.1231
  15   2.0000     -10.475386      -285.0497
  16   2.0000     -10.456465      -284.5349
  17   2.0000     -10.427224      -283.7392
  18   2.0000      -3.668892       -99.8356
  19   2.0000      -2.323329       -63.2210
  20   2.0000      -2.309634       -62.8483
  21   2.0000      -2.277790       -61.9818
  22   2.0000      -1.210462       -32.9383
  23   2.0000      -1.138006       -30.9667
  24   2.0000      -1.102154       -29.9911
  25   2.0000      -1.049443       -28.5568
  26   2.0000      -0.983151       -26.7529
  27   2.0000      -0.946059       -25.7436
  28   2.0000      -0.862361       -23.4660
  29   2.0000      -0.857903       -23.3447
  30   2.0000      -0.828539       -22.5457
  31   2.0000      -0.804369       -21.8880
  32   2.0000      -0.795056       -21.6346
  33   2.0000      -0.772106       -21.0101
  34   2.0000      -0.704688       -19.1755
  35   2.0000      -0.668306       -18.1855
  36   2.0000      -0.661099       -17.9894
  37   2.0000      -0.636699       -17.3255
  38   2.0000      -0.596917       -16.2429
  39   2.0000      -0.578359       -15.7380
  40   2.0000      -0.563960       -15.3461
  41   2.0000      -0.555092       -15.1048
  42   2.0000      -0.553484       -15.0611
  43   2.0000      -0.550207       -14.9719
  44   2.0000      -0.544225       -14.8091
  45   2.0000      -0.533808       -14.5257
  46   2.0000      -0.520019       -14.1504
  47   2.0000      -0.507505       -13.8099
  48   2.0000      -0.496407       -13.5079
  49   2.0000      -0.488535       -13.2937
  50   2.0000      -0.483052       -13.1445
  51   2.0000      -0.477517       -12.9939
  52   2.0000      -0.467045       -12.7089
  53   2.0000      -0.463750       -12.6193
  54   2.0000      -0.462058       -12.5732
  55   2.0000      -0.454022       -12.3546
  56   2.0000      -0.443891       -12.0789
  57   2.0000      -0.442256       -12.0344
  58   2.0000      -0.431561       -11.7434
  59   2.0000      -0.427915       -11.6442
  60   2.0000      -0.421018       -11.4565
  61   2.0000      -0.414336       -11.2746
  62   2.0000      -0.412050       -11.2124
  63   2.0000      -0.394444       -10.7334
  64   2.0000      -0.389007       -10.5854
  65   2.0000      -0.385577       -10.4921
  66   2.0000      -0.374925       -10.2022
  67   2.0000      -0.366021        -9.9599
  68   2.0000      -0.350253        -9.5309
  69   2.0000      -0.339223        -9.2307
  70   2.0000      -0.320894        -8.7320
  71   2.0000      -0.318062        -8.6549
  72   2.0000      -0.305723        -8.3192
  73   2.0000      -0.298739        -8.1291
  74   2.0000      -0.280765        -7.6400
  75   2.0000      -0.277890        -7.5618
  76   2.0000      -0.263530        -7.1710
  77   0.0000      -0.071462        -1.9446
  78   0.0000      -0.062094        -1.6897
  79   0.0000      -0.027355        -0.7444
  80   0.0000       0.028478         0.7749
  81   0.0000       0.049706         1.3526

MULLIKEN ATOMIC CHARGES
-----------------------
   0 Pd:    0.579042
   1 O :   -0.504668
   2 C :    0.652691
   3 O :   -0.470817
   4 C :   -0.770292
   5 H :    0.252839
   6 H :    0.269285
   7 H :    0.256653
   8 N :   -0.448102
   9 C :   -0.510892
  10 H :    0.292106
  11 H :    0.211679
  12 H :    0.247841
  13 C :   -0.529302
  14 H :    0.269149
  15 H :    0.218333
  16 H :    0.276206
  17 C :    0.008587
  18 C :   -0.241935
  19 C :   -0.167470
  20 C :   -0.240094
  21 C :   -0.210308
  22 C :   -0.276338
  23 H :    0.221542
  24 H :    0.255411
  25 H :    0.238432
  26 H :    0.233325
  27 H :    0.259586
  28 C :   -0.337974
  29 H :    0.232669
  30 H :    0.240562
  31 O :   -0.500866
  32 C :    0.570417
  33 O :   -0.570450
  34 C :   -0.725988
  35 H :    0.224852
  36 H :    0.246220
  37 H :    0.248071
Sum of atomic charges:   -0.0000000

LOEWDIN ATOMIC CHARGES
----------------------
   0 Pd:   -0.198301
   1 O :   -0.121303
   2 C :    0.220660
   3 O :   -0.189120
   4 C :   -0.383105
   5 H :    0.153204
   6 H :    0.166745
   7 H :    0.152041
   8 N :   -0.103496
   9 C :   -0.234866
  10 H :    0.163858
  11 H :    0.116600
  12 H :    0.147620
  13 C :   -0.236347
  14 H :    0.155250
  15 H :    0.117327
  16 H :    0.158428
  17 C :   -0.024719
  18 C :   -0.120526
  19 C :   -0.118563
  20 C :   -0.144781
  21 C :   -0.116981
  22 C :   -0.204930
  23 H :    0.136404
  24 H :    0.151260
  25 H :    0.151980
  26 H :    0.150910
  27 H :    0.214657
  28 C :   -0.127642
  29 H :    0.132991
  30 H :    0.140543
  31 O :   -0.154831
  32 C :    0.201861
  33 O :   -0.419164
  34 C :   -0.376867
  35 H :    0.146831
  36 H :    0.149388
  37 H :    0.146982

  Mayer bond orders larger than 0.100000
B(  0-Pd,  1-O ) :   0.6795 B(  0-Pd,  3-O ) :   0.3721 B(  0-Pd,  8-N ) :   0.3588
B(  0-Pd, 31-O ) :   0.5924 B(  0-Pd, 33-O ) :   0.1225 B(  1-O ,  2-C ) :   1.2843
B(  1-O ,  3-O ) :   0.1027 B(  2-C ,  3-O ) :   1.6260 B(  2-C ,  4-C ) :   0.9456
B(  4-C ,  5-H ) :   0.9084 B(  4-C ,  6-H ) :   0.8983 B(  4-C ,  7-H ) :   0.9050
B(  8-N ,  9-C ) :   0.9132 B(  8-N , 13-C ) :   0.9257 B(  8-N , 28-C ) :   0.8961
B(  9-C , 10-H ) :   0.8801 B(  9-C , 11-H ) :   0.9034 B(  9-C , 12-H ) :   0.9142
B( 13-C , 14-H ) :   0.8947 B( 13-C , 15-H ) :   0.9032 B( 13-C , 16-H ) :   0.8992
B( 17-C , 18-C ) :   1.5240 B( 17-C , 20-C ) :   0.1010 B( 17-C , 22-C ) :   1.1610
B( 17-C , 28-C ) :   0.9565 B( 18-C , 19-C ) :   1.2546 B( 18-C , 25-H ) :   0.9064
B( 19-C , 20-C ) :   1.5495 B( 19-C , 26-H ) :   0.9108 B( 20-C , 21-C ) :   1.2249
B( 20-C , 23-H ) :   0.9140 B( 21-C , 22-C ) :   1.5333 B( 21-C , 24-H ) :   0.8955
B( 22-C , 27-H ) :   0.8489 B( 28-C , 29-H ) :   0.8900 B( 28-C , 30-H ) :   0.9142
B( 31-O , 32-C ) :   1.3628 B( 31-O , 33-O ) :   0.1122 B( 32-C , 33-O ) :   1.6844
B( 32-C , 34-C ) :   0.9323 B( 34-C , 35-H ) :   0.9165 B( 34-C , 36-H ) :   0.9069
B( 34-C , 37-H ) :   0.9140

Dispersion correction           -0.025154921
FINAL SINGLE POINT ENERGY      -988.290174136870
Dispersion correction            ... done

DIPOLE MOMENT
-------------
                                X             Y             Z
Electronic contribution:     31.74895      23.52316     -19.90211
Nuclear contribution   :    -32.63964     -24.05299      21.58460
                        -----------------------------------------
Total Dipole Moment    :     -0.89069      -0.52983       1.68248
                        -----------------------------------------
Magnitude (a.u.)       :      1.97606
Magnitude (Debye)      :      5.02274

Rotational constants in cm-1:     0.013389     0.008067     0.006683
Rotational constants in MHz :   401.388587   241.843881   200.355057

                             ****ORCA TERMINATED NORMALLY****
TOTAL RUN TIME: 0 days 0 hours 19 minutes 48 seconds 27 msec
