                         Program Version 5.0.4 -  RELEASE  -
|  1> ! PBEh-3c OPT pal4
|  2>
|  3> %geom
|  4>  maxiter 600
|  5> end
|  6>
|  7> *xyzfile -1 1 reaction-3-rct-xtb.xyz
|  8>
|  9>                          ****END OF INPUT****
 Total Charge           Charge          ....   -1
 Multiplicity           Mult            ....    1
 Number of Electrons    NEL             ....  200
Dispersion correction           -0.032393879
FINAL SINGLE POINT ENERGY     -3847.769748632339
Dispersion correction            ... done
Dispersion correction           -0.030525652
FINAL SINGLE POINT ENERGY     -3847.776588515978
Dispersion correction            ... done
Dispersion correction           -0.030771217
FINAL SINGLE POINT ENERGY     -3847.781952373970
Dispersion correction            ... done
FINAL SINGLE POINT ENERGY     -3847.785615959053
FINAL SINGLE POINT ENERGY     -3847.786656115734
FINAL SINGLE POINT ENERGY     -3847.788030722670
FINAL SINGLE POINT ENERGY     -3847.788562580230
FINAL SINGLE POINT ENERGY     -3847.789342097898
FINAL SINGLE POINT ENERGY     -3847.789854926811
FINAL SINGLE POINT ENERGY     -3847.790365872132
FINAL SINGLE POINT ENERGY     -3847.791029750603
FINAL SINGLE POINT ENERGY     -3847.791054453495
FINAL SINGLE POINT ENERGY     -3847.791048081618
FINAL SINGLE POINT ENERGY     -3847.791000577970
FINAL SINGLE POINT ENERGY     -3847.791004365715
FINAL SINGLE POINT ENERGY     -3847.791041346263
FINAL SINGLE POINT ENERGY     -3847.791037161252
Dispersion correction            ... done
Dispersion correction           -0.030958418
FINAL SINGLE POINT ENERGY     -3847.791024444660
Dispersion correction            ... done
Dispersion correction           -0.030961869
FINAL SINGLE POINT ENERGY     -3847.791029571952
Dispersion correction            ... done
                    ***********************HURRAY********************

CARTESIAN COORDINATES (ANGSTROEM)
---------------------------------
  C     -2.878630   -0.598573    0.468724
  C     -2.269608    0.463618    1.136511
  C     -4.079692   -1.122574    0.922256
  C     -4.697395   -0.593990    2.047999
  C     -4.103641    0.466050    2.716089
  C     -2.899600    0.985844    2.261701
  H     -2.410046   -1.011816   -0.419392
  H     -4.536158   -1.945341    0.386803
  H     -2.440769    1.815504    2.788133
  H     -5.636561   -1.003498    2.398398
  H     -4.579024    0.890935    3.591690
  C     -0.932693    0.974684    0.683672
  C      0.204562    0.130150    1.278814
  H     -0.796863    2.016166    0.986832
  H     -0.872683    0.961276   -0.405598
  C      1.561834    0.451790    0.711205
  H     -0.034737   -0.925868    1.121855
  H      0.210533    0.270989    2.364565
  C      1.953129    0.020800   -0.565418
  C      3.224457    0.365880   -1.022887
  C      4.093200    1.119550   -0.243821
  C      2.439782    1.217447    1.477526
  C      3.701533    1.552170    1.013221
  H      3.535124    0.056628   -2.013373
  H      5.075540    1.371690   -0.626215
  H      2.126197    1.553512    2.461181
  H      4.369860    2.143509    1.627351
  Pd     0.730672   -1.006751   -1.760282
  Br    -0.985660   -2.450779   -3.015746
  P      1.027798   -2.842787   -0.564873
  H     -0.073912   -3.455088    0.054936
  C      1.263396    0.734329   -3.905750
  O      2.166492   -0.025122   -4.229738
  O      0.498418    0.682754   -2.897122
  O      0.992691    1.814457   -4.693115
  H      1.910275   -2.866291    0.536309
  H      1.533376   -3.962186   -1.243963
  H      1.608806    1.750941   -5.428480

 Multiplicity           Mult            ....    1
 Number of Electrons    NEL             ....  200
 Basis Dimension        Dim             ....  385

ORBITAL ENERGIES
----------------

  NO   OCC          E(Eh)            E(eV)
   0   2.0000    -484.317867    -13178.9592
   1   2.0000     -77.674473     -2113.6299
   2   2.0000     -62.979584     -1713.7616
   3   2.0000     -56.683207     -1542.4285
   4   2.0000     -56.682289     -1542.4035
   5   2.0000     -56.682186     -1542.4007
   6   2.0000     -19.377185      -527.2800
   7   2.0000     -19.332085      -526.0528
   8   2.0000     -19.301740      -525.2271
   9   2.0000     -10.442436      -284.1531
  10   2.0000     -10.361310      -281.9456
  11   2.0000     -10.359955      -281.9087
  12   2.0000     -10.358827      -281.8780
  13   2.0000     -10.356093      -281.8036
  14   2.0000     -10.355692      -281.7927
  15   2.0000     -10.346532      -281.5434
  16   2.0000     -10.338869      -281.3349
  17   2.0000     -10.336786      -281.2782
  18   2.0000     -10.335155      -281.2339
  19   2.0000     -10.334329      -281.2114
  20   2.0000     -10.333175      -281.1800
  21   2.0000     -10.331522      -281.1350
  22   2.0000     -10.330135      -281.0973
  23   2.0000     -10.319473      -280.8071
  24   2.0000      -8.806951      -239.6493
  25   2.0000      -6.749366      -183.6596
  26   2.0000      -6.576134      -178.9457
  27   2.0000      -6.571747      -178.8263
  28   2.0000      -6.571701      -178.8251
  29   2.0000      -4.840360      -131.7129
  30   2.0000      -4.840208      -131.7087
  31   2.0000      -4.838638      -131.6660
  32   2.0000      -3.520898       -95.8085
  33   2.0000      -2.590239       -70.4840
  34   2.0000      -2.589047       -70.4515
  35   2.0000      -2.588938       -70.4486
  36   2.0000      -2.585195       -70.3467
  37   2.0000      -2.585129       -70.3449
  38   2.0000      -2.167261       -58.9742
  39   2.0000      -2.163817       -58.8805
  40   2.0000      -2.134631       -58.0863
  41   2.0000      -1.075403       -29.2632
  42   2.0000      -0.964117       -26.2349
  43   2.0000      -0.931986       -25.3606
  44   2.0000      -0.869391       -23.6573
  45   2.0000      -0.840947       -22.8833
  46   2.0000      -0.790949       -21.5228
  47   2.0000      -0.746741       -20.3199
  48   2.0000      -0.745526       -20.2868
  49   2.0000      -0.713126       -19.4051
  50   2.0000      -0.689739       -18.7687
  51   2.0000      -0.652356       -17.7515
  52   2.0000      -0.628306       -17.0971
  53   2.0000      -0.617833       -16.8121
  54   2.0000      -0.592262       -16.1163
  55   2.0000      -0.562136       -15.2965
  56   2.0000      -0.559322       -15.2199
  57   2.0000      -0.534863       -14.5544
  58   2.0000      -0.531970       -14.4756
  59   2.0000      -0.489722       -13.3260
  60   2.0000      -0.458769       -12.4838
  61   2.0000      -0.441154       -12.0044
  62   2.0000      -0.427870       -11.6429
  63   2.0000      -0.413325       -11.2471
  64   2.0000      -0.405197       -11.0260
  65   2.0000      -0.399850       -10.8805
  66   2.0000      -0.392694       -10.6858
  67   2.0000      -0.389890       -10.6094
  68   2.0000      -0.379719       -10.3327
  69   2.0000      -0.376609       -10.2480
  70   2.0000      -0.371962       -10.1216
  71   2.0000      -0.369076       -10.0431
  72   2.0000      -0.362028        -9.8513
  73   2.0000      -0.358518        -9.7558
  74   2.0000      -0.345800        -9.4097
  75   2.0000      -0.338257        -9.2045
  76   2.0000      -0.333991        -9.0884
  77   2.0000      -0.323152        -8.7934
  78   2.0000      -0.309424        -8.4199
  79   2.0000      -0.305347        -8.3089
  80   2.0000      -0.300327        -8.1723
  81   2.0000      -0.295504        -8.0411
  82   2.0000      -0.284335        -7.7371
  83   2.0000      -0.272761        -7.4222
  84   2.0000      -0.263655        -7.1744
  85   2.0000      -0.260006        -7.0751
  86   2.0000      -0.235393        -6.4054
  87   2.0000      -0.222808        -6.0629
  88   2.0000      -0.215670        -5.8687
  89   2.0000      -0.203477        -5.5369
  90   2.0000      -0.200832        -5.4649
  91   2.0000      -0.194098        -5.2817
  92   2.0000      -0.185604        -5.0505
  93   2.0000      -0.182705        -4.9717
  94   2.0000      -0.170837        -4.6487
  95   2.0000      -0.160465        -4.3665
  96   2.0000      -0.155230        -4.2240
  97   2.0000      -0.148515        -4.0413
  98   2.0000      -0.140702        -3.8287
  99   2.0000      -0.138999        -3.7824
 100   0.0000       0.107706         2.9308
 101   0.0000       0.109650         2.9837
 102   0.0000       0.115547         3.1442
 103   0.0000       0.134661         3.6643
 104   0.0000       0.140053         3.8110

MULLIKEN ATOMIC CHARGES
-----------------------
   0 C :   -0.304452
   1 C :    0.152412
   2 C :   -0.212541
   3 C :   -0.239525
   4 C :   -0.205910
   5 C :   -0.284984
   6 H :    0.294804
   7 H :    0.213110
   8 H :    0.193541
   9 H :    0.193366
  10 H :    0.191505
  11 C :   -0.516866
  12 C :   -0.503356
  13 H :    0.216829
  14 H :    0.319544
  15 C :    0.142402
  16 H :    0.236444
  17 H :    0.210929
  18 C :   -0.138038
  19 C :   -0.260959
  20 C :   -0.235632
  21 C :   -0.288523
  22 C :   -0.223376
  23 H :    0.257345
  24 H :    0.183324
  25 H :    0.173569
  26 H :    0.177279
  27 Pd:    0.104391
  28 Br:   -0.495924
  29 P :   -0.119187
  30 H :    0.121897
  31 C :    0.715590
  32 O :   -0.533123
  33 O :   -0.534555
  34 O :   -0.621992
  35 H :    0.092615
  36 H :    0.119304
  37 H :    0.408744
Sum of atomic charges:   -1.0000000

LOEWDIN ATOMIC CHARGES
----------------------
   0 C :   -0.122460
   1 C :   -0.035474
   2 C :   -0.135572
   3 C :   -0.156901
   4 C :   -0.146646
   5 C :   -0.144213
   6 H :    0.170021
   7 H :    0.133236
   8 H :    0.126639
   9 H :    0.123951
  10 H :    0.123720
  11 C :   -0.211416
  12 C :   -0.202866
  13 H :    0.127884
  14 H :    0.177708
  15 C :   -0.048483
  16 H :    0.135889
  17 H :    0.119835
  18 C :   -0.018573
  19 C :   -0.118531
  20 C :   -0.149555
  21 C :   -0.147001
  22 C :   -0.166713
  23 H :    0.161910
  24 H :    0.120991
  25 H :    0.118293
  26 H :    0.117899
  27 Pd:   -0.843068
  28 Br:   -0.271185
  29 P :    0.426537
  30 H :    0.053744
  31 C :    0.135822
  32 O :   -0.325573
  33 O :   -0.197166
  34 O :   -0.334648
  35 H :    0.032983
  36 H :    0.056015
  37 H :    0.312969

  Mayer bond orders larger than 0.100000
B(  0-C ,  1-C ) :   1.3839 B(  0-C ,  2-C ) :   1.4326 B(  0-C ,  6-H ) :   0.8702
B(  1-C ,  5-C ) :   1.4077 B(  1-C , 11-C ) :   0.9455 B(  2-C ,  3-C ) :   1.4148
B(  2-C ,  7-H ) :   0.9222 B(  3-C ,  4-C ) :   1.4314 B(  3-C ,  9-H ) :   0.9274
B(  4-C ,  5-C ) :   1.4248 B(  4-C , 10-H ) :   0.9277 B(  5-C ,  8-H ) :   0.9279
B( 11-C , 12-C ) :   0.9356 B( 11-C , 13-H ) :   0.9246 B( 11-C , 14-H ) :   0.8682
B( 12-C , 15-C ) :   0.9667 B( 12-C , 16-H ) :   0.8953 B( 12-C , 17-H ) :   0.9255
B( 15-C , 18-C ) :   1.3492 B( 15-C , 21-C ) :   1.4037 B( 18-C , 19-C ) :   1.4243
B( 18-C , 27-Pd) :   0.7919 B( 18-C , 28-Br) :   0.1080 B( 19-C , 20-C ) :   1.4059
B( 19-C , 23-H ) :   0.8858 B( 20-C , 22-C ) :   1.4257 B( 20-C , 24-H ) :   0.9279
B( 21-C , 22-C ) :   1.4300 B( 21-C , 25-H ) :   0.9277 B( 22-C , 26-H ) :   0.9300
B( 27-Pd, 28-Br) :   0.6064 B( 27-Pd, 29-P ) :   0.7516 B( 27-Pd, 33-O ) :   0.5124
B( 29-P , 30-H ) :   0.9261 B( 29-P , 35-H ) :   0.9104 B( 29-P , 36-H ) :   0.9338
B( 31-C , 32-O ) :   1.7909 B( 31-C , 33-O ) :   1.3600 B( 31-C , 34-O ) :   1.0662
B( 34-O , 37-H ) :   0.7878

Dispersion correction           -0.030963670
FINAL SINGLE POINT ENERGY     -3847.791031026756

DIPOLE MOMENT
-------------
                                X             Y             Z
Electronic contribution:     35.06775     -54.04648     -82.03964
Nuclear contribution   :    -35.00509      53.36028      84.96249
                        -----------------------------------------
Total Dipole Moment    :      0.06267      -0.68621       2.92284
                        -----------------------------------------
Magnitude (a.u.)       :      3.00297
Magnitude (Debye)      :      7.63294

Rotational constants in cm-1:     0.007546     0.005427     0.004021
Rotational constants in MHz :   226.218070   162.701159   120.544904

                             ****ORCA TERMINATED NORMALLY****
TOTAL RUN TIME: 0 days 1 hours 53 minutes 23 seconds 143 msec
