                         Program Version 5.0.4 -  RELEASE  -
|  1> ! PBEh-3c OPT pal4
|  2>
|  3> %geom
|  4>  maxiter 600
|  5> end
|  6>
|  7> *xyzfile -1 1 reaction-3-prod-xtb.xyz
|  8>
|  9>                          ****END OF INPUT****
 Total Charge           Charge          ....   -1
 Multiplicity           Mult            ....    1
 Number of Electrons    NEL             ....  200
Dispersion correction           -0.035060446
FINAL SINGLE POINT ENERGY     -3847.730622877816
Dispersion correction            ... done
Dispersion correction           -0.034634580
FINAL SINGLE POINT ENERGY     -3847.744383479413
Dispersion correction            ... done
Dispersion correction           -0.034265778
FINAL SINGLE POINT ENERGY     -3847.751740047588
Dispersion correction            ... done
FINAL SINGLE POINT ENERGY     -3847.756274376372
FINAL SINGLE POINT ENERGY     -3847.759215380710
FINAL SINGLE POINT ENERGY     -3847.761106850256
FINAL SINGLE POINT ENERGY     -3847.762186668589
FINAL SINGLE POINT ENERGY     -3847.762562556977
FINAL SINGLE POINT ENERGY     -3847.762633927876
FINAL SINGLE POINT ENERGY     -3847.762703068540
FINAL SINGLE POINT ENERGY     -3847.762978429729
FINAL SINGLE POINT ENERGY     -3847.762996013366
FINAL SINGLE POINT ENERGY     -3847.762988755277
FINAL SINGLE POINT ENERGY     -3847.762999298143
FINAL SINGLE POINT ENERGY     -3847.762992805838
FINAL SINGLE POINT ENERGY     -3847.762990893144
FINAL SINGLE POINT ENERGY     -3847.762992094962
Dispersion correction            ... done
Dispersion correction           -0.032907859
FINAL SINGLE POINT ENERGY     -3847.762995774362
Dispersion correction            ... done
Dispersion correction           -0.032906470
FINAL SINGLE POINT ENERGY     -3847.763000019396
Dispersion correction            ... done
                    ***********************HURRAY********************

CARTESIAN COORDINATES (ANGSTROEM)
---------------------------------
  C     -1.502178    0.062027    0.516625
  C     -1.460898    0.963053    1.591235
  C     -2.579578    0.191078   -0.374533
  C     -3.550158    1.172519   -0.248574
  C     -3.481613    2.073113    0.803233
  C     -2.446417    1.949715    1.710116
  H     -1.278686   -3.259560   -2.491505
  H     -2.677718   -0.510506   -1.192016
  H     -2.388753    2.643073    2.544696
  H     -4.356869    1.230807   -0.970705
  H     -4.221468    2.856495    0.918414
  C     -0.451959    0.949822    2.723859
  C      0.879932    0.232896    2.530040
  H     -0.940365    0.525558    3.609103
  H     -0.230690    1.990520    2.983497
  C      1.577028    0.664989    1.272364
  H      0.729988   -0.848752    2.527999
  H      1.504287    0.452600    3.402722
  C      1.190784    0.104917    0.047802
  C      1.827401    0.567275   -1.105672
  C      2.808455    1.552028   -1.055678
  C      2.560998    1.647459    1.318761
  C      3.181766    2.097490    0.161804
  H      1.583542    0.141253   -2.073782
  H      3.286181    1.881964   -1.971110
  H      2.848584    2.065701    2.278863
  H      3.950122    2.859504    0.213480
  Pd    -0.148819   -1.371810    0.016181
  Br    -1.788410   -3.383544   -0.067831
  P      1.521423   -2.925714   -0.532651
  H      1.960790   -3.734486    0.533518
  C     -0.269427   -2.021731   -3.545672
  O      0.734101   -1.781493   -4.158000
  O     -0.678997   -3.241186   -3.266904
  O     -1.123207   -1.096758   -3.099555
  H      2.798474   -2.511136   -0.961737
  H      1.337403   -3.960763   -1.464427
  H     -0.705049   -0.228437   -3.123974

 Multiplicity           Mult            ....    1
 Number of Electrons    NEL             ....  200
 Basis Dimension        Dim             ....  385

ORBITAL ENERGIES
----------------

  NO   OCC          E(Eh)            E(eV)
   0   2.0000    -484.327305    -13179.2160
   1   2.0000     -77.651984     -2113.0179
   2   2.0000     -62.988675     -1714.0090
   3   2.0000     -56.692213     -1542.6735
   4   2.0000     -56.691444     -1542.6526
   5   2.0000     -56.691334     -1542.6496
   6   2.0000     -19.441804      -529.0384
   7   2.0000     -19.427736      -528.6556
   8   2.0000     -19.372756      -527.1595
   9   2.0000     -10.519181      -286.2415
  10   2.0000     -10.330380      -281.1039
  11   2.0000     -10.329889      -281.0906
  12   2.0000     -10.329328      -281.0753
  13   2.0000     -10.327403      -281.0229
  14   2.0000     -10.324799      -280.9521
  15   2.0000     -10.324228      -280.9365
  16   2.0000     -10.322821      -280.8983
  17   2.0000     -10.321780      -280.8699
  18   2.0000     -10.321527      -280.8630
  19   2.0000     -10.318289      -280.7749
  20   2.0000     -10.316296      -280.7207
  21   2.0000     -10.315232      -280.6917
  22   2.0000     -10.307841      -280.4906
  23   2.0000     -10.304431      -280.3978
  24   2.0000      -8.815942      -239.8940
  25   2.0000      -6.728502      -183.0919
  26   2.0000      -6.584386      -179.1703
  27   2.0000      -6.581776      -179.0992
  28   2.0000      -6.580432      -179.0626
  29   2.0000      -4.819313      -131.1402
  30   2.0000      -4.819173      -131.1364
  31   2.0000      -4.817303      -131.0855
  32   2.0000      -3.504245       -95.3554
  33   2.0000      -2.598663       -70.7132
  34   2.0000      -2.598240       -70.7017
  35   2.0000      -2.597147       -70.6720
  36   2.0000      -2.594857       -70.6097
  37   2.0000      -2.594670       -70.6046
  38   2.0000      -2.149173       -58.4820
  39   2.0000      -2.146033       -58.3965
  40   2.0000      -2.120110       -57.6911
  41   2.0000      -1.157060       -31.4852
  42   2.0000      -1.052302       -28.6346
  43   2.0000      -1.024402       -27.8754
  44   2.0000      -0.838120       -22.8064
  45   2.0000      -0.822042       -22.3689
  46   2.0000      -0.771158       -20.9843
  47   2.0000      -0.721752       -19.6399
  48   2.0000      -0.710075       -19.3221
  49   2.0000      -0.694421       -18.8962
  50   2.0000      -0.673205       -18.3188
  51   2.0000      -0.644634       -17.5414
  52   2.0000      -0.629837       -17.1387
  53   2.0000      -0.621427       -16.9099
  54   2.0000      -0.598251       -16.2792
  55   2.0000      -0.558859       -15.2073
  56   2.0000      -0.557990       -15.1837
  57   2.0000      -0.541242       -14.7280
  58   2.0000      -0.536970       -14.6117
  59   2.0000      -0.508910       -13.8481
  60   2.0000      -0.457024       -12.4363
  61   2.0000      -0.456026       -12.4091
  62   2.0000      -0.446495       -12.1497
  63   2.0000      -0.439080       -11.9480
  64   2.0000      -0.414074       -11.2675
  65   2.0000      -0.399215       -10.8632
  66   2.0000      -0.386388       -10.5141
  67   2.0000      -0.382151       -10.3989
  68   2.0000      -0.380837       -10.3631
  69   2.0000      -0.370873       -10.0920
  70   2.0000      -0.357016        -9.7149
  71   2.0000      -0.354086        -9.6352
  72   2.0000      -0.349344        -9.5061
  73   2.0000      -0.347929        -9.4676
  74   2.0000      -0.345086        -9.3903
  75   2.0000      -0.336200        -9.1485
  76   2.0000      -0.322321        -8.7708
  77   2.0000      -0.316119        -8.6020
  78   2.0000      -0.306217        -8.3326
  79   2.0000      -0.298283        -8.1167
  80   2.0000      -0.293646        -7.9905
  81   2.0000      -0.286815        -7.8046
  82   2.0000      -0.279382        -7.6024
  83   2.0000      -0.270266        -7.3543
  84   2.0000      -0.266796        -7.2599
  85   2.0000      -0.255328        -6.9478
  86   2.0000      -0.251007        -6.8302
  87   2.0000      -0.243954        -6.6383
  88   2.0000      -0.240086        -6.5331
  89   2.0000      -0.207351        -5.6423
  90   2.0000      -0.201752        -5.4900
  91   2.0000      -0.194667        -5.2972
  92   2.0000      -0.172586        -4.6963
  93   2.0000      -0.169057        -4.6003
  94   2.0000      -0.158387        -4.3099
  95   2.0000      -0.153296        -4.1714
  96   2.0000      -0.152714        -4.1556
  97   2.0000      -0.141699        -3.8558
  98   2.0000      -0.135557        -3.6887
  99   2.0000      -0.130634        -3.5547
 100   0.0000       0.130716         3.5570
 101   0.0000       0.133435         3.6309
 102   0.0000       0.137174         3.7327
 103   0.0000       0.149194         4.0598
 104   0.0000       0.160179         4.3587

MULLIKEN ATOMIC CHARGES
-----------------------
   0 C :   -0.029963
   1 C :    0.097060
   2 C :   -0.273212
   3 C :   -0.226324
   4 C :   -0.235186
   5 C :   -0.257233
   6 H :    0.472766
   7 H :    0.233721
   8 H :    0.165542
   9 H :    0.173901
  10 H :    0.169480
  11 C :   -0.465851
  12 C :   -0.519031
  13 H :    0.215482
  14 H :    0.199967
  15 C :    0.150748
  16 H :    0.265181
  17 H :    0.194598
  18 C :   -0.104598
  19 C :   -0.292514
  20 C :   -0.233662
  21 C :   -0.296330
  22 C :   -0.227149
  23 H :    0.200400
  24 H :    0.181610
  25 H :    0.170915
  26 H :    0.174966
  27 Pd:   -0.066995
  28 Br:   -0.524549
  29 P :   -0.150720
  30 H :    0.094238
  31 C :    0.690831
  32 O :   -0.449235
  33 O :   -0.600624
  34 O :   -0.589759
  35 H :    0.095983
  36 H :    0.124324
  37 H :    0.471223
Sum of atomic charges:   -1.0000000

LOEWDIN ATOMIC CHARGES
----------------------
   0 C :   -0.034058
   1 C :   -0.042272
   2 C :   -0.122346
   3 C :   -0.159941
   4 C :   -0.169406
   5 C :   -0.148349
   6 H :    0.338111
   7 H :    0.148434
   8 H :    0.114318
   9 H :    0.116548
  10 H :    0.114393
  11 C :   -0.211794
  12 C :   -0.211956
  13 H :    0.128196
  14 H :    0.122351
  15 C :   -0.036989
  16 H :    0.157295
  17 H :    0.115930
  18 C :   -0.017016
  19 C :   -0.142916
  20 C :   -0.152346
  21 C :   -0.145203
  22 C :   -0.170523
  23 H :    0.133606
  24 H :    0.119832
  25 H :    0.117690
  26 H :    0.116877
  27 Pd:   -0.943251
  28 Br:   -0.282985
  29 P :    0.352292
  30 H :    0.042563
  31 C :    0.130531
  32 O :   -0.262566
  33 O :   -0.284678
  34 O :   -0.274225
  35 H :    0.038429
  36 H :    0.054223
  37 H :    0.351202

  Mayer bond orders larger than 0.100000
B(  0-C ,  1-C ) :   1.3839 B(  0-C ,  2-C ) :   1.3837 B(  0-C , 27-Pd) :   0.7546
B(  1-C ,  5-C ) :   1.3684 B(  1-C , 11-C ) :   0.9622 B(  2-C ,  3-C ) :   1.4308
B(  2-C ,  7-H ) :   0.8974 B(  3-C ,  4-C ) :   1.4099 B(  3-C ,  9-H ) :   0.9293
B(  4-C ,  5-C ) :   1.4495 B(  4-C , 10-H ) :   0.9308 B(  5-C ,  8-H ) :   0.9310
B(  6-H , 28-Br) :   0.1263 B(  6-H , 33-O ) :   0.6462 B( 11-C , 12-C ) :   0.9869
B( 11-C , 13-H ) :   0.9092 B( 11-C , 14-H ) :   0.9216 B( 12-C , 15-C ) :   0.9611
B( 12-C , 16-H ) :   0.8829 B( 12-C , 17-H ) :   0.9265 B( 15-C , 18-C ) :   1.3517
B( 15-C , 21-C ) :   1.4095 B( 18-C , 19-C ) :   1.4046 B( 18-C , 27-Pd) :   0.7889
B( 19-C , 20-C ) :   1.4194 B( 19-C , 23-H ) :   0.9108 B( 20-C , 22-C ) :   1.4358
B( 20-C , 24-H ) :   0.9272 B( 21-C , 22-C ) :   1.4184 B( 21-C , 25-H ) :   0.9297
B( 22-C , 26-H ) :   0.9301 B( 27-Pd, 28-Br) :   0.5428 B( 27-Pd, 29-P ) :   0.4710
B( 29-P , 30-H ) :   0.9429 B( 29-P , 35-H ) :   0.9298 B( 29-P , 36-H ) :   0.9351
B( 31-C , 32-O ) :   1.9829 B( 31-C , 33-O ) :   1.1853 B( 31-C , 34-O ) :   1.1102
B( 34-O , 37-H ) :   0.7294

Dispersion correction           -0.032904109
FINAL SINGLE POINT ENERGY     -3847.763004294366

DIPOLE MOMENT
-------------
                                X             Y             Z
Electronic contribution:     -7.92803     -66.31662      10.21935
Nuclear contribution   :      8.97712      66.72901      -9.74961
                        -----------------------------------------
Total Dipole Moment    :      1.04909       0.41239       0.46975
                        -----------------------------------------
Magnitude (a.u.)       :      1.22120
Magnitude (Debye)      :      3.10404

Rotational constants in cm-1:     0.008242     0.006306     0.005081
Rotational constants in MHz :   247.090818   189.053093   152.319684

                             ****ORCA TERMINATED NORMALLY****
TOTAL RUN TIME: 0 days 1 hours 6 minutes 23 seconds 997 msec
