                         Program Version 5.0.3 -  RELEASE  -
|  1> ! EnGrad PBEh-3c
|  2> %output
|  3> xyzfile=True
|  4> end
|  5> %scf
|  6> maxiter 250
|  7> end
|  8> %output
|  9> Print[P_Hirshfeld] = 1
| 10> end
| 11> % maxcore
| 12> 4000
| 13> *xyz 1 1
| 14> Sc   0.69768749  -0.56991161  -1.98566384
| 15> C    0.14952009  -0.38499652   0.20525713
| 16> N   -0.47034192  -1.31865494   0.94558099
| 17> C   -0.51611175  -0.94235465   2.25646745
| 18> C    0.08658429   0.26419983   2.33480649
| 19> N    0.46630446   0.59837370   1.06648899
| 20> C    1.19188011   1.81641099   0.76286994
| 21> H    0.77235056   2.65592964   1.31124948
| 22> H    1.11030022   2.05861318  -0.29380258
| 23> H    2.24785886   1.71413959   1.00356035
| 24> C   -0.99520092  -2.59021015   0.48003960
| 25> H   -1.03790634  -2.60361171  -0.60610092
| 26> H   -2.00775619  -2.73033113   0.85032934
| 27> H   -0.36526375  -3.40910988   0.82033999
| 28> H   -0.96561588  -1.54394112   3.02798681
| 29> H    0.26133735   0.88436413   3.19734386
| 30> C    0.16149764   1.56359194  -2.95679108
| 31> H   -0.35103707   1.46593628  -3.92258828
| 32> H    1.01383770   2.22893561  -3.13498152
| 33> H   -0.53192097   2.09125892  -2.29303939
| 34> H   -0.91797491  -1.24863022  -3.06935374
| 35> *
| 36>
| 37>                          ****END OF INPUT****

CARTESIAN COORDINATES (ANGSTROEM)
---------------------------------
  Sc     0.697687   -0.569912   -1.985664
  C      0.149520   -0.384997    0.205257
  N     -0.470342   -1.318655    0.945581
  C     -0.516112   -0.942355    2.256467
  C      0.086584    0.264200    2.334806
  N      0.466304    0.598374    1.066489
  C      1.191880    1.816411    0.762870
  H      0.772351    2.655930    1.311249
  H      1.110300    2.058613   -0.293803
  H      2.247859    1.714140    1.003560
  C     -0.995201   -2.590210    0.480040
  H     -1.037906   -2.603612   -0.606101
  H     -2.007756   -2.730331    0.850329
  H     -0.365264   -3.409110    0.820340
  H     -0.965616   -1.543941    3.027987
  H      0.261337    0.884364    3.197344
  C      0.161498    1.563592   -2.956791
  H     -0.351037    1.465936   -3.922588
  H      1.013838    2.228936   -3.134982
  H     -0.531921    2.091259   -2.293039
  H     -0.917975   -1.248630   -3.069354

 Total Charge           Charge          ....    1
 Multiplicity           Mult            ....    1
 Number of Electrons    NEL             ....   82
 Basis Dimension        Dim             ....  175

ORBITAL ENERGIES
----------------

  NO   OCC          E(Eh)            E(eV)
   0   2.0000    -162.929728     -4433.5433
   1   2.0000     -18.239862      -496.3319
   2   2.0000     -15.077181      -410.2709
   3   2.0000     -15.074959      -410.2105
   4   2.0000     -15.074181      -410.1893
   5   2.0000     -14.880042      -404.9065
   6   2.0000     -14.879929      -404.9034
   7   2.0000     -10.659461      -290.0587
   8   2.0000     -10.640657      -289.5470
   9   2.0000     -10.639560      -289.5171
  10   2.0000     -10.632628      -289.3285
  11   2.0000     -10.630714      -289.2764
  12   2.0000     -10.522154      -286.3224
  13   2.0000      -2.437811       -66.3362
  14   2.0000      -1.585224       -43.1361
  15   2.0000      -1.575256       -42.8649
  16   2.0000      -1.572983       -42.8030
  17   2.0000      -1.329093       -36.1665
  18   2.0000      -1.205550       -32.8047
  19   2.0000      -1.038474       -28.2583
  20   2.0000      -0.997446       -27.1419
  21   2.0000      -0.939635       -25.5688
  22   2.0000      -0.859208       -23.3802
  23   2.0000      -0.843089       -22.9416
  24   2.0000      -0.819218       -22.2920
  25   2.0000      -0.765390       -20.8273
  26   2.0000      -0.718808       -19.5597
  27   2.0000      -0.689664       -18.7667
  28   2.0000      -0.672628       -18.3031
  29   2.0000      -0.670047       -18.2329
  30   2.0000      -0.661944       -18.0124
  31   2.0000      -0.613840       -16.7034
  32   2.0000      -0.609627       -16.5888
  33   2.0000      -0.604517       -16.4497
  34   2.0000      -0.541999       -14.7485
  35   2.0000      -0.537161       -14.6169
  36   2.0000      -0.533055       -14.5052
  37   2.0000      -0.501418       -13.6443
  38   2.0000      -0.450451       -12.2574
  39   2.0000      -0.424356       -11.5473
  40   2.0000      -0.405596       -11.0368
  41   0.0000      -0.199599        -5.4314
  42   0.0000      -0.191849        -5.2205
  43   0.0000      -0.184695        -5.0258
  44   0.0000      -0.174238        -4.7413
  45   0.0000      -0.169240        -4.6053

MULLIKEN ATOMIC CHARGES
-----------------------
   0 Sc:    0.819046
   1 C :    0.184863
   2 N :   -0.411562
   3 C :   -0.062455
   4 C :   -0.057718
   5 N :   -0.415349
   6 C :   -0.551305
   7 H :    0.289315
   8 H :    0.285612
   9 H :    0.272470
  10 C :   -0.539539
  11 H :    0.272662
  12 H :    0.292975
  13 H :    0.275595
  14 H :    0.309974
  15 H :    0.310030
  16 C :   -0.947267
  17 H :    0.273468
  18 H :    0.225113
  19 H :    0.232177
  20 H :   -0.058103
Sum of atomic charges:    1.0000000

LOEWDIN ATOMIC CHARGES
----------------------
   0 Sc:    0.555747
   1 C :   -0.038773
   2 N :    0.011283
   3 C :   -0.075471
   4 C :   -0.073145
   5 N :    0.010962
   6 C :   -0.242675
   7 H :    0.163031
   8 H :    0.160392
   9 H :    0.150196
  10 C :   -0.237873
  11 H :    0.157682
  12 H :    0.163882
  13 H :    0.152513
  14 H :    0.171891
  15 H :    0.172059
  16 C :   -0.583254
  17 H :    0.161260
  18 H :    0.134912
  19 H :    0.142041
  20 H :   -0.056659

  Mayer bond orders larger than 0.100000
B(  0-Sc,  1-C ) :   0.6609 B(  0-Sc, 16-C ) :   0.9916 B(  0-Sc, 20-H ) :   0.9843
B(  1-C ,  2-N ) :   1.2281 B(  1-C ,  5-N ) :   1.2318 B(  2-N ,  3-C ) :   1.1622
B(  2-N , 10-C ) :   0.9054 B(  3-C ,  4-C ) :   1.6235 B(  3-C , 14-H ) :   0.8749
B(  4-C ,  5-N ) :   1.1589 B(  4-C , 15-H ) :   0.8753 B(  5-N ,  6-C ) :   0.9062
B(  6-C ,  7-H ) :   0.8964 B(  6-C ,  8-H ) :   0.8876 B(  6-C ,  9-H ) :   0.8931
B( 10-C , 11-H ) :   0.8891 B( 10-C , 12-H ) :   0.8924 B( 10-C , 13-H ) :   0.8921
B( 16-C , 17-H ) :   0.8960 B( 16-C , 18-H ) :   0.9034 B( 16-C , 19-H ) :   0.9033

Dispersion correction           -0.010969477
FINAL SINGLE POINT ENERGY     -1104.453485396336
Dispersion correction            ... done

DIPOLE MOMENT
-------------
                                X             Y             Z
Electronic contribution:      5.94958      -5.98644      -2.90283
Nuclear contribution   :     -4.35294       5.06149       4.04379
                        -----------------------------------------
Total Dipole Moment    :      1.59664      -0.92495       1.14097
                        -----------------------------------------
Magnitude (a.u.)       :      2.16947
Magnitude (Debye)      :      5.51436

Rotational constants in cm-1:     0.056299     0.029944     0.021027
Rotational constants in MHz :  1687.786612   897.709467   630.382511

                             ****ORCA TERMINATED NORMALLY****
TOTAL RUN TIME: 0 days 0 hours 1 minutes 58 seconds 599 msec
