                         Program Version 5.0.3 -  RELEASE  -
|  1> ! EnGrad PBEh-3c
|  2> %output
|  3> xyzfile=True
|  4> end
|  5> %scf
|  6> maxiter 250
|  7> end
|  8> %output
|  9> Print[P_Hirshfeld] = 1
| 10> end
| 11> % maxcore
| 12> 4000
| 13> *xyz 1 1
| 14> Sc   0.59306147  -0.47938989  -2.11373649
| 15> C    0.17122011  -0.39711683   0.19459477
| 16> N   -0.46710694  -1.32194969   0.95725857
| 17> C   -0.53324483  -0.93485845   2.25640186
| 18> C    0.06771161   0.27158155   2.33582066
| 19> N    0.47749989   0.58709811   1.07783058
| 20> C    1.21250316   1.81470104   0.74114004
| 21> H    0.80872128   2.64409619   1.32546154
| 22> H    1.10060645   2.05880544  -0.29486476
| 23> H    2.26165604   1.68892720   0.99155122
| 24> C   -0.98831074  -2.59274673   0.47396823
| 25> H   -1.01427148  -2.61970866  -0.60589595
| 26> H   -2.01061766  -2.72480591   0.83240358
| 27> H   -0.37698448  -3.41265164   0.84848059
| 28> H   -0.99397267  -1.52843166   3.01951233
| 29> H    0.24187281   0.90077090   3.18571557
| 30> C    0.18675930   1.50544850  -2.91676009
| 31> H   -0.36023522   1.45002286  -3.90201069
| 32> H    0.99052501   2.24261313  -3.12019280
| 33> H   -0.54534188   2.06397646  -2.27230000
| 34> H   -0.82279831  -1.21576218  -3.01209459
| 35> *
| 36>
| 37>                          ****END OF INPUT****

CARTESIAN COORDINATES (ANGSTROEM)
---------------------------------
  Sc     0.593061   -0.479390   -2.113736
  C      0.171220   -0.397117    0.194595
  N     -0.467107   -1.321950    0.957259
  C     -0.533245   -0.934858    2.256402
  C      0.067712    0.271582    2.335821
  N      0.477500    0.587098    1.077831
  C      1.212503    1.814701    0.741140
  H      0.808721    2.644096    1.325462
  H      1.100606    2.058805   -0.294865
  H      2.261656    1.688927    0.991551
  C     -0.988311   -2.592747    0.473968
  H     -1.014271   -2.619709   -0.605896
  H     -2.010618   -2.724806    0.832404
  H     -0.376984   -3.412652    0.848481
  H     -0.993973   -1.528432    3.019512
  H      0.241873    0.900771    3.185716
  C      0.186759    1.505448   -2.916760
  H     -0.360235    1.450023   -3.902011
  H      0.990525    2.242613   -3.120193
  H     -0.545342    2.063976   -2.272300
  H     -0.822798   -1.215762   -3.012095

 Total Charge           Charge          ....    1
 Multiplicity           Mult            ....    1
 Number of Electrons    NEL             ....   82
 Basis Dimension        Dim             ....  175

ORBITAL ENERGIES
----------------

  NO   OCC          E(Eh)            E(eV)
   0   2.0000    -162.912480     -4433.0739
   1   2.0000     -18.225421      -495.9389
   2   2.0000     -15.062480      -409.8709
   3   2.0000     -15.060231      -409.8097
   4   2.0000     -15.059721      -409.7958
   5   2.0000     -14.872588      -404.7037
   6   2.0000     -14.872444      -404.6998
   7   2.0000     -10.655517      -289.9514
   8   2.0000     -10.633832      -289.3613
   9   2.0000     -10.632609      -289.3280
  10   2.0000     -10.627071      -289.1773
  11   2.0000     -10.626851      -289.1713
  12   2.0000     -10.528770      -286.5024
  13   2.0000      -2.428065       -66.0710
  14   2.0000      -1.575965       -42.8842
  15   2.0000      -1.565999       -42.6130
  16   2.0000      -1.565625       -42.6028
  17   2.0000      -1.318397       -35.8754
  18   2.0000      -1.194466       -32.5031
  19   2.0000      -1.031500       -28.0685
  20   2.0000      -0.987489       -26.8709
  21   2.0000      -0.935350       -25.4522
  22   2.0000      -0.853926       -23.2365
  23   2.0000      -0.848872       -23.0990
  24   2.0000      -0.813598       -22.1391
  25   2.0000      -0.758784       -20.6476
  26   2.0000      -0.709625       -19.3099
  27   2.0000      -0.681711       -18.5503
  28   2.0000      -0.664475       -18.0813
  29   2.0000      -0.663091       -18.0436
  30   2.0000      -0.654780       -17.8175
  31   2.0000      -0.613365       -16.6905
  32   2.0000      -0.605834       -16.4856
  33   2.0000      -0.598159       -16.2767
  34   2.0000      -0.546714       -14.8768
  35   2.0000      -0.537773       -14.6335
  36   2.0000      -0.530552       -14.4371
  37   2.0000      -0.495070       -13.4715
  38   2.0000      -0.447589       -12.1795
  39   2.0000      -0.441949       -12.0261
  40   2.0000      -0.439429       -11.9575
  41   0.0000      -0.193210        -5.2575
  42   0.0000      -0.185045        -5.0353
  43   0.0000      -0.176710        -4.8085
  44   0.0000      -0.162569        -4.4237
  45   0.0000      -0.154390        -4.2012

MULLIKEN ATOMIC CHARGES
-----------------------
   0 Sc:    0.837158
   1 C :    0.185821
   2 N :   -0.414745
   3 C :   -0.059332
   4 C :   -0.057897
   5 N :   -0.422156
   6 C :   -0.537544
   7 H :    0.282122
   8 H :    0.283057
   9 H :    0.272673
  10 C :   -0.533031
  11 H :    0.269992
  12 H :    0.285718
  13 H :    0.274803
  14 H :    0.306985
  15 H :    0.306209
  16 C :   -1.039705
  17 H :    0.283213
  18 H :    0.250293
  19 H :    0.246419
  20 H :   -0.020053
Sum of atomic charges:    1.0000000

LOEWDIN ATOMIC CHARGES
----------------------
   0 Sc:    0.539861
   1 C :   -0.041188
   2 N :    0.006088
   3 C :   -0.078907
   4 C :   -0.077840
   5 N :    0.004066
   6 C :   -0.236596
   7 H :    0.160266
   8 H :    0.156956
   9 H :    0.150636
  10 C :   -0.236925
  11 H :    0.154493
  12 H :    0.160429
  13 H :    0.152189
  14 H :    0.169632
  15 H :    0.169438
  16 C :   -0.596128
  17 H :    0.176790
  18 H :    0.152007
  19 H :    0.159271
  20 H :   -0.044539

  Mayer bond orders larger than 0.100000
B(  0-Sc,  1-C ) :   0.6474 B(  0-Sc, 16-C ) :   0.9873 B(  0-Sc, 20-H ) :   0.9828
B(  1-C ,  2-N ) :   1.2217 B(  1-C ,  5-N ) :   1.2289 B(  2-N ,  3-C ) :   1.1688
B(  2-N , 10-C ) :   0.9078 B(  3-C ,  4-C ) :   1.6130 B(  3-C , 14-H ) :   0.8766
B(  4-C ,  5-N ) :   1.1636 B(  4-C , 15-H ) :   0.8775 B(  5-N ,  6-C ) :   0.9009
B(  6-C ,  7-H ) :   0.9007 B(  6-C ,  8-H ) :   0.8897 B(  6-C ,  9-H ) :   0.8950
B( 10-C , 11-H ) :   0.8955 B( 10-C , 12-H ) :   0.8955 B( 10-C , 13-H ) :   0.8935
B( 16-C , 17-H ) :   0.8751 B( 16-C , 18-H ) :   0.8906 B( 16-C , 19-H ) :   0.8861

Dispersion correction           -0.010980652
FINAL SINGLE POINT ENERGY     -1104.479169363553
Dispersion correction            ... done

DIPOLE MOMENT
-------------
                                X             Y             Z
Electronic contribution:      5.19713      -5.33385      -4.08997
Nuclear contribution   :     -3.80048       4.62730       4.78254
                        -----------------------------------------
Total Dipole Moment    :      1.39665      -0.70655       0.69257
                        -----------------------------------------
Magnitude (a.u.)       :      1.71158
Magnitude (Debye)      :      4.35048

Rotational constants in cm-1:     0.057730     0.029369     0.020648
Rotational constants in MHz :  1730.696931   880.448793   619.004899

                             ****ORCA TERMINATED NORMALLY****
TOTAL RUN TIME: 0 days 0 hours 1 minutes 53 seconds 865 msec
