                         Program Version 5.0.3 -  RELEASE  -
|  1> ! EnGrad PBEh-3c
|  2> %output
|  3> xyzfile=True
|  4> end
|  5> %scf
|  6> maxiter 250
|  7> end
|  8> %output
|  9> Print[P_Hirshfeld] = 1
| 10> end
| 11> % maxcore
| 12> 4000
| 13> *xyz 1 1
| 14> Sc   0.50756235  -0.34674033  -2.07974068
| 15> C    0.19070157  -0.40633596   0.19267894
| 16> N   -0.45797829  -1.32467058   0.93297615
| 17> C   -0.55505165  -0.91767700   2.22715759
| 18> C    0.05080448   0.28496863   2.30755691
| 19> N    0.49766850   0.57820818   1.05775242
| 20> C    1.24789479   1.77746190   0.73633405
| 21> H    0.88453004   2.59611885   1.35208274
| 22> H    1.09502467   2.05268127  -0.30152654
| 23> H    2.31101048   1.63747022   0.92591759
| 24> C   -0.97999169  -2.59886887   0.46979699
| 25> H   -0.94336058  -2.65332467  -0.61342726
| 26> H   -2.01664321  -2.69926914   0.78401086
| 27> H   -0.40100721  -3.41780890   0.89333318
| 28> H   -1.05728828  -1.48856136   2.98122495
| 29> H    0.18181190   0.94784623   3.13959363
| 30> C    0.16521123   1.58010557  -2.89895197
| 31> H   -0.37239466   1.39274616  -3.86233465
| 32> H    0.98633937   2.30210353  -3.07298008
| 33> H   -0.58303009   2.02479034  -2.19861658
| 34> H   -0.75204364  -1.31257528  -2.96101815
| 35> *
| 36>
| 37>                          ****END OF INPUT****

CARTESIAN COORDINATES (ANGSTROEM)
---------------------------------
  Sc     0.507562   -0.346740   -2.079741
  C      0.190702   -0.406336    0.192679
  N     -0.457978   -1.324671    0.932976
  C     -0.555052   -0.917677    2.227158
  C      0.050804    0.284969    2.307557
  N      0.497669    0.578208    1.057752
  C      1.247895    1.777462    0.736334
  H      0.884530    2.596119    1.352083
  H      1.095025    2.052681   -0.301527
  H      2.311010    1.637470    0.925918
  C     -0.979992   -2.598869    0.469797
  H     -0.943361   -2.653325   -0.613427
  H     -2.016643   -2.699269    0.784011
  H     -0.401007   -3.417809    0.893333
  H     -1.057288   -1.488561    2.981225
  H      0.181812    0.947846    3.139594
  C      0.165211    1.580106   -2.898952
  H     -0.372395    1.392746   -3.862335
  H      0.986339    2.302104   -3.072980
  H     -0.583030    2.024790   -2.198617
  H     -0.752044   -1.312575   -2.961018

 Total Charge           Charge          ....    1
 Multiplicity           Mult            ....    1
 Number of Electrons    NEL             ....   82
 Basis Dimension        Dim             ....  175

ORBITAL ENERGIES
----------------

  NO   OCC          E(Eh)            E(eV)
   0   2.0000    -162.899082     -4432.7094
   1   2.0000     -18.213676      -495.6193
   2   2.0000     -15.050832      -409.5540
   3   2.0000     -15.048530      -409.4913
   4   2.0000     -15.047482      -409.4628
   5   2.0000     -14.875822      -404.7917
   6   2.0000     -14.875547      -404.7842
   7   2.0000     -10.654404      -289.9211
   8   2.0000     -10.636779      -289.4415
   9   2.0000     -10.635297      -289.4012
  10   2.0000     -10.632155      -289.3157
  11   2.0000     -10.626801      -289.1700
  12   2.0000     -10.532944      -286.6160
  13   2.0000      -2.419819       -65.8466
  14   2.0000      -1.569586       -42.7106
  15   2.0000      -1.558930       -42.4206
  16   2.0000      -1.556841       -42.3638
  17   2.0000      -1.326439       -36.0942
  18   2.0000      -1.202611       -32.7247
  19   2.0000      -1.036456       -28.2034
  20   2.0000      -0.994030       -27.0489
  21   2.0000      -0.937811       -25.5191
  22   2.0000      -0.863025       -23.4841
  23   2.0000      -0.856270       -23.3003
  24   2.0000      -0.816200       -22.2099
  25   2.0000      -0.762523       -20.7493
  26   2.0000      -0.716050       -19.4847
  27   2.0000      -0.686356       -18.6767
  28   2.0000      -0.669721       -18.2240
  29   2.0000      -0.666878       -18.1467
  30   2.0000      -0.660558       -17.9747
  31   2.0000      -0.614812       -16.7299
  32   2.0000      -0.608642       -16.5620
  33   2.0000      -0.601479       -16.3671
  34   2.0000      -0.568260       -15.4631
  35   2.0000      -0.559549       -15.2261
  36   2.0000      -0.533123       -14.5070
  37   2.0000      -0.498401       -13.5622
  38   2.0000      -0.448012       -12.1910
  39   2.0000      -0.446366       -12.1462
  40   2.0000      -0.435164       -11.8414
  41   0.0000      -0.192097        -5.2272
  42   0.0000      -0.184141        -5.0107
  43   0.0000      -0.169892        -4.6230
  44   0.0000      -0.158636        -4.3167
  45   0.0000      -0.141486        -3.8500

MULLIKEN ATOMIC CHARGES
-----------------------
   0 Sc:    0.835703
   1 C :    0.172512
   2 N :   -0.411973
   3 C :   -0.061737
   4 C :   -0.063312
   5 N :   -0.406704
   6 C :   -0.540443
   7 H :    0.283845
   8 H :    0.274923
   9 H :    0.277069
  10 C :   -0.532759
  11 H :    0.273306
  12 H :    0.283357
  13 H :    0.278514
  14 H :    0.308060
  15 H :    0.307215
  16 C :   -1.029401
  17 H :    0.284998
  18 H :    0.258690
  19 H :    0.241621
  20 H :   -0.033484
Sum of atomic charges:    1.0000000

LOEWDIN ATOMIC CHARGES
----------------------
   0 Sc:    0.508329
   1 C :   -0.046255
   2 N :    0.011887
   3 C :   -0.076340
   4 C :   -0.076535
   5 N :    0.008352
   6 C :   -0.237920
   7 H :    0.160760
   8 H :    0.155366
   9 H :    0.152540
  10 C :   -0.236033
  11 H :    0.157207
  12 H :    0.159200
  13 H :    0.154494
  14 H :    0.170246
  15 H :    0.169721
  16 C :   -0.584616
  17 H :    0.183919
  18 H :    0.159840
  19 H :    0.164847
  20 H :   -0.059010

  Mayer bond orders larger than 0.100000
B(  0-Sc,  1-C ) :   0.6459 B(  0-Sc, 16-C ) :   1.0091 B(  0-Sc, 20-H ) :   0.9798
B(  1-C ,  2-N ) :   1.2326 B(  1-C ,  5-N ) :   1.2245 B(  2-N ,  3-C ) :   1.1703
B(  2-N , 10-C ) :   0.9063 B(  3-C ,  4-C ) :   1.6200 B(  3-C , 14-H ) :   0.8763
B(  4-C ,  5-N ) :   1.1640 B(  4-C , 15-H ) :   0.8767 B(  5-N ,  6-C ) :   0.9089
B(  6-C ,  7-H ) :   0.8993 B(  6-C ,  8-H ) :   0.8899 B(  6-C ,  9-H ) :   0.8917
B( 10-C , 11-H ) :   0.8948 B( 10-C , 12-H ) :   0.8954 B( 10-C , 13-H ) :   0.8923
B( 16-C , 17-H ) :   0.8645 B( 16-C , 18-H ) :   0.8921 B( 16-C , 19-H ) :   0.8738

Dispersion correction           -0.011039703
FINAL SINGLE POINT ENERGY     -1104.486050595423
Dispersion correction            ... done

DIPOLE MOMENT
-------------
                                X             Y             Z
Electronic contribution:      4.52493      -4.18464      -3.92660
Nuclear contribution   :     -3.33292       3.76657       4.73460
                        -----------------------------------------
Total Dipole Moment    :      1.19202      -0.41806       0.80801
                        -----------------------------------------
Magnitude (a.u.)       :      1.49952
Magnitude (Debye)      :      3.81147

Rotational constants in cm-1:     0.059264     0.029958     0.021028
Rotational constants in MHz :  1776.686090   898.115129   630.396596

                             ****ORCA TERMINATED NORMALLY****
TOTAL RUN TIME: 0 days 0 hours 1 minutes 47 seconds 505 msec
