                         Program Version 5.0.3 -  RELEASE  -
|  1> ! EnGrad PBEh-3c
|  2> %output
|  3> xyzfile=True
|  4> end
|  5> %scf
|  6> maxiter 250
|  7> end
|  8> %output
|  9> Print[P_Hirshfeld] = 1
| 10> end
| 11> % maxcore
| 12> 4000
| 13> *xyz 1 1
| 14> Sc   0.54250875  -0.43506313  -2.16695361
| 15> C    0.17836236  -0.40250483   0.19732148
| 16> N   -0.46271909  -1.32274595   0.95115800
| 17> C   -0.54044873  -0.93132817   2.25748928
| 18> C    0.06045478   0.27476566   2.33591954
| 19> N    0.48558082   0.58468659   1.07133195
| 20> C    1.21768769   1.80885703   0.74480835
| 21> H    0.82475790   2.63771617   1.33002340
| 22> H    1.09562585   2.05949815  -0.30237383
| 23> H    2.26862034   1.67907787   0.98549857
| 24> C   -0.98709215  -2.59360088   0.47785030
| 25> H   -1.00396660  -2.62560156  -0.60865077
| 26> H   -2.01049671  -2.72252849   0.82393505
| 27> H   -0.38210148  -3.41407131   0.85940127
| 28> H   -1.00712978  -1.52337332   3.01785576
| 29> H    0.23343252   0.90942056   3.18244840
| 30> C    0.18975935   1.49208967  -2.90596344
| 31> H   -0.35864938   1.44007800  -3.88422402
| 32> H    0.97977236   2.24314021  -3.11134495
| 33> H   -0.54498815   2.04612224  -2.26645967
| 34> H   -0.78005487  -1.20368847  -2.98566356
| 35> *
| 36>
| 37>                          ****END OF INPUT****

CARTESIAN COORDINATES (ANGSTROEM)
---------------------------------
  Sc     0.542509   -0.435063   -2.166954
  C      0.178362   -0.402505    0.197321
  N     -0.462719   -1.322746    0.951158
  C     -0.540449   -0.931328    2.257489
  C      0.060455    0.274766    2.335920
  N      0.485581    0.584687    1.071332
  C      1.217688    1.808857    0.744808
  H      0.824758    2.637716    1.330023
  H      1.095626    2.059498   -0.302374
  H      2.268620    1.679078    0.985499
  C     -0.987092   -2.593601    0.477850
  H     -1.003967   -2.625602   -0.608651
  H     -2.010497   -2.722528    0.823935
  H     -0.382101   -3.414071    0.859401
  H     -1.007130   -1.523373    3.017856
  H      0.233433    0.909421    3.182448
  C      0.189759    1.492090   -2.905963
  H     -0.358649    1.440078   -3.884224
  H      0.979772    2.243140   -3.111345
  H     -0.544988    2.046122   -2.266460
  H     -0.780055   -1.203688   -2.985664

 Total Charge           Charge          ....    1
 Multiplicity           Mult            ....    1
 Number of Electrons    NEL             ....   82
 Basis Dimension        Dim             ....  175

ORBITAL ENERGIES
----------------

  NO   OCC          E(Eh)            E(eV)
   0   2.0000    -162.898429     -4432.6916
   1   2.0000     -18.212726      -495.5935
   2   2.0000     -15.049676      -409.5225
   3   2.0000     -15.047433      -409.4615
   4   2.0000     -15.046805      -409.4444
   5   2.0000     -14.868643      -404.5963
   6   2.0000     -14.868519      -404.5930
   7   2.0000     -10.652886      -289.8798
   8   2.0000     -10.631341      -289.2935
   9   2.0000     -10.629997      -289.2569
  10   2.0000     -10.625359      -289.1307
  11   2.0000     -10.624532      -289.1082
  12   2.0000     -10.529274      -286.5161
  13   2.0000      -2.420149       -65.8556
  14   2.0000      -1.568720       -42.6870
  15   2.0000      -1.559528       -42.4369
  16   2.0000      -1.558837       -42.4181
  17   2.0000      -1.314281       -35.7634
  18   2.0000      -1.191001       -32.4088
  19   2.0000      -1.028249       -27.9801
  20   2.0000      -0.985656       -26.8211
  21   2.0000      -0.930680       -25.3251
  22   2.0000      -0.863746       -23.5037
  23   2.0000      -0.846746       -23.0411
  24   2.0000      -0.808932       -22.0122
  25   2.0000      -0.755334       -20.5537
  26   2.0000      -0.706674       -19.2296
  27   2.0000      -0.679442       -18.4886
  28   2.0000      -0.661129       -17.9902
  29   2.0000      -0.660793       -17.9811
  30   2.0000      -0.653820       -17.7913
  31   2.0000      -0.608872       -16.5683
  32   2.0000      -0.603149       -16.4125
  33   2.0000      -0.595280       -16.1984
  34   2.0000      -0.554775       -15.0962
  35   2.0000      -0.547068       -14.8865
  36   2.0000      -0.523568       -14.2470
  37   2.0000      -0.490759       -13.3542
  38   2.0000      -0.456692       -12.4272
  39   2.0000      -0.451006       -12.2725
  40   2.0000      -0.439843       -11.9687
  41   0.0000      -0.188881        -5.1397
  42   0.0000      -0.180798        -4.9198
  43   0.0000      -0.171173        -4.6578
  44   0.0000      -0.156426        -4.2566
  45   0.0000      -0.145254        -3.9526

MULLIKEN ATOMIC CHARGES
-----------------------
   0 Sc:    0.847923
   1 C :    0.194139
   2 N :   -0.416186
   3 C :   -0.060794
   4 C :   -0.059659
   5 N :   -0.422456
   6 C :   -0.535115
   7 H :    0.281262
   8 H :    0.276234
   9 H :    0.272708
  10 C :   -0.530807
  11 H :    0.266702
  12 H :    0.283964
  13 H :    0.274851
  14 H :    0.305570
  15 H :    0.304344
  16 C :   -1.083582
  17 H :    0.290443
  18 H :    0.262423
  19 H :    0.256467
  20 H :   -0.008433
Sum of atomic charges:    1.0000000

LOEWDIN ATOMIC CHARGES
----------------------
   0 Sc:    0.530785
   1 C :   -0.042281
   2 N :    0.002561
   3 C :   -0.079887
   4 C :   -0.077987
   5 N :   -0.000885
   6 C :   -0.237457
   7 H :    0.158907
   8 H :    0.155589
   9 H :    0.150237
  10 C :   -0.236960
  11 H :    0.153441
  12 H :    0.158800
  13 H :    0.151945
  14 H :    0.169125
  15 H :    0.168599
  16 C :   -0.594271
  17 H :    0.184227
  18 H :    0.160249
  19 H :    0.168029
  20 H :   -0.042765

  Mayer bond orders larger than 0.100000
B(  0-Sc,  1-C ) :   0.6372 B(  0-Sc, 16-C ) :   0.9834 B(  0-Sc, 20-H ) :   0.9787
B(  1-C ,  2-N ) :   1.2280 B(  1-C ,  5-N ) :   1.2294 B(  2-N ,  3-C ) :   1.1545
B(  2-N , 10-C ) :   0.9099 B(  3-C ,  4-C ) :   1.6313 B(  3-C , 14-H ) :   0.8771
B(  4-C ,  5-N ) :   1.1497 B(  4-C , 15-H ) :   0.8781 B(  5-N ,  6-C ) :   0.9046
B(  6-C ,  7-H ) :   0.9002 B(  6-C ,  8-H ) :   0.8932 B(  6-C ,  9-H ) :   0.8947
B( 10-C , 11-H ) :   0.8988 B( 10-C , 12-H ) :   0.8956 B( 10-C , 13-H ) :   0.8936
B( 16-C , 17-H ) :   0.8637 B( 16-C , 18-H ) :   0.8862 B( 16-C , 19-H ) :   0.8769

Dispersion correction           -0.010990836
FINAL SINGLE POINT ENERGY     -1104.482795984777
Dispersion correction            ... done

DIPOLE MOMENT
-------------
                                X             Y             Z
Electronic contribution:      4.80621      -4.97333      -4.61694
Nuclear contribution   :     -3.51719       4.39221       5.09339
                        -----------------------------------------
Total Dipole Moment    :      1.28903      -0.58112       0.47644
                        -----------------------------------------
Magnitude (a.u.)       :      1.49207
Magnitude (Debye)      :      3.79255

Rotational constants in cm-1:     0.058343     0.029097     0.020487
Rotational constants in MHz :  1749.091310   872.301439   614.181004

                             ****ORCA TERMINATED NORMALLY****
TOTAL RUN TIME: 0 days 0 hours 1 minutes 46 seconds 974 msec
