                         Program Version 5.0.3 -  RELEASE  -
|  1> ! EnGrad PBEh-3c
|  2> %output
|  3> xyzfile=True
|  4> end
|  5> %scf
|  6> maxiter 250
|  7> end
|  8> %output
|  9> Print[P_Hirshfeld] = 1
| 10> end
| 11> % maxcore
| 12> 4000
| 13> *xyz 1 1
| 14> Sc   0.51753222  -0.40920769  -2.18495294
| 15> C    0.18179957  -0.40423705   0.19823965
| 16> N   -0.45927483  -1.32285509   0.94475723
| 17> C   -0.54311461  -0.92816813   2.25557920
| 18> C    0.05830573   0.27633008   2.33240123
| 19> N    0.48972467   0.58331740   1.06493436
| 20> C    1.21835513   1.80195263   0.74946111
| 21> H    0.83312672   2.63377394   1.33247709
| 22> H    1.09322016   2.05923809  -0.30686774
| 23> H    2.27372496   1.67457384   0.98123759
| 24> C   -0.98659826  -2.59377706   0.48038767
| 25> H   -0.99782043  -2.62822154  -0.60985637
| 26> H   -2.01054013  -2.72106139   0.81930867
| 27> H   -0.38478808  -3.41497019   0.86459425
| 28> H   -1.01565041  -1.52223693   3.01884498
| 29> H    0.22845561   0.91585401   3.18212911
| 30> C    0.18392274   1.50434901  -2.90846083
| 31> H   -0.35364971   1.43101070  -3.86805879
| 32> H    0.97346605   2.23786237  -3.10382421
| 33> H   -0.53996384   2.03080380  -2.26482872
| 34> H   -0.76144353  -1.20296977  -2.97330748
| 35> *
| 36>
| 37>                          ****END OF INPUT****

CARTESIAN COORDINATES (ANGSTROEM)
---------------------------------
  Sc     0.517532   -0.409208   -2.184953
  C      0.181800   -0.404237    0.198240
  N     -0.459275   -1.322855    0.944757
  C     -0.543115   -0.928168    2.255579
  C      0.058306    0.276330    2.332401
  N      0.489725    0.583317    1.064934
  C      1.218355    1.801953    0.749461
  H      0.833127    2.633774    1.332477
  H      1.093220    2.059238   -0.306868
  H      2.273725    1.674574    0.981238
  C     -0.986598   -2.593777    0.480388
  H     -0.997820   -2.628222   -0.609856
  H     -2.010540   -2.721061    0.819309
  H     -0.384788   -3.414970    0.864594
  H     -1.015650   -1.522237    3.018845
  H      0.228456    0.915854    3.182129
  C      0.183923    1.504349   -2.908461
  H     -0.353650    1.431011   -3.868059
  H      0.973466    2.237862   -3.103824
  H     -0.539964    2.030804   -2.264829
  H     -0.761444   -1.202970   -2.973307

 Total Charge           Charge          ....    1
 Multiplicity           Mult            ....    1
 Number of Electrons    NEL             ....   82
 Basis Dimension        Dim             ....  175

ORBITAL ENERGIES
----------------

  NO   OCC          E(Eh)            E(eV)
   0   2.0000    -162.892331     -4432.5257
   1   2.0000     -18.207108      -495.4406
   2   2.0000     -15.044050      -409.3694
   3   2.0000     -15.041794      -409.3080
   4   2.0000     -15.041043      -409.2876
   5   2.0000     -14.867594      -404.5678
   6   2.0000     -14.867451      -404.5639
   7   2.0000     -10.652019      -289.8562
   8   2.0000     -10.631113      -289.2873
   9   2.0000     -10.629835      -289.2525
  10   2.0000     -10.625486      -289.1342
  11   2.0000     -10.623745      -289.0868
  12   2.0000     -10.525265      -286.4070
  13   2.0000      -2.416704       -65.7619
  14   2.0000      -1.565720       -42.6054
  15   2.0000      -1.556716       -42.3604
  16   2.0000      -1.555733       -42.3336
  17   2.0000      -1.314211       -35.7615
  18   2.0000      -1.191203       -32.4143
  19   2.0000      -1.027801       -27.9679
  20   2.0000      -0.986136       -26.8341
  21   2.0000      -0.928699       -25.2712
  22   2.0000      -0.871312       -23.7096
  23   2.0000      -0.846742       -23.0410
  24   2.0000      -0.807481       -21.9727
  25   2.0000      -0.754187       -20.5225
  26   2.0000      -0.706611       -19.2279
  27   2.0000      -0.678816       -18.4715
  28   2.0000      -0.660637       -17.9768
  29   2.0000      -0.660275       -17.9670
  30   2.0000      -0.654120       -17.7995
  31   2.0000      -0.606328       -16.4990
  32   2.0000      -0.602151       -16.3854
  33   2.0000      -0.594349       -16.1730
  34   2.0000      -0.563111       -15.3230
  35   2.0000      -0.556232       -15.1358
  36   2.0000      -0.520969       -14.1763
  37   2.0000      -0.489313       -13.3149
  38   2.0000      -0.460415       -12.5285
  39   2.0000      -0.450893       -12.2694
  40   2.0000      -0.440086       -11.9753
  41   0.0000      -0.187445        -5.1006
  42   0.0000      -0.179181        -4.8758
  43   0.0000      -0.168812        -4.5936
  44   0.0000      -0.154369        -4.2006
  45   0.0000      -0.141940        -3.8624

MULLIKEN ATOMIC CHARGES
-----------------------
   0 Sc:    0.842880
   1 C :    0.197024
   2 N :   -0.416183
   3 C :   -0.062275
   4 C :   -0.060721
   5 N :   -0.418869
   6 C :   -0.536252
   7 H :    0.281773
   8 H :    0.271919
   9 H :    0.272687
  10 C :   -0.530165
  11 H :    0.265284
  12 H :    0.283536
  13 H :    0.275165
  14 H :    0.305088
  15 H :    0.303932
  16 C :   -1.090553
  17 H :    0.294042
  18 H :    0.267256
  19 H :    0.260738
  20 H :   -0.006307
Sum of atomic charges:    1.0000000

LOEWDIN ATOMIC CHARGES
----------------------
   0 Sc:    0.529847
   1 C :   -0.043151
   2 N :    0.001433
   3 C :   -0.080212
   4 C :   -0.078211
   5 N :   -0.001843
   6 C :   -0.239121
   7 H :    0.158568
   8 H :    0.154793
   9 H :    0.150035
  10 C :   -0.237106
  11 H :    0.153164
  12 H :    0.158209
  13 H :    0.152004
  14 H :    0.169780
  15 H :    0.169069
  16 C :   -0.592327
  17 H :    0.185629
  18 H :    0.162471
  19 H :    0.170364
  20 H :   -0.043394

  Mayer bond orders larger than 0.100000
B(  0-Sc,  1-C ) :   0.6331 B(  0-Sc, 16-C ) :   0.9919 B(  0-Sc, 20-H ) :   0.9778
B(  1-C ,  2-N ) :   1.2324 B(  1-C ,  5-N ) :   1.2298 B(  2-N ,  3-C ) :   1.1464
B(  2-N , 10-C ) :   0.9108 B(  3-C ,  4-C ) :   1.6412 B(  3-C , 14-H ) :   0.8771
B(  4-C ,  5-N ) :   1.1423 B(  4-C , 15-H ) :   0.8781 B(  5-N ,  6-C ) :   0.9086
B(  6-C ,  7-H ) :   0.8993 B(  6-C ,  8-H ) :   0.8951 B(  6-C ,  9-H ) :   0.8941
B( 10-C , 11-H ) :   0.9001 B( 10-C , 12-H ) :   0.8954 B( 10-C , 13-H ) :   0.8935
B( 16-C , 17-H ) :   0.8596 B( 16-C , 18-H ) :   0.8857 B( 16-C , 19-H ) :   0.8734

Dispersion correction           -0.010995155
FINAL SINGLE POINT ENERGY     -1104.483591421170
Dispersion correction            ... done

DIPOLE MOMENT
-------------
                                X             Y             Z
Electronic contribution:      4.60759      -4.76247      -4.80318
Nuclear contribution   :     -3.36866       4.22534       5.22413
                        -----------------------------------------
Total Dipole Moment    :      1.23893      -0.53712       0.42095
                        -----------------------------------------
Magnitude (a.u.)       :      1.41444
Magnitude (Debye)      :      3.59522

Rotational constants in cm-1:     0.058660     0.029000     0.020441
Rotational constants in MHz :  1758.587555   869.391252   612.796206

                             ****ORCA TERMINATED NORMALLY****
TOTAL RUN TIME: 0 days 0 hours 1 minutes 44 seconds 676 msec
