                         Program Version 5.0.3 -  RELEASE  -
|  1> ! EnGrad PBEh-3c
|  2> %output
|  3> xyzfile=True
|  4> end
|  5> %scf
|  6> maxiter 250
|  7> end
|  8> %output
|  9> Print[P_Hirshfeld] = 1
| 10> end
| 11> % maxcore
| 12> 4000
| 13> *xyz 1 1
| 14> Sc   0.48176696  -0.36848228  -2.21254527
| 15> C    0.18912410  -0.40707705   0.19267466
| 16> N   -0.45596399  -1.32351802   0.94254015
| 17> C   -0.54894486  -0.92535450   2.25256616
| 18> C    0.05484535   0.28075688   2.32859534
| 19> N    0.49388102   0.57917397   1.06283031
| 20> C    1.22342130   1.79510460   0.74628896
| 21> H    0.84677423   2.62747508   1.33779922
| 22> H    1.09006331   2.05787410  -0.30803190
| 23> H    2.28104380   1.66629203   0.97419337
| 24> C   -0.98430843  -2.59438557   0.47936024
| 25> H   -0.98739034  -2.63342129  -0.60960536
| 26> H   -2.01171555  -2.71828467   0.81207873
| 27> H   -0.38927023  -3.41648460   0.87406197
| 28> H   -1.02838956  -1.51782601   3.01735958
| 29> H    0.21964423   0.92467761   3.17858894
| 30> C    0.18150457   1.51271154  -2.90583813
| 31> H   -0.35150868   1.41785703  -3.85138270
| 32> H    0.96646522   2.23589282  -3.09353627
| 33> H   -0.53875075   2.01182703  -2.25735545
| 34> H   -0.73369330  -1.20274169  -2.95516143
| 35> *
| 36>
| 37>                          ****END OF INPUT****

CARTESIAN COORDINATES (ANGSTROEM)
---------------------------------
  Sc     0.481767   -0.368482   -2.212545
  C      0.189124   -0.407077    0.192675
  N     -0.455964   -1.323518    0.942540
  C     -0.548945   -0.925354    2.252566
  C      0.054845    0.280757    2.328595
  N      0.493881    0.579174    1.062830
  C      1.223421    1.795105    0.746289
  H      0.846774    2.627475    1.337799
  H      1.090063    2.057874   -0.308032
  H      2.281044    1.666292    0.974193
  C     -0.984308   -2.594386    0.479360
  H     -0.987390   -2.633421   -0.609605
  H     -2.011716   -2.718285    0.812079
  H     -0.389270   -3.416485    0.874062
  H     -1.028390   -1.517826    3.017360
  H      0.219644    0.924678    3.178589
  C      0.181505    1.512712   -2.905838
  H     -0.351509    1.417857   -3.851383
  H      0.966465    2.235893   -3.093536
  H     -0.538751    2.011827   -2.257355
  H     -0.733693   -1.202742   -2.955161

 Total Charge           Charge          ....    1
 Multiplicity           Mult            ....    1
 Number of Electrons    NEL             ....   82
 Basis Dimension        Dim             ....  175

ORBITAL ENERGIES
----------------

  NO   OCC          E(Eh)            E(eV)
   0   2.0000    -162.881154     -4432.2215
   1   2.0000     -18.196772      -495.1593
   2   2.0000     -15.033697      -409.0877
   3   2.0000     -15.031435      -409.0261
   4   2.0000     -15.030443      -408.9991
   5   2.0000     -14.866083      -404.5267
   6   2.0000     -14.865947      -404.5230
   7   2.0000     -10.650698      -289.8202
   8   2.0000     -10.630321      -289.2657
   9   2.0000     -10.629156      -289.2341
  10   2.0000     -10.625239      -289.1274
  11   2.0000     -10.621841      -289.0350
  12   2.0000     -10.523544      -286.3602
  13   2.0000      -2.410400       -65.5903
  14   2.0000      -1.560153       -42.4539
  15   2.0000      -1.551438       -42.2168
  16   2.0000      -1.550448       -42.1898
  17   2.0000      -1.312342       -35.7106
  18   2.0000      -1.189606       -32.3708
  19   2.0000      -1.026163       -27.9233
  20   2.0000      -0.984599       -26.7923
  21   2.0000      -0.927020       -25.2255
  22   2.0000      -0.880240       -23.9526
  23   2.0000      -0.844859       -22.9898
  24   2.0000      -0.805919       -21.9302
  25   2.0000      -0.752455       -20.4753
  26   2.0000      -0.705005       -19.1842
  27   2.0000      -0.677276       -18.4296
  28   2.0000      -0.659029       -17.9331
  29   2.0000      -0.658643       -17.9226
  30   2.0000      -0.652611       -17.7585
  31   2.0000      -0.605514       -16.4769
  32   2.0000      -0.600839       -16.3497
  33   2.0000      -0.592317       -16.1178
  34   2.0000      -0.573849       -15.6152
  35   2.0000      -0.566894       -15.4260
  36   2.0000      -0.518960       -14.1216
  37   2.0000      -0.487656       -13.2698
  38   2.0000      -0.464967       -12.6524
  39   2.0000      -0.452861       -12.3230
  40   2.0000      -0.438319       -11.9273
  41   0.0000      -0.184935        -5.0323
  42   0.0000      -0.176461        -4.8017
  43   0.0000      -0.164785        -4.4840
  44   0.0000      -0.150822        -4.1041
  45   0.0000      -0.137208        -3.7336

MULLIKEN ATOMIC CHARGES
-----------------------
   0 Sc:    0.843802
   1 C :    0.195048
   2 N :   -0.416907
   3 C :   -0.062492
   4 C :   -0.061572
   5 N :   -0.416536
   6 C :   -0.534995
   7 H :    0.280537
   8 H :    0.268817
   9 H :    0.273063
  10 C :   -0.529220
  11 H :    0.265331
  12 H :    0.281374
  13 H :    0.275016
  14 H :    0.304665
  15 H :    0.303593
  16 C :   -1.102011
  17 H :    0.297462
  18 H :    0.275014
  19 H :    0.266305
  20 H :   -0.006292
Sum of atomic charges:    1.0000000

LOEWDIN ATOMIC CHARGES
----------------------
   0 Sc:    0.520777
   1 C :   -0.045023
   2 N :    0.000330
   3 C :   -0.080728
   4 C :   -0.079723
   5 N :   -0.002607
   6 C :   -0.239136
   7 H :    0.158002
   8 H :    0.153208
   9 H :    0.150219
  10 C :   -0.237474
  11 H :    0.152925
  12 H :    0.157145
  13 H :    0.151992
  14 H :    0.169975
  15 H :    0.169064
  16 C :   -0.586134
  17 H :    0.189810
  18 H :    0.166705
  19 H :    0.175535
  20 H :   -0.044863

  Mayer bond orders larger than 0.100000
B(  0-Sc,  1-C ) :   0.6251 B(  0-Sc, 16-C ) :   1.0015 B(  0-Sc, 20-H ) :   0.9756
B(  1-C ,  2-N ) :   1.2308 B(  1-C ,  5-N ) :   1.2276 B(  2-N ,  3-C ) :   1.1466
B(  2-N , 10-C ) :   0.9113 B(  3-C ,  4-C ) :   1.6393 B(  3-C , 14-H ) :   0.8773
B(  4-C ,  5-N ) :   1.1423 B(  4-C , 15-H ) :   0.8781 B(  5-N ,  6-C ) :   0.9103
B(  6-C ,  7-H ) :   0.8997 B(  6-C ,  8-H ) :   0.8963 B(  6-C ,  9-H ) :   0.8939
B( 10-C , 11-H ) :   0.9010 B( 10-C , 12-H ) :   0.8961 B( 10-C , 13-H ) :   0.8939
B( 16-C , 17-H ) :   0.8525 B( 16-C , 18-H ) :   0.8835 B( 16-C , 19-H ) :   0.8666

Dispersion correction           -0.011008762
FINAL SINGLE POINT ENERGY     -1104.480568398806
Dispersion correction            ... done

DIPOLE MOMENT
-------------
                                X             Y             Z
Electronic contribution:      4.33091      -4.41193      -5.09926
Nuclear contribution   :     -3.16827       3.97822       5.42142
                        -----------------------------------------
Total Dipole Moment    :      1.16264      -0.43371       0.32216
                        -----------------------------------------
Magnitude (a.u.)       :      1.28204
Magnitude (Debye)      :      3.25868

Rotational constants in cm-1:     0.059139     0.028851     0.020369
Rotational constants in MHz :  1772.951421   864.935424   610.639099

                             ****ORCA TERMINATED NORMALLY****
TOTAL RUN TIME: 0 days 0 hours 1 minutes 50 seconds 286 msec
