                         Program Version 5.0.3 -  RELEASE  -
|  1> ! EnGrad PBEh-3c
|  2> %output
|  3> xyzfile=True
|  4> end
|  5> %scf
|  6> maxiter 250
|  7> end
|  8> %output
|  9> Print[P_Hirshfeld] = 1
| 10> end
| 11> % maxcore
| 12> 4000
| 13> *xyz 1 1
| 14> Sc   0.48534738  -0.33720607  -2.17882525
| 15> C    0.19331565  -0.40761362   0.18294542
| 16> N   -0.45220939  -1.32321592   0.93624983
| 17> C   -0.55321145  -0.92241867   2.24557189
| 18> C    0.05504780   0.28437325   2.32167938
| 19> N    0.49559825   0.57606518   1.05665926
| 20> C    1.22916209   1.78628176   0.74345818
| 21> H    0.86016356   2.61685421   1.34246793
| 22> H    1.08956736   2.05330529  -0.30367925
| 23> H    2.28903795   1.65904358   0.96158410
| 24> C   -0.98221753  -2.59575889   0.47765232
| 25> H   -0.97390733  -2.63828038  -0.60792144
| 26> H   -2.01316652  -2.71360532   0.80424558
| 27> H   -0.39392797  -3.41758099   0.88149754
| 28> H   -1.04099471  -1.51132296   3.01251182
| 29> H    0.20808885   0.93441679   3.17145131
| 30> C    0.17063519   1.56076573  -2.91593187
| 31> H   -0.35448395   1.39839771  -3.84530982
| 32> H    0.97245712   2.23995015  -3.08177829
| 33> H   -0.54405598   1.99547963  -2.23920251
| 34> H   -0.74167771  -1.23410010  -2.95797868
| 35> *
| 36>
| 37>                          ****END OF INPUT****

CARTESIAN COORDINATES (ANGSTROEM)
---------------------------------
  Sc     0.485347   -0.337206   -2.178825
  C      0.193316   -0.407614    0.182945
  N     -0.452209   -1.323216    0.936250
  C     -0.553211   -0.922419    2.245572
  C      0.055048    0.284373    2.321679
  N      0.495598    0.576065    1.056659
  C      1.229162    1.786282    0.743458
  H      0.860164    2.616854    1.342468
  H      1.089567    2.053305   -0.303679
  H      2.289038    1.659044    0.961584
  C     -0.982218   -2.595759    0.477652
  H     -0.973907   -2.638280   -0.607921
  H     -2.013167   -2.713605    0.804246
  H     -0.393928   -3.417581    0.881498
  H     -1.040995   -1.511323    3.012512
  H      0.208089    0.934417    3.171451
  C      0.170635    1.560766   -2.915932
  H     -0.354484    1.398398   -3.845310
  H      0.972457    2.239950   -3.081778
  H     -0.544056    1.995480   -2.239203
  H     -0.741678   -1.234100   -2.957979

 Total Charge           Charge          ....    1
 Multiplicity           Mult            ....    1
 Number of Electrons    NEL             ....   82
 Basis Dimension        Dim             ....  175

ORBITAL ENERGIES
----------------

  NO   OCC          E(Eh)            E(eV)
   0   2.0000    -162.887520     -4432.3948
   1   2.0000     -18.202705      -495.3208
   2   2.0000     -15.039767      -409.2529
   3   2.0000     -15.037476      -409.1905
   4   2.0000     -15.036368      -409.1604
   5   2.0000     -14.869553      -404.6211
   6   2.0000     -14.869114      -404.6092
   7   2.0000     -10.653058      -289.8844
   8   2.0000     -10.633710      -289.3579
   9   2.0000     -10.632663      -289.3295
  10   2.0000     -10.627469      -289.1881
  11   2.0000     -10.622270      -289.0467
  12   2.0000     -10.521611      -286.3076
  13   2.0000      -2.413592       -65.6772
  14   2.0000      -1.563549       -42.5463
  15   2.0000      -1.554030       -42.2873
  16   2.0000      -1.552223       -42.2381
  17   2.0000      -1.315561       -35.7982
  18   2.0000      -1.192779       -32.4572
  19   2.0000      -1.028914       -27.9982
  20   2.0000      -0.987868       -26.8812
  21   2.0000      -0.929281       -25.2870
  22   2.0000      -0.881698       -23.9922
  23   2.0000      -0.847735       -23.0680
  24   2.0000      -0.808871       -22.0105
  25   2.0000      -0.755067       -20.5464
  26   2.0000      -0.707908       -19.2631
  27   2.0000      -0.679946       -18.5023
  28   2.0000      -0.661251       -17.9936
  29   2.0000      -0.660934       -17.9849
  30   2.0000      -0.655048       -17.8248
  31   2.0000      -0.608327       -16.5534
  32   2.0000      -0.602833       -16.4039
  33   2.0000      -0.594259       -16.1706
  34   2.0000      -0.584053       -15.8929
  35   2.0000      -0.573438       -15.6041
  36   2.0000      -0.525365       -14.2959
  37   2.0000      -0.490158       -13.3379
  38   2.0000      -0.459141       -12.4939
  39   2.0000      -0.443434       -12.0664
  40   2.0000      -0.440369       -11.9830
  41   0.0000      -0.187579        -5.1043
  42   0.0000      -0.179499        -4.8844
  43   0.0000      -0.166427        -4.5287
  44   0.0000      -0.153819        -4.1856
  45   0.0000      -0.136959        -3.7268

MULLIKEN ATOMIC CHARGES
-----------------------
   0 Sc:    0.821497
   1 C :    0.188595
   2 N :   -0.418132
   3 C :   -0.061513
   4 C :   -0.061162
   5 N :   -0.413112
   6 C :   -0.537121
   7 H :    0.282150
   8 H :    0.268152
   9 H :    0.274570
  10 C :   -0.529986
  11 H :    0.268165
  12 H :    0.281172
  13 H :    0.275913
  14 H :    0.306469
  15 H :    0.305618
  16 C :   -1.063931
  17 H :    0.294451
  18 H :    0.272410
  19 H :    0.259733
  20 H :   -0.013936
Sum of atomic charges:    1.0000000

LOEWDIN ATOMIC CHARGES
----------------------
   0 Sc:    0.516922
   1 C :   -0.044209
   2 N :    0.002746
   3 C :   -0.078487
   4 C :   -0.078830
   5 N :    0.000104
   6 C :   -0.239522
   7 H :    0.158967
   8 H :    0.152401
   9 H :    0.150886
  10 C :   -0.237680
  11 H :    0.154158
  12 H :    0.157377
  13 H :    0.152574
  14 H :    0.171306
  15 H :    0.170227
  16 C :   -0.582590
  17 H :    0.187628
  18 H :    0.163771
  19 H :    0.172372
  20 H :   -0.050121

  Mayer bond orders larger than 0.100000
B(  0-Sc,  1-C ) :   0.6310 B(  0-Sc, 16-C ) :   1.0245 B(  0-Sc, 20-H ) :   0.9786
B(  1-C ,  2-N ) :   1.2312 B(  1-C ,  5-N ) :   1.2247 B(  2-N ,  3-C ) :   1.1515
B(  2-N , 10-C ) :   0.9100 B(  3-C ,  4-C ) :   1.6323 B(  3-C , 14-H ) :   0.8764
B(  4-C ,  5-N ) :   1.1465 B(  4-C , 15-H ) :   0.8769 B(  5-N ,  6-C ) :   0.9121
B(  6-C ,  7-H ) :   0.8993 B(  6-C ,  8-H ) :   0.8953 B(  6-C ,  9-H ) :   0.8929
B( 10-C , 11-H ) :   0.8996 B( 10-C , 12-H ) :   0.8962 B( 10-C , 13-H ) :   0.8936
B( 16-C , 17-H ) :   0.8555 B( 16-C , 18-H ) :   0.8857 B( 16-C , 19-H ) :   0.8667

Dispersion correction           -0.011030576
FINAL SINGLE POINT ENERGY     -1104.483656085243
Dispersion correction            ... done

DIPOLE MOMENT
-------------
                                X             Y             Z
Electronic contribution:      4.36937      -4.14001      -4.80380
Nuclear contribution   :     -3.19455       3.72700       5.29728
                        -----------------------------------------
Total Dipole Moment    :      1.17482      -0.41301       0.49348
                        -----------------------------------------
Magnitude (a.u.)       :      1.33952
Magnitude (Debye)      :      3.40479

Rotational constants in cm-1:     0.059405     0.029052     0.020523
Rotational constants in MHz :  1780.924958   870.970580   615.274591

                             ****ORCA TERMINATED NORMALLY****
TOTAL RUN TIME: 0 days 0 hours 1 minutes 47 seconds 368 msec
