                         Program Version 5.0.3 -  RELEASE  -
|  1> ! EnGrad PBEh-3c
|  2> %output
|  3> xyzfile=True
|  4> end
|  5> %scf
|  6> maxiter 250
|  7> end
|  8> %output
|  9> Print[P_Hirshfeld] = 1
| 10> end
| 11> % maxcore
| 12> 4000
| 13> *xyz 1 1
| 14> Sc   0.49222824  -0.31014415  -2.13638237
| 15> C    0.19507370  -0.40862477   0.18078557
| 16> N   -0.45034014  -1.32370844   0.93025652
| 17> C   -0.55574794  -0.91753145   2.23652753
| 18> C    0.05254715   0.28389790   2.31385203
| 19> N    0.49811065   0.57504775   1.05105570
| 20> C    1.23812826   1.77966036   0.74235867
| 21> H    0.87521211   2.60359088   1.34686391
| 22> H    1.08970061   2.04939085  -0.30072882
| 23> H    2.29770358   1.64970469   0.94564126
| 24> C   -0.98072260  -2.59709412   0.47693578
| 25> H   -0.95812746  -2.64472251  -0.60849101
| 26> H   -2.01415964  -2.70743810   0.79468659
| 27> H   -0.39879582  -3.41863566   0.88956642
| 28> H   -1.05294973  -1.50123904   3.00212362
| 29> H    0.19476919   0.94412340   3.15968893
| 30> C    0.16158334   1.58058993  -2.91617026
| 31> H   -0.36557884   1.38090589  -3.85348470
| 32> H    0.99403058   2.26661793  -3.07446798
| 33> H   -0.56368269   1.99276883  -2.20944450
| 34> H   -0.75026129  -1.27118516  -2.96165890
| 35> *
| 36>
| 37>                          ****END OF INPUT****

CARTESIAN COORDINATES (ANGSTROEM)
---------------------------------
  Sc     0.492228   -0.310144   -2.136382
  C      0.195074   -0.408625    0.180786
  N     -0.450340   -1.323708    0.930257
  C     -0.555748   -0.917531    2.236528
  C      0.052547    0.283898    2.313852
  N      0.498111    0.575048    1.051056
  C      1.238128    1.779660    0.742359
  H      0.875212    2.603591    1.346864
  H      1.089701    2.049391   -0.300729
  H      2.297704    1.649705    0.945641
  C     -0.980723   -2.597094    0.476936
  H     -0.958127   -2.644723   -0.608491
  H     -2.014160   -2.707438    0.794687
  H     -0.398796   -3.418636    0.889566
  H     -1.052950   -1.501239    3.002124
  H      0.194769    0.944123    3.159689
  C      0.161583    1.580590   -2.916170
  H     -0.365579    1.380906   -3.853485
  H      0.994031    2.266618   -3.074468
  H     -0.563683    1.992769   -2.209445
  H     -0.750261   -1.271185   -2.961659

 Total Charge           Charge          ....    1
 Multiplicity           Mult            ....    1
 Number of Electrons    NEL             ....   82
 Basis Dimension        Dim             ....  175

ORBITAL ENERGIES
----------------

  NO   OCC          E(Eh)            E(eV)
   0   2.0000    -162.891309     -4432.4979
   1   2.0000     -18.206265      -495.4176
   2   2.0000     -15.043399      -409.3517
   3   2.0000     -15.041154      -409.2906
   4   2.0000     -15.039879      -409.2559
   5   2.0000     -14.872324      -404.6965
   6   2.0000     -14.871739      -404.6806
   7   2.0000     -10.654266      -289.9173
   8   2.0000     -10.635774      -289.4141
   9   2.0000     -10.634570      -289.3813
  10   2.0000     -10.629755      -289.2503
  11   2.0000     -10.622933      -289.0647
  12   2.0000     -10.529131      -286.5122
  13   2.0000      -2.415306       -65.7238
  14   2.0000      -1.565442       -42.5978
  15   2.0000      -1.555216       -42.3196
  16   2.0000      -1.553179       -42.2641
  17   2.0000      -1.319771       -35.9128
  18   2.0000      -1.196477       -32.5578
  19   2.0000      -1.032598       -28.0984
  20   2.0000      -0.991356       -26.9762
  21   2.0000      -0.932020       -25.3615
  22   2.0000      -0.875307       -23.8183
  23   2.0000      -0.851147       -23.1609
  24   2.0000      -0.811960       -22.0946
  25   2.0000      -0.757919       -20.6240
  26   2.0000      -0.711522       -19.3615
  27   2.0000      -0.682345       -18.5675
  28   2.0000      -0.664489       -18.0817
  29   2.0000      -0.663179       -18.0460
  30   2.0000      -0.658288       -17.9129
  31   2.0000      -0.611586       -16.6421
  32   2.0000      -0.604350       -16.4452
  33   2.0000      -0.597373       -16.2553
  34   2.0000      -0.582198       -15.8424
  35   2.0000      -0.573412       -15.6033
  36   2.0000      -0.529658       -14.4127
  37   2.0000      -0.492893       -13.4123
  38   2.0000      -0.451159       -12.2767
  39   2.0000      -0.445436       -12.1209
  40   2.0000      -0.437356       -11.9011
  41   0.0000      -0.189392        -5.1536
  42   0.0000      -0.181556        -4.9404
  43   0.0000      -0.167158        -4.5486
  44   0.0000      -0.155576        -4.2334
  45   0.0000      -0.137097        -3.7306

MULLIKEN ATOMIC CHARGES
-----------------------
   0 Sc:    0.823078
   1 C :    0.182311
   2 N :   -0.417756
   3 C :   -0.060396
   4 C :   -0.061701
   5 N :   -0.410768
   6 C :   -0.537784
   7 H :    0.284232
   8 H :    0.266695
   9 H :    0.276565
  10 C :   -0.531218
  11 H :    0.270838
  12 H :    0.281508
  13 H :    0.276790
  14 H :    0.307460
  15 H :    0.306314
  16 C :   -1.037249
  17 H :    0.292482
  18 H :    0.264548
  19 H :    0.251231
  20 H :   -0.027179
Sum of atomic charges:    1.0000000

LOEWDIN ATOMIC CHARGES
----------------------
   0 Sc:    0.503086
   1 C :   -0.043441
   2 N :    0.005968
   3 C :   -0.076826
   4 C :   -0.077814
   5 N :    0.002045
   6 C :   -0.238829
   7 H :    0.159863
   8 H :    0.152056
   9 H :    0.151592
  10 C :   -0.237659
  11 H :    0.155873
  12 H :    0.157655
  13 H :    0.153197
  14 H :    0.171973
  15 H :    0.170793
  16 C :   -0.576859
  17 H :    0.188395
  18 H :    0.164164
  19 H :    0.171483
  20 H :   -0.056719

  Mayer bond orders larger than 0.100000
B(  0-Sc,  1-C ) :   0.6360 B(  0-Sc, 16-C ) :   1.0291 B(  0-Sc, 20-H ) :   0.9786
B(  1-C ,  2-N ) :   1.2355 B(  1-C ,  5-N ) :   1.2232 B(  2-N ,  3-C ) :   1.1538
B(  2-N , 10-C ) :   0.9088 B(  3-C ,  4-C ) :   1.6324 B(  3-C , 14-H ) :   0.8760
B(  4-C ,  5-N ) :   1.1476 B(  4-C , 15-H ) :   0.8766 B(  5-N ,  6-C ) :   0.9131
B(  6-C ,  7-H ) :   0.8987 B(  6-C ,  8-H ) :   0.8946 B(  6-C ,  9-H ) :   0.8918
B( 10-C , 11-H ) :   0.8979 B( 10-C , 12-H ) :   0.8960 B( 10-C , 13-H ) :   0.8932
B( 16-C , 17-H ) :   0.8569 B( 16-C , 18-H ) :   0.8879 B( 16-C , 19-H ) :   0.8659

Dispersion correction           -0.011047091
FINAL SINGLE POINT ENERGY     -1104.485623089499
Dispersion correction            ... done

DIPOLE MOMENT
-------------
                                X             Y             Z
Electronic contribution:      4.42851      -3.89348      -4.44513
Nuclear contribution   :     -3.24053       3.54350       5.09261
                        -----------------------------------------
Total Dipole Moment    :      1.18798      -0.34998       0.64748
                        -----------------------------------------
Magnitude (a.u.)       :      1.39750
Magnitude (Debye)      :      3.55216

Rotational constants in cm-1:     0.059718     0.029376     0.020745
Rotational constants in MHz :  1790.301567   880.677901   621.920286

                             ****ORCA TERMINATED NORMALLY****
TOTAL RUN TIME: 0 days 0 hours 1 minutes 52 seconds 403 msec
