                         Program Version 5.0.3 -  RELEASE  -
|  1> ! EnGrad PBEh-3c
|  2> %output
|  3> xyzfile=True
|  4> end
|  5> %scf
|  6> maxiter 250
|  7> end
|  8> %output
|  9> Print[P_Hirshfeld] = 1
| 10> end
| 11> % maxcore
| 12> 4000
| 13> *xyz 1 1
| 14> Sc   0.50357865  -0.32269797  -2.10511686
| 15> C    0.19311442  -0.40693900   0.18491014
| 16> N   -0.45353759  -1.32434059   0.93179298
| 17> C   -0.55716992  -0.92175373   2.23192429
| 18> C    0.05468009   0.28836517   2.31111419
| 19> N    0.49681915   0.57573105   1.05455877
| 20> C    1.24193660   1.77817851   0.73908581
| 21> H    0.87815757   2.60015280   1.34906505
| 22> H    1.09207921   2.04968383  -0.29951476
| 23> H    2.30281070   1.64562759   0.93782085
| 24> C   -0.97999335  -2.59752100   0.47331211
| 25> H   -0.95226694  -2.64778510  -0.60933838
| 26> H   -2.01531995  -2.70403825   0.79122014
| 27> H   -0.39952921  -3.41856756   0.89093660
| 28> H   -1.05342913  -1.49471098   2.99230548
| 29> H    0.18930424   0.94430626   3.14999468
| 30> C    0.16332997   1.58366968  -2.91165257
| 31> H   -0.37146413   1.38217948  -3.86269436
| 32> H    0.99803413   2.28313939  -3.07427505
| 33> H   -0.57505478   2.00519412  -2.19975421
| 34> H   -0.75698959  -1.29075986  -2.96530865
| 35> *
| 36>
| 37>                          ****END OF INPUT****

CARTESIAN COORDINATES (ANGSTROEM)
---------------------------------
  Sc     0.503579   -0.322698   -2.105117
  C      0.193114   -0.406939    0.184910
  N     -0.453538   -1.324341    0.931793
  C     -0.557170   -0.921754    2.231924
  C      0.054680    0.288365    2.311114
  N      0.496819    0.575731    1.054559
  C      1.241937    1.778179    0.739086
  H      0.878158    2.600153    1.349065
  H      1.092079    2.049684   -0.299515
  H      2.302811    1.645628    0.937821
  C     -0.979993   -2.597521    0.473312
  H     -0.952267   -2.647785   -0.609338
  H     -2.015320   -2.704038    0.791220
  H     -0.399529   -3.418568    0.890937
  H     -1.053429   -1.494711    2.992305
  H      0.189304    0.944306    3.149995
  C      0.163330    1.583670   -2.911653
  H     -0.371464    1.382179   -3.862694
  H      0.998034    2.283139   -3.074275
  H     -0.575055    2.005194   -2.199754
  H     -0.756990   -1.290760   -2.965309

 Total Charge           Charge          ....    1
 Multiplicity           Mult            ....    1
 Number of Electrons    NEL             ....   82
 Basis Dimension        Dim             ....  175

ORBITAL ENERGIES
----------------

  NO   OCC          E(Eh)            E(eV)
   0   2.0000    -162.895710     -4432.6176
   1   2.0000     -18.210402      -495.5302
   2   2.0000     -15.047554      -409.4647
   3   2.0000     -15.045306      -409.4036
   4   2.0000     -15.044100      -409.3708
   5   2.0000     -14.874916      -404.7671
   6   2.0000     -14.874288      -404.7500
   7   2.0000     -10.654422      -289.9216
   8   2.0000     -10.637143      -289.4514
   9   2.0000     -10.635915      -289.4180
  10   2.0000     -10.631258      -289.2912
  11   2.0000     -10.624612      -289.1104
  12   2.0000     -10.532396      -286.6011
  13   2.0000      -2.417712       -65.7893
  14   2.0000      -1.567659       -42.6582
  15   2.0000      -1.557145       -42.3721
  16   2.0000      -1.555066       -42.3155
  17   2.0000      -1.323248       -36.0074
  18   2.0000      -1.200254       -32.6606
  19   2.0000      -1.033754       -28.1299
  20   2.0000      -0.993119       -27.0241
  21   2.0000      -0.935440       -25.4546
  22   2.0000      -0.868185       -23.6245
  23   2.0000      -0.854566       -23.2539
  24   2.0000      -0.814038       -22.1511
  25   2.0000      -0.760826       -20.7031
  26   2.0000      -0.713971       -19.4281
  27   2.0000      -0.685620       -18.6567
  28   2.0000      -0.667891       -18.1742
  29   2.0000      -0.665582       -18.1114
  30   2.0000      -0.658992       -17.9321
  31   2.0000      -0.613259       -16.6876
  32   2.0000      -0.606759       -16.5108
  33   2.0000      -0.599258       -16.3066
  34   2.0000      -0.575856       -15.6698
  35   2.0000      -0.566588       -15.4176
  36   2.0000      -0.532379       -14.4868
  37   2.0000      -0.496338       -13.5060
  38   2.0000      -0.447771       -12.1845
  39   2.0000      -0.445155       -12.1133
  40   2.0000      -0.435153       -11.8411
  41   0.0000      -0.190869        -5.1938
  42   0.0000      -0.182955        -4.9785
  43   0.0000      -0.168608        -4.5881
  44   0.0000      -0.157276        -4.2797
  45   0.0000      -0.139575        -3.7980

MULLIKEN ATOMIC CHARGES
-----------------------
   0 Sc:    0.829169
   1 C :    0.175380
   2 N :   -0.414574
   3 C :   -0.061730
   4 C :   -0.063602
   5 N :   -0.407268
   6 C :   -0.539587
   7 H :    0.284381
   8 H :    0.270585
   9 H :    0.277282
  10 C :   -0.532432
  11 H :    0.272745
  12 H :    0.282221
  13 H :    0.277545
  14 H :    0.308759
  15 H :    0.307848
  16 C :   -1.027495
  17 H :    0.288539
  18 H :    0.260361
  19 H :    0.244811
  20 H :   -0.032937
Sum of atomic charges:    1.0000000

LOEWDIN ATOMIC CHARGES
----------------------
   0 Sc:    0.503063
   1 C :   -0.046110
   2 N :    0.009921
   3 C :   -0.075911
   4 C :   -0.077302
   5 N :    0.006630
   6 C :   -0.238289
   7 H :    0.160538
   8 H :    0.153394
   9 H :    0.152280
  10 C :   -0.237146
  11 H :    0.156597
  12 H :    0.158478
  13 H :    0.153880
  14 H :    0.170895
  15 H :    0.170068
  16 C :   -0.578976
  17 H :    0.186629
  18 H :    0.162002
  19 H :    0.168277
  20 H :   -0.058918

  Mayer bond orders larger than 0.100000
B(  0-Sc,  1-C ) :   0.6413 B(  0-Sc, 16-C ) :   1.0208 B(  0-Sc, 20-H ) :   0.9791
B(  1-C ,  2-N ) :   1.2315 B(  1-C ,  5-N ) :   1.2219 B(  2-N ,  3-C ) :   1.1676
B(  2-N , 10-C ) :   0.9076 B(  3-C ,  4-C ) :   1.6188 B(  3-C , 14-H ) :   0.8756
B(  4-C ,  5-N ) :   1.1612 B(  4-C , 15-H ) :   0.8760 B(  5-N ,  6-C ) :   0.9110
B(  6-C ,  7-H ) :   0.8989 B(  6-C ,  8-H ) :   0.8922 B(  6-C ,  9-H ) :   0.8916
B( 10-C , 11-H ) :   0.8961 B( 10-C , 12-H ) :   0.8958 B( 10-C , 13-H ) :   0.8928
B( 16-C , 17-H ) :   0.8610 B( 16-C , 18-H ) :   0.8901 B( 16-C , 19-H ) :   0.8696

Dispersion correction           -0.011049982
FINAL SINGLE POINT ENERGY     -1104.485958899408
Dispersion correction            ... done

DIPOLE MOMENT
-------------
                                X             Y             Z
Electronic contribution:      4.51068      -3.99083      -4.15368
Nuclear contribution   :     -3.30956       3.61595       4.90372
                        -----------------------------------------
Total Dipole Moment    :      1.20112      -0.37488       0.75005
                        -----------------------------------------
Magnitude (a.u.)       :      1.46485
Magnitude (Debye)      :      3.72336

Rotational constants in cm-1:     0.059552     0.029649     0.020887
Rotational constants in MHz :  1785.319634   888.840613   626.188131

                             ****ORCA TERMINATED NORMALLY****
TOTAL RUN TIME: 0 days 0 hours 1 minutes 54 seconds 684 msec
