                         Program Version 5.0.3 -  RELEASE  -
|  1> ! EnGrad PBEh-3c
|  2> %output
|  3> xyzfile=True
|  4> end
|  5> %scf
|  6> maxiter 250
|  7> end
|  8> %output
|  9> Print[P_Hirshfeld] = 1
| 10> end
| 11> % maxcore
| 12> 4000
| 13> *xyz 1 1
| 14> Sc   0.50753442  -0.33715007  -2.08928613
| 15> C    0.19137641  -0.40643048   0.18971602
| 16> N   -0.45644192  -1.32478356   0.93317706
| 17> C   -0.55483068  -0.91845589   2.22864859
| 18> C    0.05220569   0.28493037   2.30855736
| 19> N    0.49706224   0.57757508   1.05721785
| 20> C    1.24495692   1.77796198   0.73743891
| 21> H    0.88084019   2.59815077   1.35057390
| 22> H    1.09384426   2.05125302  -0.30042722
| 23> H    2.30703519   1.64161047   0.93171236
| 24> C   -0.98000285  -2.59825388   0.47121524
| 25> H   -0.94786586  -2.65057074  -0.61145077
| 26> H   -2.01597279  -2.70147775   0.78779102
| 27> H   -0.40010990  -3.41813376   0.89188273
| 28> H   -1.05493287  -1.49147192   2.98616184
| 29> H    0.18566724   0.94591973   3.14432898
| 30> C    0.16504669   1.58107773  -2.90489492
| 31> H   -0.37285881   1.38789507  -3.86458625
| 32> H    0.99323554   2.29420272  -3.07419830
| 33> H   -0.58033258   2.01671658  -2.19833221
| 34> H   -0.75600516  -1.30263438  -2.96416343
| 35> *
| 36>
| 37>                          ****END OF INPUT****

CARTESIAN COORDINATES (ANGSTROEM)
---------------------------------
  Sc     0.507534   -0.337150   -2.089286
  C      0.191376   -0.406430    0.189716
  N     -0.456442   -1.324784    0.933177
  C     -0.554831   -0.918456    2.228649
  C      0.052206    0.284930    2.308557
  N      0.497062    0.577575    1.057218
  C      1.244957    1.777962    0.737439
  H      0.880840    2.598151    1.350574
  H      1.093844    2.051253   -0.300427
  H      2.307035    1.641610    0.931712
  C     -0.980003   -2.598254    0.471215
  H     -0.947866   -2.650571   -0.611451
  H     -2.015973   -2.701478    0.787791
  H     -0.400110   -3.418134    0.891883
  H     -1.054933   -1.491472    2.986162
  H      0.185667    0.945920    3.144329
  C      0.165047    1.581078   -2.904895
  H     -0.372859    1.387895   -3.864586
  H      0.993236    2.294203   -3.074198
  H     -0.580333    2.016717   -2.198332
  H     -0.756005   -1.302634   -2.964163

 Total Charge           Charge          ....    1
 Multiplicity           Mult            ....    1
 Number of Electrons    NEL             ....   82
 Basis Dimension        Dim             ....  175

ORBITAL ENERGIES
----------------

  NO   OCC          E(Eh)            E(eV)
   0   2.0000    -162.897935     -4432.6782
   1   2.0000     -18.212542      -495.5885
   2   2.0000     -15.049695      -409.5230
   3   2.0000     -15.047422      -409.4612
   4   2.0000     -15.046306      -409.4308
   5   2.0000     -14.875424      -404.7809
   6   2.0000     -14.875005      -404.7695
   7   2.0000     -10.654481      -289.9232
   8   2.0000     -10.636705      -289.4395
   9   2.0000     -10.635319      -289.4017
  10   2.0000     -10.631821      -289.3065
  11   2.0000     -10.625909      -289.1457
  12   2.0000     -10.533219      -286.6235
  13   2.0000      -2.419068       -65.8262
  14   2.0000      -1.568889       -42.6916
  15   2.0000      -1.558277       -42.4029
  16   2.0000      -1.556216       -42.3468
  17   2.0000      -1.325374       -36.0653
  18   2.0000      -1.201768       -32.7018
  19   2.0000      -1.035800       -28.1856
  20   2.0000      -0.993534       -27.0354
  21   2.0000      -0.937054       -25.4985
  22   2.0000      -0.864571       -23.5262
  23   2.0000      -0.855317       -23.2744
  24   2.0000      -0.815662       -22.1953
  25   2.0000      -0.761823       -20.7303
  26   2.0000      -0.715320       -19.4649
  27   2.0000      -0.685700       -18.6589
  28   2.0000      -0.668954       -18.2032
  29   2.0000      -0.666350       -18.1323
  30   2.0000      -0.660009       -17.9597
  31   2.0000      -0.614378       -16.7181
  32   2.0000      -0.607934       -16.5427
  33   2.0000      -0.600682       -16.3454
  34   2.0000      -0.571081       -15.5399
  35   2.0000      -0.561972       -15.2920
  36   2.0000      -0.532867       -14.5000
  37   2.0000      -0.497617       -13.5409
  38   2.0000      -0.447614       -12.1802
  39   2.0000      -0.446019       -12.1368
  40   2.0000      -0.435091       -11.8394
  41   0.0000      -0.191652        -5.2151
  42   0.0000      -0.183700        -4.9987
  43   0.0000      -0.169437        -4.6106
  44   0.0000      -0.158124        -4.3028
  45   0.0000      -0.140907        -3.8343

MULLIKEN ATOMIC CHARGES
-----------------------
   0 Sc:    0.833487
   1 C :    0.173375
   2 N :   -0.412943
   3 C :   -0.061419
   4 C :   -0.063122
   5 N :   -0.406853
   6 C :   -0.540171
   7 H :    0.284067
   8 H :    0.273241
   9 H :    0.277153
  10 C :   -0.532661
  11 H :    0.273223
  12 H :    0.282866
  13 H :    0.278057
  14 H :    0.308132
  15 H :    0.307248
  16 C :   -1.027557
  17 H :    0.286239
  18 H :    0.258974
  19 H :    0.242425
  20 H :   -0.033761
Sum of atomic charges:    1.0000000

LOEWDIN ATOMIC CHARGES
----------------------
   0 Sc:    0.505824
   1 C :   -0.045886
   2 N :    0.011148
   3 C :   -0.076407
   4 C :   -0.077094
   5 N :    0.007678
   6 C :   -0.238083
   7 H :    0.160696
   8 H :    0.154578
   9 H :    0.152432
  10 C :   -0.236489
  11 H :    0.157003
  12 H :    0.158923
  13 H :    0.154228
  14 H :    0.170624
  15 H :    0.169976
  16 C :   -0.581997
  17 H :    0.185106
  18 H :    0.160656
  19 H :    0.166189
  20 H :   -0.059101

  Mayer bond orders larger than 0.100000
B(  0-Sc,  1-C ) :   0.6442 B(  0-Sc, 16-C ) :   1.0135 B(  0-Sc, 20-H ) :   0.9795
B(  1-C ,  2-N ) :   1.2324 B(  1-C ,  5-N ) :   1.2235 B(  2-N ,  3-C ) :   1.1691
B(  2-N , 10-C ) :   0.9068 B(  3-C ,  4-C ) :   1.6196 B(  3-C , 14-H ) :   0.8761
B(  4-C ,  5-N ) :   1.1628 B(  4-C , 15-H ) :   0.8766 B(  5-N ,  6-C ) :   0.9098
B(  6-C ,  7-H ) :   0.8992 B(  6-C ,  8-H ) :   0.8908 B(  6-C ,  9-H ) :   0.8916
B( 10-C , 11-H ) :   0.8953 B( 10-C , 12-H ) :   0.8956 B( 10-C , 13-H ) :   0.8925
B( 16-C , 17-H ) :   0.8633 B( 16-C , 18-H ) :   0.8913 B( 16-C , 19-H ) :   0.8722

Dispersion correction           -0.011041459
FINAL SINGLE POINT ENERGY     -1104.486014220705
Dispersion correction            ... done

DIPOLE MOMENT
-------------
                                X             Y             Z
Electronic contribution:      4.53287      -4.10833      -4.01144
Nuclear contribution   :     -3.33330       3.70706       4.79847
                        -----------------------------------------
Total Dipole Moment    :      1.19958      -0.40127       0.78703
                        -----------------------------------------
Magnitude (a.u.)       :      1.48977
Magnitude (Debye)      :      3.78670

Rotational constants in cm-1:     0.059391     0.029831     0.020973
Rotational constants in MHz :  1780.507043   894.318019   628.745536

                             ****ORCA TERMINATED NORMALLY****
TOTAL RUN TIME: 0 days 0 hours 1 minutes 54 seconds 410 msec
