                         Program Version 5.0.3 -  RELEASE  -
|  1> ! EnGrad PBEh-3c
|  2> %output
|  3> xyzfile=True
|  4> end
|  5> %scf
|  6> maxiter 250
|  7> end
|  8> %output
|  9> Print[P_Hirshfeld] = 1
| 10> end
| 11> % maxcore
| 12> 4000
| 13> *xyz 1 1
| 14> Sc   0.50762944  -0.36977828  -2.05681034
| 15> C    0.18908046  -0.40610888   0.19979656
| 16> N   -0.46166899  -1.32439919   0.93249350
| 17> C   -0.55558248  -0.91580592   2.22357587
| 18> C    0.04743845   0.28506052   2.30515360
| 19> N    0.49912489   0.57972904   1.05903657
| 20> C    1.25495222   1.77626058   0.73367993
| 21> H    0.89339391   2.59123773   1.35570734
| 22> H    1.09786027   2.05611226  -0.30416736
| 23> H    2.32056002   1.62752441   0.91199724
| 24> C   -0.97996488  -2.60034623   0.46639005
| 25> H   -0.93253789  -2.65994023  -0.61817525
| 26> H   -2.01825372  -2.69396355   0.77493006
| 27> H   -0.40316273  -3.41702852   0.89681747
| 28> H   -1.06294651  -1.48156953   2.96936542
| 29> H    0.17255049   0.95247412   3.12821826
| 30> C    0.16560649   1.57777023  -2.88467565
| 31> H   -0.37127965   1.40439955  -3.85692580
| 32> H    0.96977322   2.32108304  -3.07005366
| 33> H   -0.58951011   2.04418536  -2.19929970
| 34> H   -0.74252718  -1.33645556  -2.95346249
| 35> *
| 36>
| 37>                          ****END OF INPUT****

CARTESIAN COORDINATES (ANGSTROEM)
---------------------------------
  Sc     0.507629   -0.369778   -2.056810
  C      0.189080   -0.406109    0.199797
  N     -0.461669   -1.324399    0.932493
  C     -0.555582   -0.915806    2.223576
  C      0.047438    0.285061    2.305154
  N      0.499125    0.579729    1.059037
  C      1.254952    1.776261    0.733680
  H      0.893394    2.591238    1.355707
  H      1.097860    2.056112   -0.304167
  H      2.320560    1.627524    0.911997
  C     -0.979965   -2.600346    0.466390
  H     -0.932538   -2.659940   -0.618175
  H     -2.018254   -2.693964    0.774930
  H     -0.403163   -3.417029    0.896817
  H     -1.062947   -1.481570    2.969365
  H      0.172550    0.952474    3.128218
  C      0.165606    1.577770   -2.884676
  H     -0.371280    1.404400   -3.856926
  H      0.969773    2.321083   -3.070054
  H     -0.589510    2.044185   -2.199300
  H     -0.742527   -1.336456   -2.953462

 Total Charge           Charge          ....    1
 Multiplicity           Mult            ....    1
 Number of Electrons    NEL             ....   82
 Basis Dimension        Dim             ....  175

ORBITAL ENERGIES
----------------

  NO   OCC          E(Eh)            E(eV)
   0   2.0000    -162.901760     -4432.7822
   1   2.0000     -18.216322      -495.6913
   2   2.0000     -15.053484      -409.6261
   3   2.0000     -15.051113      -409.5616
   4   2.0000     -15.050228      -409.5375
   5   2.0000     -14.876894      -404.8209
   6   2.0000     -14.876744      -404.8168
   7   2.0000     -10.654230      -289.9163
   8   2.0000     -10.636958      -289.4463
   9   2.0000     -10.635240      -289.3996
  10   2.0000     -10.632961      -289.3376
  11   2.0000     -10.628979      -289.2292
  12   2.0000     -10.532440      -286.6023
  13   2.0000      -2.421602       -65.8951
  14   2.0000      -1.571248       -42.7558
  15   2.0000      -1.560489       -42.4631
  16   2.0000      -1.558354       -42.4050
  17   2.0000      -1.329009       -36.1642
  18   2.0000      -1.204643       -32.7800
  19   2.0000      -1.038024       -28.2461
  20   2.0000      -0.995218       -27.0813
  21   2.0000      -0.939618       -25.5683
  22   2.0000      -0.859319       -23.3833
  23   2.0000      -0.858555       -23.3625
  24   2.0000      -0.817484       -22.2449
  25   2.0000      -0.764196       -20.7948
  26   2.0000      -0.717815       -19.5327
  27   2.0000      -0.687930       -18.7195
  28   2.0000      -0.671563       -18.2742
  29   2.0000      -0.668124       -18.1806
  30   2.0000      -0.661853       -18.0099
  31   2.0000      -0.616079       -16.7644
  32   2.0000      -0.610135       -16.6026
  33   2.0000      -0.603310       -16.4169
  34   2.0000      -0.561430       -15.2773
  35   2.0000      -0.553726       -15.0677
  36   2.0000      -0.533688       -14.5224
  37   2.0000      -0.500272       -13.6131
  38   2.0000      -0.449077       -12.2200
  39   2.0000      -0.447074       -12.1655
  40   2.0000      -0.435302       -11.8452
  41   0.0000      -0.193191        -5.2570
  42   0.0000      -0.185214        -5.0399
  43   0.0000      -0.171017        -4.6536
  44   0.0000      -0.159900        -4.3511
  45   0.0000      -0.142872        -3.8878

MULLIKEN ATOMIC CHARGES
-----------------------
   0 Sc:    0.840636
   1 C :    0.170369
   2 N :   -0.409636
   3 C :   -0.062512
   4 C :   -0.063711
   5 N :   -0.406390
   6 C :   -0.541045
   7 H :    0.283288
   8 H :    0.278950
   9 H :    0.276839
  10 C :   -0.533004
  11 H :    0.273508
  12 H :    0.284554
  13 H :    0.279626
  14 H :    0.307849
  15 H :    0.307094
  16 C :   -1.033096
  17 H :    0.282031
  18 H :    0.257849
  19 H :    0.239640
  20 H :   -0.032841
Sum of atomic charges:    1.0000000

LOEWDIN ATOMIC CHARGES
----------------------
   0 Sc:    0.513899
   1 C :   -0.047198
   2 N :    0.013625
   3 C :   -0.076194
   4 C :   -0.075178
   5 N :    0.009961
   6 C :   -0.237533
   7 H :    0.160908
   8 H :    0.157262
   9 H :    0.152804
  10 C :   -0.234933
  11 H :    0.157729
  12 H :    0.159884
  13 H :    0.155141
  14 H :    0.169344
  15 H :    0.169120
  16 C :   -0.590760
  17 H :    0.181150
  18 H :    0.158009
  19 H :    0.161747
  20 H :   -0.058787

  Mayer bond orders larger than 0.100000
B(  0-Sc,  1-C ) :   0.6495 B(  0-Sc, 16-C ) :   0.9988 B(  0-Sc, 20-H ) :   0.9805
B(  1-C ,  2-N ) :   1.2330 B(  1-C ,  5-N ) :   1.2268 B(  2-N ,  3-C ) :   1.1731
B(  2-N , 10-C ) :   0.9049 B(  3-C ,  4-C ) :   1.6209 B(  3-C , 14-H ) :   0.8766
B(  4-C ,  5-N ) :   1.1669 B(  4-C , 15-H ) :   0.8770 B(  5-N ,  6-C ) :   0.9067
B(  6-C ,  7-H ) :   0.8997 B(  6-C ,  8-H ) :   0.8876 B(  6-C ,  9-H ) :   0.8918
B( 10-C , 11-H ) :   0.8937 B( 10-C , 12-H ) :   0.8949 B( 10-C , 13-H ) :   0.8917
B( 16-C , 17-H ) :   0.8674 B( 16-C , 18-H ) :   0.8940 B( 16-C , 19-H ) :   0.8774

Dispersion correction           -0.011033884
FINAL SINGLE POINT ENERGY     -1104.485369011508
Dispersion correction            ... done

DIPOLE MOMENT
-------------
                                X             Y             Z
Electronic contribution:      4.50603      -4.36799      -3.72311
Nuclear contribution   :     -3.33200       3.90953       4.58118
                        -----------------------------------------
Total Dipole Moment    :      1.17403      -0.45846       0.85807
                        -----------------------------------------
Magnitude (a.u.)       :      1.52473
Magnitude (Debye)      :      3.87557

Rotational constants in cm-1:     0.058956     0.030264     0.021160
Rotational constants in MHz :  1767.470839   907.293056   634.357116

                             ****ORCA TERMINATED NORMALLY****
TOTAL RUN TIME: 0 days 0 hours 1 minutes 56 seconds 420 msec
