                         Program Version 5.0.3 -  RELEASE  -
|  1> ! EnGrad PBEh-3c
|  2> %output
|  3> xyzfile=True
|  4> end
|  5> %scf
|  6> maxiter 250
|  7> end
|  8> %output
|  9> Print[P_Hirshfeld] = 1
| 10> end
| 11> % maxcore
| 12> 4000
| 13> %pal nprocs 4
| 14> end
| 15> *xyz 0 1
| 16> Pd   0.16646000   0.11331000  -0.00401000
| 17> O    1.61967000   1.28494000   0.94303000
| 18> C    1.75621000   2.45598000   0.65740000
| 19> O    0.72695000   3.15144000   0.22456000
| 20> C    3.07922000   3.15107000   0.77182000
| 21> H    2.99216000   4.14504000   1.21139000
| 22> H    3.50305000   3.25880000  -0.22941000
| 23> H    3.76853000   2.55761000   1.36415000
| 24> N   -1.22191000  -1.16597000  -0.86291000
| 25> C   -0.68051000  -2.54031000  -0.83497000
| 26> H    0.25141000  -2.56570000  -1.39278000
| 27> H   -1.39960000  -3.23081000  -1.29095000
| 28> H   -0.49846000  -2.85376000   0.19023000
| 29> C   -1.56194000  -0.82678000  -2.25105000
| 30> H   -1.86685000   0.21507000  -2.32259000
| 31> H   -2.38352000  -1.46247000  -2.59961000
| 32> H   -0.69918000  -0.98973000  -2.88898000
| 33> C   -2.01128000  -1.01635000   1.41790000
| 34> C   -2.78296000  -1.48668000   2.46926000
| 35> C   -2.32121000  -1.35628000   3.77186000
| 36> C   -1.08820000  -0.76668000   4.00632000
| 37> C   -0.31224000  -0.30592000   2.94786000
| 38> C   -0.76472000  -0.41954000   1.63778000
| 39> H   -0.72168000  -0.67168000   5.02103000
| 40> H    0.65384000   0.13570000   3.16017000
| 41> H   -3.74074000  -1.95780000   2.27836000
| 42> H   -2.91691000  -1.72208000   4.59788000
| 43> H    0.97454000   4.04367000  -0.03954000
| 44> C   -2.43517000  -1.08318000  -0.01333000
| 45> H   -2.96860000  -0.17085000  -0.29465000
| 46> H   -3.10267000  -1.92776000  -0.22920000
| 47> O    1.10359000   0.86001000  -1.71964000
| 48> C    1.79438000   0.11190000  -2.49847000
| 49> O    1.82136000  -1.11101000  -2.48674000
| 50> C    2.64789000   0.88406000  -3.49786000
| 51> H    3.03872000   0.22927000  -4.27327000
| 52> H    3.49687000   1.33877000  -2.98210000
| 53> H    2.08349000   1.69470000  -3.95893000
| 54> *
| 55>
| 56>                          ****END OF INPUT****

CARTESIAN COORDINATES (ANGSTROEM)
---------------------------------
  Pd     0.166460    0.113310   -0.004010
  O      1.619670    1.284940    0.943030
  C      1.756210    2.455980    0.657400
  O      0.726950    3.151440    0.224560
  C      3.079220    3.151070    0.771820
  H      2.992160    4.145040    1.211390
  H      3.503050    3.258800   -0.229410
  H      3.768530    2.557610    1.364150
  N     -1.221910   -1.165970   -0.862910
  C     -0.680510   -2.540310   -0.834970
  H      0.251410   -2.565700   -1.392780
  H     -1.399600   -3.230810   -1.290950
  H     -0.498460   -2.853760    0.190230
  C     -1.561940   -0.826780   -2.251050
  H     -1.866850    0.215070   -2.322590
  H     -2.383520   -1.462470   -2.599610
  H     -0.699180   -0.989730   -2.888980
  C     -2.011280   -1.016350    1.417900
  C     -2.782960   -1.486680    2.469260
  C     -2.321210   -1.356280    3.771860
  C     -1.088200   -0.766680    4.006320
  C     -0.312240   -0.305920    2.947860
  C     -0.764720   -0.419540    1.637780
  H     -0.721680   -0.671680    5.021030
  H      0.653840    0.135700    3.160170
  H     -3.740740   -1.957800    2.278360
  H     -2.916910   -1.722080    4.597880
  H      0.974540    4.043670   -0.039540
  C     -2.435170   -1.083180   -0.013330
  H     -2.968600   -0.170850   -0.294650
  H     -3.102670   -1.927760   -0.229200
  O      1.103590    0.860010   -1.719640
  C      1.794380    0.111900   -2.498470
  O      1.821360   -1.111010   -2.486740
  C      2.647890    0.884060   -3.497860
  H      3.038720    0.229270   -4.273270
  H      3.496870    1.338770   -2.982100
  H      2.083490    1.694700   -3.958930

 Total Charge           Charge          ....    0
 Multiplicity           Mult            ....    1
 Number of Electrons    NEL             ....  154
 Basis Dimension        Dim             ....  339

ORBITAL ENERGIES
----------------

  NO   OCC          E(Eh)            E(eV)
   0   2.0000     -19.583507      -532.8943
   1   2.0000     -19.541001      -531.7377
   2   2.0000     -19.434148      -528.8300
   3   2.0000     -19.409324      -528.1546
   4   2.0000     -14.702084      -400.0641
   5   2.0000     -10.629509      -289.2437
   6   2.0000     -10.509838      -285.9872
   7   2.0000     -10.484808      -285.3061
   8   2.0000     -10.475620      -285.0561
   9   2.0000     -10.460086      -284.6334
  10   2.0000     -10.451888      -284.4103
  11   2.0000     -10.436019      -283.9785
  12   2.0000     -10.432778      -283.8903
  13   2.0000     -10.429108      -283.7905
  14   2.0000     -10.428412      -283.7715
  15   2.0000     -10.425249      -283.6855
  16   2.0000     -10.423701      -283.6433
  17   2.0000     -10.403217      -283.0859
  18   2.0000      -3.627072       -98.6976
  19   2.0000      -2.273956       -61.8775
  20   2.0000      -2.270517       -61.7839
  21   2.0000      -2.240201       -60.9590
  22   2.0000      -1.270939       -34.5840
  23   2.0000      -1.179441       -32.0942
  24   2.0000      -1.122258       -30.5382
  25   2.0000      -1.058327       -28.7985
  26   2.0000      -1.026529       -27.9333
  27   2.0000      -0.939052       -25.5529
  28   2.0000      -0.878904       -23.9162
  29   2.0000      -0.854268       -23.2458
  30   2.0000      -0.814341       -22.1593
  31   2.0000      -0.797232       -21.6938
  32   2.0000      -0.781219       -21.2580
  33   2.0000      -0.771715       -20.9994
  34   2.0000      -0.745015       -20.2729
  35   2.0000      -0.693039       -18.8586
  36   2.0000      -0.663221       -18.0472
  37   2.0000      -0.637637       -17.3510
  38   2.0000      -0.635412       -17.2904
  39   2.0000      -0.595121       -16.1941
  40   2.0000      -0.581904       -15.8344
  41   2.0000      -0.572216       -15.5708
  42   2.0000      -0.559677       -15.2296
  43   2.0000      -0.552129       -15.0242
  44   2.0000      -0.549394       -14.9498
  45   2.0000      -0.524914       -14.2836
  46   2.0000      -0.520159       -14.1542
  47   2.0000      -0.500128       -13.6092
  48   2.0000      -0.494658       -13.4603
  49   2.0000      -0.486662       -13.2428
  50   2.0000      -0.483448       -13.1553
  51   2.0000      -0.475753       -12.9459
  52   2.0000      -0.472998       -12.8709
  53   2.0000      -0.470917       -12.8143
  54   2.0000      -0.461866       -12.5680
  55   2.0000      -0.455908       -12.4059
  56   2.0000      -0.444366       -12.0918
  57   2.0000      -0.432752       -11.7758
  58   2.0000      -0.432114       -11.7584
  59   2.0000      -0.425287       -11.5727
  60   2.0000      -0.423474       -11.5233
  61   2.0000      -0.413315       -11.2469
  62   2.0000      -0.411884       -11.2079
  63   2.0000      -0.397890       -10.8271
  64   2.0000      -0.391690       -10.6584
  65   2.0000      -0.380440       -10.3523
  66   2.0000      -0.362434        -9.8623
  67   2.0000      -0.357908        -9.7392
  68   2.0000      -0.331520        -9.0211
  69   2.0000      -0.326712        -8.8903
  70   2.0000      -0.309059        -8.4099
  71   2.0000      -0.284498        -7.7416
  72   2.0000      -0.280655        -7.6370
  73   2.0000      -0.272651        -7.4192
  74   2.0000      -0.269804        -7.3418
  75   2.0000      -0.259267        -7.0550
  76   2.0000      -0.250885        -6.8269
  77   0.0000      -0.007250        -0.1973
  78   0.0000       0.016748         0.4557
  79   0.0000       0.031500         0.8572
  80   0.0000       0.036285         0.9874
  81   0.0000       0.057554         1.5661

MULLIKEN ATOMIC CHARGES
-----------------------
   0 Pd:    0.369688
   1 O :   -0.403969
   2 C :    0.665679
   3 O :   -0.522702
   4 C :   -0.796244
   5 H :    0.245811
   6 H :    0.281635
   7 H :    0.293731
   8 N :   -0.483851
   9 C :   -0.547229
  10 H :    0.318736
  11 H :    0.209929
  12 H :    0.278944
  13 C :   -0.521751
  14 H :    0.259880
  15 H :    0.214289
  16 H :    0.290577
  17 C :    0.083198
  18 C :   -0.281813
  19 C :   -0.233029
  20 C :   -0.216431
  21 C :   -0.297298
  22 C :   -0.077289
  23 H :    0.205952
  24 H :    0.215774
  25 H :    0.198140
  26 H :    0.208183
  27 H :    0.460852
  28 C :   -0.308302
  29 H :    0.261686
  30 H :    0.224418
  31 O :   -0.571149
  32 C :    0.544765
  33 O :   -0.487150
  34 C :   -0.746054
  35 H :    0.232842
  36 H :    0.210289
  37 H :    0.219263
Sum of atomic charges:   -0.0000000

LOEWDIN ATOMIC CHARGES
----------------------
   0 Pd:   -0.435209
   1 O :   -0.049353
   2 C :    0.212972
   3 O :   -0.205397
   4 C :   -0.387154
   5 H :    0.148626
   6 H :    0.173180
   7 H :    0.172814
   8 N :   -0.027266
   9 C :   -0.236447
  10 H :    0.174145
  11 H :    0.116238
  12 H :    0.155744
  13 C :   -0.232521
  14 H :    0.146991
  15 H :    0.118340
  16 H :    0.163240
  17 C :   -0.061224
  18 C :   -0.135454
  19 C :   -0.147548
  20 C :   -0.135982
  21 C :   -0.123499
  22 C :   -0.022439
  23 H :    0.130926
  24 H :    0.143742
  25 H :    0.130531
  26 H :    0.131331
  27 H :    0.347194
  28 C :   -0.102315
  29 H :    0.149819
  30 H :    0.126169
  31 O :   -0.250169
  32 C :    0.101745
  33 O :   -0.301173
  34 C :   -0.393987
  35 H :    0.135947
  36 H :    0.133721
  37 H :    0.133724

  Mayer bond orders larger than 0.100000
B(  0-Pd,  1-O ) :   0.3533 B(  0-Pd,  8-N ) :   0.4696 B(  0-Pd, 22-C ) :   0.9088
B(  0-Pd, 31-O ) :   0.4506 B(  1-O ,  2-C ) :   1.7281 B(  2-C ,  3-O ) :   1.1749
B(  2-C ,  4-C ) :   0.9609 B(  3-O , 27-H ) :   0.7485 B(  4-C ,  5-H ) :   0.9040
B(  4-C ,  6-H ) :   0.8858 B(  4-C ,  7-H ) :   0.8970 B(  8-N ,  9-C ) :   0.9106
B(  8-N , 13-C ) :   0.9230 B(  8-N , 28-C ) :   0.8903 B(  9-C , 10-H ) :   0.8584
B(  9-C , 11-H ) :   0.9071 B(  9-C , 12-H ) :   0.8912 B( 13-C , 14-H ) :   0.9070
B( 13-C , 15-H ) :   0.9047 B( 13-C , 16-H ) :   0.8812 B( 17-C , 18-C ) :   1.4082
B( 17-C , 22-C ) :   1.3310 B( 17-C , 28-C ) :   0.9714 B( 18-C , 19-C ) :   1.4245
B( 18-C , 25-H ) :   0.9281 B( 19-C , 20-C ) :   1.4350 B( 19-C , 26-H ) :   0.9217
B( 20-C , 21-C ) :   1.4105 B( 20-C , 23-H ) :   0.9221 B( 21-C , 22-C ) :   1.3983
B( 21-C , 24-H ) :   0.9156 B( 28-C , 29-H ) :   0.8939 B( 28-C , 30-H ) :   0.9049
B( 31-O , 32-C ) :   1.3599 B( 31-O , 33-O ) :   0.1055 B( 32-C , 33-O ) :   1.8490
B( 32-C , 34-C ) :   0.9226 B( 34-C , 35-H ) :   0.9233 B( 34-C , 36-H ) :   0.9253
B( 34-C , 37-H ) :   0.9218

Dispersion correction           -0.026767941
FINAL SINGLE POINT ENERGY      -988.554276087616
Dispersion correction            ... done

DIPOLE MOMENT
-------------
                                X             Y             Z
Electronic contribution:      6.48431       6.41427      -0.44133
Nuclear contribution   :     -6.61213      -4.12595       0.85505
                        -----------------------------------------
Total Dipole Moment    :     -0.12782       2.28832       0.41371
                        -----------------------------------------
Magnitude (a.u.)       :      2.32893
Magnitude (Debye)      :      5.91966

Rotational constants in cm-1:     0.015567     0.009072     0.006458
Rotational constants in MHz :   466.679308   271.959131   193.618306

                             ****ORCA TERMINATED NORMALLY****
TOTAL RUN TIME: 0 days 0 hours 2 minutes 25 seconds 199 msec
