                         Program Version 5.0.4 -  RELEASE  -
|  1> %pal nprocs 8 end
|  2>
|  3>  *xyzfile -1 1 IEIP_ts_guess.xyz
|  4>
|  5>
|  6>                          ****END OF INPUT****
|  1>
|  2>
|  3>   ! PBEh-3c OptTS Freq pal8
|  4>
|  5>   %geom
|  6>    calc_hess true
|  7>    recalc_hess 20
|  8>    maxiter 600
|  9>   end
| 10>
| 11>
| 12>                          ****END OF INPUT****
 Total Charge           Charge          ....   -1
 Multiplicity           Mult            ....    1
 Number of Electrons    NEL             ....   80
Dispersion correction           -0.005344243
FINAL SINGLE POINT ENERGY     -1539.026737090559
Dispersion correction            ... done
Dispersion correction in the Hessian             ... done   (      0.3 sec)
Dispersion correction           -0.005348971
FINAL SINGLE POINT ENERGY     -1539.027143328323
Dispersion correction            ... done
Dispersion correction           -0.005351075
FINAL SINGLE POINT ENERGY     -1539.027199431875
Dispersion correction            ... done
                    ***********************HURRAY********************
Dispersion correction           -0.005351152
FINAL SINGLE POINT ENERGY     -1539.027202141685
Dispersion correction in the Hessian             ... done   (      0.3 sec)

VIBRATIONAL FREQUENCIES
-----------------------

Scaling factor for frequencies =  1.000000000  (already applied!)

   0:         0.00 cm**-1
   1:         0.00 cm**-1
   2:         0.00 cm**-1
   3:         0.00 cm**-1
   4:         0.00 cm**-1
   5:         0.00 cm**-1
   6:      -711.33 cm**-1 ***imaginary mode***
   7:       101.20 cm**-1
   8:       138.50 cm**-1
   9:       147.59 cm**-1
  10:       149.67 cm**-1
  11:       155.74 cm**-1
  12:       205.64 cm**-1
  13:       330.05 cm**-1
  14:       338.74 cm**-1
  15:       347.81 cm**-1
  16:       570.42 cm**-1
  17:       676.00 cm**-1
  18:       989.79 cm**-1
  19:      1048.94 cm**-1
  20:      1368.42 cm**-1
  21:      1522.96 cm**-1
  22:      1538.81 cm**-1
  23:      2432.52 cm**-1
  24:      3118.56 cm**-1
  25:      3207.34 cm**-1
  26:      3240.24 cm**-1

IR SPECTRUM
-----------

 Mode   freq       eps      Int      T**2         TX        TY        TZ
       cm**-1   L/(mol*cm) km/mol    a.u.
----------------------------------------------------------------------------
  7:    101.20   0.000731    3.69  0.002254  (-0.019987  0.042127 -0.008929)
  8:    138.50   0.000063    0.32  0.000142  (-0.002997 -0.004610 -0.010550)
  9:    147.59   0.000067    0.34  0.000141  ( 0.010593 -0.000476 -0.005388)
 10:    149.67   0.000040    0.20  0.000083  ( 0.001819  0.000488 -0.008913)
 11:    155.74   0.000168    0.85  0.000337  ( 0.013282  0.011523 -0.005244)
 12:    205.64   0.000253    1.28  0.000384  ( 0.005813  0.004890  0.018069)
 13:    330.05   0.003981   20.12  0.003764  ( 0.042529  0.028730 -0.033611)
 14:    338.74   0.015538   78.52  0.014314  (-0.040070 -0.042957 -0.104228)
 15:    347.81   0.005842   29.53  0.005242  ( 0.049049  0.035587 -0.039619)
 16:    570.42   0.001948    9.84  0.001066  ( 0.022741  0.018081 -0.014885)
 17:    676.00   0.003667   18.53  0.001693  ( 0.010803  0.013959  0.037165)
 18:    989.79   0.001990   10.05  0.000627  (-0.024605 -0.002519  0.003944)
 19:   1048.94   0.001906    9.63  0.000567  (-0.000966 -0.005703 -0.023101)
 20:   1368.42   0.002457   12.41  0.000560  ( 0.017765  0.012334 -0.009619)
 21:   1522.96   0.000846    4.28  0.000173  (-0.012761  0.003198 -0.000613)
 22:   1538.81   0.000784    3.96  0.000159  ( 0.003084  0.005502  0.010915)
 23:   2432.52   0.000461    2.33  0.000059  ( 0.006311 -0.004378 -0.000305)
 24:   3118.56   0.004300   21.73  0.000430  (-0.011868 -0.014047  0.009599)
 25:   3207.34   0.002281   11.53  0.000222  ( 0.012396  0.003131 -0.007648)
 26:   3240.24   0.001776    8.97  0.000171  (-0.005443 -0.005993 -0.010271)

--------------------------
THERMOCHEMISTRY AT 298.15K
--------------------------

Temperature         ... 298.15 K
Pressure            ... 1.00 atm
Total Mass          ... 317.49 AMU

Throughout the following assumptions are being made:
  (1) The electronic state is orbitally nondegenerate
  (2) There are no thermally accessible electronically excited states
  (3) Hindered rotations indicated by low frequency modes are not
      treated as such but are treated as vibrations and this may
      cause some error
  (4) All equations used are the standard statistical mechanics
      equations for an ideal gas
  (5) All vibrations are strictly harmonic

freq.     101.20  E(vib)   ...       0.46
freq.     138.50  E(vib)   ...       0.42
freq.     147.59  E(vib)   ...       0.41
freq.     149.67  E(vib)   ...       0.40
freq.     155.74  E(vib)   ...       0.40
freq.     205.64  E(vib)   ...       0.35
freq.     330.05  E(vib)   ...       0.24
freq.     338.74  E(vib)   ...       0.23
freq.     347.81  E(vib)   ...       0.23
freq.     570.42  E(vib)   ...       0.11
freq.     676.00  E(vib)   ...       0.08
freq.     989.79  E(vib)   ...       0.02
freq.    1048.94  E(vib)   ...       0.02
freq.    1368.42  E(vib)   ...       0.01
freq.    1522.96  E(vib)   ...       0.00
freq.    1538.81  E(vib)   ...       0.00
freq.    2432.52  E(vib)   ...       0.00
freq.    3118.56  E(vib)   ...       0.00
freq.    3207.34  E(vib)   ...       0.00
freq.    3240.24  E(vib)   ...       0.00

------------
INNER ENERGY
------------

The inner energy is: U= E(el) + E(ZPE) + E(vib) + E(rot) + E(trans)
    E(el)   - is the total energy from the electronic structure calculation
              = E(kin-el) + E(nuc-el) + E(el-el) + E(nuc-nuc)
    E(ZPE)  - the the zero temperature vibrational energy from the frequency calculation
    E(vib)  - the the finite temperature correction to E(ZPE) due to population
              of excited vibrational states
    E(rot)  - is the rotational thermal energy
    E(trans)- is the translational thermal energy

Summary of contributions to the inner energy U:
Electronic energy                ...  -1539.02720214 Eh
Zero point energy                ...      0.04927437 Eh      30.92 kcal/mol
Thermal vibrational correction   ...      0.00538011 Eh       3.38 kcal/mol
Thermal rotational correction    ...      0.00141627 Eh       0.89 kcal/mol
Thermal translational correction ...      0.00141627 Eh       0.89 kcal/mol
-----------------------------------------------------------------------
Total thermal energy                  -1538.96971512 Eh

Summary of corrections to the electronic energy:
(perhaps to be used in another calculation)
Total thermal correction                  0.00821265 Eh       5.15 kcal/mol
Non-thermal (ZPE) correction              0.04927437 Eh      30.92 kcal/mol
-----------------------------------------------------------------------
Total correction                          0.05748703 Eh      36.07 kcal/mol

--------
ENTHALPY
--------

The enthalpy is H = U + kB*T
                kB is Boltzmann's constant
Total free energy                 ...  -1538.96971512 Eh
Thermal Enthalpy correction       ...      0.00094421 Eh       0.59 kcal/mol
-----------------------------------------------------------------------
Total Enthalpy                    ...  -1538.96877091 Eh

Note: Only C1 symmetry has been detected, increase convergence thresholds
      if your molecule has a higher symmetry. Symmetry factor of 1.0 is
      used for the rotational entropy correction.

Note: Rotational entropy computed according to Herzberg
Infrared and Raman Spectra, Chapter V,1, Van Nostrand Reinhold, 1945
Point Group:  C1, Symmetry Number:   1
Rotational constants in cm-1:     0.064261     0.042819     0.026319

Vibrational entropy computed according to the QRRHO of S. Grimme
Chem.Eur.J. 2012 18 9955

-------
ENTROPY
-------

The entropy contributions are T*S = T*(S(el)+S(vib)+S(rot)+S(trans))
     S(el)   - electronic entropy
     S(vib)  - vibrational entropy
     S(rot)  - rotational entropy
     S(trans)- translational entropy
The entropies will be listed as multiplied by the temperature to get
units of energy

Electronic entropy                ...      0.00000000 Eh      0.00 kcal/mol
Vibrational entropy               ...      0.00978137 Eh      6.14 kcal/mol
Rotational entropy                ...      0.01401128 Eh      8.79 kcal/mol
Translational entropy             ...      0.02050744 Eh     12.87 kcal/mol
-----------------------------------------------------------------------
Final entropy term                ...      0.04430009 Eh     27.80 kcal/mol

In case the symmetry of your molecule has not been determined correctly
or in case you have a reason to use a different symmetry number we print
out the resulting rotational entropy values for sn=1,12 :
 --------------------------------------------------------
|  sn= 1 | S(rot)=       0.01401128 Eh      8.79 kcal/mol|
|  sn= 2 | S(rot)=       0.01335682 Eh      8.38 kcal/mol|
|  sn= 3 | S(rot)=       0.01297399 Eh      8.14 kcal/mol|
|  sn= 4 | S(rot)=       0.01270236 Eh      7.97 kcal/mol|
|  sn= 5 | S(rot)=       0.01249168 Eh      7.84 kcal/mol|
|  sn= 6 | S(rot)=       0.01231953 Eh      7.73 kcal/mol|
|  sn= 7 | S(rot)=       0.01217398 Eh      7.64 kcal/mol|
|  sn= 8 | S(rot)=       0.01204791 Eh      7.56 kcal/mol|
|  sn= 9 | S(rot)=       0.01193670 Eh      7.49 kcal/mol|
|  sn=10 | S(rot)=       0.01183722 Eh      7.43 kcal/mol|
|  sn=11 | S(rot)=       0.01174723 Eh      7.37 kcal/mol|
|  sn=12 | S(rot)=       0.01166507 Eh      7.32 kcal/mol|
 --------------------------------------------------------

-------------------
GIBBS FREE ENERGY
-------------------

The Gibbs free energy is G = H - T*S

Total enthalpy                    ...  -1538.96877091 Eh
Total entropy correction          ...     -0.04430009 Eh    -27.80 kcal/mol
-----------------------------------------------------------------------
Final Gibbs free energy         ...  -1539.01307099 Eh

For completeness - the Gibbs free energy minus the electronic energy
G-E(el)                           ...      0.01413115 Eh      8.87 kcal/mol

|  1>
|  2>
|  3>   ! PBEh-3c IRC pal8
|  4>   %irc
|  5>     maxiter 600
|  6>     inithess read
|  7>     hess_filename "reaction-6-ieip_optts_Compound_1.hess"
|  8>   end
|  9>
| 10>
| 11>                          ****END OF INPUT****

CARTESIAN COORDINATES (ANGSTROEM)
---------------------------------
  Pt    -0.547312   -0.659838    0.399147
  Cl     0.110581    0.078309    2.504987
  Cl    -2.405647   -1.720206    1.323715
  Cl    -1.131782   -1.369252   -1.742156
  C      0.661492    0.843873   -0.495791
  H      1.394491    1.283773    0.177653
  H      0.927199   -0.625346   -0.037359
  H      1.117668    0.613551   -1.458082
  H     -0.134211    1.570308   -0.673054

 Multiplicity           Mult            ....    1
 Number of Electrons    NEL             ....   80
 Basis Dimension        Dim             ....  109

ORBITAL ENERGIES
----------------

  NO   OCC          E(Eh)            E(eV)
   0   2.0000    -102.094041     -2778.1201
   1   2.0000    -102.093772     -2778.1128
   2   2.0000    -102.080878     -2777.7619
   3   2.0000     -10.339169      -281.3431
   4   2.0000      -9.558324      -260.0952
   5   2.0000      -9.557967      -260.0855
   6   2.0000      -9.545638      -259.7500
   7   2.0000      -7.244610      -197.1359
   8   2.0000      -7.244239      -197.1258
   9   2.0000      -7.239145      -196.9872
  10   2.0000      -7.238826      -196.9785
  11   2.0000      -7.238819      -196.9783
  12   2.0000      -7.238492      -196.9694
  13   2.0000      -7.231462      -196.7781
  14   2.0000      -7.226952      -196.6554
  15   2.0000      -7.226051      -196.6308
  16   2.0000      -3.982116      -108.3589
  17   2.0000      -2.199069       -59.8397
  18   2.0000      -2.186288       -59.4919
  19   2.0000      -2.163604       -58.8747
  20   2.0000      -0.701258       -19.0822
  21   2.0000      -0.681747       -18.5513
  22   2.0000      -0.676172       -18.3996
  23   2.0000      -0.661146       -17.9907
  24   2.0000      -0.405814       -11.0428
  25   2.0000      -0.361007        -9.8235
  26   2.0000      -0.340593        -9.2680
  27   2.0000      -0.298964        -8.1352
  28   2.0000      -0.271527        -7.3886
  29   2.0000      -0.251180        -6.8350
  30   2.0000      -0.248517        -6.7625
  31   2.0000      -0.224903        -6.1199
  32   2.0000      -0.201698        -5.4885
  33   2.0000      -0.190139        -5.1740
  34   2.0000      -0.179808        -4.8928
  35   2.0000      -0.165269        -4.4972
  36   2.0000      -0.150655        -4.0995
  37   2.0000      -0.146116        -3.9760
  38   2.0000      -0.141305        -3.8451
  39   2.0000      -0.132859        -3.6153
  40   0.0000       0.115523         3.1435
  41   0.0000       0.144600         3.9348
  42   0.0000       0.214936         5.8487
  43   0.0000       0.256602         6.9825
  44   0.0000       0.271301         7.3825

MULLIKEN ATOMIC CHARGES
-----------------------
   0 Pt:    0.104105
   1 Cl:   -0.407314
   2 Cl:   -0.389900
   3 Cl:   -0.410455
   4 C :   -0.881782
   5 H :    0.260379
   6 H :    0.205440
   7 H :    0.252609
   8 H :    0.266918
Sum of atomic charges:   -1.0000000

LOEWDIN ATOMIC CHARGES
----------------------
   0 Pt:   -0.876019
   1 Cl:   -0.120966
   2 Cl:   -0.141472
   3 Cl:   -0.124238
   4 C :   -0.402504
   5 H :    0.147928
   6 H :    0.201158
   7 H :    0.143933
   8 H :    0.172179

  Mayer bond orders larger than 0.100000
B(  0-Pt,  1-Cl) :   0.7837 B(  0-Pt,  2-Cl) :   0.7981 B(  0-Pt,  3-Cl) :   0.7754
B(  0-Pt,  4-C ) :   0.6463 B(  0-Pt,  6-H ) :   0.5890 B(  1-Cl,  3-Cl) :   0.1312
B(  2-Cl,  4-C ) :   0.1068 B(  4-C ,  5-H ) :   0.8793 B(  4-C ,  6-H ) :   0.2673
B(  4-C ,  7-H ) :   0.8870 B(  4-C ,  8-H ) :   0.8881

Dispersion correction           -0.005351152
FINAL SINGLE POINT ENERGY     -1539.027202287549
Dispersion correction            ... done

DIPOLE MOMENT
-------------
                                X             Y             Z
Electronic contribution:     14.16349       0.55431      -4.25741
Nuclear contribution   :    -12.92814       0.37386       3.56938
                        -----------------------------------------
Total Dipole Moment    :      1.23535       0.92816      -0.68803
                        -----------------------------------------
Magnitude (a.u.)       :      1.69144
Magnitude (Debye)      :      4.29930

Rotational constants in cm-1:     0.064261     0.042819     0.026319
Rotational constants in MHz :  1926.485335  1283.676819   789.016863

                      ***********************HURRAY********************
                             ****ORCA TERMINATED NORMALLY****
TOTAL RUN TIME: 0 days 0 hours 18 minutes 8 seconds 873 msec
