                         Program Version 5.0.4 -  RELEASE  -
|  1> %pal nprocs 8 end
|  2>
|  3>  *xyzfile 1 1 cineb-5-peak.xyz
|  4>
|  5>
|  6>                          ****END OF INPUT****
|  1>
|  2>
|  3>   ! PBEh-3c OptTS Freq pal8
|  4>
|  5>   %geom
|  6>    calc_hess true
|  7>    recalc_hess 20
|  8>    maxiter 600
|  9>   end
| 10>
| 11>
| 12>                          ****END OF INPUT****
 Total Charge           Charge          ....    1
 Multiplicity           Mult            ....    1
 Number of Electrons    NEL             ....   82
Dispersion correction           -0.011113554
FINAL SINGLE POINT ENERGY     -1104.381795900099
Dispersion correction            ... done
Dispersion correction in the Hessian             ... done   (      0.6 sec)
Dispersion correction           -0.011121664
FINAL SINGLE POINT ENERGY     -1104.379604676337
Dispersion correction            ... done
Dispersion correction           -0.011118219
FINAL SINGLE POINT ENERGY     -1104.377841995523
FINAL SINGLE POINT ENERGY     -1104.377092772181
FINAL SINGLE POINT ENERGY     -1104.377760894948
FINAL SINGLE POINT ENERGY     -1104.380051372074
FINAL SINGLE POINT ENERGY     -1104.385496413376
FINAL SINGLE POINT ENERGY     -1104.392830812585
FINAL SINGLE POINT ENERGY     -1104.398128805958
FINAL SINGLE POINT ENERGY     -1104.402046524915
FINAL SINGLE POINT ENERGY     -1104.433441303978
FINAL SINGLE POINT ENERGY     -1104.433464684794
FINAL SINGLE POINT ENERGY     -1104.433508125609
FINAL SINGLE POINT ENERGY     -1104.433537510703
FINAL SINGLE POINT ENERGY     -1104.433552837745
FINAL SINGLE POINT ENERGY     -1104.433657086012
FINAL SINGLE POINT ENERGY     -1104.433656878747
Dispersion correction           -0.010722882
FINAL SINGLE POINT ENERGY     -1104.433662036120
Dispersion correction            ... done
                    ***********************HURRAY********************
Dispersion correction           -0.010723648
FINAL SINGLE POINT ENERGY     -1104.433662202574
Dispersion correction in the Hessian             ... done   (      0.7 sec)

VIBRATIONAL FREQUENCIES
-----------------------

Scaling factor for frequencies =  1.000000000  (already applied!)

   0:         0.00 cm**-1
   1:         0.00 cm**-1
   2:         0.00 cm**-1
   3:         0.00 cm**-1
   4:         0.00 cm**-1
   5:         0.00 cm**-1
   6:     -1173.06 cm**-1 ***imaginary mode***
   7:        41.27 cm**-1
   8:        60.86 cm**-1
   9:        94.62 cm**-1
  10:       105.06 cm**-1
  11:       115.87 cm**-1
  12:       133.55 cm**-1
  13:       143.36 cm**-1
  14:       218.48 cm**-1
  15:       232.31 cm**-1
  16:       270.85 cm**-1
  17:       287.67 cm**-1
  18:       334.97 cm**-1
  19:       458.56 cm**-1
  20:       468.86 cm**-1
  21:       639.09 cm**-1
  22:       654.48 cm**-1
  23:       697.95 cm**-1
  24:       776.74 cm**-1
  25:       797.35 cm**-1
  26:       825.68 cm**-1
  27:       897.49 cm**-1
  28:       916.96 cm**-1
  29:      1066.31 cm**-1
  30:      1089.28 cm**-1
  31:      1134.23 cm**-1
  32:      1138.74 cm**-1
  33:      1178.29 cm**-1
  34:      1182.48 cm**-1
  35:      1184.84 cm**-1
  36:      1287.49 cm**-1
  37:      1312.04 cm**-1
  38:      1423.80 cm**-1
  39:      1435.41 cm**-1
  40:      1452.21 cm**-1
  41:      1471.32 cm**-1
  42:      1500.56 cm**-1
  43:      1502.29 cm**-1
  44:      1517.04 cm**-1
  45:      1535.89 cm**-1
  46:      1540.60 cm**-1
  47:      1556.63 cm**-1
  48:      1561.39 cm**-1
  49:      1565.31 cm**-1
  50:      1611.55 cm**-1
  51:      1678.50 cm**-1
  52:      2501.23 cm**-1
  53:      3096.51 cm**-1
  54:      3129.97 cm**-1
  55:      3134.07 cm**-1
  56:      3221.89 cm**-1
  57:      3223.56 cm**-1
  58:      3235.30 cm**-1
  59:      3235.98 cm**-1
  60:      3259.14 cm**-1
  61:      3354.67 cm**-1
  62:      3373.64 cm**-1

IR SPECTRUM
-----------

 Mode   freq       eps      Int      T**2         TX        TY        TZ
       cm**-1   L/(mol*cm) km/mol    a.u.
----------------------------------------------------------------------------
  7:     41.27   0.001102    5.57  0.008333  (-0.010220  0.089540  0.014535)
  8:     60.86   0.000129    0.65  0.000663  ( 0.002396  0.010296 -0.023471)
  9:     94.62   0.000183    0.92  0.000603  (-0.009204 -0.015963 -0.016228)
 10:    105.06   0.000011    0.06  0.000034  (-0.002268 -0.004734  0.002554)
 11:    115.87   0.001197    6.05  0.003225  (-0.018740  0.047096  0.025608)
 12:    133.55   0.000383    1.94  0.000896  ( 0.014644  0.018511  0.018405)
 13:    143.36   0.000286    1.45  0.000623  (-0.019156 -0.011632 -0.011002)
 14:    218.48   0.001222    6.17  0.001745  (-0.011811  0.013422 -0.037755)
 15:    232.31   0.002197   11.10  0.002951  (-0.032820  0.036340 -0.023524)
 16:    270.85   0.005601   28.30  0.006453  ( 0.070969 -0.014074 -0.034904)
 17:    287.67   0.000891    4.50  0.000967  (-0.027865  0.005957  0.012446)
 18:    334.97   0.003120   15.77  0.002906  (-0.020881 -0.002750  0.049628)
 19:    458.56   0.007135   36.06  0.004856  ( 0.033685 -0.001513  0.060981)
 20:    468.86   0.000760    3.84  0.000506  (-0.009406 -0.020147  0.003401)
 21:    639.09   0.000468    2.37  0.000229  ( 0.002723  0.001687 -0.014779)
 22:    654.48   0.000020    0.10  0.000009  (-0.001266 -0.002577 -0.001072)
 23:    697.95   0.000506    2.56  0.000226  (-0.010389  0.007637 -0.007738)
 24:    776.74   0.002927   14.79  0.001176  (-0.016839 -0.027796 -0.010940)
 25:    797.35   0.011939   60.33  0.004673  ( 0.059109 -0.033973  0.004954)
 26:    825.68   0.009719   49.12  0.003673  (-0.023834 -0.002736  0.055658)
 27:    897.49   0.003273   16.54  0.001138  ( 0.020747  0.018009  0.019577)
 28:    916.96   0.000002    0.01  0.000001  (-0.000217  0.000805 -0.000105)
 29:   1066.31   0.000126    0.64  0.000037  (-0.002420 -0.005548 -0.000476)
 30:   1089.28   0.000026    0.13  0.000008  (-0.000854 -0.000992 -0.002423)
 31:   1134.23   0.000354    1.79  0.000097  (-0.005273 -0.005918  0.005871)
 32:   1138.74   0.000403    2.04  0.000111  (-0.003175 -0.005700 -0.008244)
 33:   1178.29   0.000397    2.01  0.000105  ( 0.004351  0.009171  0.001489)
 34:   1182.48   0.001532    7.74  0.000404  (-0.001886 -0.002167  0.019900)
 35:   1184.84   0.000563    2.85  0.000148  (-0.005907 -0.001497  0.010548)
 36:   1287.49   0.009630   48.67  0.002334  ( 0.022491  0.041478  0.010393)
 37:   1312.04   0.008035   40.61  0.001911  (-0.036010 -0.023568 -0.007675)
 38:   1423.80   0.001933    9.77  0.000424  (-0.001522  0.019058  0.007623)
 39:   1435.41   0.000198    1.00  0.000043  (-0.000361  0.000826  0.006491)
 40:   1452.21   0.000682    3.45  0.000147  ( 0.006409  0.009672  0.003469)
 41:   1471.32   0.004150   20.97  0.000880  (-0.003345 -0.003445  0.029276)
 42:   1500.56   0.010010   50.59  0.002082  ( 0.002760  0.019012  0.041385)
 43:   1502.29   0.002046   10.34  0.000425  (-0.007314 -0.012663 -0.014534)
 44:   1517.04   0.000594    3.00  0.000122  (-0.000967  0.002535 -0.010717)
 45:   1535.89   0.002620   13.24  0.000532  ( 0.005908 -0.021700 -0.005150)
 46:   1540.60   0.002572   13.00  0.000521  ( 0.022781 -0.001351 -0.000301)
 47:   1556.63   0.006467   32.68  0.001297  ( 0.015173  0.032192  0.005478)
 48:   1561.39   0.002018   10.20  0.000403  ( 0.006440 -0.001379  0.018971)
 49:   1565.31   0.004158   21.02  0.000829  ( 0.014853  0.023584  0.007226)
 50:   1611.55   0.009630   48.66  0.001865  (-0.023630 -0.006201 -0.035607)
 51:   1678.50   0.002975   15.04  0.000553  (-0.004341 -0.003261  0.022884)
 52:   2501.23   0.016952   85.67  0.002115  ( 0.004750 -0.045729 -0.001151)
 53:   3096.51   0.000413    2.09  0.000042  (-0.003309  0.004426 -0.003335)
 54:   3129.97   0.002846   14.38  0.000284  ( 0.008921  0.014285 -0.000237)
 55:   3134.07   0.002318   11.71  0.000231  ( 0.007431  0.013219 -0.000921)
 56:   3221.89   0.000267    1.35  0.000026  ( 0.004616 -0.001552 -0.001469)
 57:   3223.56   0.000618    3.13  0.000060  (-0.003258  0.001170 -0.006920)
 58:   3235.30   0.000122    0.62  0.000012  ( 0.003239 -0.001054 -0.000393)
 59:   3235.98   0.000172    0.87  0.000017  ( 0.001643 -0.001851 -0.003235)
 60:   3259.14   0.000887    4.48  0.000085  (-0.008304  0.001465 -0.003715)
 61:   3354.67   0.002166   10.95  0.000202  (-0.006610 -0.012090 -0.003418)
 62:   3373.64   0.002105   10.64  0.000195  ( 0.003093  0.002112 -0.013443)

--------------------------
THERMOCHEMISTRY AT 298.15K
--------------------------

Temperature         ... 298.15 K
Pressure            ... 1.00 atm
Total Mass          ... 157.14 AMU

Throughout the following assumptions are being made:
  (1) The electronic state is orbitally nondegenerate
  (2) There are no thermally accessible electronically excited states
  (3) Hindered rotations indicated by low frequency modes are not
      treated as such but are treated as vibrations and this may
      cause some error
  (4) All equations used are the standard statistical mechanics
      equations for an ideal gas
  (5) All vibrations are strictly harmonic

freq.      41.27  E(vib)   ...       0.54
freq.      60.86  E(vib)   ...       0.51
freq.      94.62  E(vib)   ...       0.47
freq.     105.06  E(vib)   ...       0.45
freq.     115.87  E(vib)   ...       0.44
freq.     133.55  E(vib)   ...       0.42
freq.     143.36  E(vib)   ...       0.41
freq.     218.48  E(vib)   ...       0.33
freq.     232.31  E(vib)   ...       0.32
freq.     270.85  E(vib)   ...       0.29
freq.     287.67  E(vib)   ...       0.27
freq.     334.97  E(vib)   ...       0.24
freq.     458.56  E(vib)   ...       0.16
freq.     468.86  E(vib)   ...       0.16
freq.     639.09  E(vib)   ...       0.09
freq.     654.48  E(vib)   ...       0.08
freq.     697.95  E(vib)   ...       0.07
freq.     776.74  E(vib)   ...       0.05
freq.     797.35  E(vib)   ...       0.05
freq.     825.68  E(vib)   ...       0.04
freq.     897.49  E(vib)   ...       0.03
freq.     916.96  E(vib)   ...       0.03
freq.    1066.31  E(vib)   ...       0.02
freq.    1089.28  E(vib)   ...       0.02
freq.    1134.23  E(vib)   ...       0.01
freq.    1138.74  E(vib)   ...       0.01
freq.    1178.29  E(vib)   ...       0.01
freq.    1182.48  E(vib)   ...       0.01
freq.    1184.84  E(vib)   ...       0.01
freq.    1287.49  E(vib)   ...       0.01
freq.    1312.04  E(vib)   ...       0.01
freq.    1423.80  E(vib)   ...       0.00
freq.    1435.41  E(vib)   ...       0.00
freq.    1452.21  E(vib)   ...       0.00
freq.    1471.32  E(vib)   ...       0.00
freq.    1500.56  E(vib)   ...       0.00
freq.    1502.29  E(vib)   ...       0.00
freq.    1517.04  E(vib)   ...       0.00
freq.    1535.89  E(vib)   ...       0.00
freq.    1540.60  E(vib)   ...       0.00
freq.    1556.63  E(vib)   ...       0.00
freq.    1561.39  E(vib)   ...       0.00
freq.    1565.31  E(vib)   ...       0.00
freq.    1611.55  E(vib)   ...       0.00
freq.    1678.50  E(vib)   ...       0.00
freq.    2501.23  E(vib)   ...       0.00
freq.    3096.51  E(vib)   ...       0.00
freq.    3129.97  E(vib)   ...       0.00
freq.    3134.07  E(vib)   ...       0.00
freq.    3221.89  E(vib)   ...       0.00
freq.    3223.56  E(vib)   ...       0.00
freq.    3235.30  E(vib)   ...       0.00
freq.    3235.98  E(vib)   ...       0.00
freq.    3259.14  E(vib)   ...       0.00
freq.    3354.67  E(vib)   ...       0.00
freq.    3373.64  E(vib)   ...       0.00

------------
INNER ENERGY
------------

The inner energy is: U= E(el) + E(ZPE) + E(vib) + E(rot) + E(trans)
    E(el)   - is the total energy from the electronic structure calculation
              = E(kin-el) + E(nuc-el) + E(el-el) + E(nuc-nuc)
    E(ZPE)  - the the zero temperature vibrational energy from the frequency calculation
    E(vib)  - the the finite temperature correction to E(ZPE) due to population
              of excited vibrational states
    E(rot)  - is the rotational thermal energy
    E(trans)- is the translational thermal energy

Summary of contributions to the inner energy U:
Electronic energy                ...  -1104.43366220 Eh
Zero point energy                ...      0.17283138 Eh     108.45 kcal/mol
Thermal vibrational correction   ...      0.00895383 Eh       5.62 kcal/mol
Thermal rotational correction    ...      0.00141627 Eh       0.89 kcal/mol
Thermal translational correction ...      0.00141627 Eh       0.89 kcal/mol
-----------------------------------------------------------------------
Total thermal energy                  -1104.24904445 Eh

Summary of corrections to the electronic energy:
(perhaps to be used in another calculation)
Total thermal correction                  0.01178637 Eh       7.40 kcal/mol
Non-thermal (ZPE) correction              0.17283138 Eh     108.45 kcal/mol
-----------------------------------------------------------------------
Total correction                          0.18461776 Eh     115.85 kcal/mol

--------
ENTHALPY
--------

The enthalpy is H = U + kB*T
                kB is Boltzmann's constant
Total free energy                 ...  -1104.24904445 Eh
Thermal Enthalpy correction       ...      0.00094421 Eh       0.59 kcal/mol
-----------------------------------------------------------------------
Total Enthalpy                    ...  -1104.24810024 Eh

Note: Only C1 symmetry has been detected, increase convergence thresholds
      if your molecule has a higher symmetry. Symmetry factor of 1.0 is
      used for the rotational entropy correction.

Note: Rotational entropy computed according to Herzberg
Infrared and Raman Spectra, Chapter V,1, Van Nostrand Reinhold, 1945
Point Group:  C1, Symmetry Number:   1
Rotational constants in cm-1:     0.063438     0.026617     0.019783

Vibrational entropy computed according to the QRRHO of S. Grimme
Chem.Eur.J. 2012 18 9955

-------
ENTROPY
-------

The entropy contributions are T*S = T*(S(el)+S(vib)+S(rot)+S(trans))
     S(el)   - electronic entropy
     S(vib)  - vibrational entropy
     S(rot)  - rotational entropy
     S(trans)- translational entropy
The entropies will be listed as multiplied by the temperature to get
units of energy

Electronic entropy                ...      0.00000000 Eh      0.00 kcal/mol
Vibrational entropy               ...      0.01630717 Eh     10.23 kcal/mol
Rotational entropy                ...      0.01437656 Eh      9.02 kcal/mol
Translational entropy             ...      0.01951131 Eh     12.24 kcal/mol
-----------------------------------------------------------------------
Final entropy term                ...      0.05019504 Eh     31.50 kcal/mol

In case the symmetry of your molecule has not been determined correctly
or in case you have a reason to use a different symmetry number we print
out the resulting rotational entropy values for sn=1,12 :
 --------------------------------------------------------
|  sn= 1 | S(rot)=       0.01437656 Eh      9.02 kcal/mol|
|  sn= 2 | S(rot)=       0.01372210 Eh      8.61 kcal/mol|
|  sn= 3 | S(rot)=       0.01333927 Eh      8.37 kcal/mol|
|  sn= 4 | S(rot)=       0.01306765 Eh      8.20 kcal/mol|
|  sn= 5 | S(rot)=       0.01285696 Eh      8.07 kcal/mol|
|  sn= 6 | S(rot)=       0.01268482 Eh      7.96 kcal/mol|
|  sn= 7 | S(rot)=       0.01253927 Eh      7.87 kcal/mol|

|  1>
|  2>
|  3>   ! PBEh-3c IRC pal8
|  4>   %irc
|  5>     maxiter 600
|  6>     inithess read
|  7>     hess_filename "reaction-5-cineb5_optts_Compound_1.hess"
|  8>   end
|  9>
| 10>
| 11>                          ****END OF INPUT****

CARTESIAN COORDINATES (ANGSTROEM)
---------------------------------
  Sc     0.771381    0.165950   -1.870972
  C      0.253141   -0.116924    0.388942
  N     -0.424270   -1.147136    0.929641
  C     -0.529267   -1.013938    2.287929
  C      0.100259    0.136305    2.611881
  N      0.567826    0.666176    1.439090
  C      1.318741    1.903769    1.366323
  H      0.854753    2.658635    1.996847
  H      1.316878    2.277091    0.343943
  H      2.347594    1.755493    1.689101
  C     -0.979474   -2.270171    0.195570
  H     -0.968399   -2.053989   -0.871447
  H     -2.009730   -2.439352    0.500437
  H     -0.399727   -3.172418    0.379961
  H     -1.038355   -1.730640    2.909452
  H      0.243194    0.609048    3.568542
  C     -0.240893    0.835314   -3.531903
  H     -1.227297    0.965204   -3.968436
  H      0.475654    0.727726   -4.359740
  H     -0.001628    1.829865   -2.999336
  H     -0.428163   -0.581720   -3.006955

 Multiplicity           Mult            ....    1
 Number of Electrons    NEL             ....   82
 Basis Dimension        Dim             ....  175

ORBITAL ENERGIES
----------------

  NO   OCC          E(Eh)            E(eV)
   0   2.0000    -162.826825     -4430.7432
   1   2.0000     -18.135940      -493.5040
   2   2.0000     -14.978192      -407.5773
   3   2.0000     -14.970666      -407.3725
   4   2.0000     -14.965006      -407.2185
   5   2.0000     -14.858678      -404.3252
   6   2.0000     -14.857169      -404.2841
   7   2.0000     -10.637577      -289.4632
   8   2.0000     -10.623235      -289.0729
   9   2.0000     -10.622038      -289.0403
  10   2.0000     -10.622010      -289.0396
  11   2.0000     -10.612062      -288.7689
  12   2.0000     -10.584233      -288.0116
  13   2.0000      -2.362834       -64.2960
  14   2.0000      -1.521217       -41.3944
  15   2.0000      -1.505541       -40.9679
  16   2.0000      -1.503333       -40.9078
  17   2.0000      -1.306953       -35.5640
  18   2.0000      -1.184178       -32.2231
  19   2.0000      -1.021287       -27.7906
  20   2.0000      -0.977586       -26.6015
  21   2.0000      -0.922516       -25.1029
  22   2.0000      -0.913978       -24.8706
  23   2.0000      -0.838659       -22.8211
  24   2.0000      -0.800495       -21.7826
  25   2.0000      -0.747031       -20.3278
  26   2.0000      -0.699607       -19.0373
  27   2.0000      -0.671970       -18.2852
  28   2.0000      -0.654178       -17.8011
  29   2.0000      -0.652973       -17.7683
  30   2.0000      -0.646194       -17.5838
  31   2.0000      -0.617037       -16.7904
  32   2.0000      -0.606609       -16.5067
  33   2.0000      -0.601467       -16.3668
  34   2.0000      -0.593126       -16.1398
  35   2.0000      -0.587347       -15.9825
  36   2.0000      -0.552490       -15.0340
  37   2.0000      -0.503809       -13.7093
  38   2.0000      -0.481927       -13.1139
  39   2.0000      -0.432350       -11.7649
  40   2.0000      -0.335332        -9.1248
  41   0.0000      -0.167123        -4.5476
  42   0.0000      -0.158000        -4.2994
  43   0.0000      -0.146180        -3.9778
  44   0.0000      -0.126876        -3.4525
  45   0.0000      -0.119630        -3.2553

MULLIKEN ATOMIC CHARGES
-----------------------
   0 Sc:    0.584367
   1 C :    0.173198
   2 N :   -0.412247
   3 C :   -0.063644
   4 C :   -0.067292
   5 N :   -0.417236
   6 C :   -0.517961
   7 H :    0.279625
   8 H :    0.240701
   9 H :    0.273804
  10 C :   -0.528102
  11 H :    0.263623
  12 H :    0.274983
  13 H :    0.271446
  14 H :    0.300746
  15 H :    0.300107
  16 C :   -0.926894
  17 H :    0.320819
  18 H :    0.294124
  19 H :    0.221415
  20 H :    0.134418
Sum of atomic charges:    1.0000000

LOEWDIN ATOMIC CHARGES
----------------------
   0 Sc:    0.171981
   1 C :   -0.046350
   2 N :    0.001887
   3 C :   -0.081770
   4 C :   -0.083509
   5 N :   -0.003844
   6 C :   -0.236319
   7 H :    0.156462
   8 H :    0.143856
   9 H :    0.150269
  10 C :   -0.241804
  11 H :    0.155084
  12 H :    0.154055
  13 H :    0.149985
  14 H :    0.167760
  15 H :    0.167218
  16 C :   -0.409230
  17 H :    0.175968
  18 H :    0.186708
  19 H :    0.178634
  20 H :    0.142959

  Mayer bond orders larger than 0.100000
B(  0-Sc,  1-C ) :   0.6323 B(  0-Sc, 16-C ) :   0.8188 B(  0-Sc, 19-H ) :   0.1857
B(  0-Sc, 20-H ) :   0.6605 B(  1-C ,  2-N ) :   1.2315 B(  1-C ,  5-N ) :   1.2194
B(  2-N ,  3-C ) :   1.1481 B(  2-N , 10-C ) :   0.9115 B(  3-C ,  4-C ) :   1.6411
B(  3-C , 14-H ) :   0.8799 B(  4-C ,  5-N ) :   1.1443 B(  4-C , 15-H ) :   0.8799
B(  5-N ,  6-C ) :   0.9194 B(  6-C ,  7-H ) :   0.8985 B(  6-C ,  8-H ) :   0.9039
B(  6-C ,  9-H ) :   0.8940 B( 10-C , 11-H ) :   0.8823 B( 10-C , 12-H ) :   0.8990
B( 10-C , 13-H ) :   0.8960 B( 16-C , 17-H ) :   0.8865 B( 16-C , 18-H ) :   0.8519
B( 16-C , 19-H ) :   0.7456 B( 16-C , 20-H ) :   0.2961

Dispersion correction           -0.010723648
FINAL SINGLE POINT ENERGY     -1104.433662200564
Dispersion correction            ... done

DIPOLE MOMENT
-------------
                                X             Y             Z
Electronic contribution:      5.59583      -0.41297      -2.47721
Nuclear contribution   :     -4.80158       0.58899       2.39988
                        -----------------------------------------
Total Dipole Moment    :      0.79425       0.17602      -0.07733
                        -----------------------------------------
Magnitude (a.u.)       :      0.81719
Magnitude (Debye)      :      2.07712

Rotational constants in cm-1:     0.063438     0.026617     0.019783
Rotational constants in MHz :  1901.831542   797.963095   593.080444

                      ***********************HURRAY********************
                             ****ORCA TERMINATED NORMALLY****
TOTAL RUN TIME: 0 days 1 hours 34 minutes 31 seconds 135 msec
