                         Program Version 5.0.3 -  RELEASE  -
|  1> ! EnGrad PBEh-3c
|  2> %output
|  3> xyzfile=True
|  4> end
|  5> %scf
|  6> maxiter 250
|  7> end
|  8> %output
|  9> Print[P_Hirshfeld] = 1
| 10> end
| 11> % maxcore
| 12> 4000
| 13> *xyz 0 1
| 14> Lu   0.14470363  -0.11105107   0.11415780
| 15> C    0.46301453   0.68921085   2.55406027
| 16> C    1.51356746  -0.19925527   2.23628432
| 17> C    2.34662629   0.43561308   1.29013628
| 18> C    1.75628548   1.66825013   0.93975578
| 19> C    0.60215160   1.82490085   1.73986445
| 20> H    2.14142866   2.38720724   0.22910150
| 21> H    0.03987418   2.74310084   1.82982845
| 22> H   -0.22458249   0.57763053   3.37906625
| 23> H    1.69242838  -1.15889257   2.70393085
| 24> H    3.26032757   0.02820365   0.88179711
| 25> C    0.81808405  -0.09885056  -2.35206982
| 26> C   -0.42488197  -0.76674577  -2.31478494
| 27> C    1.10207010  -2.06630817  -1.24078931
| 28> C    1.77127969  -0.91965478  -1.71692877
| 29> H    1.01215159   0.84552564  -2.84043328
| 30> C   -0.25415918  -1.97215905  -1.62352814
| 31> H   -1.29074730  -0.49887844  -2.89942521
| 32> H    2.82188536  -0.70827236  -1.58283452
| 33> H    1.55966725  -2.89248471  -0.71284103
| 34> H   -0.99129224  -2.75662386  -1.54907421
| 35> C   -2.07851209  -1.55074374   1.20311062
| 36> H   -2.29205106  -1.27265978   2.23731529
| 37> H   -1.97402748  -2.65012824   1.21045163
| 38> H   -3.00664142  -1.46045815   0.62665527
| 39> C   -1.92171824   2.09879194  -0.96359384
| 40> H   -2.57462566   0.58942219   0.31970826
| 41> H   -1.03550678   2.62078409  -1.32809107
| 42> H   -2.54754930   2.88142975  -0.53124563
| 43> H   -2.42926059   1.69310595  -1.83958952
| 44> *
| 45>
| 46>                          ****END OF INPUT****

CARTESIAN COORDINATES (ANGSTROEM)
---------------------------------
  Lu     0.144704   -0.111051    0.114158
  C      0.463015    0.689211    2.554060
  C      1.513567   -0.199255    2.236284
  C      2.346626    0.435613    1.290136
  C      1.756285    1.668250    0.939756
  C      0.602152    1.824901    1.739864
  H      2.141429    2.387207    0.229102
  H      0.039874    2.743101    1.829828
  H     -0.224582    0.577631    3.379066
  H      1.692428   -1.158893    2.703931
  H      3.260328    0.028204    0.881797
  C      0.818084   -0.098851   -2.352070
  C     -0.424882   -0.766746   -2.314785
  C      1.102070   -2.066308   -1.240789
  C      1.771280   -0.919655   -1.716929
  H      1.012152    0.845526   -2.840433
  C     -0.254159   -1.972159   -1.623528
  H     -1.290747   -0.498878   -2.899425
  H      2.821885   -0.708272   -1.582835
  H      1.559667   -2.892485   -0.712841
  H     -0.991292   -2.756624   -1.549074
  C     -2.078512   -1.550744    1.203111
  H     -2.292051   -1.272660    2.237315
  H     -1.974027   -2.650128    1.210452
  H     -3.006641   -1.460458    0.626655
  C     -1.921718    2.098792   -0.963594
  H     -2.574626    0.589422    0.319708
  H     -1.035507    2.620784   -1.328091
  H     -2.547549    2.881430   -0.531246
  H     -2.429261    1.693106   -1.839590

 Total Charge           Charge          ....    0
 Multiplicity           Mult            ....    1
 Number of Electrons    NEL             ....  132
 Basis Dimension        Dim             ....  295

ORBITAL ENERGIES
----------------

  NO   OCC          E(Eh)            E(eV)
   0   2.0000     -19.255603      -523.9716
   1   2.0000     -12.627394      -343.6089
   2   2.0000     -12.625885      -343.5678
   3   2.0000     -12.625699      -343.5627
   4   2.0000     -10.467011      -284.8218
   5   2.0000     -10.452236      -284.4198
   6   2.0000     -10.449991      -284.3587
   7   2.0000     -10.449188      -284.3369
   8   2.0000     -10.447463      -284.2899
   9   2.0000     -10.446931      -284.2754
  10   2.0000     -10.446376      -284.2603
  11   2.0000     -10.446341      -284.2594
  12   2.0000     -10.444464      -284.2083
  13   2.0000     -10.443245      -284.1751
  14   2.0000     -10.442537      -284.1559
  15   2.0000     -10.382299      -282.5167
  16   2.0000      -5.896715      -160.4578
  17   2.0000      -5.896441      -160.4503
  18   2.0000      -5.896255      -160.4452
  19   2.0000      -5.895360      -160.4209
  20   2.0000      -5.895346      -160.4205
  21   2.0000      -2.438750       -66.3618
  22   2.0000      -1.279042       -34.8045
  23   2.0000      -1.273898       -34.6645
  24   2.0000      -1.266887       -34.4737
  25   2.0000      -0.984374       -26.7862
  26   2.0000      -0.973231       -26.4830
  27   2.0000      -0.798053       -21.7161
  28   2.0000      -0.797104       -21.6903
  29   2.0000      -0.794883       -21.6299
  30   2.0000      -0.793403       -21.5896
  31   2.0000      -0.762578       -20.7508
  32   2.0000      -0.698490       -19.0069
  33   2.0000      -0.618198       -16.8220
  34   2.0000      -0.614156       -16.7120
  35   2.0000      -0.612222       -16.6594
  36   2.0000      -0.610079       -16.6011
  37   2.0000      -0.599551       -16.3146
  38   2.0000      -0.593798       -16.1581
  39   2.0000      -0.563968       -15.3463
  40   2.0000      -0.563226       -15.3262
  41   2.0000      -0.562617       -15.3096
  42   2.0000      -0.562067       -15.2946
  43   2.0000      -0.561998       -15.2927
  44   2.0000      -0.561065       -15.2673
  45   2.0000      -0.560075       -15.2404
  46   2.0000      -0.474947       -12.9240
  47   2.0000      -0.460423       -12.5287
  48   2.0000      -0.457290       -12.4435
  49   2.0000      -0.455614       -12.3979
  50   2.0000      -0.453072       -12.3287
  51   2.0000      -0.451832       -12.2950
  52   2.0000      -0.449148       -12.2219
  53   2.0000      -0.436097       -11.8668
  54   2.0000      -0.434970       -11.8361
  55   2.0000      -0.433864       -11.8060
  56   2.0000      -0.431903       -11.7527
  57   2.0000      -0.428621       -11.6634
  58   2.0000      -0.396971       -10.8021
  59   2.0000      -0.390344       -10.6218
  60   2.0000      -0.325680        -8.8622
  61   2.0000      -0.291002        -7.9186
  62   2.0000      -0.290352        -7.9009
  63   2.0000      -0.280698        -7.6382
  64   2.0000      -0.274439        -7.4679
  65   2.0000      -0.230036        -6.2596
  66   0.0000      -0.071003        -1.9321
  67   0.0000      -0.007147        -0.1945
  68   0.0000       0.016332         0.4444
  69   0.0000       0.045239         1.2310
  70   0.0000       0.053453         1.4545

MULLIKEN ATOMIC CHARGES
-----------------------
   0 Lu:    0.747834
   1 C :   -0.233781
   2 C :   -0.331889
   3 C :   -0.242663
   4 C :   -0.312186
   5 C :   -0.287981
   6 H :    0.243543
   7 H :    0.235645
   8 H :    0.238074
   9 H :    0.248836
  10 H :    0.238751
  11 C :   -0.316889
  12 C :   -0.275755
  13 C :   -0.309833
  14 C :   -0.251115
  15 H :    0.239160
  16 C :   -0.243400
  17 H :    0.229176
  18 H :    0.236583
  19 H :    0.243237
  20 H :    0.237808
  21 C :   -0.977349
  22 H :    0.205480
  23 H :    0.208997
  24 H :    0.188423
  25 C :   -0.872704
  26 H :    0.182675
  27 H :    0.241037
  28 H :    0.244249
  29 H :    0.246037
Sum of atomic charges:   -0.0000000

LOEWDIN ATOMIC CHARGES
----------------------
   0 Lu:   -0.143463
   1 C :   -0.113674
   2 C :   -0.142646
   3 C :   -0.122115
   4 C :   -0.147913
   5 C :   -0.132217
   6 H :    0.157137
   7 H :    0.156805
   8 H :    0.159981
   9 H :    0.160534
  10 H :    0.154723
  11 C :   -0.150753
  12 C :   -0.131787
  13 C :   -0.145524
  14 C :   -0.124922
  15 H :    0.154236
  16 C :   -0.111555
  17 H :    0.155031
  18 H :    0.153531
  19 H :    0.156970
  20 H :    0.160060
  21 C :   -0.629244
  22 H :    0.116593
  23 H :    0.128497
  24 H :    0.111438
  25 C :   -0.495019
  26 H :    0.242264
  27 H :    0.151455
  28 H :    0.135704
  29 H :    0.135873

  Mayer bond orders larger than 0.100000
B(  0-Lu,  1-C ) :   0.2416 B(  0-Lu,  2-C ) :   0.2867 B(  0-Lu,  3-C ) :   0.2773
B(  0-Lu,  4-C ) :   0.2919 B(  0-Lu,  5-C ) :   0.2678 B(  0-Lu, 11-C ) :   0.2880
B(  0-Lu, 12-C ) :   0.2609 B(  0-Lu, 13-C ) :   0.2848 B(  0-Lu, 14-C ) :   0.2757
B(  0-Lu, 16-C ) :   0.2416 B(  0-Lu, 21-C ) :   0.6037 B(  0-Lu, 25-C ) :   0.2473
B(  0-Lu, 26-H ) :   0.1960 B(  1-C ,  2-C ) :   1.2786 B(  1-C ,  5-C ) :   1.3047
B(  1-C ,  8-H ) :   0.9264 B(  2-C ,  3-C ) :   1.2790 B(  2-C ,  9-H ) :   0.9128
B(  3-C ,  4-C ) :   1.2764 B(  3-C , 10-H ) :   0.9137 B(  4-C ,  5-C ) :   1.2633
B(  4-C ,  6-H ) :   0.9121 B(  5-C ,  7-H ) :   0.9256 B( 11-C , 12-C ) :   1.2618
B( 11-C , 14-C ) :   1.2869 B( 11-C , 15-H ) :   0.9144 B( 12-C , 16-C ) :   1.3108
B( 12-C , 17-H ) :   0.9289 B( 13-C , 14-C ) :   1.2759 B( 13-C , 16-C ) :   1.2818
B( 13-C , 19-H ) :   0.9131 B( 14-C , 18-H ) :   0.9139 B( 16-C , 20-H ) :   0.9257
B( 21-C , 22-H ) :   0.9197 B( 21-C , 23-H ) :   0.9136 B( 21-C , 24-H ) :   0.9206
B( 21-C , 25-C ) :   0.1057 B( 21-C , 26-H ) :   0.1309 B( 25-C , 26-H ) :   0.6154
B( 25-C , 27-H ) :   0.8979 B( 25-C , 28-H ) :   0.9117 B( 25-C , 29-H ) :   0.9044

Dispersion correction           -0.017912757
FINAL SINGLE POINT ENERGY     -1702.211057355565
Dispersion correction            ... done

DIPOLE MOMENT
-------------
                                X             Y             Z
Electronic contribution:      0.31117      -3.72941       5.56394
Nuclear contribution   :      0.13116       4.41595      -5.99167
                        -----------------------------------------
Total Dipole Moment    :      0.44233       0.68654      -0.42773
                        -----------------------------------------
Magnitude (a.u.)       :      0.92193
Magnitude (Debye)      :      2.34336

Rotational constants in cm-1:     0.028212     0.019596     0.017932
Rotational constants in MHz :   845.771057   587.464664   537.596288

                             ****ORCA TERMINATED NORMALLY****
TOTAL RUN TIME: 0 days 0 hours 9 minutes 15 seconds 676 msec
