                         Program Version 5.0.3 -  RELEASE  -
|  1> ! EnGrad PBEh-3c
|  2> %output
|  3> xyzfile=True
|  4> end
|  5> %scf
|  6> maxiter 250
|  7> end
|  8> %output
|  9> Print[P_Hirshfeld] = 1
| 10> end
| 11> % maxcore
| 12> 4000
| 13> *xyz 0 1
| 14> Lu   0.00115732  -0.00308815   0.05140224
| 15> C    0.43275287   0.82583940   2.49186434
| 16> C    1.41049254  -0.15149617   2.19776674
| 17> C    2.29682868   0.39515852   1.24507351
| 18> C    1.83639916   1.68321583   0.90599729
| 19> C    0.68567387   1.94702482   1.68272622
| 20> H    2.35693654   2.38733275   0.26938620
| 21> H    0.13505213   2.88184736   1.69680071
| 22> H   -0.35523449   0.73187466   3.22638313
| 23> H    1.51573893  -1.11457862   2.67714077
| 24> H    3.20197327  -0.07034162   0.88587866
| 25> C    0.92147709  -0.06975683  -2.41618147
| 26> C   -0.34427375  -0.69414746  -2.45760901
| 27> C    1.04473374  -1.99458823  -1.20277961
| 28> C    1.78421193  -0.88343781  -1.66175526
| 29> H    1.21894105   0.81789016  -2.96290766
| 30> C   -0.26763572  -1.87998723  -1.71216994
| 31> H   -1.20981860  -0.33232656  -3.00069251
| 32> H    2.84436826  -0.73158287  -1.52791077
| 33> H    1.44030413  -2.82385884  -0.63350093
| 34> H   -1.07038011  -2.58789135  -1.55332382
| 35> C   -2.27636260  -1.40326629   1.17953936
| 36> H   -2.20889162  -1.32584482   2.27549529
| 37> H   -1.85249014  -2.40271073   0.96422722
| 38> H   -3.36238343  -1.48637247   0.95367480
| 39> C   -1.95337615   1.65847254  -0.70152467
| 40> H   -2.03918528   0.44801402   0.07690692
| 41> H   -1.10474878   2.26477533  -1.11321972
| 42> H   -2.52597588   2.44156277  -0.18423403
| 43> H   -2.54206441   1.48254487  -1.61349039
| 44> *
| 45>
| 46>                          ****END OF INPUT****

CARTESIAN COORDINATES (ANGSTROEM)
---------------------------------
  Lu     0.001157   -0.003088    0.051402
  C      0.432753    0.825839    2.491864
  C      1.410493   -0.151496    2.197767
  C      2.296829    0.395159    1.245074
  C      1.836399    1.683216    0.905997
  C      0.685674    1.947025    1.682726
  H      2.356937    2.387333    0.269386
  H      0.135052    2.881847    1.696801
  H     -0.355234    0.731875    3.226383
  H      1.515739   -1.114579    2.677141
  H      3.201973   -0.070342    0.885879
  C      0.921477   -0.069757   -2.416181
  C     -0.344274   -0.694147   -2.457609
  C      1.044734   -1.994588   -1.202780
  C      1.784212   -0.883438   -1.661755
  H      1.218941    0.817890   -2.962908
  C     -0.267636   -1.879987   -1.712170
  H     -1.209819   -0.332327   -3.000693
  H      2.844368   -0.731583   -1.527911
  H      1.440304   -2.823859   -0.633501
  H     -1.070380   -2.587891   -1.553324
  C     -2.276363   -1.403266    1.179539
  H     -2.208892   -1.325845    2.275495
  H     -1.852490   -2.402711    0.964227
  H     -3.362383   -1.486372    0.953675
  C     -1.953376    1.658473   -0.701525
  H     -2.039185    0.448014    0.076907
  H     -1.104749    2.264775   -1.113220
  H     -2.525976    2.441563   -0.184234
  H     -2.542064    1.482545   -1.613490

 Total Charge           Charge          ....    0
 Multiplicity           Mult            ....    1
 Number of Electrons    NEL             ....  132
 Basis Dimension        Dim             ....  295

ORBITAL ENERGIES
----------------

  NO   OCC          E(Eh)            E(eV)
   0   2.0000     -19.262488      -524.1589
   1   2.0000     -12.633941      -343.7870
   2   2.0000     -12.632912      -343.7590
   3   2.0000     -12.632776      -343.7553
   4   2.0000     -10.459559      -284.6191
   5   2.0000     -10.449973      -284.3582
   6   2.0000     -10.449210      -284.3375
   7   2.0000     -10.449093      -284.3343
   8   2.0000     -10.448480      -284.3176
   9   2.0000     -10.447468      -284.2900
  10   2.0000     -10.446642      -284.2676
  11   2.0000     -10.446336      -284.2593
  12   2.0000     -10.446041      -284.2512
  13   2.0000     -10.445102      -284.2257
  14   2.0000     -10.444062      -284.1974
  15   2.0000     -10.387253      -282.6515
  16   2.0000      -5.903320      -160.6375
  17   2.0000      -5.903222      -160.6348
  18   2.0000      -5.903054      -160.6303
  19   2.0000      -5.902471      -160.6144
  20   2.0000      -5.902435      -160.6134
  21   2.0000      -2.445461       -66.5444
  22   2.0000      -1.282545       -34.8998
  23   2.0000      -1.281464       -34.8704
  24   2.0000      -1.274972       -34.6937
  25   2.0000      -0.982476       -26.7345
  26   2.0000      -0.973939       -26.5022
  27   2.0000      -0.797798       -21.7092
  28   2.0000      -0.794793       -21.6274
  29   2.0000      -0.793895       -21.6030
  30   2.0000      -0.792944       -21.5771
  31   2.0000      -0.783374       -21.3167
  32   2.0000      -0.697246       -18.9730
  33   2.0000      -0.616955       -16.7882
  34   2.0000      -0.614068       -16.7096
  35   2.0000      -0.611320       -16.6349
  36   2.0000      -0.610356       -16.6086
  37   2.0000      -0.598516       -16.2864
  38   2.0000      -0.593156       -16.1406
  39   2.0000      -0.570729       -15.5303
  40   2.0000      -0.569710       -15.5026
  41   2.0000      -0.569324       -15.4921
  42   2.0000      -0.569059       -15.4849
  43   2.0000      -0.568961       -15.4822
  44   2.0000      -0.568683       -15.4746
  45   2.0000      -0.567182       -15.4338
  46   2.0000      -0.475132       -12.9290
  47   2.0000      -0.470041       -12.7905
  48   2.0000      -0.459030       -12.4908
  49   2.0000      -0.456662       -12.4264
  50   2.0000      -0.453614       -12.3435
  51   2.0000      -0.452197       -12.3049
  52   2.0000      -0.448671       -12.2089
  53   2.0000      -0.436402       -11.8751
  54   2.0000      -0.434969       -11.8361
  55   2.0000      -0.433778       -11.8037
  56   2.0000      -0.432275       -11.7628
  57   2.0000      -0.431414       -11.7394
  58   2.0000      -0.430061       -11.7026
  59   2.0000      -0.390464       -10.6251
  60   2.0000      -0.386938       -10.5291
  61   2.0000      -0.295891        -8.0516
  62   2.0000      -0.286636        -7.7998
  63   2.0000      -0.282032        -7.6745
  64   2.0000      -0.267069        -7.2673
  65   2.0000      -0.235641        -6.4121
  66   0.0000      -0.019080        -0.5192
  67   0.0000       0.026371         0.7176
  68   0.0000       0.035458         0.9649
  69   0.0000       0.051719         1.4074
  70   0.0000       0.055866         1.5202

MULLIKEN ATOMIC CHARGES
-----------------------
   0 Lu:    0.660098
   1 C :   -0.247274
   2 C :   -0.329272
   3 C :   -0.245847
   4 C :   -0.302260
   5 C :   -0.285731
   6 H :    0.234334
   7 H :    0.237521
   8 H :    0.249134
   9 H :    0.246518
  10 H :    0.234481
  11 C :   -0.306743
  12 C :   -0.268623
  13 C :   -0.322877
  14 C :   -0.248697
  15 H :    0.234205
  16 C :   -0.248871
  17 H :    0.235499
  18 H :    0.231958
  19 H :    0.242521
  20 H :    0.253482
  21 C :   -0.958414
  22 H :    0.201658
  23 H :    0.193106
  24 H :    0.203098
  25 C :   -1.004541
  26 H :    0.307268
  27 H :    0.258376
  28 H :    0.273284
  29 H :    0.272608
Sum of atomic charges:   -0.0000000

LOEWDIN ATOMIC CHARGES
----------------------
   0 Lu:   -0.163718
   1 C :   -0.127533
   2 C :   -0.147594
   3 C :   -0.124214
   4 C :   -0.147422
   5 C :   -0.140347
   6 H :    0.153697
   7 H :    0.154442
   8 H :    0.161424
   9 H :    0.158813
  10 H :    0.152066
  11 C :   -0.149328
  12 C :   -0.135312
  13 C :   -0.149217
  14 C :   -0.123456
  15 H :    0.152558
  16 C :   -0.125570
  17 H :    0.154510
  18 H :    0.151273
  19 H :    0.157175
  20 H :    0.162764
  21 C :   -0.638976
  22 H :    0.116951
  23 H :    0.120228
  24 H :    0.120646
  25 C :   -0.510861
  26 H :    0.288624
  27 H :    0.177460
  28 H :    0.151262
  29 H :    0.149658

  Mayer bond orders larger than 0.100000
B(  0-Lu,  1-C ) :   0.2469 B(  0-Lu,  2-C ) :   0.2904 B(  0-Lu,  3-C ) :   0.2637
B(  0-Lu,  4-C ) :   0.2758 B(  0-Lu,  5-C ) :   0.2651 B(  0-Lu, 11-C ) :   0.2794
B(  0-Lu, 12-C ) :   0.2608 B(  0-Lu, 13-C ) :   0.2986 B(  0-Lu, 14-C ) :   0.2671
B(  0-Lu, 16-C ) :   0.2520 B(  0-Lu, 21-C ) :   0.6016 B(  0-Lu, 25-C ) :   0.3500
B(  0-Lu, 26-H ) :   0.2025 B(  1-C ,  2-C ) :   1.2773 B(  1-C ,  5-C ) :   1.3037
B(  1-C ,  8-H ) :   0.9135 B(  2-C ,  3-C ) :   1.2835 B(  2-C ,  9-H ) :   0.9139
B(  3-C ,  4-C ) :   1.2930 B(  3-C , 10-H ) :   0.9189 B(  4-C ,  5-C ) :   1.2701
B(  4-C ,  6-H ) :   0.9220 B(  5-C ,  7-H ) :   0.9179 B( 11-C , 12-C ) :   1.2660
B( 11-C , 14-C ) :   1.3003 B( 11-C , 15-H ) :   0.9202 B( 12-C , 16-C ) :   1.3126
B( 12-C , 17-H ) :   0.9172 B( 13-C , 14-C ) :   1.2753 B( 13-C , 16-C ) :   1.2712
B( 13-C , 19-H ) :   0.9156 B( 14-C , 18-H ) :   0.9212 B( 16-C , 20-H ) :   0.9095
B( 21-C , 22-H ) :   0.9187 B( 21-C , 23-H ) :   0.9120 B( 21-C , 24-H ) :   0.9261
B( 21-C , 26-H ) :   0.1678 B( 25-C , 26-H ) :   0.5309 B( 25-C , 27-H ) :   0.8539
B( 25-C , 28-H ) :   0.8945 B( 25-C , 29-H ) :   0.8903

Dispersion correction           -0.017842892
FINAL SINGLE POINT ENERGY     -1702.312911248284
Dispersion correction            ... done

DIPOLE MOMENT
-------------
                                X             Y             Z
Electronic contribution:     -6.62749       1.31084       2.61519
Nuclear contribution   :      7.12180      -0.56383      -3.08692
                        -----------------------------------------
Total Dipole Moment    :      0.49431       0.74701      -0.47173
                        -----------------------------------------
Magnitude (a.u.)       :      1.01237
Magnitude (Debye)      :      2.57325

Rotational constants in cm-1:     0.029200     0.020574     0.017620
Rotational constants in MHz :   875.397556   616.801361   528.240157

                             ****ORCA TERMINATED NORMALLY****
TOTAL RUN TIME: 0 days 0 hours 9 minutes 51 seconds 911 msec
