                         Program Version 5.0.3 -  RELEASE  -
|  1> ! EnGrad PBEh-3c
|  2> %output
|  3> xyzfile=True
|  4> end
|  5> %scf
|  6> maxiter 250
|  7> end
|  8> %output
|  9> Print[P_Hirshfeld] = 1
| 10> end
| 11> % maxcore
| 12> 4000
| 13> *xyz 0 1
| 14> Lu   0.04978347  -0.12009286   0.12424944
| 15> C    0.46983752   0.70657234   2.55272617
| 16> C    1.51682500  -0.18594169   2.24281110
| 17> C    2.33956010   0.42211529   1.27574615
| 18> C    1.77665414   1.66850485   0.94955880
| 19> C    0.61898497   1.85539123   1.74514402
| 20> H    2.16450022   2.38807645   0.23530847
| 21> H    0.04018845   2.75065226   1.80951478
| 22> H   -0.23985929   0.59072283   3.35919104
| 23> H    1.67229795  -1.15245247   2.69866125
| 24> H    3.25554075   0.01938057   0.88397941
| 25> C    0.84092152  -0.09572956  -2.36884893
| 26> C   -0.41106818  -0.76076885  -2.34691886
| 27> C    1.09816100  -2.05877303  -1.23418665
| 28> C    1.77037915  -0.91435767  -1.70241106
| 29> H    1.03254896   0.84473406  -2.85347755
| 30> C   -0.24897234  -1.97937497  -1.64526588
| 31> H   -1.28824894  -0.47642388  -2.89984093
| 32> H    2.82560527  -0.71095800  -1.58197450
| 33> H    1.54564225  -2.88539724  -0.70685594
| 34> H   -1.00009180  -2.73628223  -1.54096316
| 35> C   -2.09234541  -1.53991904   1.19192018
| 36> H   -2.28899152  -1.28332743   2.24401502
| 37> H   -1.94956619  -2.64631599   1.19471864
| 38> H   -3.04055197  -1.45837794   0.66809763
| 39> C   -2.00668782   2.05033965  -0.93577086
| 40> H   -2.45328972   0.60840239   0.26255751
| 41> H   -1.01205170   2.58456197  -1.29970587
| 42> H   -2.54821999   2.84127591  -0.49678819
| 43> H   -2.43766112   1.67494261  -1.81215692
| 44> *
| 45>
| 46>                          ****END OF INPUT****

CARTESIAN COORDINATES (ANGSTROEM)
---------------------------------
  Lu     0.049783   -0.120093    0.124249
  C      0.469838    0.706572    2.552726
  C      1.516825   -0.185942    2.242811
  C      2.339560    0.422115    1.275746
  C      1.776654    1.668505    0.949559
  C      0.618985    1.855391    1.745144
  H      2.164500    2.388076    0.235308
  H      0.040188    2.750652    1.809515
  H     -0.239859    0.590723    3.359191
  H      1.672298   -1.152452    2.698661
  H      3.255541    0.019381    0.883979
  C      0.840922   -0.095730   -2.368849
  C     -0.411068   -0.760769   -2.346919
  C      1.098161   -2.058773   -1.234187
  C      1.770379   -0.914358   -1.702411
  H      1.032549    0.844734   -2.853478
  C     -0.248972   -1.979375   -1.645266
  H     -1.288249   -0.476424   -2.899841
  H      2.825605   -0.710958   -1.581974
  H      1.545642   -2.885397   -0.706856
  H     -1.000092   -2.736282   -1.540963
  C     -2.092345   -1.539919    1.191920
  H     -2.288992   -1.283327    2.244015
  H     -1.949566   -2.646316    1.194719
  H     -3.040552   -1.458378    0.668098
  C     -2.006688    2.050340   -0.935771
  H     -2.453290    0.608402    0.262558
  H     -1.012052    2.584562   -1.299706
  H     -2.548220    2.841276   -0.496788
  H     -2.437661    1.674943   -1.812157

 Total Charge           Charge          ....    0
 Multiplicity           Mult            ....    1
 Number of Electrons    NEL             ....  132
 Basis Dimension        Dim             ....  295

ORBITAL ENERGIES
----------------

  NO   OCC          E(Eh)            E(eV)
   0   2.0000     -19.259381      -524.0744
   1   2.0000     -12.631286      -343.7148
   2   2.0000     -12.629651      -343.6703
   3   2.0000     -12.629483      -343.6657
   4   2.0000     -10.479104      -285.1509
   5   2.0000     -10.448732      -284.3245
   6   2.0000     -10.447986      -284.3041
   7   2.0000     -10.447267      -284.2846
   8   2.0000     -10.446608      -284.2666
   9   2.0000     -10.445146      -284.2269
  10   2.0000     -10.444118      -284.1989
  11   2.0000     -10.443680      -284.1870
  12   2.0000     -10.443314      -284.1770
  13   2.0000     -10.443192      -284.1737
  14   2.0000     -10.442034      -284.1422
  15   2.0000     -10.382300      -282.5168
  16   2.0000      -5.900617      -160.5640
  17   2.0000      -5.900341      -160.5564
  18   2.0000      -5.900126      -160.5506
  19   2.0000      -5.899171      -160.5246
  20   2.0000      -5.899136      -160.5236
  21   2.0000      -2.442215       -66.4560
  22   2.0000      -1.279674       -34.8217
  23   2.0000      -1.277126       -34.7524
  24   2.0000      -1.269211       -34.5370
  25   2.0000      -0.980174       -26.6719
  26   2.0000      -0.971178       -26.4271
  27   2.0000      -0.795645       -21.6506
  28   2.0000      -0.793642       -21.5961
  29   2.0000      -0.793099       -21.5813
  30   2.0000      -0.791108       -21.5271
  31   2.0000      -0.773266       -21.0416
  32   2.0000      -0.698903       -19.0181
  33   2.0000      -0.616020       -16.7627
  34   2.0000      -0.613031       -16.6814
  35   2.0000      -0.610904       -16.6235
  36   2.0000      -0.610034       -16.5999
  37   2.0000      -0.597586       -16.2611
  38   2.0000      -0.592460       -16.1217
  39   2.0000      -0.567797       -15.4505
  40   2.0000      -0.567053       -15.4303
  41   2.0000      -0.566602       -15.4180
  42   2.0000      -0.565998       -15.4016
  43   2.0000      -0.565743       -15.3946
  44   2.0000      -0.565011       -15.3747
  45   2.0000      -0.563651       -15.3377
  46   2.0000      -0.486619       -13.2416
  47   2.0000      -0.469610       -12.7787
  48   2.0000      -0.454505       -12.3677
  49   2.0000      -0.453455       -12.3392
  50   2.0000      -0.450676       -12.2635
  51   2.0000      -0.449400       -12.2288
  52   2.0000      -0.448219       -12.1966
  53   2.0000      -0.434994       -11.8368
  54   2.0000      -0.434230       -11.8160
  55   2.0000      -0.431864       -11.7516
  56   2.0000      -0.430172       -11.7056
  57   2.0000      -0.426994       -11.6191
  58   2.0000      -0.398548       -10.8451
  59   2.0000      -0.390899       -10.6369
  60   2.0000      -0.349296        -9.5048
  61   2.0000      -0.291013        -7.9189
  62   2.0000      -0.286099        -7.7851
  63   2.0000      -0.279669        -7.6102
  64   2.0000      -0.267625        -7.2824
  65   2.0000      -0.238368        -6.4863
  66   0.0000      -0.055239        -1.5031
  67   0.0000      -0.002641        -0.0719
  68   0.0000       0.019729         0.5368
  69   0.0000       0.045972         1.2510
  70   0.0000       0.056064         1.5256

MULLIKEN ATOMIC CHARGES
-----------------------
   0 Lu:    0.749724
   1 C :   -0.268849
   2 C :   -0.303394
   3 C :   -0.265922
   4 C :   -0.291580
   5 C :   -0.289763
   6 H :    0.237258
   7 H :    0.235897
   8 H :    0.239034
   9 H :    0.247462
  10 H :    0.234923
  11 C :   -0.297160
  12 C :   -0.299454
  13 C :   -0.312307
  14 C :   -0.252147
  15 H :    0.236889
  16 C :   -0.245149
  17 H :    0.229743
  18 H :    0.232813
  19 H :    0.242046
  20 H :    0.244256
  21 C :   -0.987508
  22 H :    0.205874
  23 H :    0.206622
  24 H :    0.198836
  25 C :   -0.865860
  26 H :    0.188779
  27 H :    0.219585
  28 H :    0.261190
  29 H :    0.268164
Sum of atomic charges:   -0.0000000

LOEWDIN ATOMIC CHARGES
----------------------
   0 Lu:   -0.117646
   1 C :   -0.127363
   2 C :   -0.144013
   3 C :   -0.129635
   4 C :   -0.146972
   5 C :   -0.141744
   6 H :    0.152843
   7 H :    0.154424
   8 H :    0.158817
   9 H :    0.158562
  10 H :    0.152644
  11 C :   -0.150062
  12 C :   -0.141467
  13 C :   -0.147287
  14 C :   -0.125397
  15 H :    0.152378
  16 C :   -0.118180
  17 H :    0.153083
  18 H :    0.151583
  19 H :    0.156303
  20 H :    0.160679
  21 C :   -0.631676
  22 H :    0.118701
  23 H :    0.128880
  24 H :    0.115109
  25 C :   -0.475291
  26 H :    0.247303
  27 H :    0.156945
  28 H :    0.139356
  29 H :    0.139123

  Mayer bond orders larger than 0.100000
B(  0-Lu,  1-C ) :   0.2470 B(  0-Lu,  2-C ) :   0.2781 B(  0-Lu,  3-C ) :   0.2641
B(  0-Lu,  4-C ) :   0.2725 B(  0-Lu,  5-C ) :   0.2666 B(  0-Lu, 11-C ) :   0.2756
B(  0-Lu, 12-C ) :   0.2687 B(  0-Lu, 13-C ) :   0.2826 B(  0-Lu, 14-C ) :   0.2623
B(  0-Lu, 16-C ) :   0.2450 B(  0-Lu, 21-C ) :   0.6457 B(  0-Lu, 25-C ) :   0.2444
B(  0-Lu, 26-H ) :   0.1944 B(  1-C ,  2-C ) :   1.2855 B(  1-C ,  5-C ) :   1.2984
B(  1-C ,  8-H ) :   0.9240 B(  2-C ,  3-C ) :   1.2853 B(  2-C ,  9-H ) :   0.9113
B(  3-C ,  4-C ) :   1.2935 B(  3-C , 10-H ) :   0.9186 B(  4-C ,  5-C ) :   1.2745
B(  4-C ,  6-H ) :   0.9143 B(  5-C ,  7-H ) :   0.9226 B( 11-C , 12-C ) :   1.2640
B( 11-C , 14-C ) :   1.3008 B( 11-C , 15-H ) :   0.9156 B( 12-C , 16-C ) :   1.3051
B( 12-C , 17-H ) :   0.9257 B( 13-C , 14-C ) :   1.2808 B( 13-C , 16-C ) :   1.2837
B( 13-C , 19-H ) :   0.9150 B( 14-C , 18-H ) :   0.9181 B( 16-C , 20-H ) :   0.9199
B( 21-C , 22-H ) :   0.9185 B( 21-C , 23-H ) :   0.9147 B( 21-C , 24-H ) :   0.9171
B( 21-C , 26-H ) :   0.1042 B( 25-C , 26-H ) :   0.6447 B( 25-C , 27-H ) :   0.9058
B( 25-C , 28-H ) :   0.9001 B( 25-C , 29-H ) :   0.8892

Dispersion correction           -0.017886483
FINAL SINGLE POINT ENERGY     -1702.238811602165
Dispersion correction            ... done

DIPOLE MOMENT
-------------
                                X             Y             Z
Electronic contribution:     -4.53435      -4.11458       6.00933
Nuclear contribution   :      4.81956       4.89870      -6.51294
                        -----------------------------------------
Total Dipole Moment    :      0.28521       0.78412      -0.50360
                        -----------------------------------------
Magnitude (a.u.)       :      0.97458
Magnitude (Debye)      :      2.47719

Rotational constants in cm-1:     0.027933     0.019578     0.017688
Rotational constants in MHz :   837.424921   586.931324   530.258360

                             ****ORCA TERMINATED NORMALLY****
TOTAL RUN TIME: 0 days 0 hours 9 minutes 25 seconds 79 msec
