                         Program Version 5.0.3 -  RELEASE  -
|  1> ! EnGrad PBEh-3c
|  2> %output
|  3> xyzfile=True
|  4> end
|  5> %scf
|  6> maxiter 250
|  7> end
|  8> %output
|  9> Print[P_Hirshfeld] = 1
| 10> end
| 11> % maxcore
| 12> 4000
| 13> *xyz 0 1
| 14> Lu  -0.03085021  -0.12391280   0.13230531
| 15> C    0.47254281   0.72970153   2.54971655
| 16> C    1.51316009  -0.17491964   2.24681648
| 17> C    2.33057035   0.41200178   1.26488972
| 18> C    1.79098411   1.67593292   0.95241169
| 19> C    0.64477726   1.86853299   1.74809341
| 20> H    2.19063622   2.38678127   0.24349269
| 21> H    0.03925008   2.76876904   1.78888473
| 22> H   -0.25496192   0.60642413   3.33836837
| 23> H    1.65031811  -1.14669547   2.69413767
| 24> H    3.25292096   0.00727758   0.88440234
| 25> C    0.85506122  -0.09911802  -2.38136706
| 26> C   -0.39140491  -0.76137283  -2.37217343
| 27> C    1.09043187  -2.05165497  -1.22874525
| 28> C    1.77421432  -0.90605148  -1.68979020
| 29> H    1.05781277   0.84677993  -2.86979636
| 30> C   -0.24281019  -1.96795333  -1.67148092
| 31> H   -1.28520946  -0.45197037  -2.90537287
| 32> H    2.82858145  -0.71467326  -1.57910850
| 33> H    1.53177373  -2.87903733  -0.69802381
| 34> H   -1.01278955  -2.71854078  -1.53422891
| 35> C   -2.10585329  -1.53129584   1.19008415
| 36> H   -2.28245261  -1.29686832   2.24776776
| 37> H   -1.92751652  -2.63634019   1.17602602
| 38> H   -3.08182390  -1.45757704   0.70940962
| 39> C   -2.01190271   2.00091638  -0.89493398
| 40> H   -2.33202046   0.63083140   0.19916692
| 41> H   -1.02950114   2.52646541  -1.25732600
| 42> H   -2.56746921   2.81499047  -0.44972469
| 43> H   -2.46658303   1.64454257  -1.80820296
| 44> *
| 45>
| 46>                          ****END OF INPUT****

CARTESIAN COORDINATES (ANGSTROEM)
---------------------------------
  Lu    -0.030850   -0.123913    0.132305
  C      0.472543    0.729702    2.549717
  C      1.513160   -0.174920    2.246816
  C      2.330570    0.412002    1.264890
  C      1.790984    1.675933    0.952412
  C      0.644777    1.868533    1.748093
  H      2.190636    2.386781    0.243493
  H      0.039250    2.768769    1.788885
  H     -0.254962    0.606424    3.338368
  H      1.650318   -1.146695    2.694138
  H      3.252921    0.007278    0.884402
  C      0.855061   -0.099118   -2.381367
  C     -0.391405   -0.761373   -2.372173
  C      1.090432   -2.051655   -1.228745
  C      1.774214   -0.906051   -1.689790
  H      1.057813    0.846780   -2.869796
  C     -0.242810   -1.967953   -1.671481
  H     -1.285209   -0.451970   -2.905373
  H      2.828581   -0.714673   -1.579109
  H      1.531774   -2.879037   -0.698024
  H     -1.012790   -2.718541   -1.534229
  C     -2.105853   -1.531296    1.190084
  H     -2.282453   -1.296868    2.247768
  H     -1.927517   -2.636340    1.176026
  H     -3.081824   -1.457577    0.709410
  C     -2.011903    2.000916   -0.894934
  H     -2.332020    0.630831    0.199167
  H     -1.029501    2.526465   -1.257326
  H     -2.567469    2.814990   -0.449725
  H     -2.466583    1.644543   -1.808203

 Total Charge           Charge          ....    0
 Multiplicity           Mult            ....    1
 Number of Electrons    NEL             ....  132
 Basis Dimension        Dim             ....  295

ORBITAL ENERGIES
----------------

  NO   OCC          E(Eh)            E(eV)
   0   2.0000     -19.262969      -524.1720
   1   2.0000     -12.634900      -343.8131
   2   2.0000     -12.633251      -343.7682
   3   2.0000     -12.633086      -343.7637
   4   2.0000     -10.490972      -285.4739
   5   2.0000     -10.446651      -284.2678
   6   2.0000     -10.445705      -284.2421
   7   2.0000     -10.444953      -284.2216
   8   2.0000     -10.444302      -284.2039
   9   2.0000     -10.443697      -284.1874
  10   2.0000     -10.442456      -284.1537
  11   2.0000     -10.441695      -284.1330
  12   2.0000     -10.441614      -284.1308
  13   2.0000     -10.440304      -284.0951
  14   2.0000     -10.439419      -284.0710
  15   2.0000     -10.383251      -282.5426
  16   2.0000      -5.904254      -160.6629
  17   2.0000      -5.903986      -160.6556
  18   2.0000      -5.903743      -160.6490
  19   2.0000      -5.902805      -160.6235
  20   2.0000      -5.902746      -160.6219
  21   2.0000      -2.445628       -66.5489
  22   2.0000      -1.281273       -34.8652
  23   2.0000      -1.280476       -34.8435
  24   2.0000      -1.271967       -34.6120
  25   2.0000      -0.979216       -26.6458
  26   2.0000      -0.971622       -26.4392
  27   2.0000      -0.793758       -21.5992
  28   2.0000      -0.791712       -21.5436
  29   2.0000      -0.791035       -21.5252
  30   2.0000      -0.788672       -21.4609
  31   2.0000      -0.777944       -21.1689
  32   2.0000      -0.700604       -19.0644
  33   2.0000      -0.614094       -16.7104
  34   2.0000      -0.609794       -16.5933
  35   2.0000      -0.608173       -16.5492
  36   2.0000      -0.607110       -16.5203
  37   2.0000      -0.595255       -16.1977
  38   2.0000      -0.590344       -16.0641
  39   2.0000      -0.571339       -15.5469
  40   2.0000      -0.570624       -15.5275
  41   2.0000      -0.570297       -15.5186
  42   2.0000      -0.569638       -15.5006
  43   2.0000      -0.569264       -15.4905
  44   2.0000      -0.568710       -15.4754
  45   2.0000      -0.567155       -15.4331
  46   2.0000      -0.484530       -13.1847
  47   2.0000      -0.467377       -12.7180
  48   2.0000      -0.458472       -12.4757
  49   2.0000      -0.452500       -12.3131
  50   2.0000      -0.449843       -12.2409
  51   2.0000      -0.448247       -12.1974
  52   2.0000      -0.446989       -12.1632
  53   2.0000      -0.433283       -11.7902
  54   2.0000      -0.431477       -11.7411
  55   2.0000      -0.429689       -11.6924
  56   2.0000      -0.429317       -11.6823
  57   2.0000      -0.426882       -11.6161
  58   2.0000      -0.406707       -11.0671
  59   2.0000      -0.392190       -10.6720
  60   2.0000      -0.370250       -10.0750
  61   2.0000      -0.291634        -7.9358
  62   2.0000      -0.282140        -7.6774
  63   2.0000      -0.277989        -7.5645
  64   2.0000      -0.262459        -7.1419
  65   2.0000      -0.246343        -6.7033
  66   0.0000      -0.044773        -1.2183
  67   0.0000       0.001320         0.0359
  68   0.0000       0.025999         0.7075
  69   0.0000       0.047240         1.2855
  70   0.0000       0.056966         1.5501

MULLIKEN ATOMIC CHARGES
-----------------------
   0 Lu:    0.747907
   1 C :   -0.291627
   2 C :   -0.287566
   3 C :   -0.283408
   4 C :   -0.277282
   5 C :   -0.289263
   6 H :    0.233180
   7 H :    0.234430
   8 H :    0.240755
   9 H :    0.245704
  10 H :    0.230336
  11 C :   -0.288911
  12 C :   -0.305486
  13 C :   -0.318843
  14 C :   -0.251969
  15 H :    0.233286
  16 C :   -0.248164
  17 H :    0.230181
  18 H :    0.229400
  19 H :    0.240394
  20 H :    0.248587
  21 C :   -0.992096
  22 H :    0.209949
  23 H :    0.206733
  24 H :    0.203363
  25 C :   -0.875824
  26 H :    0.207848
  27 H :    0.236418
  28 H :    0.263712
  29 H :    0.268254
Sum of atomic charges:    0.0000000

LOEWDIN ATOMIC CHARGES
----------------------
   0 Lu:   -0.099239
   1 C :   -0.140833
   2 C :   -0.145423
   3 C :   -0.133909
   4 C :   -0.149868
   5 C :   -0.146835
   6 H :    0.150336
   7 H :    0.152779
   8 H :    0.158515
   9 H :    0.156791
  10 H :    0.150500
  11 C :   -0.151145
  12 C :   -0.148824
  13 C :   -0.149985
  14 C :   -0.126187
  15 H :    0.150645
  16 C :   -0.126172
  17 H :    0.152464
  18 H :    0.149837
  19 H :    0.155535
  20 H :    0.161836
  21 C :   -0.630700
  22 H :    0.121410
  23 H :    0.130015
  24 H :    0.118334
  25 C :   -0.469140
  26 H :    0.255901
  27 H :    0.164206
  28 H :    0.144856
  29 H :    0.144299

  Mayer bond orders larger than 0.100000
B(  0-Lu,  1-C ) :   0.2498 B(  0-Lu,  2-C ) :   0.2728 B(  0-Lu,  3-C ) :   0.2524
B(  0-Lu,  4-C ) :   0.2564 B(  0-Lu,  5-C ) :   0.2618 B(  0-Lu, 11-C ) :   0.2657
B(  0-Lu, 12-C ) :   0.2691 B(  0-Lu, 13-C ) :   0.2824 B(  0-Lu, 14-C ) :   0.2496
B(  0-Lu, 16-C ) :   0.2458 B(  0-Lu, 21-C ) :   0.6812 B(  0-Lu, 25-C ) :   0.2518
B(  0-Lu, 26-H ) :   0.1967 B(  1-C ,  2-C ) :   1.2842 B(  1-C ,  5-C ) :   1.2975
B(  1-C ,  8-H ) :   0.9210 B(  2-C ,  3-C ) :   1.2961 B(  2-C ,  9-H ) :   0.9104
B(  3-C ,  4-C ) :   1.3024 B(  3-C , 10-H ) :   0.9220 B(  4-C ,  5-C ) :   1.2846
B(  4-C ,  6-H ) :   0.9164 B(  5-C ,  7-H ) :   0.9186 B( 11-C , 12-C ) :   1.2652
B( 11-C , 14-C ) :   1.3141 B( 11-C , 15-H ) :   0.9164 B( 12-C , 16-C ) :   1.3049
B( 12-C , 17-H ) :   0.9214 B( 13-C , 14-C ) :   1.2856 B( 13-C , 16-C ) :   1.2832
B( 13-C , 19-H ) :   0.9163 B( 14-C , 18-H ) :   0.9214 B( 16-C , 20-H ) :   0.9139
B( 21-C , 22-H ) :   0.9155 B( 21-C , 23-H ) :   0.9139 B( 21-C , 24-H ) :   0.9167
B( 25-C , 26-H ) :   0.6521 B( 25-C , 27-H ) :   0.8940 B( 25-C , 28-H ) :   0.8978
B( 25-C , 29-H ) :   0.8884

Dispersion correction           -0.017729183
FINAL SINGLE POINT ENERGY     -1702.267165084574
Dispersion correction            ... done

DIPOLE MOMENT
-------------
                                X             Y             Z
Electronic contribution:     -8.76450      -4.26767       6.36969
Nuclear contribution   :      8.88719       5.12368      -6.91287
                        -----------------------------------------
Total Dipole Moment    :      0.12268       0.85601      -0.54318
                        -----------------------------------------
Magnitude (a.u.)       :      1.02120
Magnitude (Debye)      :      2.59569

Rotational constants in cm-1:     0.027860     0.019602     0.017536
Rotational constants in MHz :   835.233615   587.652369   525.727277

                             ****ORCA TERMINATED NORMALLY****
TOTAL RUN TIME: 0 days 0 hours 9 minutes 32 seconds 412 msec
