                         Program Version 5.0.3 -  RELEASE  -
|  1> ! EnGrad PBEh-3c
|  2> %output
|  3> xyzfile=True
|  4> end
|  5> %scf
|  6> maxiter 250
|  7> end
|  8> %output
|  9> Print[P_Hirshfeld] = 1
| 10> end
| 11> % maxcore
| 12> 4000
| 13> *xyz 0 1
| 14> Lu  -0.03399251  -0.11919569   0.13072015
| 15> C    0.46991327   0.73570428   2.54851685
| 16> C    1.50674932  -0.17386595   2.24478191
| 17> C    2.32832043   0.41288751   1.26515986
| 18> C    1.79215169   1.67878774   0.94766980
| 19> C    0.65059068   1.86987817   1.74639380
| 20> H    2.20014116   2.38627991   0.24604030
| 21> H    0.04264480   2.77641902   1.78342340
| 22> H   -0.25851917   0.61349099   3.33256794
| 23> H    1.64296093  -1.14586296   2.69361259
| 24> H    3.25273576   0.00203533   0.88380745
| 25> C    0.85622148  -0.09935866  -2.38269213
| 26> C   -0.38847123  -0.76098443  -2.37743718
| 27> C    1.08827761  -2.04841667  -1.22859109
| 28> C    1.77627255  -0.90438635  -1.68846101
| 29> H    1.06716649   0.84628200  -2.87523932
| 30> C   -0.24501833  -1.96009142  -1.67653424
| 31> H   -1.28067693  -0.44559337  -2.91007514
| 32> H    2.83018666  -0.71612045  -1.57657902
| 33> H    1.52770120  -2.87772841  -0.69360360
| 34> H   -1.01570804  -2.71221303  -1.53523641
| 35> C   -2.11111941  -1.53136847   1.19486684
| 36> H   -2.27805150  -1.30232394   2.24899758
| 37> H   -1.92544250  -2.62894979   1.16877599
| 38> H   -3.09811159  -1.45915248   0.72046273
| 39> C   -1.97589818   1.98673066  -0.88151073
| 40> H   -2.30693831   0.63457547   0.18281169
| 41> H   -1.05577514   2.50234107  -1.24125907
| 42> H   -2.57734721   2.80850997  -0.43316713
| 43> H   -2.48084563   1.63351137  -1.81061106
| 44> *
| 45>
| 46>                          ****END OF INPUT****

CARTESIAN COORDINATES (ANGSTROEM)
---------------------------------
  Lu    -0.033993   -0.119196    0.130720
  C      0.469913    0.735704    2.548517
  C      1.506749   -0.173866    2.244782
  C      2.328320    0.412888    1.265160
  C      1.792152    1.678788    0.947670
  C      0.650591    1.869878    1.746394
  H      2.200141    2.386280    0.246040
  H      0.042645    2.776419    1.783423
  H     -0.258519    0.613491    3.332568
  H      1.642961   -1.145863    2.693613
  H      3.252736    0.002035    0.883807
  C      0.856221   -0.099359   -2.382692
  C     -0.388471   -0.760984   -2.377437
  C      1.088278   -2.048417   -1.228591
  C      1.776273   -0.904386   -1.688461
  H      1.067166    0.846282   -2.875239
  C     -0.245018   -1.960091   -1.676534
  H     -1.280677   -0.445593   -2.910075
  H      2.830187   -0.716120   -1.576579
  H      1.527701   -2.877728   -0.693604
  H     -1.015708   -2.712213   -1.535236
  C     -2.111119   -1.531368    1.194867
  H     -2.278052   -1.302324    2.248998
  H     -1.925442   -2.628950    1.168776
  H     -3.098112   -1.459152    0.720463
  C     -1.975898    1.986731   -0.881511
  H     -2.306938    0.634575    0.182812
  H     -1.055775    2.502341   -1.241259
  H     -2.577347    2.808510   -0.433167
  H     -2.480846    1.633511   -1.810611

 Total Charge           Charge          ....    0
 Multiplicity           Mult            ....    1
 Number of Electrons    NEL             ....  132
 Basis Dimension        Dim             ....  295

ORBITAL ENERGIES
----------------

  NO   OCC          E(Eh)            E(eV)
   0   2.0000     -19.263074      -524.1749
   1   2.0000     -12.634978      -343.8152
   2   2.0000     -12.633366      -343.7714
   3   2.0000     -12.633201      -343.7669
   4   2.0000     -10.490783      -285.4687
   5   2.0000     -10.446496      -284.2636
   6   2.0000     -10.445490      -284.2362
   7   2.0000     -10.445443      -284.2350
   8   2.0000     -10.444535      -284.2103
   9   2.0000     -10.443759      -284.1891
  10   2.0000     -10.441958      -284.1401
  11   2.0000     -10.441864      -284.1376
  12   2.0000     -10.441615      -284.1308
  13   2.0000     -10.439873      -284.0834
  14   2.0000     -10.439241      -284.0662
  15   2.0000     -10.383146      -282.5398
  16   2.0000      -5.904338      -160.6652
  17   2.0000      -5.904079      -160.6581
  18   2.0000      -5.903831      -160.6514
  19   2.0000      -5.902922      -160.6267
  20   2.0000      -5.902864      -160.6251
  21   2.0000      -2.445730       -66.5517
  22   2.0000      -1.281374       -34.8680
  23   2.0000      -1.280627       -34.8476
  24   2.0000      -1.272129       -34.6164
  25   2.0000      -0.979631       -26.6571
  26   2.0000      -0.972049       -26.4508
  27   2.0000      -0.794019       -21.6063
  28   2.0000      -0.791290       -21.5321
  29   2.0000      -0.790762       -21.5177
  30   2.0000      -0.789105       -21.4726
  31   2.0000      -0.777730       -21.1631
  32   2.0000      -0.701012       -19.0755
  33   2.0000      -0.613972       -16.7070
  34   2.0000      -0.609577       -16.5874
  35   2.0000      -0.607953       -16.5433
  36   2.0000      -0.606691       -16.5089
  37   2.0000      -0.595018       -16.1913
  38   2.0000      -0.590213       -16.0605
  39   2.0000      -0.571412       -15.5489
  40   2.0000      -0.570704       -15.5296
  41   2.0000      -0.570379       -15.5208
  42   2.0000      -0.569725       -15.5030
  43   2.0000      -0.569358       -15.4930
  44   2.0000      -0.568844       -15.4790
  45   2.0000      -0.567289       -15.4367
  46   2.0000      -0.472028       -12.8445
  47   2.0000      -0.471806       -12.8385
  48   2.0000      -0.464403       -12.6371
  49   2.0000      -0.452238       -12.3060
  50   2.0000      -0.449449       -12.2301
  51   2.0000      -0.448468       -12.2034
  52   2.0000      -0.446833       -12.1590
  53   2.0000      -0.433476       -11.7955
  54   2.0000      -0.432167       -11.7599
  55   2.0000      -0.429110       -11.6767
  56   2.0000      -0.428598       -11.6628
  57   2.0000      -0.427063       -11.6210
  58   2.0000      -0.408019       -11.1028
  59   2.0000      -0.393514       -10.7081
  60   2.0000      -0.373047       -10.1511
  61   2.0000      -0.291944        -7.9442
  62   2.0000      -0.281764        -7.6672
  63   2.0000      -0.278044        -7.5659
  64   2.0000      -0.262584        -7.1453
  65   2.0000      -0.246308        -6.7024
  66   0.0000      -0.043217        -1.1760
  67   0.0000       0.003041         0.0828
  68   0.0000       0.027878         0.7586
  69   0.0000       0.047141         1.2828
  70   0.0000       0.056775         1.5449

MULLIKEN ATOMIC CHARGES
-----------------------
   0 Lu:    0.743105
   1 C :   -0.289128
   2 C :   -0.292211
   3 C :   -0.278958
   4 C :   -0.280792
   5 C :   -0.286895
   6 H :    0.233428
   7 H :    0.234045
   8 H :    0.241316
   9 H :    0.245690
  10 H :    0.230026
  11 C :   -0.293801
  12 C :   -0.298260
  13 C :   -0.320227
  14 C :   -0.249930
  15 H :    0.232573
  16 C :   -0.250373
  17 H :    0.230626
  18 H :    0.229319
  19 H :    0.240140
  20 H :    0.248568
  21 C :   -0.990621
  22 H :    0.211554
  23 H :    0.207792
  24 H :    0.200781
  25 C :   -0.892592
  26 H :    0.219601
  27 H :    0.257186
  28 H :    0.258220
  29 H :    0.259817
Sum of atomic charges:    0.0000000

LOEWDIN ATOMIC CHARGES
----------------------
   0 Lu:   -0.102224
   1 C :   -0.141313
   2 C :   -0.145835
   3 C :   -0.132602
   4 C :   -0.151071
   5 C :   -0.145592
   6 H :    0.150683
   7 H :    0.152604
   8 H :    0.158709
   9 H :    0.156901
  10 H :    0.150373
  11 C :   -0.152150
  12 C :   -0.147796
  13 C :   -0.150420
  14 C :   -0.125833
  15 H :    0.150424
  16 C :   -0.127300
  17 H :    0.152644
  18 H :    0.149832
  19 H :    0.155507
  20 H :    0.161872
  21 C :   -0.630027
  22 H :    0.121596
  23 H :    0.129884
  24 H :    0.118143
  25 C :   -0.476670
  26 H :    0.262567
  27 H :    0.165571
  28 H :    0.146317
  29 H :    0.145208

  Mayer bond orders larger than 0.100000
B(  0-Lu,  1-C ) :   0.2498 B(  0-Lu,  2-C ) :   0.2742 B(  0-Lu,  3-C ) :   0.2523
B(  0-Lu,  4-C ) :   0.2570 B(  0-Lu,  5-C ) :   0.2614 B(  0-Lu, 11-C ) :   0.2671
B(  0-Lu, 12-C ) :   0.2668 B(  0-Lu, 13-C ) :   0.2835 B(  0-Lu, 14-C ) :   0.2490
B(  0-Lu, 16-C ) :   0.2460 B(  0-Lu, 21-C ) :   0.6815 B(  0-Lu, 25-C ) :   0.2566
B(  0-Lu, 26-H ) :   0.1979 B(  1-C ,  2-C ) :   1.2821 B(  1-C ,  5-C ) :   1.2987
B(  1-C ,  8-H ) :   0.9207 B(  2-C ,  3-C ) :   1.2976 B(  2-C ,  9-H ) :   0.9106
B(  3-C ,  4-C ) :   1.3010 B(  3-C , 10-H ) :   0.9216 B(  4-C ,  5-C ) :   1.2846
B(  4-C ,  6-H ) :   0.9172 B(  5-C ,  7-H ) :   0.9179 B( 11-C , 12-C ) :   1.2653
B( 11-C , 14-C ) :   1.3135 B( 11-C , 15-H ) :   0.9167 B( 12-C , 16-C ) :   1.3074
B( 12-C , 17-H ) :   0.9208 B( 13-C , 14-C ) :   1.2869 B( 13-C , 16-C ) :   1.2809
B( 13-C , 19-H ) :   0.9161 B( 14-C , 18-H ) :   0.9215 B( 16-C , 20-H ) :   0.9136
B( 21-C , 22-H ) :   0.9148 B( 21-C , 23-H ) :   0.9137 B( 21-C , 24-H ) :   0.9187
B( 25-C , 26-H ) :   0.6441 B( 25-C , 27-H ) :   0.8831 B( 25-C , 28-H ) :   0.9019
B( 25-C , 29-H ) :   0.8946

Dispersion correction           -0.017683950
FINAL SINGLE POINT ENERGY     -1702.272881895216
Dispersion correction            ... done

DIPOLE MOMENT
-------------
                                X             Y             Z
Electronic contribution:     -8.95554      -4.04638       6.30000
Nuclear contribution   :      9.07987       4.90302      -6.83367
                        -----------------------------------------
Total Dipole Moment    :      0.12433       0.85664      -0.53367
                        -----------------------------------------
Magnitude (a.u.)       :      1.01691
Magnitude (Debye)      :      2.58477

Rotational constants in cm-1:     0.027982     0.019630     0.017564
Rotational constants in MHz :   838.874559   588.486943   526.554290

                             ****ORCA TERMINATED NORMALLY****
TOTAL RUN TIME: 0 days 0 hours 8 minutes 26 seconds 725 msec
