                         Program Version 5.0.3 -  RELEASE  -
|  1> ! EnGrad PBEh-3c
|  2> %output
|  3> xyzfile=True
|  4> end
|  5> %scf
|  6> maxiter 250
|  7> end
|  8> %output
|  9> Print[P_Hirshfeld] = 1
| 10> end
| 11> % maxcore
| 12> 4000
| 13> *xyz 0 1
| 14> Lu  -0.04793176  -0.11528906   0.12944068
| 15> C    0.46932616   0.74137515   2.54701371
| 16> C    1.50189893  -0.17069307   2.24333296
| 17> C    2.32669642   0.41115923   1.26276444
| 18> C    1.79778859   1.67783925   0.94617289
| 19> C    0.65314816   1.88335620   1.74507458
| 20> H    2.21256637   2.38734778   0.24813029
| 21> H    0.04863302   2.78102247   1.77551925
| 22> H   -0.26449674   0.62236246   3.32493095
| 23> H    1.63305528  -1.14397365   2.69218792
| 24> H    3.25034665  -0.00334309   0.88440385
| 25> C    0.86403059  -0.09529178  -2.38772439
| 26> C   -0.38696508  -0.75558126  -2.38958652
| 27> C    1.08699694  -2.04386361  -1.22720099
| 28> C    1.77600276  -0.90371522  -1.68526728
| 29> H    1.07791224   0.84360049  -2.88123828
| 30> C   -0.24785838  -1.96078682  -1.68075681
| 31> H   -1.27487483  -0.43711551  -2.91424843
| 32> H    2.83304338  -0.71760963  -1.57414420
| 33> H    1.52120172  -2.87477918  -0.68916542
| 34> H   -1.01795283  -2.70129287  -1.53583163
| 35> C   -2.11952049  -1.52962366   1.19398064
| 36> H   -2.27399786  -1.30830275   2.25410928
| 37> H   -1.92071963  -2.62216182   1.15979080
| 38> H   -3.11763197  -1.46068592   0.73763721
| 39> C   -1.98805990   1.96531462  -0.86992681
| 40> H   -2.26878191   0.63632927   0.16349990
| 41> H   -1.06109026   2.48397781  -1.22879592
| 42> H   -2.57656688   2.78637716  -0.41805768
| 43> H   -2.48585506   1.62596124  -1.79537900
| 44> *
| 45>
| 46>                          ****END OF INPUT****

CARTESIAN COORDINATES (ANGSTROEM)
---------------------------------
  Lu    -0.047932   -0.115289    0.129441
  C      0.469326    0.741375    2.547014
  C      1.501899   -0.170693    2.243333
  C      2.326696    0.411159    1.262764
  C      1.797789    1.677839    0.946173
  C      0.653148    1.883356    1.745075
  H      2.212566    2.387348    0.248130
  H      0.048633    2.781022    1.775519
  H     -0.264497    0.622362    3.324931
  H      1.633055   -1.143974    2.692188
  H      3.250347   -0.003343    0.884404
  C      0.864031   -0.095292   -2.387724
  C     -0.386965   -0.755581   -2.389587
  C      1.086997   -2.043864   -1.227201
  C      1.776003   -0.903715   -1.685267
  H      1.077912    0.843600   -2.881238
  C     -0.247858   -1.960787   -1.680757
  H     -1.274875   -0.437116   -2.914248
  H      2.833043   -0.717610   -1.574144
  H      1.521202   -2.874779   -0.689165
  H     -1.017953   -2.701293   -1.535832
  C     -2.119520   -1.529624    1.193981
  H     -2.273998   -1.308303    2.254109
  H     -1.920720   -2.622162    1.159791
  H     -3.117632   -1.460686    0.737637
  C     -1.988060    1.965315   -0.869927
  H     -2.268782    0.636329    0.163500
  H     -1.061090    2.483978   -1.228796
  H     -2.576567    2.786377   -0.418058
  H     -2.485855    1.625961   -1.795379

 Total Charge           Charge          ....    0
 Multiplicity           Mult            ....    1
 Number of Electrons    NEL             ....  132
 Basis Dimension        Dim             ....  295

ORBITAL ENERGIES
----------------

  NO   OCC          E(Eh)            E(eV)
   0   2.0000     -19.263890      -524.1971
   1   2.0000     -12.635800      -343.8376
   2   2.0000     -12.634183      -343.7936
   3   2.0000     -12.634014      -343.7890
   4   2.0000     -10.490864      -285.4709
   5   2.0000     -10.446613      -284.2668
   6   2.0000     -10.445584      -284.2388
   7   2.0000     -10.445227      -284.2291
   8   2.0000     -10.444570      -284.2112
   9   2.0000     -10.443957      -284.1945
  10   2.0000     -10.442586      -284.1572
  11   2.0000     -10.441864      -284.1376
  12   2.0000     -10.441825      -284.1365
  13   2.0000     -10.440057      -284.0884
  14   2.0000     -10.439454      -284.0720
  15   2.0000     -10.382848      -282.5317
  16   2.0000      -5.905161      -160.6876
  17   2.0000      -5.904900      -160.6805
  18   2.0000      -5.904652      -160.6738
  19   2.0000      -5.903741      -160.6490
  20   2.0000      -5.903679      -160.6473
  21   2.0000      -2.446519       -66.5732
  22   2.0000      -1.281749       -34.8782
  23   2.0000      -1.281533       -34.8723
  24   2.0000      -1.272827       -34.6354
  25   2.0000      -0.977939       -26.6111
  26   2.0000      -0.970646       -26.4126
  27   2.0000      -0.793565       -21.5940
  28   2.0000      -0.790815       -21.5192
  29   2.0000      -0.790618       -21.5138
  30   2.0000      -0.788545       -21.4574
  31   2.0000      -0.781341       -21.2614
  32   2.0000      -0.700365       -19.0579
  33   2.0000      -0.613528       -16.6949
  34   2.0000      -0.610162       -16.6034
  35   2.0000      -0.608164       -16.5490
  36   2.0000      -0.607522       -16.5315
  37   2.0000      -0.595069       -16.1927
  38   2.0000      -0.590183       -16.0597
  39   2.0000      -0.572228       -15.5711
  40   2.0000      -0.571545       -15.5525
  41   2.0000      -0.571200       -15.5431
  42   2.0000      -0.570548       -15.5254
  43   2.0000      -0.570192       -15.5157
  44   2.0000      -0.569657       -15.5012
  45   2.0000      -0.568092       -15.4586
  46   2.0000      -0.476029       -12.9534
  47   2.0000      -0.472057       -12.8453
  48   2.0000      -0.463956       -12.6249
  49   2.0000      -0.452847       -12.3226
  50   2.0000      -0.449226       -12.2240
  51   2.0000      -0.448599       -12.2070
  52   2.0000      -0.447203       -12.1690
  53   2.0000      -0.432582       -11.7711
  54   2.0000      -0.431189       -11.7333
  55   2.0000      -0.429794       -11.6953
  56   2.0000      -0.429364       -11.6836
  57   2.0000      -0.426384       -11.6025
  58   2.0000      -0.412627       -11.2282
  59   2.0000      -0.392314       -10.6754
  60   2.0000      -0.377005       -10.2588
  61   2.0000      -0.291678        -7.9370
  62   2.0000      -0.281071        -7.6483
  63   2.0000      -0.277758        -7.5582
  64   2.0000      -0.261605        -7.1186
  65   2.0000      -0.246656        -6.7119
  66   0.0000      -0.038438        -1.0460
  67   0.0000       0.004414         0.1201
  68   0.0000       0.028012         0.7622
  69   0.0000       0.047667         1.2971
  70   0.0000       0.055168         1.5012

MULLIKEN ATOMIC CHARGES
-----------------------
   0 Lu:    0.738372
   1 C :   -0.293233
   2 C :   -0.291219
   3 C :   -0.276907
   4 C :   -0.282967
   5 C :   -0.285529
   6 H :    0.232333
   7 H :    0.234586
   8 H :    0.241861
   9 H :    0.245648
  10 H :    0.229728
  11 C :   -0.293694
  12 C :   -0.299870
  13 C :   -0.320592
  14 C :   -0.248291
  15 H :    0.232549
  16 C :   -0.252187
  17 H :    0.230900
  18 H :    0.228742
  19 H :    0.240098
  20 H :    0.249967
  21 C :   -0.989010
  22 H :    0.210404
  23 H :    0.207420
  24 H :    0.200895
  25 C :   -0.897202
  26 H :    0.224647
  27 H :    0.256211
  28 H :    0.261437
  29 H :    0.264901
Sum of atomic charges:    0.0000000

LOEWDIN ATOMIC CHARGES
----------------------
   0 Lu:   -0.099525
   1 C :   -0.142187
   2 C :   -0.146372
   3 C :   -0.133421
   4 C :   -0.150649
   5 C :   -0.147414
   6 H :    0.150052
   7 H :    0.152174
   8 H :    0.158445
   9 H :    0.156854
  10 H :    0.150325
  11 C :   -0.152627
  12 C :   -0.148294
  13 C :   -0.150527
  14 C :   -0.126006
  15 H :    0.150124
  16 C :   -0.128514
  17 H :    0.151948
  18 H :    0.149731
  19 H :    0.155490
  20 H :    0.161712
  21 C :   -0.630399
  22 H :    0.121530
  23 H :    0.129262
  24 H :    0.118489
  25 C :   -0.473369
  26 H :    0.262510
  27 H :    0.166964
  28 H :    0.147425
  29 H :    0.146267

  Mayer bond orders larger than 0.100000
B(  0-Lu,  1-C ) :   0.2503 B(  0-Lu,  2-C ) :   0.2737 B(  0-Lu,  3-C ) :   0.2498
B(  0-Lu,  4-C ) :   0.2545 B(  0-Lu,  5-C ) :   0.2621 B(  0-Lu, 11-C ) :   0.2658
B(  0-Lu, 12-C ) :   0.2676 B(  0-Lu, 13-C ) :   0.2830 B(  0-Lu, 14-C ) :   0.2467
B(  0-Lu, 16-C ) :   0.2471 B(  0-Lu, 21-C ) :   0.6891 B(  0-Lu, 25-C ) :   0.2592
B(  0-Lu, 26-H ) :   0.1972 B(  1-C ,  2-C ) :   1.2844 B(  1-C ,  5-C ) :   1.2971
B(  1-C ,  8-H ) :   0.9200 B(  2-C ,  3-C ) :   1.2956 B(  2-C ,  9-H ) :   0.9105
B(  3-C ,  4-C ) :   1.3049 B(  3-C , 10-H ) :   0.9219 B(  4-C ,  5-C ) :   1.2850
B(  4-C ,  6-H ) :   0.9179 B(  5-C ,  7-H ) :   0.9176 B( 11-C , 12-C ) :   1.2663
B( 11-C , 14-C ) :   1.3139 B( 11-C , 15-H ) :   0.9172 B( 12-C , 16-C ) :   1.3068
B( 12-C , 17-H ) :   0.9203 B( 13-C , 14-C ) :   1.2879 B( 13-C , 16-C ) :   1.2803
B( 13-C , 19-H ) :   0.9162 B( 14-C , 18-H ) :   0.9220 B( 16-C , 20-H ) :   0.9128
B( 21-C , 22-H ) :   0.9150 B( 21-C , 23-H ) :   0.9136 B( 21-C , 24-H ) :   0.9194
B( 25-C , 26-H ) :   0.6474 B( 25-C , 27-H ) :   0.8826 B( 25-C , 28-H ) :   0.9003
B( 25-C , 29-H ) :   0.8918

Dispersion correction           -0.017599457
FINAL SINGLE POINT ENERGY     -1702.280543335626
Dispersion correction            ... done

DIPOLE MOMENT
-------------
                                X             Y             Z
Electronic contribution:     -9.64140      -3.84453       6.24034
Nuclear contribution   :      9.75407       4.72698      -6.78498
                        -----------------------------------------
Total Dipole Moment    :      0.11267       0.88246      -0.54464
                        -----------------------------------------
Magnitude (a.u.)       :      1.04310
Magnitude (Debye)      :      2.65135

Rotational constants in cm-1:     0.027951     0.019646     0.017514
Rotational constants in MHz :   837.940034   588.979460   525.069244

                             ****ORCA TERMINATED NORMALLY****
TOTAL RUN TIME: 0 days 0 hours 8 minutes 22 seconds 623 msec
