                         Program Version 5.0.3 -  RELEASE  -
|  1> ! EnGrad PBEh-3c
|  2> %output
|  3> xyzfile=True
|  4> end
|  5> %scf
|  6> maxiter 250
|  7> end
|  8> %output
|  9> Print[P_Hirshfeld] = 1
| 10> end
| 11> % maxcore
| 12> 4000
| 13> *xyz 0 1
| 14> Lu  -0.09739216  -0.08851841   0.11644972
| 15> C    0.46458081   0.78004978   2.53046182
| 16> C    1.47477464  -0.15842296   2.23482982
| 17> C    2.31928241   0.40371648   1.25393557
| 18> C    1.81815102   1.68041048   0.93765839
| 19> C    0.67689020   1.92320423   1.73605985
| 20> H    2.27509493   2.39134324   0.25869773
| 21> H    0.07546832   2.81639628   1.73819589
| 22> H   -0.29539617   0.66707639   3.28975711
| 23> H    1.58319495  -1.13373274   2.68470755
| 24> H    3.23797314  -0.03038904   0.88751013
| 25> C    0.89150050  -0.08781541  -2.40633954
| 26> C   -0.36453910  -0.73862951  -2.43377096
| 27> C    1.07209335  -2.02811759  -1.22005646
| 28> C    1.78073717  -0.89447563  -1.67496886
| 29> H    1.13432519   0.83570861  -2.91466116
| 30> C   -0.25053756  -1.93640864  -1.70613815
| 31> H   -1.25145762  -0.39305642  -2.94347716
| 32> H    2.84385194  -0.72638861  -1.56103161
| 33> H    1.48897280  -2.85805150  -0.66707619
| 34> H   -1.03700593  -2.65548561  -1.53963645
| 35> C   -2.17184069  -1.51552025   1.19173143
| 36> H   -2.25161243  -1.33810007   2.27902904
| 37> H   -1.90084821  -2.58750597   1.11218731
| 38> H   -3.21290762  -1.47069698   0.82435272
| 39> C   -2.01955661   1.85971594  -0.80736411
| 40> H   -2.10023171   0.62931640   0.08056529
| 41> H   -1.09429953   2.39610922  -1.17208802
| 42> H   -2.57296758   2.67580609  -0.34102049
| 43> H   -2.51463809   1.58491748  -1.72574552
| 44> *
| 45>
| 46>                          ****END OF INPUT****

CARTESIAN COORDINATES (ANGSTROEM)
---------------------------------
  Lu    -0.097392   -0.088518    0.116450
  C      0.464581    0.780050    2.530462
  C      1.474775   -0.158423    2.234830
  C      2.319282    0.403716    1.253936
  C      1.818151    1.680410    0.937658
  C      0.676890    1.923204    1.736060
  H      2.275095    2.391343    0.258698
  H      0.075468    2.816396    1.738196
  H     -0.295396    0.667076    3.289757
  H      1.583195   -1.133733    2.684708
  H      3.237973   -0.030389    0.887510
  C      0.891501   -0.087815   -2.406340
  C     -0.364539   -0.738630   -2.433771
  C      1.072093   -2.028118   -1.220056
  C      1.780737   -0.894476   -1.674969
  H      1.134325    0.835709   -2.914661
  C     -0.250538   -1.936409   -1.706138
  H     -1.251458   -0.393056   -2.943477
  H      2.843852   -0.726389   -1.561032
  H      1.488973   -2.858052   -0.667076
  H     -1.037006   -2.655486   -1.539636
  C     -2.171841   -1.515520    1.191731
  H     -2.251612   -1.338100    2.279029
  H     -1.900848   -2.587506    1.112187
  H     -3.212908   -1.470697    0.824353
  C     -2.019557    1.859716   -0.807364
  H     -2.100232    0.629316    0.080565
  H     -1.094300    2.396109   -1.172088
  H     -2.572968    2.675806   -0.341020
  H     -2.514638    1.584917   -1.725746

 Total Charge           Charge          ....    0
 Multiplicity           Mult            ....    1
 Number of Electrons    NEL             ....  132
 Basis Dimension        Dim             ....  295

ORBITAL ENERGIES
----------------

  NO   OCC          E(Eh)            E(eV)
   0   2.0000     -19.268062      -524.3106
   1   2.0000     -12.639950      -343.9505
   2   2.0000     -12.638355      -343.9071
   3   2.0000     -12.638193      -343.9027
   4   2.0000     -10.489140      -285.4240
   5   2.0000     -10.446556      -284.2652
   6   2.0000     -10.445545      -284.2377
   7   2.0000     -10.445090      -284.2253
   8   2.0000     -10.444841      -284.2186
   9   2.0000     -10.444172      -284.2004
  10   2.0000     -10.443451      -284.1807
  11   2.0000     -10.441950      -284.1399
  12   2.0000     -10.441733      -284.1340
  13   2.0000     -10.439963      -284.0858
  14   2.0000     -10.439759      -284.0803
  15   2.0000     -10.382383      -282.5190
  16   2.0000      -5.909314      -160.8006
  17   2.0000      -5.909050      -160.7934
  18   2.0000      -5.908818      -160.7871
  19   2.0000      -5.907930      -160.7629
  20   2.0000      -5.907855      -160.7609
  21   2.0000      -2.450657       -66.6858
  22   2.0000      -1.286657       -35.0117
  23   2.0000      -1.284652       -34.9572
  24   2.0000      -1.276795       -34.7434
  25   2.0000      -0.976589       -26.5743
  26   2.0000      -0.969961       -26.3940
  27   2.0000      -0.798653       -21.7325
  28   2.0000      -0.792602       -21.5678
  29   2.0000      -0.789752       -21.4903
  30   2.0000      -0.789680       -21.4883
  31   2.0000      -0.787268       -21.4226
  32   2.0000      -0.696599       -18.9554
  33   2.0000      -0.612871       -16.6771
  34   2.0000      -0.610133       -16.6026
  35   2.0000      -0.608083       -16.5468
  36   2.0000      -0.606754       -16.5106
  37   2.0000      -0.594276       -16.1711
  38   2.0000      -0.589360       -16.0373
  39   2.0000      -0.576360       -15.6836
  40   2.0000      -0.575836       -15.6693
  41   2.0000      -0.575357       -15.6562
  42   2.0000      -0.574632       -15.6365
  43   2.0000      -0.574431       -15.6311
  44   2.0000      -0.573811       -15.6142
  45   2.0000      -0.572147       -15.5689
  46   2.0000      -0.487633       -13.2692
  47   2.0000      -0.476108       -12.9556
  48   2.0000      -0.468860       -12.7583
  49   2.0000      -0.453504       -12.3405
  50   2.0000      -0.449154       -12.2221
  51   2.0000      -0.448290       -12.1986
  52   2.0000      -0.446639       -12.1537
  53   2.0000      -0.439581       -11.9616
  54   2.0000      -0.431175       -11.7329
  55   2.0000      -0.431135       -11.7318
  56   2.0000      -0.429023       -11.6743
  57   2.0000      -0.428254       -11.6534
  58   2.0000      -0.426380       -11.6024
  59   2.0000      -0.386751       -10.5240
  60   2.0000      -0.385611       -10.4930
  61   2.0000      -0.292227        -7.9519
  62   2.0000      -0.279464        -7.6046
  63   2.0000      -0.277346        -7.5470
  64   2.0000      -0.259112        -7.0508
  65   2.0000      -0.245652        -6.6845
  66   0.0000      -0.024341        -0.6624
  67   0.0000       0.012985         0.3533
  68   0.0000       0.030228         0.8226
  69   0.0000       0.047434         1.2907
  70   0.0000       0.050931         1.3859

MULLIKEN ATOMIC CHARGES
-----------------------
   0 Lu:    0.709336
   1 C :   -0.302486
   2 C :   -0.295065
   3 C :   -0.266644
   4 C :   -0.294567
   5 C :   -0.274156
   6 H :    0.228837
   7 H :    0.234376
   8 H :    0.244641
   9 H :    0.245622
  10 H :    0.228478
  11 C :   -0.296929
  12 C :   -0.293930
  13 C :   -0.323825
  14 C :   -0.245147
  15 H :    0.230948
  16 C :   -0.257837
  17 H :    0.231499
  18 H :    0.226773
  19 H :    0.240124
  20 H :    0.254361
  21 C :   -0.976505
  22 H :    0.203925
  23 H :    0.202067
  24 H :    0.201545
  25 C :   -0.918222
  26 H :    0.250974
  27 H :    0.257822
  28 H :    0.273542
  29 H :    0.280444
Sum of atomic charges:    0.0000000

LOEWDIN ATOMIC CHARGES
----------------------
   0 Lu:   -0.093810
   1 C :   -0.146560
   2 C :   -0.149046
   3 C :   -0.133425
   4 C :   -0.152394
   5 C :   -0.151100
   6 H :    0.148794
   7 H :    0.151038
   8 H :    0.158733
   9 H :    0.156659
  10 H :    0.149631
  11 C :   -0.154066
  12 C :   -0.151041
  13 C :   -0.152055
  14 C :   -0.126363
  15 H :    0.149288
  16 C :   -0.133260
  17 H :    0.151162
  18 H :    0.148969
  19 H :    0.155495
  20 H :    0.162627
  21 C :   -0.631493
  22 H :    0.120168
  23 H :    0.125525
  24 H :    0.119543
  25 C :   -0.458445
  26 H :    0.259463
  27 H :    0.172259
  28 H :    0.152771
  29 H :    0.150931

  Mayer bond orders larger than 0.100000
B(  0-Lu,  1-C ) :   0.2514 B(  0-Lu,  2-C ) :   0.2751 B(  0-Lu,  3-C ) :   0.2418
B(  0-Lu,  4-C ) :   0.2479 B(  0-Lu,  5-C ) :   0.2612 B(  0-Lu, 11-C ) :   0.2609
B(  0-Lu, 12-C ) :   0.2675 B(  0-Lu, 13-C ) :   0.2851 B(  0-Lu, 14-C ) :   0.2413
B(  0-Lu, 16-C ) :   0.2487 B(  0-Lu, 21-C ) :   0.7148 B(  0-Lu, 25-C ) :   0.2804
B(  0-Lu, 26-H ) :   0.1954 B(  1-C ,  2-C ) :   1.2856 B(  1-C ,  5-C ) :   1.2965
B(  1-C ,  8-H ) :   0.9164 B(  2-C ,  3-C ) :   1.2944 B(  2-C ,  9-H ) :   0.9105
B(  3-C ,  4-C ) :   1.3145 B(  3-C , 10-H ) :   0.9226 B(  4-C ,  5-C ) :   1.2846
B(  4-C ,  6-H ) :   0.9208 B(  5-C ,  7-H ) :   0.9154 B( 11-C , 12-C ) :   1.2667
B( 11-C , 14-C ) :   1.3206 B( 11-C , 15-H ) :   0.9189 B( 12-C , 16-C ) :   1.3071
B( 12-C , 17-H ) :   0.9170 B( 13-C , 14-C ) :   1.2872 B( 13-C , 16-C ) :   1.2793
B( 13-C , 19-H ) :   0.9164 B( 14-C , 18-H ) :   0.9235 B( 16-C , 20-H ) :   0.9083
B( 21-C , 22-H ) :   0.9167 B( 21-C , 23-H ) :   0.9134 B( 21-C , 24-H ) :   0.9223
B( 25-C , 26-H ) :   0.6493 B( 25-C , 27-H ) :   0.8742 B( 25-C , 28-H ) :   0.8948
B( 25-C , 29-H ) :   0.8839

Dispersion correction           -0.017450982
FINAL SINGLE POINT ENERGY     -1702.304006955653
Dispersion correction            ... done

DIPOLE MOMENT
-------------
                                X             Y             Z
Electronic contribution:    -12.06847      -2.50002       5.61631
Nuclear contribution   :     12.15918       3.48516      -6.20520
                        -----------------------------------------
Total Dipole Moment    :      0.09071       0.98514      -0.58889
                        -----------------------------------------
Magnitude (a.u.)       :      1.15131
Magnitude (Debye)      :      2.92640

Rotational constants in cm-1:     0.027960     0.019813     0.017338
Rotational constants in MHz :   838.222401   593.968297   519.783198

                             ****ORCA TERMINATED NORMALLY****
TOTAL RUN TIME: 0 days 0 hours 8 minutes 22 seconds 901 msec
