                         Program Version 5.0.3 -  RELEASE  -
|  1> ! EnGrad PBEh-3c
|  2> %output
|  3> xyzfile=True
|  4> end
|  5> %scf
|  6> maxiter 250
|  7> end
|  8> %output
|  9> Print[P_Hirshfeld] = 1
| 10> end
| 11> % maxcore
| 12> 4000
| 13> *xyz 0 1
| 14> Lu  -0.08455197  -0.07601000   0.10736511
| 15> C    0.45846735   0.78515844   2.52808940
| 16> C    1.46643586  -0.15626934   2.22778904
| 17> C    2.31605876   0.40349352   1.25515092
| 18> C    1.82269008   1.68060403   0.93091452
| 19> C    0.67729199   1.93153069   1.72857837
| 20> H    2.28845859   2.39137214   0.26119717
| 21> H    0.08606029   2.82520372   1.73180991
| 22> H   -0.30202951   0.67836754   3.28018927
| 23> H    1.57219318  -1.13176794   2.68384635
| 24> H    3.23410856  -0.03661189   0.88780860
| 25> C    0.89852099  -0.08179418  -2.40908463
| 26> C   -0.36545666  -0.72934270  -2.44166657
| 27> C    1.07066830  -2.02117627  -1.21941595
| 28> C    1.78072541  -0.89562564  -1.67332428
| 29> H    1.14703125   0.83111829  -2.92174272
| 30> C   -0.25619183  -1.93414451  -1.70504107
| 31> H   -1.24253569  -0.38494346  -2.95211312
| 32> H    2.84558471  -0.72783639  -1.55678016
| 33> H    1.48148144  -2.85381071  -0.66155825
| 34> H   -1.03932691  -2.64259557  -1.54322476
| 35> C   -2.19229922  -1.50528883   1.19286091
| 36> H   -2.24461362  -1.34145286   2.28160894
| 37> H   -1.89725377  -2.56866154   1.09478385
| 38> H   -3.23455896  -1.47471812   0.84442774
| 39> C   -2.00920456   1.83232396  -0.79169637
| 40> H   -2.08842443   0.60779763   0.07772108
| 41> H   -1.09949175   2.38123262  -1.16598885
| 42> H   -2.56710251   2.64346835  -0.32136330
| 43> H   -2.51990363   1.57332217  -1.70908656
| 44> *
| 45>
| 46>                          ****END OF INPUT****

CARTESIAN COORDINATES (ANGSTROEM)
---------------------------------
  Lu    -0.084552   -0.076010    0.107365
  C      0.458467    0.785158    2.528089
  C      1.466436   -0.156269    2.227789
  C      2.316059    0.403494    1.255151
  C      1.822690    1.680604    0.930915
  C      0.677292    1.931531    1.728578
  H      2.288459    2.391372    0.261197
  H      0.086060    2.825204    1.731810
  H     -0.302030    0.678368    3.280189
  H      1.572193   -1.131768    2.683846
  H      3.234109   -0.036612    0.887809
  C      0.898521   -0.081794   -2.409085
  C     -0.365457   -0.729343   -2.441667
  C      1.070668   -2.021176   -1.219416
  C      1.780725   -0.895626   -1.673324
  H      1.147031    0.831118   -2.921743
  C     -0.256192   -1.934145   -1.705041
  H     -1.242536   -0.384943   -2.952113
  H      2.845585   -0.727836   -1.556780
  H      1.481481   -2.853811   -0.661558
  H     -1.039327   -2.642596   -1.543225
  C     -2.192299   -1.505289    1.192861
  H     -2.244614   -1.341453    2.281609
  H     -1.897254   -2.568662    1.094784
  H     -3.234559   -1.474718    0.844428
  C     -2.009205    1.832324   -0.791696
  H     -2.088424    0.607798    0.077721
  H     -1.099492    2.381233   -1.165989
  H     -2.567103    2.643468   -0.321363
  H     -2.519904    1.573322   -1.709087

 Total Charge           Charge          ....    0
 Multiplicity           Mult            ....    1
 Number of Electrons    NEL             ....  132
 Basis Dimension        Dim             ....  295

ORBITAL ENERGIES
----------------

  NO   OCC          E(Eh)            E(eV)
   0   2.0000     -19.267535      -524.2963
   1   2.0000     -12.639374      -343.9349
   2   2.0000     -12.637844      -343.8932
   3   2.0000     -12.637685      -343.8889
   4   2.0000     -10.484634      -285.3014
   5   2.0000     -10.447270      -284.2847
   6   2.0000     -10.446107      -284.2530
   7   2.0000     -10.446057      -284.2517
   8   2.0000     -10.445839      -284.2457
   9   2.0000     -10.445111      -284.2259
  10   2.0000     -10.444500      -284.2093
  11   2.0000     -10.442878      -284.1652
  12   2.0000     -10.442680      -284.1598
  13   2.0000     -10.440924      -284.1120
  14   2.0000     -10.440759      -284.1075
  15   2.0000     -10.382306      -282.5169
  16   2.0000      -5.908741      -160.7850
  17   2.0000      -5.908494      -160.7783
  18   2.0000      -5.908268      -160.7722
  19   2.0000      -5.907417      -160.7490
  20   2.0000      -5.907351      -160.7472
  21   2.0000      -2.450161       -66.6723
  22   2.0000      -1.286214       -34.9997
  23   2.0000      -1.284373       -34.9496
  24   2.0000      -1.276650       -34.7394
  25   2.0000      -0.976045       -26.5595
  26   2.0000      -0.969243       -26.3744
  27   2.0000      -0.797442       -21.6995
  28   2.0000      -0.792919       -21.5764
  29   2.0000      -0.790357       -21.5067
  30   2.0000      -0.790047       -21.4983
  31   2.0000      -0.787953       -21.4413
  32   2.0000      -0.697008       -18.9665
  33   2.0000      -0.613914       -16.7054
  34   2.0000      -0.611578       -16.6419
  35   2.0000      -0.610165       -16.6034
  36   2.0000      -0.606835       -16.5128
  37   2.0000      -0.595200       -16.1962
  38   2.0000      -0.590225       -16.0608
  39   2.0000      -0.575833       -15.6692
  40   2.0000      -0.575268       -15.6538
  41   2.0000      -0.574768       -15.6402
  42   2.0000      -0.574110       -15.6223
  43   2.0000      -0.573939       -15.6177
  44   2.0000      -0.573332       -15.6012
  45   2.0000      -0.571716       -15.5572
  46   2.0000      -0.483451       -13.1554
  47   2.0000      -0.475112       -12.9285
  48   2.0000      -0.469041       -12.7633
  49   2.0000      -0.454413       -12.3652
  50   2.0000      -0.450206       -12.2507
  51   2.0000      -0.448992       -12.2177
  52   2.0000      -0.447952       -12.1894
  53   2.0000      -0.439547       -11.9607
  54   2.0000      -0.433081       -11.7847
  55   2.0000      -0.431698       -11.7471
  56   2.0000      -0.429573       -11.6893
  57   2.0000      -0.428429       -11.6582
  58   2.0000      -0.425767       -11.5857
  59   2.0000      -0.388629       -10.5751
  60   2.0000      -0.385845       -10.4994
  61   2.0000      -0.292375        -7.9559
  62   2.0000      -0.280240        -7.6257
  63   2.0000      -0.278134        -7.5684
  64   2.0000      -0.259970        -7.0741
  65   2.0000      -0.243181        -6.6173
  66   0.0000      -0.022815        -0.6208
  67   0.0000       0.016937         0.4609
  68   0.0000       0.029416         0.8004
  69   0.0000       0.048069         1.3080
  70   0.0000       0.050633         1.3778

MULLIKEN ATOMIC CHARGES
-----------------------
   0 Lu:    0.700338
   1 C :   -0.295272
   2 C :   -0.301442
   3 C :   -0.259130
   4 C :   -0.298869
   5 C :   -0.275525
   6 H :    0.229649
   7 H :    0.235217
   8 H :    0.245362
   9 H :    0.245883
  10 H :    0.229443
  11 C :   -0.300115
  12 C :   -0.291309
  13 C :   -0.322696
  14 C :   -0.243146
  15 H :    0.231808
  16 C :   -0.258458
  17 H :    0.232407
  18 H :    0.227496
  19 H :    0.240537
  20 H :    0.254643
  21 C :   -0.972336
  22 H :    0.203365
  23 H :    0.199895
  24 H :    0.203043
  25 C :   -0.933021
  26 H :    0.260286
  27 H :    0.258963
  28 H :    0.273599
  29 H :    0.279385
Sum of atomic charges:    0.0000000

LOEWDIN ATOMIC CHARGES
----------------------
   0 Lu:   -0.103919
   1 C :   -0.143908
   2 C :   -0.149053
   3 C :   -0.131820
   4 C :   -0.151862
   5 C :   -0.149235
   6 H :    0.149451
   7 H :    0.151173
   8 H :    0.158856
   9 H :    0.157113
  10 H :    0.150149
  11 C :   -0.153702
  12 C :   -0.148019
  13 C :   -0.151196
  14 C :   -0.125952
  15 H :    0.149618
  16 C :   -0.132517
  17 H :    0.151083
  18 H :    0.149469
  19 H :    0.155767
  20 H :    0.162133
  21 C :   -0.631213
  22 H :    0.119568
  23 H :    0.124318
  24 H :    0.119620
  25 C :   -0.466468
  26 H :    0.264268
  27 H :    0.173118
  28 H :    0.152445
  29 H :    0.150716

  Mayer bond orders larger than 0.100000
B(  0-Lu,  1-C ) :   0.2515 B(  0-Lu,  2-C ) :   0.2771 B(  0-Lu,  3-C ) :   0.2440
B(  0-Lu,  4-C ) :   0.2522 B(  0-Lu,  5-C ) :   0.2627 B(  0-Lu, 11-C ) :   0.2642
B(  0-Lu, 12-C ) :   0.2674 B(  0-Lu, 13-C ) :   0.2857 B(  0-Lu, 14-C ) :   0.2440
B(  0-Lu, 16-C ) :   0.2507 B(  0-Lu, 21-C ) :   0.7016 B(  0-Lu, 25-C ) :   0.2887
B(  0-Lu, 26-H ) :   0.1972 B(  1-C ,  2-C ) :   1.2841 B(  1-C ,  5-C ) :   1.2970
B(  1-C ,  8-H ) :   0.9164 B(  2-C ,  3-C ) :   1.2934 B(  2-C ,  9-H ) :   0.9108
B(  3-C ,  4-C ) :   1.3108 B(  3-C , 10-H ) :   0.9218 B(  4-C ,  5-C ) :   1.2829
B(  4-C ,  6-H ) :   0.9213 B(  5-C ,  7-H ) :   0.9157 B( 11-C , 12-C ) :   1.2681
B( 11-C , 14-C ) :   1.3151 B( 11-C , 15-H ) :   0.9194 B( 12-C , 16-C ) :   1.3065
B( 12-C , 17-H ) :   0.9173 B( 13-C , 14-C ) :   1.2875 B( 13-C , 16-C ) :   1.2775
B( 13-C , 19-H ) :   0.9161 B( 14-C , 18-H ) :   0.9231 B( 16-C , 20-H ) :   0.9089
B( 21-C , 22-H ) :   0.9175 B( 21-C , 23-H ) :   0.9142 B( 21-C , 24-H ) :   0.9230
B( 25-C , 26-H ) :   0.6339 B( 25-C , 27-H ) :   0.8718 B( 25-C , 28-H ) :   0.8948
B( 25-C , 29-H ) :   0.8850

Dispersion correction           -0.017483067
FINAL SINGLE POINT ENERGY     -1702.305358276196
Dispersion correction            ... done

DIPOLE MOMENT
-------------
                                X             Y             Z
Electronic contribution:    -11.33706      -1.93777       5.19926
Nuclear contribution   :     11.49189       2.89219      -5.77118
                        -----------------------------------------
Total Dipole Moment    :      0.15483       0.95442      -0.57193
                        -----------------------------------------
Magnitude (a.u.)       :      1.12339
Magnitude (Debye)      :      2.85543

Rotational constants in cm-1:     0.028085     0.019892     0.017361
Rotational constants in MHz :   841.979870   596.348105   520.472132

                             ****ORCA TERMINATED NORMALLY****
TOTAL RUN TIME: 0 days 0 hours 8 minutes 31 seconds 320 msec
