                         Program Version 5.0.3 -  RELEASE  -
|  1> ! EnGrad PBEh-3c
|  2> %output
|  3> xyzfile=True
|  4> end
|  5> %scf
|  6> maxiter 250
|  7> end
|  8> %output
|  9> Print[P_Hirshfeld] = 1
| 10> end
| 11> % maxcore
| 12> 4000
| 13> *xyz 0 1
| 14> Lu  -0.06986736  -0.05828635   0.09464248
| 15> C    0.45331083   0.79682815   2.51962513
| 16> C    1.45309670  -0.15471310   2.22099405
| 17> C    2.31310117   0.40240724   1.25386680
| 18> C    1.82650538   1.68185992   0.92456381
| 19> C    0.68185812   1.93606185   1.71899456
| 20> H    2.30772057   2.39151384   0.26401343
| 21> H    0.09834307   2.84055315   1.72239839
| 22> H   -0.31386577   0.69329576   3.26811479
| 23> H    1.55680727  -1.12778736   2.68186804
| 24> H    3.22756580  -0.04514687   0.88845994
| 25> C    0.90436738  -0.07951787  -2.41133532
| 26> C   -0.35868117  -0.72172271  -2.44758046
| 27> C    1.06466053  -2.01563841  -1.21659198
| 28> C    1.78271536  -0.89285193  -1.67183567
| 29> H    1.16606429   0.82787309  -2.93316853
| 30> C   -0.25770407  -1.92006790  -1.70841902
| 31> H   -1.23409740  -0.37142298  -2.96575946
| 32> H    2.84668728  -0.73010508  -1.55069634
| 33> H    1.47085633  -2.84666001  -0.65437353
| 34> H   -1.04699809  -2.62863356  -1.54644751
| 35> C   -2.21656512  -1.48891605   1.19368682
| 36> H   -2.23545731  -1.34468501   2.28451443
| 37> H   -1.89039341  -2.53986974   1.06876755
| 38> H   -3.26828746  -1.47969762   0.87265291
| 39> C   -1.99649087   1.79270743  -0.76924683
| 40> H   -2.06860186   0.57528526   0.07356991
| 41> H   -1.10521723   2.35797066  -1.15576677
| 42> H   -2.55932693   2.59802505  -0.29163952
| 43> H   -2.52750615   1.55528979  -1.68636354
| 44> *
| 45>
| 46>                          ****END OF INPUT****

CARTESIAN COORDINATES (ANGSTROEM)
---------------------------------
  Lu    -0.069867   -0.058286    0.094642
  C      0.453311    0.796828    2.519625
  C      1.453097   -0.154713    2.220994
  C      2.313101    0.402407    1.253867
  C      1.826505    1.681860    0.924564
  C      0.681858    1.936062    1.718995
  H      2.307721    2.391514    0.264013
  H      0.098343    2.840553    1.722398
  H     -0.313866    0.693296    3.268115
  H      1.556807   -1.127787    2.681868
  H      3.227566   -0.045147    0.888460
  C      0.904367   -0.079518   -2.411335
  C     -0.358681   -0.721723   -2.447580
  C      1.064661   -2.015638   -1.216592
  C      1.782715   -0.892852   -1.671836
  H      1.166064    0.827873   -2.933169
  C     -0.257704   -1.920068   -1.708419
  H     -1.234097   -0.371423   -2.965759
  H      2.846687   -0.730105   -1.550696
  H      1.470856   -2.846660   -0.654374
  H     -1.046998   -2.628634   -1.546448
  C     -2.216565   -1.488916    1.193687
  H     -2.235457   -1.344685    2.284514
  H     -1.890393   -2.539870    1.068768
  H     -3.268287   -1.479698    0.872653
  C     -1.996491    1.792707   -0.769247
  H     -2.068602    0.575285    0.073570
  H     -1.105217    2.357971   -1.155767
  H     -2.559327    2.598025   -0.291640
  H     -2.527506    1.555290   -1.686364

 Total Charge           Charge          ....    0
 Multiplicity           Mult            ....    1
 Number of Electrons    NEL             ....  132
 Basis Dimension        Dim             ....  295

ORBITAL ENERGIES
----------------

  NO   OCC          E(Eh)            E(eV)
   0   2.0000     -19.267003      -524.2818
   1   2.0000     -12.638757      -343.9181
   2   2.0000     -12.637340      -343.8795
   3   2.0000     -12.637188      -343.8754
   4   2.0000     -10.479526      -285.1624
   5   2.0000     -10.447637      -284.2947
   6   2.0000     -10.446975      -284.2766
   7   2.0000     -10.446686      -284.2688
   8   2.0000     -10.446275      -284.2576
   9   2.0000     -10.445823      -284.2453
  10   2.0000     -10.444763      -284.2165
  11   2.0000     -10.443459      -284.1810
  12   2.0000     -10.443242      -284.1751
  13   2.0000     -10.442002      -284.1413
  14   2.0000     -10.441292      -284.1220
  15   2.0000     -10.383234      -282.5422
  16   2.0000      -5.908133      -160.7685
  17   2.0000      -5.907914      -160.7625
  18   2.0000      -5.907697      -160.7566
  19   2.0000      -5.906911      -160.7352
  20   2.0000      -5.906861      -160.7339
  21   2.0000      -2.449685       -66.6593
  22   2.0000      -1.285793       -34.9882
  23   2.0000      -1.284342       -34.9487
  24   2.0000      -1.276719       -34.7413
  25   2.0000      -0.977576       -26.6012
  26   2.0000      -0.970515       -26.4091
  27   2.0000      -0.796262       -21.6674
  28   2.0000      -0.793464       -21.5913
  29   2.0000      -0.791182       -21.5292
  30   2.0000      -0.790577       -21.5127
  31   2.0000      -0.788921       -21.4676
  32   2.0000      -0.697062       -18.9680
  33   2.0000      -0.614126       -16.7112
  34   2.0000      -0.611988       -16.6530
  35   2.0000      -0.610083       -16.6012
  36   2.0000      -0.607646       -16.5349
  37   2.0000      -0.595757       -16.2114
  38   2.0000      -0.590766       -16.0756
  39   2.0000      -0.575290       -15.6544
  40   2.0000      -0.574638       -15.6367
  41   2.0000      -0.574156       -15.6236
  42   2.0000      -0.573555       -15.6072
  43   2.0000      -0.573447       -15.6043
  44   2.0000      -0.572881       -15.5889
  45   2.0000      -0.571280       -15.5453
  46   2.0000      -0.479583       -13.0501
  47   2.0000      -0.473694       -12.8899
  48   2.0000      -0.469725       -12.7819
  49   2.0000      -0.454865       -12.3775
  50   2.0000      -0.450446       -12.2573
  51   2.0000      -0.449395       -12.2287
  52   2.0000      -0.448962       -12.2169
  53   2.0000      -0.440143       -11.9769
  54   2.0000      -0.432675       -11.7737
  55   2.0000      -0.432055       -11.7568
  56   2.0000      -0.430472       -11.7137
  57   2.0000      -0.429459       -11.6862
  58   2.0000      -0.427346       -11.6287
  59   2.0000      -0.389903       -10.6098
  60   2.0000      -0.386153       -10.5078
  61   2.0000      -0.293177        -7.9778
  62   2.0000      -0.281456        -7.6588
  63   2.0000      -0.279065        -7.5937
  64   2.0000      -0.261305        -7.1105
  65   2.0000      -0.240868        -6.5543
  66   0.0000      -0.021566        -0.5868
  67   0.0000       0.022257         0.6056
  68   0.0000       0.029383         0.7996
  69   0.0000       0.048696         1.3251
  70   0.0000       0.050836         1.3833

MULLIKEN ATOMIC CHARGES
-----------------------
   0 Lu:    0.688688
   1 C :   -0.285190
   2 C :   -0.309622
   3 C :   -0.253154
   4 C :   -0.302476
   5 C :   -0.275624
   6 H :    0.230432
   7 H :    0.235644
   8 H :    0.246183
   9 H :    0.246104
  10 H :    0.230404
  11 C :   -0.303143
  12 C :   -0.284770
  13 C :   -0.322614
  14 C :   -0.243562
  15 H :    0.232066
  16 C :   -0.257728
  17 H :    0.233127
  18 H :    0.228233
  19 H :    0.240948
  20 H :    0.254480
  21 C :   -0.966604
  22 H :    0.202874
  23 H :    0.197734
  24 H :    0.203260
  25 C :   -0.951080
  26 H :    0.272757
  27 H :    0.260182
  28 H :    0.274171
  29 H :    0.278280
Sum of atomic charges:    0.0000000

LOEWDIN ATOMIC CHARGES
----------------------
   0 Lu:   -0.117412
   1 C :   -0.140923
   2 C :   -0.149312
   3 C :   -0.129594
   4 C :   -0.151576
   5 C :   -0.147214
   6 H :    0.150367
   7 H :    0.151871
   8 H :    0.159466
   9 H :    0.157452
  10 H :    0.150418
  11 C :   -0.153073
  12 C :   -0.145618
  13 C :   -0.151043
  14 C :   -0.125336
  15 H :    0.150169
  16 C :   -0.131536
  17 H :    0.151930
  18 H :    0.149733
  19 H :    0.156001
  20 H :    0.162403
  21 C :   -0.631082
  22 H :    0.118883
  23 H :    0.123000
  24 H :    0.119696
  25 C :   -0.475627
  26 H :    0.270118
  27 H :    0.174527
  28 H :    0.152487
  29 H :    0.150822

  Mayer bond orders larger than 0.100000
B(  0-Lu,  1-C ) :   0.2507 B(  0-Lu,  2-C ) :   0.2804 B(  0-Lu,  3-C ) :   0.2474
B(  0-Lu,  4-C ) :   0.2573 B(  0-Lu,  5-C ) :   0.2630 B(  0-Lu, 11-C ) :   0.2674
B(  0-Lu, 12-C ) :   0.2658 B(  0-Lu, 13-C ) :   0.2883 B(  0-Lu, 14-C ) :   0.2484
B(  0-Lu, 16-C ) :   0.2510 B(  0-Lu, 21-C ) :   0.6837 B(  0-Lu, 25-C ) :   0.3023
B(  0-Lu, 26-H ) :   0.2003 B(  1-C ,  2-C ) :   1.2821 B(  1-C ,  5-C ) :   1.2989
B(  1-C ,  8-H ) :   0.9157 B(  2-C ,  3-C ) :   1.2920 B(  2-C ,  9-H ) :   0.9114
B(  3-C ,  4-C ) :   1.3073 B(  3-C , 10-H ) :   0.9211 B(  4-C ,  5-C ) :   1.2799
B(  4-C ,  6-H ) :   0.9218 B(  5-C ,  7-H ) :   0.9160 B( 11-C , 12-C ) :   1.2675
B( 11-C , 14-C ) :   1.3126 B( 11-C , 15-H ) :   0.9197 B( 12-C , 16-C ) :   1.3077
B( 12-C , 17-H ) :   0.9171 B( 13-C , 14-C ) :   1.2851 B( 13-C , 16-C ) :   1.2764
B( 13-C , 19-H ) :   0.9158 B( 14-C , 18-H ) :   0.9228 B( 16-C , 20-H ) :   0.9089
B( 21-C , 22-H ) :   0.9179 B( 21-C , 23-H ) :   0.9144 B( 21-C , 24-H ) :   0.9242
B( 21-C , 26-H ) :   0.1038 B( 25-C , 26-H ) :   0.6116 B( 25-C , 27-H ) :   0.8678
B( 25-C , 28-H ) :   0.8946 B( 25-C , 29-H ) :   0.8861

Dispersion correction           -0.017540979
FINAL SINGLE POINT ENERGY     -1702.307571671336
Dispersion correction            ... done

DIPOLE MOMENT
-------------
                                X             Y             Z
Electronic contribution:    -10.51571      -1.12869       4.60768
Nuclear contribution   :     10.74173       2.04738      -5.16078
                        -----------------------------------------
Total Dipole Moment    :      0.22602       0.91869      -0.55311
                        -----------------------------------------
Magnitude (a.u.)       :      1.09591
Magnitude (Debye)      :      2.78558

Rotational constants in cm-1:     0.028290     0.020028     0.017398
Rotational constants in MHz :   848.118900   600.412987   521.589601

                             ****ORCA TERMINATED NORMALLY****
TOTAL RUN TIME: 0 days 0 hours 8 minutes 31 seconds 193 msec
