                         Program Version 5.0.3 -  RELEASE  -
|  1> ! EnGrad PBEh-3c
|  2> %output
|  3> xyzfile=True
|  4> end
|  5> %scf
|  6> maxiter 250
|  7> end
|  8> %output
|  9> Print[P_Hirshfeld] = 1
| 10> end
| 11> % maxcore
| 12> 4000
| 13> *xyz 0 1
| 14> Lu  -0.01307291  -0.00763301   0.05641854
| 15> C    0.43395091   0.82299317   2.49979649
| 16> C    1.41786176  -0.14989831   2.19751103
| 17> C    2.29671691   0.39631942   1.24921723
| 18> C    1.83844479   1.68404546   0.90654782
| 19> C    0.68646331   1.94955722   1.68709637
| 20> H    2.35375018   2.38865499   0.27043262
| 21> H    0.13210862   2.87784894   1.69902434
| 22> H   -0.34802670   0.72981074   3.23072564
| 23> H    1.51880924  -1.11715751   2.67799464
| 24> H    3.20780759  -0.06808846   0.88698560
| 25> C    0.92257529  -0.06755587  -2.41821590
| 26> C   -0.34810744  -0.69603851  -2.46127995
| 27> C    1.04944063  -1.99420899  -1.20628760
| 28> C    1.78451941  -0.88752015  -1.66210052
| 29> H    1.21406252   0.81730323  -2.96037238
| 30> C   -0.26903567  -1.88955964  -1.71217258
| 31> H   -1.21024232  -0.33670161  -2.99759591
| 32> H    2.84636174  -0.73277604  -1.53206759
| 33> H    1.44347458  -2.82762859  -0.63517602
| 34> H   -1.06567213  -2.58966825  -1.55372779
| 35> C   -2.27207831  -1.42144522   1.18604387
| 36> H   -2.21218508  -1.33585485   2.28204885
| 37> H   -1.86017286  -2.43093621   0.98185024
| 38> H   -3.35998860  -1.48917093   0.94673714
| 39> C   -1.95688593   1.67755584  -0.70955894
| 40> H   -2.03424331   0.46146936   0.07671915
| 41> H   -1.10849501   2.28349554  -1.12289038
| 42> H   -2.53293443   2.46585797  -0.20026990
| 43> H   -2.54327997   1.49570381  -1.62440831
| 44> *
| 45>
| 46>                          ****END OF INPUT****

CARTESIAN COORDINATES (ANGSTROEM)
---------------------------------
  Lu    -0.013073   -0.007633    0.056419
  C      0.433951    0.822993    2.499796
  C      1.417862   -0.149898    2.197511
  C      2.296717    0.396319    1.249217
  C      1.838445    1.684045    0.906548
  C      0.686463    1.949557    1.687096
  H      2.353750    2.388655    0.270433
  H      0.132109    2.877849    1.699024
  H     -0.348027    0.729811    3.230726
  H      1.518809   -1.117158    2.677995
  H      3.207808   -0.068088    0.886986
  C      0.922575   -0.067556   -2.418216
  C     -0.348107   -0.696039   -2.461280
  C      1.049441   -1.994209   -1.206288
  C      1.784519   -0.887520   -1.662101
  H      1.214063    0.817303   -2.960372
  C     -0.269036   -1.889560   -1.712173
  H     -1.210242   -0.336702   -2.997596
  H      2.846362   -0.732776   -1.532068
  H      1.443475   -2.827629   -0.635176
  H     -1.065672   -2.589668   -1.553728
  C     -2.272078   -1.421445    1.186044
  H     -2.212185   -1.335855    2.282049
  H     -1.860173   -2.430936    0.981850
  H     -3.359989   -1.489171    0.946737
  C     -1.956886    1.677556   -0.709559
  H     -2.034243    0.461469    0.076719
  H     -1.108495    2.283496   -1.122890
  H     -2.532934    2.465858   -0.200270
  H     -2.543280    1.495704   -1.624408

 Total Charge           Charge          ....    0
 Multiplicity           Mult            ....    1
 Number of Electrons    NEL             ....  132
 Basis Dimension        Dim             ....  295

ORBITAL ENERGIES
----------------

  NO   OCC          E(Eh)            E(eV)
   0   2.0000     -19.263434      -524.1847
   1   2.0000     -12.634918      -343.8136
   2   2.0000     -12.633847      -343.7845
   3   2.0000     -12.633720      -343.7810
   4   2.0000     -10.463381      -284.7231
   5   2.0000     -10.449636      -284.3490
   6   2.0000     -10.449170      -284.3364
   7   2.0000     -10.449059      -284.3333
   8   2.0000     -10.448063      -284.3063
   9   2.0000     -10.447466      -284.2900
  10   2.0000     -10.446656      -284.2680
  11   2.0000     -10.446175      -284.2549
  12   2.0000     -10.445561      -284.2382
  13   2.0000     -10.445198      -284.2283
  14   2.0000     -10.443765      -284.1893
  15   2.0000     -10.388688      -282.6906
  16   2.0000      -5.904304      -160.6643
  17   2.0000      -5.904186      -160.6611
  18   2.0000      -5.904012      -160.6563
  19   2.0000      -5.903411      -160.6400
  20   2.0000      -5.903388      -160.6394
  21   2.0000      -2.446349       -66.5685
  22   2.0000      -1.282819       -34.9073
  23   2.0000      -1.282430       -34.8967
  24   2.0000      -1.275518       -34.7086
  25   2.0000      -0.980624       -26.6841
  26   2.0000      -0.972345       -26.4588
  27   2.0000      -0.797111       -21.6905
  28   2.0000      -0.794083       -21.6081
  29   2.0000      -0.793051       -21.5800
  30   2.0000      -0.792038       -21.5525
  31   2.0000      -0.784545       -21.3486
  32   2.0000      -0.696873       -18.9629
  33   2.0000      -0.616082       -16.7645
  34   2.0000      -0.614635       -16.7251
  35   2.0000      -0.612191       -16.6586
  36   2.0000      -0.609331       -16.5807
  37   2.0000      -0.598117       -16.2756
  38   2.0000      -0.592808       -16.1311
  39   2.0000      -0.571677       -15.5561
  40   2.0000      -0.570700       -15.5295
  41   2.0000      -0.570314       -15.5190
  42   2.0000      -0.570019       -15.5110
  43   2.0000      -0.569905       -15.5079
  44   2.0000      -0.569585       -15.4992
  45   2.0000      -0.568105       -15.4589
  46   2.0000      -0.475199       -12.9308
  47   2.0000      -0.469954       -12.7881
  48   2.0000      -0.459426       -12.5016
  49   2.0000      -0.456469       -12.4212
  50   2.0000      -0.453213       -12.3326
  51   2.0000      -0.452180       -12.3044
  52   2.0000      -0.449215       -12.2238
  53   2.0000      -0.436128       -11.8676
  54   2.0000      -0.434801       -11.8315
  55   2.0000      -0.433750       -11.8029
  56   2.0000      -0.432513       -11.7693
  57   2.0000      -0.430726       -11.7207
  58   2.0000      -0.429107       -11.6766
  59   2.0000      -0.390345       -10.6218
  60   2.0000      -0.387250       -10.5376
  61   2.0000      -0.295201        -8.0328
  62   2.0000      -0.285574        -7.7709
  63   2.0000      -0.281319        -7.6551
  64   2.0000      -0.265785        -7.2324
  65   2.0000      -0.236798        -6.4436
  66   0.0000      -0.019402        -0.5279
  67   0.0000       0.026347         0.7169
  68   0.0000       0.034180         0.9301
  69   0.0000       0.050846         1.3836
  70   0.0000       0.054825         1.4919

MULLIKEN ATOMIC CHARGES
-----------------------
   0 Lu:    0.660970
   1 C :   -0.252149
   2 C :   -0.328392
   3 C :   -0.242812
   4 C :   -0.303502
   5 C :   -0.286191
   6 H :    0.233716
   7 H :    0.237262
   8 H :    0.248957
   9 H :    0.246270
  10 H :    0.233537
  11 C :   -0.308199
  12 C :   -0.271937
  13 C :   -0.322501
  14 C :   -0.245557
  15 H :    0.234005
  16 C :   -0.251002
  17 H :    0.235391
  18 H :    0.231307
  19 H :    0.242081
  20 H :    0.254044
  21 C :   -0.954341
  22 H :    0.202157
  23 H :    0.193350
  24 H :    0.201872
  25 C :   -0.997488
  26 H :    0.303174
  27 H :    0.260016
  28 H :    0.273201
  29 H :    0.272762
Sum of atomic charges:    0.0000000

LOEWDIN ATOMIC CHARGES
----------------------
   0 Lu:   -0.159771
   1 C :   -0.130187
   2 C :   -0.148149
   3 C :   -0.124567
   4 C :   -0.148875
   5 C :   -0.140699
   6 H :    0.153232
   7 H :    0.153677
   8 H :    0.160839
   9 H :    0.158692
  10 H :    0.151939
  11 C :   -0.150647
  12 C :   -0.135918
  13 C :   -0.149112
  14 C :   -0.123637
  15 H :    0.152011
  16 C :   -0.127394
  17 H :    0.153642
  18 H :    0.151122
  19 H :    0.156954
  20 H :    0.162336
  21 C :   -0.634338
  22 H :    0.117267
  23 H :    0.120404
  24 H :    0.120480
  25 C :   -0.505178
  26 H :    0.286689
  27 H :    0.177418
  28 H :    0.151696
  29 H :    0.150077

  Mayer bond orders larger than 0.100000
B(  0-Lu,  1-C ) :   0.2484 B(  0-Lu,  2-C ) :   0.2883 B(  0-Lu,  3-C ) :   0.2595
B(  0-Lu,  4-C ) :   0.2735 B(  0-Lu,  5-C ) :   0.2651 B(  0-Lu, 11-C ) :   0.2786
B(  0-Lu, 12-C ) :   0.2617 B(  0-Lu, 13-C ) :   0.2955 B(  0-Lu, 14-C ) :   0.2630
B(  0-Lu, 16-C ) :   0.2530 B(  0-Lu, 21-C ) :   0.6126 B(  0-Lu, 25-C ) :   0.3470
B(  0-Lu, 26-H ) :   0.2065 B(  1-C ,  2-C ) :   1.2761 B(  1-C ,  5-C ) :   1.3035
B(  1-C ,  8-H ) :   0.9138 B(  2-C ,  3-C ) :   1.2875 B(  2-C ,  9-H ) :   0.9135
B(  3-C ,  4-C ) :   1.2931 B(  3-C , 10-H ) :   0.9191 B(  4-C ,  5-C ) :   1.2723
B(  4-C ,  6-H ) :   0.9224 B(  5-C ,  7-H ) :   0.9176 B( 11-C , 12-C ) :   1.2676
B( 11-C , 14-C ) :   1.2992 B( 11-C , 15-H ) :   0.9206 B( 12-C , 16-C ) :   1.3114
B( 12-C , 17-H ) :   0.9173 B( 13-C , 14-C ) :   1.2798 B( 13-C , 16-C ) :   1.2705
B( 13-C , 19-H ) :   0.9155 B( 14-C , 18-H ) :   0.9216 B( 16-C , 20-H ) :   0.9095
B( 21-C , 22-H ) :   0.9181 B( 21-C , 23-H ) :   0.9124 B( 21-C , 24-H ) :   0.9264
B( 21-C , 26-H ) :   0.1599 B( 25-C , 26-H ) :   0.5366 B( 25-C , 27-H ) :   0.8554
B( 25-C , 28-H ) :   0.8946 B( 25-C , 29-H ) :   0.8901

Dispersion correction           -0.017785002
FINAL SINGLE POINT ENERGY     -1702.310145224378
Dispersion correction            ... done

DIPOLE MOMENT
-------------
                                X             Y             Z
Electronic contribution:     -7.39283       1.12094       2.84893
Nuclear contribution   :      7.84289      -0.35102      -3.32883
                        -----------------------------------------
Total Dipole Moment    :      0.45005       0.76992      -0.47990
                        -----------------------------------------
Magnitude (a.u.)       :      1.01273
Magnitude (Debye)      :      2.57416

Rotational constants in cm-1:     0.029008     0.020466     0.017563
Rotational constants in MHz :   869.631726   613.564911   526.530544

                             ****ORCA TERMINATED NORMALLY****
TOTAL RUN TIME: 0 days 0 hours 8 minutes 29 seconds 776 msec
