                         Program Version 5.0.3 -  RELEASE  -
|  1> ! EnGrad PBEh-3c
|  2> %output
|  3> xyzfile=True
|  4> end
|  5> %scf
|  6> maxiter 250
|  7> end
|  8> %output
|  9> Print[P_Hirshfeld] = 1
| 10> end
| 11> % maxcore
| 12> 4000
| 13> *xyz 0 1
| 14> Lu   0.03654762   0.00821482   0.03892682
| 15> C    0.42977337   0.83291793   2.47213727
| 16> C    1.39216545  -0.15547002   2.19840267
| 17> C    2.29710664   0.39227139   1.23476816
| 18> C    1.83131174   1.68115256   0.90462814
| 19> C    0.68371057   1.94072679   1.67185774
| 20> H    2.36486094   2.38404436   0.26678379
| 21> H    0.14237260   2.89179134   1.69127059
| 22> H   -0.37316010   0.73700757   3.21558340
| 23> H    1.50810313  -1.10816496   2.67501724
| 24> H    3.18746346  -0.07594519   0.88312572
| 25> C    0.91874590  -0.07523056  -2.41112191
| 26> C   -0.33473943  -0.68944447  -2.44847946
| 27> C    1.03302780  -1.99553138  -1.19405530
| 28> C    1.78344723  -0.87328510  -1.66089661
| 29> H    1.23107385   0.81934984  -2.96921284
| 30> C   -0.26415408  -1.85618087  -1.71216338
| 31> H   -1.20876482  -0.32144590  -3.00839368
| 32> H    2.83941052  -0.72861548  -1.51757284
| 33> H    1.43241929  -2.81448356  -0.62933502
| 34> H   -1.08208874  -2.58347226  -1.55231917
| 35> C   -2.28701754  -1.35805568   1.16336278
| 36> H   -2.20070084  -1.30095007   2.25919675
| 37> H   -1.83338338  -2.33251456   0.92039915
| 38> H   -3.36833933  -1.47941277   0.97092863
| 39> C   -1.94464739   1.61101278  -0.68154363
| 40> H   -2.05147586   0.41455087   0.07737391
| 41> H   -1.09543198   2.21821856  -1.08916900
| 42> H   -2.50867012   2.38114111  -0.14435316
| 43> H   -2.53904134   1.44981888  -1.58633774
| 44> *
| 45>
| 46>                          ****END OF INPUT****

CARTESIAN COORDINATES (ANGSTROEM)
---------------------------------
  Lu     0.036548    0.008215    0.038927
  C      0.429773    0.832918    2.472137
  C      1.392165   -0.155470    2.198403
  C      2.297107    0.392271    1.234768
  C      1.831312    1.681153    0.904628
  C      0.683711    1.940727    1.671858
  H      2.364861    2.384044    0.266784
  H      0.142373    2.891791    1.691271
  H     -0.373160    0.737008    3.215583
  H      1.508103   -1.108165    2.675017
  H      3.187463   -0.075945    0.883126
  C      0.918746   -0.075231   -2.411122
  C     -0.334739   -0.689444   -2.448479
  C      1.033028   -1.995531   -1.194055
  C      1.783447   -0.873285   -1.660897
  H      1.231074    0.819350   -2.969213
  C     -0.264154   -1.856181   -1.712163
  H     -1.208765   -0.321446   -3.008394
  H      2.839411   -0.728615   -1.517573
  H      1.432419   -2.814484   -0.629335
  H     -1.082089   -2.583472   -1.552319
  C     -2.287018   -1.358056    1.163363
  H     -2.200701   -1.300950    2.259197
  H     -1.833383   -2.332515    0.920399
  H     -3.368339   -1.479413    0.970929
  C     -1.944647    1.611013   -0.681544
  H     -2.051476    0.414551    0.077374
  H     -1.095432    2.218219   -1.089169
  H     -2.508670    2.381141   -0.144353
  H     -2.539041    1.449819   -1.586338

 Total Charge           Charge          ....    0
 Multiplicity           Mult            ....    1
 Number of Electrons    NEL             ....  132
 Basis Dimension        Dim             ....  295

ORBITAL ENERGIES
----------------

  NO   OCC          E(Eh)            E(eV)
   0   2.0000     -19.260372      -524.1014
   1   2.0000     -12.631764      -343.7278
   2   2.0000     -12.630811      -343.7018
   3   2.0000     -12.630657      -343.6976
   4   2.0000     -10.450845      -284.3820
   5   2.0000     -10.450187      -284.3640
   6   2.0000     -10.449991      -284.3587
   7   2.0000     -10.449214      -284.3376
   8   2.0000     -10.449065      -284.3335
   9   2.0000     -10.448070      -284.3064
  10   2.0000     -10.447663      -284.2954
  11   2.0000     -10.447068      -284.2792
  12   2.0000     -10.445738      -284.2430
  13   2.0000     -10.445105      -284.2258
  14   2.0000     -10.444557      -284.2109
  15   2.0000     -10.383638      -282.5532
  16   2.0000      -5.901122      -160.5777
  17   2.0000      -5.901056      -160.5759
  18   2.0000      -5.900922      -160.5722
  19   2.0000      -5.900360      -160.5569
  20   2.0000      -5.900283      -160.5549
  21   2.0000      -2.443503       -66.4911
  22   2.0000      -1.282185       -34.8900
  23   2.0000      -1.279353       -34.8130
  24   2.0000      -1.273872       -34.6638
  25   2.0000      -0.987668       -26.8758
  26   2.0000      -0.977744       -26.6058
  27   2.0000      -0.799878       -21.7658
  28   2.0000      -0.796961       -21.6864
  29   2.0000      -0.796169       -21.6649
  30   2.0000      -0.794918       -21.6308
  31   2.0000      -0.780464       -21.2375
  32   2.0000      -0.697671       -18.9846
  33   2.0000      -0.620466       -16.8838
  34   2.0000      -0.614456       -16.7202
  35   2.0000      -0.611985       -16.6529
  36   2.0000      -0.608450       -16.5568
  37   2.0000      -0.599266       -16.3068
  38   2.0000      -0.593885       -16.1604
  39   2.0000      -0.568614       -15.4728
  40   2.0000      -0.567531       -15.4433
  41   2.0000      -0.567101       -15.4316
  42   2.0000      -0.566884       -15.4257
  43   2.0000      -0.566828       -15.4242
  44   2.0000      -0.566648       -15.4193
  45   2.0000      -0.565099       -15.3771
  46   2.0000      -0.476357       -12.9623
  47   2.0000      -0.469701       -12.7812
  48   2.0000      -0.458631       -12.4800
  49   2.0000      -0.457571       -12.4511
  50   2.0000      -0.454993       -12.3810
  51   2.0000      -0.452928       -12.3248
  52   2.0000      -0.447025       -12.1642
  53   2.0000      -0.442215       -12.0333
  54   2.0000      -0.439064       -11.9475
  55   2.0000      -0.433704       -11.8017
  56   2.0000      -0.431915       -11.7530
  57   2.0000      -0.428629       -11.6636
  58   2.0000      -0.425560       -11.5801
  59   2.0000      -0.390765       -10.6333
  60   2.0000      -0.385322       -10.4851
  61   2.0000      -0.297784        -8.1031
  62   2.0000      -0.289481        -7.8772
  63   2.0000      -0.283649        -7.7185
  64   2.0000      -0.270281        -7.3547
  65   2.0000      -0.232396        -6.3238
  66   0.0000      -0.019292        -0.5249
  67   0.0000       0.026196         0.7128
  68   0.0000       0.037339         1.0160
  69   0.0000       0.052637         1.4323
  70   0.0000       0.056606         1.5403

MULLIKEN ATOMIC CHARGES
-----------------------
   0 Lu:    0.658246
   1 C :   -0.235027
   2 C :   -0.330981
   3 C :   -0.253433
   4 C :   -0.299189
   5 C :   -0.284577
   6 H :    0.235962
   7 H :    0.238141
   8 H :    0.249399
   9 H :    0.247034
  10 H :    0.236647
  11 C :   -0.302791
  12 C :   -0.260195
  13 C :   -0.323559
  14 C :   -0.256785
  15 H :    0.234604
  16 C :   -0.243117
  17 H :    0.235566
  18 H :    0.233645
  19 H :    0.243550
  20 H :    0.251749
  21 C :   -0.968742
  22 H :    0.200217
  23 H :    0.192094
  24 H :    0.205629
  25 C :   -1.020700
  26 H :    0.316424
  27 H :    0.254341
  28 H :    0.273613
  29 H :    0.272231
Sum of atomic charges:   -0.0000000

LOEWDIN ATOMIC CHARGES
----------------------
   0 Lu:   -0.171952
   1 C :   -0.120963
   2 C :   -0.146038
   3 C :   -0.123398
   4 C :   -0.143789
   5 C :   -0.139483
   6 H :    0.154909
   7 H :    0.156354
   8 H :    0.162766
   9 H :    0.159130
  10 H :    0.152310
  11 C :   -0.145884
  12 C :   -0.133780
  13 C :   -0.149323
  14 C :   -0.123120
  15 H :    0.153845
  16 C :   -0.120921
  17 H :    0.156585
  18 H :    0.151745
  19 H :    0.157741
  20 H :    0.163535
  21 C :   -0.651610
  22 H :    0.116079
  23 H :    0.119741
  24 H :    0.120977
  25 C :   -0.524570
  26 H :    0.292617
  27 H :    0.177512
  28 H :    0.150313
  29 H :    0.148670

  Mayer bond orders larger than 0.100000
B(  0-Lu,  1-C ) :   0.2435 B(  0-Lu,  2-C ) :   0.2955 B(  0-Lu,  3-C ) :   0.2741
B(  0-Lu,  4-C ) :   0.2816 B(  0-Lu,  5-C ) :   0.2651 B(  0-Lu, 11-C ) :   0.2813
B(  0-Lu, 12-C ) :   0.2587 B(  0-Lu, 13-C ) :   0.3058 B(  0-Lu, 14-C ) :   0.2773
B(  0-Lu, 16-C ) :   0.2498 B(  0-Lu, 21-C ) :   0.5724 B(  0-Lu, 25-C ) :   0.3579
B(  0-Lu, 26-H ) :   0.1920 B(  1-C ,  2-C ) :   1.2802 B(  1-C ,  5-C ) :   1.3042
B(  1-C ,  8-H ) :   0.9127 B(  2-C ,  3-C ) :   1.2738 B(  2-C ,  9-H ) :   0.9150
B(  3-C ,  4-C ) :   1.2924 B(  3-C , 10-H ) :   0.9183 B(  4-C ,  5-C ) :   1.2647
B(  4-C ,  6-H ) :   0.9210 B(  5-C ,  7-H ) :   0.9186 B( 11-C , 12-C ) :   1.2623
B( 11-C , 14-C ) :   1.3026 B( 11-C , 15-H ) :   0.9191 B( 12-C , 16-C ) :   1.3156
B( 12-C , 17-H ) :   0.9171 B( 13-C , 14-C ) :   1.2644 B( 13-C , 16-C ) :   1.2728
B( 13-C , 19-H ) :   0.9157 B( 14-C , 18-H ) :   0.9200 B( 16-C , 20-H ) :   0.9094
B( 21-C , 22-H ) :   0.9201 B( 21-C , 23-H ) :   0.9105 B( 21-C , 24-H ) :   0.9255
B( 21-C , 26-H ) :   0.1885 B( 25-C , 26-H ) :   0.5167 B( 25-C , 27-H ) :   0.8498
B( 25-C , 28-H ) :   0.8940 B( 25-C , 29-H ) :   0.8908

Dispersion correction           -0.017989863
FINAL SINGLE POINT ENERGY     -1702.314111864046
Dispersion correction            ... done

DIPOLE MOMENT
-------------
                                X             Y             Z
Electronic contribution:     -4.72107       1.78907       2.03038
Nuclear contribution   :      5.32849      -1.09307      -2.48530
                        -----------------------------------------
Total Dipole Moment    :      0.60742       0.69600      -0.45492
                        -----------------------------------------
Magnitude (a.u.)       :      1.02972
Magnitude (Debye)      :      2.61734

Rotational constants in cm-1:     0.029672     0.020844     0.017760
Rotational constants in MHz :   889.557573   624.878343   532.422407

                             ****ORCA TERMINATED NORMALLY****
TOTAL RUN TIME: 0 days 0 hours 8 minutes 34 seconds 6 msec
