                         Program Version 5.0.3 -  RELEASE  -
|  1> ! EnGrad PBEh-3c
|  2> %output
|  3> xyzfile=True
|  4> end
|  5> %scf
|  6> maxiter 250
|  7> end
|  8> %output
|  9> Print[P_Hirshfeld] = 1
| 10> end
| 11> % maxcore
| 12> 4000
| 13> *xyz 0 1
| 14> Pd   0.73313039   0.66076850  -0.58194243
| 15> O    2.37051585   1.71130230   0.14955419
| 16> C    1.71404562   2.77619668   0.19306532
| 17> O    0.48018208   2.71063903  -0.09090294
| 18> C    2.36340017   4.07955970   0.50706884
| 19> H    1.67049686   4.75085562   1.00920461
| 20> H    2.67764628   4.55296367  -0.42481697
| 21> H    3.25026038   3.93750251   1.12006654
| 22> N   -1.12704411  -0.12482871  -1.10738539
| 23> C   -1.21731991  -0.55036595  -2.51724826
| 24> H   -0.93256191   0.26149885  -3.18262729
| 25> H   -2.23620643  -0.86423722  -2.77171723
| 26> H   -0.56117307  -1.39044176  -2.71400844
| 27> C   -2.08591853   0.97901669  -0.95502965
| 28> H   -2.06040149   1.39008293   0.04854454
| 29> H   -3.10440941   0.64351520  -1.17796028
| 30> H   -1.84195967   1.78935675  -1.63960452
| 31> C   -1.39873721  -1.03365901   1.22356015
| 32> C   -0.26311832  -1.46243219   1.90930281
| 33> C   -0.17466094  -1.39313715   3.28995334
| 34> C   -1.22896949  -0.87759160   4.02267433
| 35> C   -2.40911816  -0.55669669   3.37060011
| 36> C   -2.46650380  -0.54585188   1.98015854
| 37> H   -1.16366179  -0.83506182   5.10224036
| 38> H   -3.25460619  -0.26691698   3.98323774
| 39> H    0.56301580  -1.91680717   1.37821134
| 40> H    0.71917453  -1.73168325   3.79711133
| 41> H   -3.76449284  -0.23865726   1.48208938
| 42> C   -1.49967591  -1.28145907  -0.25745899
| 43> H   -2.53664283  -1.56701656  -0.47502823
| 44> H   -0.86863769  -2.11886503  -0.55672120
| 45> O    1.64689302  -1.03885588  -1.02194758
| 46> C    2.25077561  -0.99420188  -2.17241470
| 47> O    2.08921863  -0.12459328  -3.00638050
| 48> C    3.22079034  -2.11940481  -2.43794098
| 49> H    2.79520803  -3.08504670  -2.16910151
| 50> H    4.11457590  -1.98072693  -1.82731389
| 51> H    3.53648848  -2.14471967  -3.47907420
| 52> *
| 53>
| 54>                          ****END OF INPUT****

CARTESIAN COORDINATES (ANGSTROEM)
---------------------------------
  Pd     0.733130    0.660768   -0.581942
  O      2.370516    1.711302    0.149554
  C      1.714046    2.776197    0.193065
  O      0.480182    2.710639   -0.090903
  C      2.363400    4.079560    0.507069
  H      1.670497    4.750856    1.009205
  H      2.677646    4.552964   -0.424817
  H      3.250260    3.937503    1.120067
  N     -1.127044   -0.124829   -1.107385
  C     -1.217320   -0.550366   -2.517248
  H     -0.932562    0.261499   -3.182627
  H     -2.236206   -0.864237   -2.771717
  H     -0.561173   -1.390442   -2.714008
  C     -2.085919    0.979017   -0.955030
  H     -2.060401    1.390083    0.048545
  H     -3.104409    0.643515   -1.177960
  H     -1.841960    1.789357   -1.639605
  C     -1.398737   -1.033659    1.223560
  C     -0.263118   -1.462432    1.909303
  C     -0.174661   -1.393137    3.289953
  C     -1.228969   -0.877592    4.022674
  C     -2.409118   -0.556697    3.370600
  C     -2.466504   -0.545852    1.980159
  H     -1.163662   -0.835062    5.102240
  H     -3.254606   -0.266917    3.983238
  H      0.563016   -1.916807    1.378211
  H      0.719175   -1.731683    3.797111
  H     -3.764493   -0.238657    1.482089
  C     -1.499676   -1.281459   -0.257459
  H     -2.536643   -1.567017   -0.475028
  H     -0.868638   -2.118865   -0.556721
  O      1.646893   -1.038856   -1.021948
  C      2.250776   -0.994202   -2.172415
  O      2.089219   -0.124593   -3.006380
  C      3.220790   -2.119405   -2.437941
  H      2.795208   -3.085047   -2.169102
  H      4.114576   -1.980727   -1.827314
  H      3.536488   -2.144720   -3.479074

 Total Charge           Charge          ....    0
 Multiplicity           Mult            ....    1
 Number of Electrons    NEL             ....  154
 Basis Dimension        Dim             ....  339

ORBITAL ENERGIES
----------------

  NO   OCC          E(Eh)            E(eV)
   0   2.0000     -19.497401      -530.5512
   1   2.0000     -19.492450      -530.4165
   2   2.0000     -19.478447      -530.0355
   3   2.0000     -19.431625      -528.7614
   4   2.0000     -14.725542      -400.7024
   5   2.0000     -10.568325      -287.5787
   6   2.0000     -10.532004      -286.5904
   7   2.0000     -10.499200      -285.6977
   8   2.0000     -10.494223      -285.5623
   9   2.0000     -10.480651      -285.1930
  10   2.0000     -10.479510      -285.1620
  11   2.0000     -10.477150      -285.0977
  12   2.0000     -10.460687      -284.6498
  13   2.0000     -10.458210      -284.5824
  14   2.0000     -10.457978      -284.5761
  15   2.0000     -10.455339      -284.5042
  16   2.0000     -10.440468      -284.0996
  17   2.0000     -10.415444      -283.4187
  18   2.0000      -3.659653       -99.5842
  19   2.0000      -2.307612       -62.7933
  20   2.0000      -2.304664       -62.7131
  21   2.0000      -2.268081       -61.7176
  22   2.0000      -1.202815       -32.7303
  23   2.0000      -1.152118       -31.3507
  24   2.0000      -1.082951       -29.4686
  25   2.0000      -1.080944       -29.4140
  26   2.0000      -1.054560       -28.6960
  27   2.0000      -0.972706       -26.4687
  28   2.0000      -0.882236       -24.0069
  29   2.0000      -0.844724       -22.9861
  30   2.0000      -0.833789       -22.6886
  31   2.0000      -0.820658       -22.3312
  32   2.0000      -0.801774       -21.8174
  33   2.0000      -0.798869       -21.7383
  34   2.0000      -0.719754       -19.5855
  35   2.0000      -0.689292       -18.7566
  36   2.0000      -0.670792       -18.2532
  37   2.0000      -0.613431       -16.6923
  38   2.0000      -0.594694       -16.1824
  39   2.0000      -0.592459       -16.1216
  40   2.0000      -0.580326       -15.7915
  41   2.0000      -0.572036       -15.5659
  42   2.0000      -0.553769       -15.0688
  43   2.0000      -0.545899       -14.8547
  44   2.0000      -0.544015       -14.8034
  45   2.0000      -0.533014       -14.5041
  46   2.0000      -0.527627       -14.3574
  47   2.0000      -0.515029       -14.0147
  48   2.0000      -0.510492       -13.8912
  49   2.0000      -0.496793       -13.5184
  50   2.0000      -0.490786       -13.3550
  51   2.0000      -0.487566       -13.2674
  52   2.0000      -0.479402       -13.0452
  53   2.0000      -0.467335       -12.7168
  54   2.0000      -0.459358       -12.4998
  55   2.0000      -0.457706       -12.4548
  56   2.0000      -0.447241       -12.1700
  57   2.0000      -0.446504       -12.1500
  58   2.0000      -0.442015       -12.0278
  59   2.0000      -0.433184       -11.7875
  60   2.0000      -0.431213       -11.7339
  61   2.0000      -0.419237       -11.4080
  62   2.0000      -0.412191       -11.2163
  63   2.0000      -0.406019       -11.0483
  64   2.0000      -0.392756       -10.6874
  65   2.0000      -0.386354       -10.5132
  66   2.0000      -0.371942       -10.1210
  67   2.0000      -0.363887        -9.9019
  68   2.0000      -0.351284        -9.5589
  69   2.0000      -0.340587        -9.2678
  70   2.0000      -0.322855        -8.7853
  71   2.0000      -0.315524        -8.5858
  72   2.0000      -0.310136        -8.4392
  73   2.0000      -0.305919        -8.3245
  74   2.0000      -0.300091        -8.1659
  75   2.0000      -0.296764        -8.0754
  76   2.0000      -0.272460        -7.4140
  77   0.0000      -0.044064        -1.1990
  78   0.0000      -0.003757        -0.1022
  79   0.0000       0.006965         0.1895
  80   0.0000       0.048129         1.3097
  81   0.0000       0.062651         1.7048

MULLIKEN ATOMIC CHARGES
-----------------------
   0 Pd:    0.529902
   1 O :   -0.473034
   2 C :    0.668831
   3 O :   -0.516594
   4 C :   -0.770525
   5 H :    0.252729
   6 H :    0.262425
   7 H :    0.256508
   8 N :   -0.493949
   9 C :   -0.525155
  10 H :    0.285190
  11 H :    0.222554
  12 H :    0.274552
  13 C :   -0.538261
  14 H :    0.298701
  15 H :    0.221579
  16 H :    0.280807
  17 C :    0.097913
  18 C :   -0.257755
  19 C :   -0.210880
  20 C :   -0.220759
  21 C :   -0.203789
  22 C :   -0.253605
  23 H :    0.227461
  24 H :    0.230646
  25 H :    0.271556
  26 H :    0.232452
  27 H :    0.157214
  28 C :   -0.353206
  29 H :    0.241729
  30 H :    0.285846
  31 O :   -0.562435
  32 C :    0.560810
  33 O :   -0.447087
  34 C :   -0.745088
  35 H :    0.224571
  36 H :    0.244947
  37 H :    0.243196
Sum of atomic charges:    0.0000000

LOEWDIN ATOMIC CHARGES
----------------------
   0 Pd:   -0.288850
   1 O :   -0.141625
   2 C :    0.181838
   3 O :   -0.193552
   4 C :   -0.376209
   5 H :    0.154050
   6 H :    0.165560
   7 H :    0.155304
   8 N :   -0.038822
   9 C :   -0.229558
  10 H :    0.160009
  11 H :    0.121002
  12 H :    0.152693
  13 C :   -0.234197
  14 H :    0.163671
  15 H :    0.122413
  16 H :    0.157773
  17 C :   -0.063136
  18 C :   -0.098505
  19 C :   -0.125417
  20 C :   -0.126594
  21 C :   -0.139515
  22 C :   -0.104654
  23 H :    0.139330
  24 H :    0.140463
  25 H :    0.166718
  26 H :    0.142191
  27 H :    0.115454
  28 C :   -0.104964
  29 H :    0.134190
  30 H :    0.161406
  31 O :   -0.201323
  32 C :    0.126565
  33 O :   -0.244967
  34 C :   -0.382444
  35 H :    0.138222
  36 H :    0.152164
  37 H :    0.143317

  Mayer bond orders larger than 0.100000
B(  0-Pd,  1-O ) :   0.5400 B(  0-Pd,  3-O ) :   0.5056 B(  0-Pd,  8-N ) :   0.4347
B(  0-Pd, 31-O ) :   0.6355 B(  0-Pd, 33-O ) :   0.1108 B(  1-O ,  2-C ) :   1.4655
B(  1-O ,  3-O ) :   0.1022 B(  2-C ,  3-O ) :   1.4564 B(  2-C ,  4-C ) :   0.9579
B(  4-C ,  5-H ) :   0.9098 B(  4-C ,  6-H ) :   0.9015 B(  4-C ,  7-H ) :   0.9084
B(  8-N ,  9-C ) :   0.9184 B(  8-N , 13-C ) :   0.9153 B(  8-N , 28-C ) :   0.8932
B(  9-C , 10-H ) :   0.8970 B(  9-C , 11-H ) :   0.9011 B(  9-C , 12-H ) :   0.8997
B( 13-C , 14-H ) :   0.8835 B( 13-C , 15-H ) :   0.9048 B( 13-C , 16-H ) :   0.8963
B( 17-C , 18-C ) :   1.4079 B( 17-C , 22-C ) :   1.3699 B( 17-C , 28-C ) :   0.9470
B( 18-C , 19-C ) :   1.4299 B( 18-C , 25-H ) :   0.8905 B( 19-C , 20-C ) :   1.4228
B( 19-C , 26-H ) :   0.9146 B( 20-C , 21-C ) :   1.4239 B( 20-C , 23-H ) :   0.9155
B( 21-C , 22-C ) :   1.4257 B( 21-C , 24-H ) :   0.9141 B( 22-C , 27-H ) :   0.9280
B( 28-C , 29-H ) :   0.9022 B( 28-C , 30-H ) :   0.8951 B( 31-O , 32-C ) :   1.2419
B( 32-C , 33-O ) :   1.8846 B( 32-C , 34-C ) :   0.9397 B( 34-C , 35-H ) :   0.9172
B( 34-C , 36-H ) :   0.9113 B( 34-C , 37-H ) :   0.9193

Dispersion correction           -0.026362489
FINAL SINGLE POINT ENERGY      -988.520787441369
Dispersion correction            ... done

DIPOLE MOMENT
-------------
                                X             Y             Z
Electronic contribution:     32.59694      32.98899     -29.28804
Nuclear contribution   :    -34.39101     -33.26407      30.10998
                        -----------------------------------------
Total Dipole Moment    :     -1.79407      -0.27508       0.82194
                        -----------------------------------------
Magnitude (a.u.)       :      1.99247
Magnitude (Debye)      :      5.06446

Rotational constants in cm-1:     0.013272     0.008409     0.007143
Rotational constants in MHz :   397.890379   252.105019   214.155763

                             ****ORCA TERMINATED NORMALLY****
TOTAL RUN TIME: 0 days 0 hours 16 minutes 51 seconds 625 msec
