                         Program Version 5.0.3 -  RELEASE  -
|  1> ! EnGrad PBEh-3c
|  2> %output
|  3> xyzfile=True
|  4> end
|  5> %scf
|  6> maxiter 250
|  7> end
|  8> %output
|  9> Print[P_Hirshfeld] = 1
| 10> end
| 11> % maxcore
| 12> 4000
| 13> *xyz 0 1
| 14> Pd   0.77286246   0.65265638  -0.56645970
| 15> O    2.34398748   1.65364516   0.15458809
| 16> C    1.68032774   2.73826062   0.20319043
| 17> O    0.45430365   2.68138771  -0.07572005
| 18> C    2.38128771   4.03498911   0.52258373
| 19> H    1.71200879   4.73662414   1.01726579
| 20> H    2.70921347   4.50190096  -0.41102715
| 21> H    3.26893562   3.88010382   1.13712642
| 22> N   -1.15541332  -0.14705052  -1.14121659
| 23> C   -1.21763326  -0.66439475  -2.52625132
| 24> H   -0.92447935   0.12525157  -3.21242451
| 25> H   -2.25152933  -0.96615605  -2.74333923
| 26> H   -0.55400520  -1.51431128  -2.65942684
| 27> C   -2.10686287   0.96528774  -1.02817952
| 28> H   -2.07115635   1.40002123  -0.03360237
| 29> H   -3.12270958   0.60873401  -1.23992265
| 30> H   -1.83102459   1.71872232  -1.76210278
| 31> C   -1.46906672  -1.02690351   1.26461620
| 32> C   -0.34632357  -1.49666642   1.91703081
| 33> C   -0.20268290  -1.40021519   3.29182998
| 34> C   -1.26516741  -0.90392568   4.02818395
| 35> C   -2.38814524  -0.44533625   3.43481193
| 36> C   -2.56812770  -0.51449595   2.01077871
| 37> H   -1.17083615  -0.82053437   5.09632144
| 38> H   -3.25769597  -0.19386884   3.99645495
| 39> H    0.45082498  -1.97914184   1.36143681
| 40> H    0.67878586  -1.81704588   3.79938457
| 41> H   -3.29013705   0.07304980   1.64497505
| 42> C   -1.57246995  -1.24715087  -0.21953630
| 43> H   -2.59866126  -1.52875060  -0.45668785
| 44> H   -0.95333575  -2.12011062  -0.47793728
| 45> O    1.66176121  -1.04613632  -1.05316209
| 46> C    2.24921003  -0.94591187  -2.21617709
| 47> O    2.02377510  -0.06338891  -3.02291479
| 48> C    3.27948390  -2.03757872  -2.46438471
| 49> H    2.90271083  -3.03030924  -2.21823999
| 50> H    4.16466290  -1.85986091  -1.84920705
| 51> H    3.57827543  -2.01124249  -3.51083164
| 52> *
| 53>
| 54>                          ****END OF INPUT****

CARTESIAN COORDINATES (ANGSTROEM)
---------------------------------
  Pd     0.772862    0.652656   -0.566460
  O      2.343987    1.653645    0.154588
  C      1.680328    2.738261    0.203190
  O      0.454304    2.681388   -0.075720
  C      2.381288    4.034989    0.522584
  H      1.712009    4.736624    1.017266
  H      2.709213    4.501901   -0.411027
  H      3.268936    3.880104    1.137126
  N     -1.155413   -0.147051   -1.141217
  C     -1.217633   -0.664395   -2.526251
  H     -0.924479    0.125252   -3.212425
  H     -2.251529   -0.966156   -2.743339
  H     -0.554005   -1.514311   -2.659427
  C     -2.106863    0.965288   -1.028180
  H     -2.071156    1.400021   -0.033602
  H     -3.122710    0.608734   -1.239923
  H     -1.831025    1.718722   -1.762103
  C     -1.469067   -1.026904    1.264616
  C     -0.346324   -1.496666    1.917031
  C     -0.202683   -1.400215    3.291830
  C     -1.265167   -0.903926    4.028184
  C     -2.388145   -0.445336    3.434812
  C     -2.568128   -0.514496    2.010779
  H     -1.170836   -0.820534    5.096321
  H     -3.257696   -0.193869    3.996455
  H      0.450825   -1.979142    1.361437
  H      0.678786   -1.817046    3.799385
  H     -3.290137    0.073050    1.644975
  C     -1.572470   -1.247151   -0.219536
  H     -2.598661   -1.528751   -0.456688
  H     -0.953336   -2.120111   -0.477937
  O      1.661761   -1.046136   -1.053162
  C      2.249210   -0.945912   -2.216177
  O      2.023775   -0.063389   -3.022915
  C      3.279484   -2.037579   -2.464385
  H      2.902711   -3.030309   -2.218240
  H      4.164663   -1.859861   -1.849207
  H      3.578275   -2.011242   -3.510832

 Total Charge           Charge          ....    0
 Multiplicity           Mult            ....    1
 Number of Electrons    NEL             ....  154
 Basis Dimension        Dim             ....  339

ORBITAL ENERGIES
----------------

  NO   OCC          E(Eh)            E(eV)
   0   2.0000     -19.505035      -530.7590
   1   2.0000     -19.503662      -530.7216
   2   2.0000     -19.475549      -529.9566
   3   2.0000     -19.435592      -528.8694
   4   2.0000     -14.716664      -400.4608
   5   2.0000     -10.578225      -287.8481
   6   2.0000     -10.534020      -286.6453
   7   2.0000     -10.493016      -285.5295
   8   2.0000     -10.480261      -285.1824
   9   2.0000     -10.477376      -285.1039
  10   2.0000     -10.472398      -284.9684
  11   2.0000     -10.458377      -284.5869
  12   2.0000     -10.456945      -284.5479
  13   2.0000     -10.454364      -284.4777
  14   2.0000     -10.453444      -284.4527
  15   2.0000     -10.450710      -284.3783
  16   2.0000     -10.446640      -284.2675
  17   2.0000     -10.417033      -283.4619
  18   2.0000      -3.657890       -99.5363
  19   2.0000      -2.306808       -62.7714
  20   2.0000      -2.302562       -62.6559
  21   2.0000      -2.266216       -61.6669
  22   2.0000      -1.209139       -32.9023
  23   2.0000      -1.150545       -31.3079
  24   2.0000      -1.091599       -29.7039
  25   2.0000      -1.071090       -29.1459
  26   2.0000      -1.052943       -28.6520
  27   2.0000      -0.968325       -26.3495
  28   2.0000      -0.879566       -23.9342
  29   2.0000      -0.847097       -23.0507
  30   2.0000      -0.834197       -22.6996
  31   2.0000      -0.817813       -22.2538
  32   2.0000      -0.797438       -21.6994
  33   2.0000      -0.796638       -21.6776
  34   2.0000      -0.714763       -19.4497
  35   2.0000      -0.700019       -19.0485
  36   2.0000      -0.667181       -18.1549
  37   2.0000      -0.620367       -16.8811
  38   2.0000      -0.600863       -16.3503
  39   2.0000      -0.590210       -16.0604
  40   2.0000      -0.573240       -15.5986
  41   2.0000      -0.565496       -15.3879
  42   2.0000      -0.557106       -15.1596
  43   2.0000      -0.552724       -15.0404
  44   2.0000      -0.552184       -15.0257
  45   2.0000      -0.531895       -14.4736
  46   2.0000      -0.529848       -14.4179
  47   2.0000      -0.522579       -14.2201
  48   2.0000      -0.510535       -13.8924
  49   2.0000      -0.496312       -13.5053
  50   2.0000      -0.491177       -13.3656
  51   2.0000      -0.488558       -13.2943
  52   2.0000      -0.484734       -13.1903
  53   2.0000      -0.470745       -12.8096
  54   2.0000      -0.462137       -12.5754
  55   2.0000      -0.456854       -12.4316
  56   2.0000      -0.451600       -12.2887
  57   2.0000      -0.446228       -12.1425
  58   2.0000      -0.438670       -11.9368
  59   2.0000      -0.433253       -11.7894
  60   2.0000      -0.431409       -11.7392
  61   2.0000      -0.419541       -11.4163
  62   2.0000      -0.411405       -11.1949
  63   2.0000      -0.408999       -11.1294
  64   2.0000      -0.393649       -10.7117
  65   2.0000      -0.392057       -10.6684
  66   2.0000      -0.376957       -10.2575
  67   2.0000      -0.364565        -9.9203
  68   2.0000      -0.351627        -9.5682
  69   2.0000      -0.344657        -9.3786
  70   2.0000      -0.319706        -8.6997
  71   2.0000      -0.315596        -8.5878
  72   2.0000      -0.310504        -8.4492
  73   2.0000      -0.301309        -8.1990
  74   2.0000      -0.297940        -8.1074
  75   2.0000      -0.296509        -8.0684
  76   2.0000      -0.272454        -7.4139
  77   0.0000      -0.039238        -1.0677
  78   0.0000      -0.008281        -0.2253
  79   0.0000       0.008881         0.2417
  80   0.0000       0.041000         1.1157
  81   0.0000       0.068627         1.8674

MULLIKEN ATOMIC CHARGES
-----------------------
   0 Pd:    0.530519
   1 O :   -0.491406
   2 C :    0.676755
   3 O :   -0.501501
   4 C :   -0.771066
   5 H :    0.252891
   6 H :    0.263531
   7 H :    0.260142
   8 N :   -0.479558
   9 C :   -0.513162
  10 H :    0.280016
  11 H :    0.214913
  12 H :    0.272043
  13 C :   -0.525622
  14 H :    0.284222
  15 H :    0.216926
  16 H :    0.272827
  17 C :    0.066828
  18 C :   -0.255599
  19 C :   -0.208479
  20 C :   -0.209855
  21 C :   -0.227284
  22 C :   -0.253112
  23 H :    0.224087
  24 H :    0.221917
  25 H :    0.270272
  26 H :    0.228852
  27 H :    0.225925
  28 C :   -0.362902
  29 H :    0.238216
  30 H :    0.274010
  31 O :   -0.561442
  32 C :    0.560816
  33 O :   -0.445435
  34 C :   -0.743673
  35 H :    0.229250
  36 H :    0.246510
  37 H :    0.238627
Sum of atomic charges:   -0.0000000

LOEWDIN ATOMIC CHARGES
----------------------
   0 Pd:   -0.291269
   1 O :   -0.140957
   2 C :    0.200281
   3 O :   -0.173901
   4 C :   -0.377148
   5 H :    0.153152
   6 H :    0.165642
   7 H :    0.156943
   8 N :   -0.056114
   9 C :   -0.228200
  10 H :    0.157718
  11 H :    0.118447
  12 H :    0.153007
  13 C :   -0.233744
  14 H :    0.158875
  15 H :    0.119869
  16 H :    0.154683
  17 C :   -0.053579
  18 C :   -0.104067
  19 C :   -0.117253
  20 C :   -0.131644
  21 C :   -0.129058
  22 C :   -0.135180
  23 H :    0.137496
  24 H :    0.136798
  25 H :    0.163994
  26 H :    0.143121
  27 H :    0.137804
  28 C :   -0.112788
  29 H :    0.130422
  30 H :    0.157019
  31 O :   -0.205145
  32 C :    0.134786
  33 O :   -0.241506
  34 C :   -0.383739
  35 H :    0.140603
  36 H :    0.152885
  37 H :    0.141748

  Mayer bond orders larger than 0.100000
B(  0-Pd,  1-O ) :   0.5778 B(  0-Pd,  3-O ) :   0.4915 B(  0-Pd,  8-N ) :   0.4058
B(  0-Pd, 31-O ) :   0.6471 B(  0-Pd, 33-O ) :   0.1110 B(  1-O ,  2-C ) :   1.4067
B(  1-O ,  3-O ) :   0.1039 B(  2-C ,  3-O ) :   1.4858 B(  2-C ,  4-C ) :   0.9564
B(  4-C ,  5-H ) :   0.9087 B(  4-C ,  6-H ) :   0.9004 B(  4-C ,  7-H ) :   0.9072
B(  8-N ,  9-C ) :   0.9200 B(  8-N , 13-C ) :   0.9231 B(  8-N , 28-C ) :   0.8953
B(  9-C , 10-H ) :   0.8988 B(  9-C , 11-H ) :   0.9036 B(  9-C , 12-H ) :   0.9011
B( 13-C , 14-H ) :   0.8907 B( 13-C , 15-H ) :   0.9050 B( 13-C , 16-H ) :   0.9023
B( 17-C , 18-C ) :   1.3999 B( 17-C , 22-C ) :   1.4077 B( 17-C , 28-C ) :   0.9522
B( 18-C , 19-C ) :   1.4418 B( 18-C , 25-H ) :   0.8918 B( 19-C , 20-C ) :   1.4019
B( 19-C , 22-C ) :   0.1092 B( 19-C , 26-H ) :   0.9158 B( 20-C , 21-C ) :   1.4570
B( 20-C , 23-H ) :   0.9169 B( 21-C , 22-C ) :   1.4137 B( 21-C , 24-H ) :   0.9177
B( 22-C , 27-H ) :   0.9150 B( 28-C , 29-H ) :   0.9025 B( 28-C , 30-H ) :   0.9016
B( 31-O , 32-C ) :   1.2337 B( 32-C , 33-O ) :   1.8868 B( 32-C , 34-C ) :   0.9351
B( 34-C , 35-H ) :   0.9166 B( 34-C , 36-H ) :   0.9114 B( 34-C , 37-H ) :   0.9195

Dispersion correction           -0.026056100
FINAL SINGLE POINT ENERGY      -988.546388396238
Dispersion correction            ... done

DIPOLE MOMENT
-------------
                                X             Y             Z
Electronic contribution:     35.22483      32.82288     -28.46435
Nuclear contribution   :    -36.83637     -32.87840      29.25432
                        -----------------------------------------
Total Dipole Moment    :     -1.61153      -0.05552       0.78997
                        -----------------------------------------
Magnitude (a.u.)       :      1.79560
Magnitude (Debye)      :      4.56405

Rotational constants in cm-1:     0.013385     0.008303     0.007083
Rotational constants in MHz :   401.267892   248.912601   212.355571

                             ****ORCA TERMINATED NORMALLY****
TOTAL RUN TIME: 0 days 0 hours 15 minutes 19 seconds 437 msec
