                         Program Version 5.0.3 -  RELEASE  -
|  1> ! EnGrad PBEh-3c
|  2> %output
|  3> xyzfile=True
|  4> end
|  5> %scf
|  6> maxiter 250
|  7> end
|  8> %output
|  9> Print[P_Hirshfeld] = 1
| 10> end
| 11> % maxcore
| 12> 4000
| 13> *xyz 0 1
| 14> Pd   0.75680125   0.61830619  -0.57058109
| 15> O    2.32354336   1.62824368   0.16336674
| 16> C    1.67362090   2.70546049   0.22022493
| 17> O    0.43760418   2.64518162  -0.05718376
| 18> C    2.39262677   3.98523970   0.53412800
| 19> H    1.75308937   4.71814521   1.02404988
| 20> H    2.73862824   4.44668231  -0.39557259
| 21> H    3.28065512   3.81875880   1.15019995
| 22> N   -1.16771829  -0.17966327  -1.14334901
| 23> C   -1.22126146  -0.76814288  -2.51643646
| 24> H   -0.91471486  -0.01203135  -3.24506150
| 25> H   -2.26110533  -1.07148427  -2.72251915
| 26> H   -0.55118654  -1.63206828  -2.60227524
| 27> C   -2.11865814   0.94239032  -1.10579972
| 28> H   -2.08623750   1.41058283  -0.11814355
| 29> H   -3.14152988   0.57837570  -1.30178505
| 30> H   -1.82855748   1.65656222  -1.87849941
| 31> C   -1.51528623  -1.02730243   1.28422448
| 32> C   -0.39735697  -1.54212041   1.93732227
| 33> C   -0.24736521  -1.43322812   3.28354250
| 34> C   -1.26111422  -0.91490641   4.07660648
| 35> C   -2.38344634  -0.38347236   3.48708588
| 36> C   -2.46021515  -0.50424772   2.10939830
| 37> H   -1.18384389  -0.81439880   5.09300355
| 38> H   -3.27082418  -0.08731105   4.02606791
| 39> H    0.32385465  -2.03094649   1.34594258
| 40> H    0.62215211  -1.88606314   3.79012692
| 41> H   -3.01792295   0.44041608   1.70339784
| 42> C   -1.63318089  -1.22872642  -0.19403564
| 43> H   -2.66966451  -1.49079302  -0.44615451
| 44> H   -1.04285606  -2.10989396  -0.39773366
| 45> O    1.67987423  -1.04630775  -1.08599695
| 46> C    2.24549384  -0.90022268  -2.24810272
| 47> O    1.96725829  -0.01879093  -3.03453446
| 48> C    3.33000049  -1.94340640  -2.50023093
| 49> H    3.00778214  -2.96879083  -2.26718558
| 50> H    4.20874979  -1.73888681  -1.87246147
| 51> H    3.62394308  -1.88316059  -3.54296263
| 52> *
| 53>
| 54>                          ****END OF INPUT****

CARTESIAN COORDINATES (ANGSTROEM)
---------------------------------
  Pd     0.756801    0.618306   -0.570581
  O      2.323543    1.628244    0.163367
  C      1.673621    2.705460    0.220225
  O      0.437604    2.645182   -0.057184
  C      2.392627    3.985240    0.534128
  H      1.753089    4.718145    1.024050
  H      2.738628    4.446682   -0.395573
  H      3.280655    3.818759    1.150200
  N     -1.167718   -0.179663   -1.143349
  C     -1.221261   -0.768143   -2.516436
  H     -0.914715   -0.012031   -3.245061
  H     -2.261105   -1.071484   -2.722519
  H     -0.551187   -1.632068   -2.602275
  C     -2.118658    0.942390   -1.105800
  H     -2.086238    1.410583   -0.118144
  H     -3.141530    0.578376   -1.301785
  H     -1.828557    1.656562   -1.878499
  C     -1.515286   -1.027302    1.284224
  C     -0.397357   -1.542120    1.937322
  C     -0.247365   -1.433228    3.283542
  C     -1.261114   -0.914906    4.076606
  C     -2.383446   -0.383472    3.487086
  C     -2.460215   -0.504248    2.109398
  H     -1.183844   -0.814399    5.093004
  H     -3.270824   -0.087311    4.026068
  H      0.323855   -2.030946    1.345943
  H      0.622152   -1.886063    3.790127
  H     -3.017923    0.440416    1.703398
  C     -1.633181   -1.228726   -0.194036
  H     -2.669665   -1.490793   -0.446155
  H     -1.042856   -2.109894   -0.397734
  O      1.679874   -1.046308   -1.085997
  C      2.245494   -0.900223   -2.248103
  O      1.967258   -0.018791   -3.034534
  C      3.330000   -1.943406   -2.500231
  H      3.007782   -2.968791   -2.267186
  H      4.208750   -1.738887   -1.872461
  H      3.623943   -1.883161   -3.542963

 Total Charge           Charge          ....    0
 Multiplicity           Mult            ....    1
 Number of Electrons    NEL             ....  154
 Basis Dimension        Dim             ....  339

ORBITAL ENERGIES
----------------

  NO   OCC          E(Eh)            E(eV)
   0   2.0000     -19.505509      -530.7719
   1   2.0000     -19.500563      -530.6373
   2   2.0000     -19.476339      -529.9781
   3   2.0000     -19.437447      -528.9198
   4   2.0000     -14.719041      -400.5255
   5   2.0000     -10.577164      -287.8193
   6   2.0000     -10.534918      -286.6697
   7   2.0000     -10.494714      -285.5757
   8   2.0000     -10.482647      -285.2473
   9   2.0000     -10.481491      -285.2159
  10   2.0000     -10.466051      -284.7957
  11   2.0000     -10.456584      -284.5381
  12   2.0000     -10.454820      -284.4901
  13   2.0000     -10.454315      -284.4764
  14   2.0000     -10.449839      -284.3546
  15   2.0000     -10.449638      -284.3491
  16   2.0000     -10.446787      -284.2715
  17   2.0000     -10.418870      -283.5119
  18   2.0000      -3.658534       -99.5538
  19   2.0000      -2.307265       -62.7839
  20   2.0000      -2.303352       -62.6774
  21   2.0000      -2.266884       -61.6850
  22   2.0000      -1.209931       -32.9239
  23   2.0000      -1.155246       -31.4358
  24   2.0000      -1.089935       -29.6586
  25   2.0000      -1.071123       -29.1467
  26   2.0000      -1.056373       -28.7454
  27   2.0000      -0.978068       -26.6146
  28   2.0000      -0.883674       -24.0460
  29   2.0000      -0.848728       -23.0951
  30   2.0000      -0.835358       -22.7313
  31   2.0000      -0.816431       -22.2162
  32   2.0000      -0.800391       -21.7797
  33   2.0000      -0.796223       -21.6663
  34   2.0000      -0.717698       -19.5296
  35   2.0000      -0.693621       -18.8744
  36   2.0000      -0.673190       -18.3184
  37   2.0000      -0.621059       -16.8999
  38   2.0000      -0.599185       -16.3047
  39   2.0000      -0.591248       -16.0887
  40   2.0000      -0.575733       -15.6665
  41   2.0000      -0.567500       -15.4425
  42   2.0000      -0.555304       -15.1106
  43   2.0000      -0.552827       -15.0432
  44   2.0000      -0.550892       -14.9905
  45   2.0000      -0.532173       -14.4812
  46   2.0000      -0.531241       -14.4558
  47   2.0000      -0.517355       -14.0779
  48   2.0000      -0.511655       -13.9228
  49   2.0000      -0.498409       -13.5624
  50   2.0000      -0.492496       -13.4015
  51   2.0000      -0.486948       -13.2505
  52   2.0000      -0.480779       -13.0827
  53   2.0000      -0.473565       -12.8864
  54   2.0000      -0.461261       -12.5516
  55   2.0000      -0.458256       -12.4698
  56   2.0000      -0.450746       -12.2654
  57   2.0000      -0.446198       -12.1417
  58   2.0000      -0.437511       -11.9053
  59   2.0000      -0.436250       -11.8710
  60   2.0000      -0.434093       -11.8123
  61   2.0000      -0.419865       -11.4251
  62   2.0000      -0.415271       -11.3001
  63   2.0000      -0.409509       -11.1433
  64   2.0000      -0.394642       -10.7388
  65   2.0000      -0.379435       -10.3250
  66   2.0000      -0.375922       -10.2294
  67   2.0000      -0.366287        -9.9672
  68   2.0000      -0.353198        -9.6110
  69   2.0000      -0.344114        -9.3638
  70   2.0000      -0.320743        -8.7278
  71   2.0000      -0.316079        -8.6010
  72   2.0000      -0.310602        -8.4519
  73   2.0000      -0.302078        -8.2199
  74   2.0000      -0.299461        -8.1487
  75   2.0000      -0.296379        -8.0649
  76   2.0000      -0.273383        -7.4391
  77   0.0000      -0.040314        -1.0970
  78   0.0000      -0.005533        -0.1505
  79   0.0000       0.003174         0.0864
  80   0.0000       0.040925         1.1136
  81   0.0000       0.067131         1.8267

MULLIKEN ATOMIC CHARGES
-----------------------
   0 Pd:    0.530988
   1 O :   -0.482706
   2 C :    0.677140
   3 O :   -0.511167
   4 C :   -0.775611
   5 H :    0.253469
   6 H :    0.264807
   7 H :    0.260427
   8 N :   -0.482231
   9 C :   -0.514685
  10 H :    0.281786
  11 H :    0.216159
  12 H :    0.270876
  13 C :   -0.518616
  14 H :    0.278653
  15 H :    0.219359
  16 H :    0.270586
  17 C :    0.116706
  18 C :   -0.256704
  19 C :   -0.206207
  20 C :   -0.224724
  21 C :   -0.210818
  22 C :   -0.286904
  23 H :    0.228751
  24 H :    0.234340
  25 H :    0.264963
  26 H :    0.222111
  27 H :    0.184927
  28 C :   -0.350851
  29 H :    0.242152
  30 H :    0.273232
  31 O :   -0.556626
  32 C :    0.561830
  33 O :   -0.444266
  34 C :   -0.744262
  35 H :    0.228861
  36 H :    0.246155
  37 H :    0.238102
Sum of atomic charges:    0.0000000

LOEWDIN ATOMIC CHARGES
----------------------
   0 Pd:   -0.290473
   1 O :   -0.131817
   2 C :    0.196871
   3 O :   -0.184989
   4 C :   -0.377722
   5 H :    0.152666
   6 H :    0.166186
   7 H :    0.157683
   8 N :   -0.056460
   9 C :   -0.227476
  10 H :    0.159113
  11 H :    0.119665
  12 H :    0.153379
  13 C :   -0.230833
  14 H :    0.156878
  15 H :    0.121621
  16 H :    0.154348
  17 C :   -0.067333
  18 C :   -0.098049
  19 C :   -0.120629
  20 C :   -0.123718
  21 C :   -0.136232
  22 C :   -0.133799
  23 H :    0.136158
  24 H :    0.143068
  25 H :    0.157752
  26 H :    0.142366
  27 H :    0.135220
  28 C :   -0.111737
  29 H :    0.134010
  30 H :    0.157296
  31 O :   -0.198388
  32 C :    0.131693
  33 O :   -0.237481
  34 C :   -0.384035
  35 H :    0.141159
  36 H :    0.153088
  37 H :    0.140954

  Mayer bond orders larger than 0.100000
B(  0-Pd,  1-O ) :   0.5688 B(  0-Pd,  3-O ) :   0.4961 B(  0-Pd,  8-N ) :   0.4058
B(  0-Pd, 31-O ) :   0.6532 B(  0-Pd, 33-O ) :   0.1131 B(  1-O ,  2-C ) :   1.4252
B(  1-O ,  3-O ) :   0.1031 B(  2-C ,  3-O ) :   1.4726 B(  2-C ,  4-C ) :   0.9569
B(  4-C ,  5-H ) :   0.9085 B(  4-C ,  6-H ) :   0.8993 B(  4-C ,  7-H ) :   0.9070
B(  8-N ,  9-C ) :   0.9146 B(  8-N , 13-C ) :   0.9210 B(  8-N , 28-C ) :   0.8994
B(  9-C , 10-H ) :   0.8974 B(  9-C , 11-H ) :   0.9030 B(  9-C , 12-H ) :   0.9014
B( 13-C , 14-H ) :   0.8927 B( 13-C , 15-H ) :   0.9040 B( 13-C , 16-H ) :   0.9031
B( 17-C , 18-C ) :   1.3873 B( 17-C , 22-C ) :   1.3932 B( 17-C , 28-C ) :   0.9538
B( 18-C , 19-C ) :   1.4627 B( 18-C , 25-H ) :   0.8911 B( 19-C , 20-C ) :   1.3923
B( 19-C , 26-H ) :   0.9214 B( 20-C , 21-C ) :   1.4692 B( 20-C , 23-H ) :   0.9152
B( 21-C , 22-C ) :   1.3833 B( 21-C , 24-H ) :   0.9115 B( 22-C , 27-H ) :   0.9263
B( 28-C , 29-H ) :   0.9005 B( 28-C , 30-H ) :   0.9019 B( 31-O , 32-C ) :   1.2359
B( 32-C , 33-O ) :   1.8871 B( 32-C , 34-C ) :   0.9313 B( 34-C , 35-H ) :   0.9173
B( 34-C , 36-H ) :   0.9117 B( 34-C , 37-H ) :   0.9186

Dispersion correction           -0.025996178
FINAL SINGLE POINT ENERGY      -988.523049353213
Dispersion correction            ... done

DIPOLE MOMENT
-------------
                                X             Y             Z
Electronic contribution:     34.64876      31.07622     -28.75588
Nuclear contribution   :    -36.10687     -31.14918      29.52395
                        -----------------------------------------
Total Dipole Moment    :     -1.45811      -0.07296       0.76806
                        -----------------------------------------
Magnitude (a.u.)       :      1.64964
Magnitude (Debye)      :      4.19306

Rotational constants in cm-1:     0.013524     0.008248     0.007051
Rotational constants in MHz :   405.447011   247.272110   211.379600

                             ****ORCA TERMINATED NORMALLY****
TOTAL RUN TIME: 0 days 0 hours 15 minutes 29 seconds 360 msec
