                         Program Version 5.0.3 -  RELEASE  -
|  1> ! EnGrad PBEh-3c
|  2> %output
|  3> xyzfile=True
|  4> end
|  5> %scf
|  6> maxiter 250
|  7> end
|  8> %output
|  9> Print[P_Hirshfeld] = 1
| 10> end
| 11> % maxcore
| 12> 4000
| 13> *xyz 0 1
| 14> Pd   0.76603718   0.63805913  -0.56821110
| 15> O    2.33529967   1.64285070   0.15831861
| 16> C    1.67747764   2.72432208   0.21042931
| 17> O    0.44720714   2.66600178  -0.06784298
| 18> C    2.38610629   4.01384790   0.52748951
| 19> H    1.72946615   4.72877144   1.02014871
| 20> H    2.72171340   4.47843557  -0.40445967
| 21> H    3.27391587   3.85403500   1.14268207
| 22> N   -1.16064237  -0.16090944  -1.14212277
| 23> C   -1.21917508  -0.70848294  -2.52208046
| 24> H   -0.92032989   0.06691264  -3.22629373
| 25> H   -2.25559869  -1.01091570  -2.73449165
| 26> H   -0.55280740  -1.56435260  -2.63514004
| 27> C   -2.11187532   0.95555739  -1.06116454
| 28> H   -2.07756515   1.40450943  -0.06952849
| 29> H   -3.13070735   0.59583312  -1.26621133
| 30> H   -1.82997618   1.69230713  -1.81156600
| 31> C   -1.48870789  -1.02707303   1.27294882
| 32> C   -0.36801042  -1.51598228   1.92565375
| 33> C   -0.22167083  -1.41424417   3.28830818
| 34> C   -1.26344499  -0.90859199   4.04876130
| 35> C   -2.38614842  -0.41904694   3.45702596
| 36> C   -2.52226983  -0.51014092   2.05268751
| 37> H   -1.17636384  -0.81792704   5.09491149
| 38> H   -3.26327486  -0.14858668   4.00903909
| 39> H    0.39686842  -2.00115643   1.35485247
| 40> H    0.65471912  -1.84637505   3.79545050
| 41> H   -3.17445857   0.22916359   1.66980205
| 42> C   -1.59826931  -1.23932133  -0.20869969
| 43> H   -2.62883438  -1.51262037  -0.45221166
| 44> H   -0.99137777  -2.11576901  -0.44385443
| 45> O    1.66945841  -1.04620917  -1.06711540
| 46> C    2.24763082  -0.92649607  -2.22974402
| 47> O    1.99975806  -0.04443682  -3.02785262
| 48> C    3.30095113  -1.99755981  -2.47961771
| 49> H    2.94736131  -3.00416674  -2.23903962
| 50> H    4.18339780  -1.80845248  -1.85908911
| 51> H    3.59768208  -1.95681357  -3.52448584
| 52> *
| 53>
| 54>                          ****END OF INPUT****

CARTESIAN COORDINATES (ANGSTROEM)
---------------------------------
  Pd     0.766037    0.638059   -0.568211
  O      2.335300    1.642851    0.158319
  C      1.677478    2.724322    0.210429
  O      0.447207    2.666002   -0.067843
  C      2.386106    4.013848    0.527490
  H      1.729466    4.728771    1.020149
  H      2.721713    4.478436   -0.404460
  H      3.273916    3.854035    1.142682
  N     -1.160642   -0.160909   -1.142123
  C     -1.219175   -0.708483   -2.522080
  H     -0.920330    0.066913   -3.226294
  H     -2.255599   -1.010916   -2.734492
  H     -0.552807   -1.564353   -2.635140
  C     -2.111875    0.955557   -1.061165
  H     -2.077565    1.404509   -0.069528
  H     -3.130707    0.595833   -1.266211
  H     -1.829976    1.692307   -1.811566
  C     -1.488708   -1.027073    1.272949
  C     -0.368010   -1.515982    1.925654
  C     -0.221671   -1.414244    3.288308
  C     -1.263445   -0.908592    4.048761
  C     -2.386148   -0.419047    3.457026
  C     -2.522270   -0.510141    2.052688
  H     -1.176364   -0.817927    5.094911
  H     -3.263275   -0.148587    4.009039
  H      0.396868   -2.001156    1.354852
  H      0.654719   -1.846375    3.795450
  H     -3.174459    0.229164    1.669802
  C     -1.598269   -1.239321   -0.208700
  H     -2.628834   -1.512620   -0.452212
  H     -0.991378   -2.115769   -0.443854
  O      1.669458   -1.046209   -1.067115
  C      2.247631   -0.926496   -2.229744
  O      1.999758   -0.044437   -3.027853
  C      3.300951   -1.997560   -2.479618
  H      2.947361   -3.004167   -2.239040
  H      4.183398   -1.808452   -1.859089
  H      3.597682   -1.956814   -3.524486

 Total Charge           Charge          ....    0
 Multiplicity           Mult            ....    1
 Number of Electrons    NEL             ....  154
 Basis Dimension        Dim             ....  339

ORBITAL ENERGIES
----------------

  NO   OCC          E(Eh)            E(eV)
   0   2.0000     -19.505252      -530.7649
   1   2.0000     -19.502361      -530.6862
   2   2.0000     -19.475869      -529.9653
   3   2.0000     -19.436345      -528.8898
   4   2.0000     -14.717688      -400.4887
   5   2.0000     -10.577788      -287.8363
   6   2.0000     -10.534302      -286.6529
   7   2.0000     -10.493616      -285.5458
   8   2.0000     -10.481450      -285.2147
   9   2.0000     -10.479081      -285.1503
  10   2.0000     -10.468958      -284.8748
  11   2.0000     -10.455785      -284.5164
  12   2.0000     -10.455387      -284.5055
  13   2.0000     -10.453700      -284.4596
  14   2.0000     -10.451392      -284.3968
  15   2.0000     -10.449880      -284.3557
  16   2.0000     -10.446686      -284.2688
  17   2.0000     -10.417671      -283.4793
  18   2.0000      -3.658183       -99.5442
  19   2.0000      -2.307022       -62.7773
  20   2.0000      -2.302922       -62.6657
  21   2.0000      -2.266516       -61.6750
  22   2.0000      -1.209366       -32.9085
  23   2.0000      -1.152712       -31.3669
  24   2.0000      -1.091008       -29.6878
  25   2.0000      -1.071424       -29.1549
  26   2.0000      -1.054523       -28.6950
  27   2.0000      -0.972203       -26.4550
  28   2.0000      -0.881089       -23.9757
  29   2.0000      -0.847890       -23.0723
  30   2.0000      -0.834728       -22.7141
  31   2.0000      -0.817432       -22.2434
  32   2.0000      -0.798362       -21.7245
  33   2.0000      -0.796886       -21.6844
  34   2.0000      -0.715834       -19.4788
  35   2.0000      -0.696063       -18.9408
  36   2.0000      -0.670421       -18.2431
  37   2.0000      -0.620669       -16.8893
  38   2.0000      -0.600470       -16.3396
  39   2.0000      -0.590681       -16.0732
  40   2.0000      -0.573992       -15.6191
  41   2.0000      -0.566739       -15.4218
  42   2.0000      -0.555703       -15.1215
  43   2.0000      -0.552914       -15.0456
  44   2.0000      -0.551596       -15.0097
  45   2.0000      -0.531931       -14.4746
  46   2.0000      -0.529657       -14.4127
  47   2.0000      -0.519680       -14.1412
  48   2.0000      -0.511037       -13.9060
  49   2.0000      -0.497232       -13.5304
  50   2.0000      -0.491392       -13.3714
  51   2.0000      -0.488227       -13.2853
  52   2.0000      -0.485195       -13.2028
  53   2.0000      -0.472097       -12.8464
  54   2.0000      -0.461779       -12.5656
  55   2.0000      -0.457801       -12.4574
  56   2.0000      -0.451278       -12.2799
  57   2.0000      -0.446232       -12.1426
  58   2.0000      -0.438410       -11.9298
  59   2.0000      -0.433983       -11.8093
  60   2.0000      -0.433149       -11.7866
  61   2.0000      -0.419740       -11.4217
  62   2.0000      -0.412120       -11.2144
  63   2.0000      -0.400659       -10.9025
  64   2.0000      -0.398959       -10.8562
  65   2.0000      -0.393405       -10.7051
  66   2.0000      -0.376527       -10.2458
  67   2.0000      -0.365379        -9.9425
  68   2.0000      -0.352419        -9.5898
  69   2.0000      -0.344511        -9.3746
  70   2.0000      -0.320162        -8.7120
  71   2.0000      -0.315736        -8.5916
  72   2.0000      -0.310553        -8.4506
  73   2.0000      -0.301751        -8.2111
  74   2.0000      -0.298574        -8.1246
  75   2.0000      -0.297446        -8.0939
  76   2.0000      -0.272850        -7.4246
  77   0.0000      -0.039691        -1.0800
  78   0.0000      -0.006070        -0.1652
  79   0.0000       0.006386         0.1738
  80   0.0000       0.040976         1.1150
  81   0.0000       0.068211         1.8561

MULLIKEN ATOMIC CHARGES
-----------------------
   0 Pd:    0.531022
   1 O :   -0.487755
   2 C :    0.677011
   3 O :   -0.505703
   4 C :   -0.773001
   5 H :    0.253165
   6 H :    0.264059
   7 H :    0.260278
   8 N :   -0.480474
   9 C :   -0.513917
  10 H :    0.280850
  11 H :    0.215451
  12 H :    0.271606
  13 C :   -0.522995
  14 H :    0.281314
  15 H :    0.218107
  16 H :    0.272219
  17 C :    0.083298
  18 C :   -0.255100
  19 C :   -0.208300
  20 C :   -0.214351
  21 C :   -0.222523
  22 C :   -0.268491
  23 H :    0.226233
  24 H :    0.226880
  25 H :    0.268248
  26 H :    0.225940
  27 H :    0.214913
  28 C :   -0.358859
  29 H :    0.240027
  30 H :    0.273941
  31 O :   -0.559348
  32 C :    0.561140
  33 O :   -0.444779
  34 C :   -0.744069
  35 H :    0.229200
  36 H :    0.246367
  37 H :    0.238394
Sum of atomic charges:    0.0000000

LOEWDIN ATOMIC CHARGES
----------------------
   0 Pd:   -0.290564
   1 O :   -0.137086
   2 C :    0.198869
   3 O :   -0.178665
   4 C :   -0.377384
   5 H :    0.152938
   6 H :    0.165871
   7 H :    0.157269
   8 N :   -0.056182
   9 C :   -0.227880
  10 H :    0.158288
  11 H :    0.118975
  12 H :    0.153173
  13 C :   -0.232590
  14 H :    0.157868
  15 H :    0.120629
  16 H :    0.154642
  17 C :   -0.059113
  18 C :   -0.101498
  19 C :   -0.118382
  20 C :   -0.128394
  21 C :   -0.131663
  22 C :   -0.138219
  23 H :    0.136976
  24 H :    0.139193
  25 H :    0.161065
  26 H :    0.142681
  27 H :    0.139647
  28 C :   -0.112457
  29 H :    0.131966
  30 H :    0.157197
  31 O :   -0.202099
  32 C :    0.133083
  33 O :   -0.239559
  34 C :   -0.383844
  35 H :    0.140849
  36 H :    0.152987
  37 H :    0.141414

  Mayer bond orders larger than 0.100000
B(  0-Pd,  1-O ) :   0.5740 B(  0-Pd,  3-O ) :   0.4934 B(  0-Pd,  8-N ) :   0.4056
B(  0-Pd, 31-O ) :   0.6499 B(  0-Pd, 33-O ) :   0.1118 B(  1-O ,  2-C ) :   1.4146
B(  1-O ,  3-O ) :   0.1036 B(  2-C ,  3-O ) :   1.4802 B(  2-C ,  4-C ) :   0.9567
B(  4-C ,  5-H ) :   0.9086 B(  4-C ,  6-H ) :   0.9000 B(  4-C ,  7-H ) :   0.9071
B(  8-N ,  9-C ) :   0.9178 B(  8-N , 13-C ) :   0.9225 B(  8-N , 28-C ) :   0.8969
B(  9-C , 10-H ) :   0.8982 B(  9-C , 11-H ) :   0.9033 B(  9-C , 12-H ) :   0.9012
B( 13-C , 14-H ) :   0.8920 B( 13-C , 15-H ) :   0.9045 B( 13-C , 16-H ) :   0.9027
B( 17-C , 18-C ) :   1.3947 B( 17-C , 22-C ) :   1.4062 B( 17-C , 28-C ) :   0.9534
B( 18-C , 19-C ) :   1.4518 B( 18-C , 25-H ) :   0.8916 B( 19-C , 20-C ) :   1.3985
B( 19-C , 26-H ) :   0.9181 B( 20-C , 21-C ) :   1.4636 B( 20-C , 23-H ) :   0.9160
B( 21-C , 22-C ) :   1.4014 B( 21-C , 24-H ) :   0.9154 B( 22-C , 27-H ) :   0.9192
B( 28-C , 29-H ) :   0.9017 B( 28-C , 30-H ) :   0.9018 B( 31-O , 32-C ) :   1.2347
B( 32-C , 33-O ) :   1.8873 B( 32-C , 34-C ) :   0.9336 B( 34-C , 35-H ) :   0.9169
B( 34-C , 36-H ) :   0.9115 B( 34-C , 37-H ) :   0.9191

Dispersion correction           -0.026037882
FINAL SINGLE POINT ENERGY      -988.546713143123
Dispersion correction            ... done

DIPOLE MOMENT
-------------
                                X             Y             Z
Electronic contribution:     34.97700      32.09156     -28.59345
Nuclear contribution   :    -36.52636     -32.14356      29.36890
                        -----------------------------------------
Total Dipole Moment    :     -1.54936      -0.05201       0.77545
                        -----------------------------------------
Magnitude (a.u.)       :      1.73336
Magnitude (Debye)      :      4.40586

Rotational constants in cm-1:     0.013446     0.008280     0.007071
Rotational constants in MHz :   403.115832   248.231890   211.974354

                             ****ORCA TERMINATED NORMALLY****
TOTAL RUN TIME: 0 days 0 hours 12 minutes 43 seconds 726 msec
