                         Program Version 5.0.3 -  RELEASE  -
|  1> ! EnGrad PBEh-3c
|  2> %output
|  3> xyzfile=True
|  4> end
|  5> %scf
|  6> maxiter 250
|  7> end
|  8> %output
|  9> Print[P_Hirshfeld] = 1
| 10> end
| 11> % maxcore
| 12> 4000
| 13> *xyz 0 1
| 14> Pd   0.74192890   0.61513440  -0.57342396
| 15> O    2.32738799   1.63312831   0.16330968
| 16> C    1.67744854   2.70652988   0.22030619
| 17> O    0.44157083   2.64743213  -0.05594607
| 18> C    2.39155571   3.98838228   0.53316207
| 19> H    1.75065171   4.71700712   1.02381502
| 20> H    2.73720978   4.44622795  -0.39660539
| 21> H    3.27757135   3.81823088   1.14828860
| 22> N   -1.16535614  -0.18234575  -1.13956488
| 23> C   -1.22173265  -0.76132230  -2.50983472
| 24> H   -0.91524351  -0.01100037  -3.24096458
| 25> H   -2.25548938  -1.06999606  -2.72502993
| 26> H   -0.55510269  -1.62478713  -2.60178290
| 27> C   -2.11613807   0.93918852  -1.10373024
| 28> H   -2.08880700   1.41089556  -0.11911717
| 29> H   -3.13777261   0.58071767  -1.30061467
| 30> H   -1.83219958   1.65934184  -1.87059433
| 31> C   -1.50150102  -1.02608525   1.29524412
| 32> C   -0.40789293  -1.53912156   1.92484054
| 33> C   -0.23577134  -1.44813316   3.30839463
| 34> C   -1.26975265  -0.90597206   4.05498199
| 35> C   -2.38018741  -0.40973456   3.46930121
| 36> C   -2.48832119  -0.42744276   2.08751300
| 37> H   -1.17613789  -0.81884016   5.12862527
| 38> H   -3.26414891  -0.07617902   4.02974763
| 39> H    0.34426177  -2.03969511   1.34151674
| 40> H    0.61682756  -1.87796537   3.78492488
| 41> H   -3.02405111   0.38529455   1.70364347
| 42> C   -1.62911670  -1.23492554  -0.20105099
| 43> H   -2.66720347  -1.49054097  -0.44525001
| 44> H   -1.03826347  -2.11538462  -0.40624145
| 45> O    1.67817387  -1.04449955  -1.08342486
| 46> C    2.24765972  -0.90999856  -2.23612351
| 47> O    1.97150422  -0.02116715  -3.04006359
| 48> C    3.32684029  -1.94210306  -2.50299094
| 49> H    3.00349720  -2.96390880  -2.26707791
| 50> H    4.20343802  -1.74096208  -1.87388538
| 51> H    3.62521005  -1.88818050  -3.54292794
| 52> *
| 53>
| 54>                          ****END OF INPUT****

CARTESIAN COORDINATES (ANGSTROEM)
---------------------------------
  Pd     0.741929    0.615134   -0.573424
  O      2.327388    1.633128    0.163310
  C      1.677449    2.706530    0.220306
  O      0.441571    2.647432   -0.055946
  C      2.391556    3.988382    0.533162
  H      1.750652    4.717007    1.023815
  H      2.737210    4.446228   -0.396605
  H      3.277571    3.818231    1.148289
  N     -1.165356   -0.182346   -1.139565
  C     -1.221733   -0.761322   -2.509835
  H     -0.915244   -0.011000   -3.240965
  H     -2.255489   -1.069996   -2.725030
  H     -0.555103   -1.624787   -2.601783
  C     -2.116138    0.939189   -1.103730
  H     -2.088807    1.410896   -0.119117
  H     -3.137773    0.580718   -1.300615
  H     -1.832200    1.659342   -1.870594
  C     -1.501501   -1.026085    1.295244
  C     -0.407893   -1.539122    1.924841
  C     -0.235771   -1.448133    3.308395
  C     -1.269753   -0.905972    4.054982
  C     -2.380187   -0.409735    3.469301
  C     -2.488321   -0.427443    2.087513
  H     -1.176138   -0.818840    5.128625
  H     -3.264149   -0.076179    4.029748
  H      0.344262   -2.039695    1.341517
  H      0.616828   -1.877965    3.784925
  H     -3.024051    0.385295    1.703643
  C     -1.629117   -1.234926   -0.201051
  H     -2.667203   -1.490541   -0.445250
  H     -1.038263   -2.115385   -0.406241
  O      1.678174   -1.044500   -1.083425
  C      2.247660   -0.909999   -2.236124
  O      1.971504   -0.021167   -3.040064
  C      3.326840   -1.942103   -2.502991
  H      3.003497   -2.963909   -2.267078
  H      4.203438   -1.740962   -1.873885
  H      3.625210   -1.888181   -3.542928

 Total Charge           Charge          ....    0
 Multiplicity           Mult            ....    1
 Number of Electrons    NEL             ....  154
 Basis Dimension        Dim             ....  339

ORBITAL ENERGIES
----------------

  NO   OCC          E(Eh)            E(eV)
   0   2.0000     -19.503663      -530.7216
   1   2.0000     -19.498694      -530.5864
   2   2.0000     -19.478566      -530.0387
   3   2.0000     -19.433437      -528.8107
   4   2.0000     -14.720697      -400.5705
   5   2.0000     -10.575025      -287.7611
   6   2.0000     -10.534534      -286.6592
   7   2.0000     -10.494958      -285.5823
   8   2.0000     -10.483553      -285.2720
   9   2.0000     -10.480510      -285.1892
  10   2.0000     -10.467509      -284.8354
  11   2.0000     -10.455357      -284.5047
  12   2.0000     -10.453973      -284.4671
  13   2.0000     -10.452085      -284.4157
  14   2.0000     -10.452043      -284.4146
  15   2.0000     -10.451636      -284.4035
  16   2.0000     -10.444966      -284.2220
  17   2.0000     -10.417986      -283.4878
  18   2.0000      -3.659108       -99.5694
  19   2.0000      -2.307628       -62.7937
  20   2.0000      -2.304107       -62.6979
  21   2.0000      -2.267315       -61.6968
  22   2.0000      -1.208682       -32.8899
  23   2.0000      -1.152146       -31.3515
  24   2.0000      -1.088522       -29.6202
  25   2.0000      -1.074515       -29.2390
  26   2.0000      -1.051988       -28.6260
  27   2.0000      -0.975361       -26.5409
  28   2.0000      -0.881844       -23.9962
  29   2.0000      -0.849023       -23.1031
  30   2.0000      -0.834540       -22.7090
  31   2.0000      -0.818292       -22.2669
  32   2.0000      -0.799590       -21.7580
  33   2.0000      -0.797990       -21.7144
  34   2.0000      -0.717086       -19.5129
  35   2.0000      -0.698787       -19.0150
  36   2.0000      -0.670507       -18.2454
  37   2.0000      -0.619495       -16.8573
  38   2.0000      -0.601987       -16.3809
  39   2.0000      -0.592594       -16.1253
  40   2.0000      -0.574796       -15.6410
  41   2.0000      -0.568674       -15.4744
  42   2.0000      -0.555374       -15.1125
  43   2.0000      -0.551821       -15.0158
  44   2.0000      -0.549325       -14.9479
  45   2.0000      -0.531130       -14.4528
  46   2.0000      -0.530059       -14.4236
  47   2.0000      -0.521936       -14.2026
  48   2.0000      -0.511129       -13.9085
  49   2.0000      -0.497450       -13.5363
  50   2.0000      -0.491911       -13.3856
  51   2.0000      -0.489718       -13.3259
  52   2.0000      -0.485256       -13.2045
  53   2.0000      -0.474055       -12.8997
  54   2.0000      -0.460454       -12.5296
  55   2.0000      -0.456966       -12.4347
  56   2.0000      -0.449993       -12.2449
  57   2.0000      -0.446917       -12.1612
  58   2.0000      -0.438349       -11.9281
  59   2.0000      -0.438254       -11.9255
  60   2.0000      -0.433613       -11.7992
  61   2.0000      -0.419826       -11.4240
  62   2.0000      -0.412402       -11.2220
  63   2.0000      -0.401493       -10.9252
  64   2.0000      -0.396837       -10.7985
  65   2.0000      -0.393307       -10.7024
  66   2.0000      -0.374588       -10.1931
  67   2.0000      -0.364277        -9.9125
  68   2.0000      -0.352757        -9.5990
  69   2.0000      -0.343728        -9.3533
  70   2.0000      -0.321513        -8.7488
  71   2.0000      -0.317411        -8.6372
  72   2.0000      -0.310739        -8.4556
  73   2.0000      -0.301451        -8.2029
  74   2.0000      -0.299367        -8.1462
  75   2.0000      -0.293794        -7.9945
  76   2.0000      -0.271809        -7.3963
  77   0.0000      -0.042257        -1.1499
  78   0.0000      -0.008909        -0.2424
  79   0.0000       0.009780         0.2661
  80   0.0000       0.043139         1.1739
  81   0.0000       0.068345         1.8598

MULLIKEN ATOMIC CHARGES
-----------------------
   0 Pd:    0.533562
   1 O :   -0.478650
   2 C :    0.674271
   3 O :   -0.512689
   4 C :   -0.774545
   5 H :    0.252995
   6 H :    0.264537
   7 H :    0.259523
   8 N :   -0.483030
   9 C :   -0.518109
  10 H :    0.284113
  11 H :    0.217205
  12 H :    0.271747
  13 C :   -0.523883
  14 H :    0.279237
  15 H :    0.220507
  16 H :    0.274447
  17 C :    0.082918
  18 C :   -0.266322
  19 C :   -0.205714
  20 C :   -0.219723
  21 C :   -0.218075
  22 C :   -0.259386
  23 H :    0.222024
  24 H :    0.225960
  25 H :    0.263324
  26 H :    0.231381
  27 H :    0.218715
  28 C :   -0.355163
  29 H :    0.240525
  30 H :    0.273839
  31 O :   -0.551326
  32 C :    0.565424
  33 O :   -0.461231
  34 C :   -0.744042
  35 H :    0.228012
  36 H :    0.246059
  37 H :    0.241562
Sum of atomic charges:    0.0000000

LOEWDIN ATOMIC CHARGES
----------------------
   0 Pd:   -0.286640
   1 O :   -0.133077
   2 C :    0.192817
   3 O :   -0.187169
   4 C :   -0.377742
   5 H :    0.152351
   6 H :    0.165973
   7 H :    0.157205
   8 N :   -0.052140
   9 C :   -0.228467
  10 H :    0.159696
  11 H :    0.119746
  12 H :    0.153261
  13 C :   -0.231129
  14 H :    0.156885
  15 H :    0.121882
  16 H :    0.155621
  17 C :   -0.060634
  18 C :   -0.101345
  19 C :   -0.119787
  20 C :   -0.126687
  21 C :   -0.131112
  22 C :   -0.139304
  23 H :    0.136883
  24 H :    0.140334
  25 H :    0.159035
  26 H :    0.143333
  27 H :    0.141580
  28 C :   -0.112505
  29 H :    0.132678
  30 H :    0.156919
  31 O :   -0.190740
  32 C :    0.135376
  33 O :   -0.257275
  34 C :   -0.382375
  35 H :    0.140769
  36 H :    0.153252
  37 H :    0.142533

  Mayer bond orders larger than 0.100000
B(  0-Pd,  1-O ) :   0.5627 B(  0-Pd,  3-O ) :   0.4982 B(  0-Pd,  8-N ) :   0.4115
B(  0-Pd, 31-O ) :   0.6445 B(  0-Pd, 33-O ) :   0.1164 B(  1-O ,  2-C ) :   1.4351
B(  1-O ,  3-O ) :   0.1028 B(  2-C ,  3-O ) :   1.4700 B(  2-C ,  4-C ) :   0.9570
B(  4-C ,  5-H ) :   0.9089 B(  4-C ,  6-H ) :   0.8998 B(  4-C ,  7-H ) :   0.9074
B(  8-N ,  9-C ) :   0.9153 B(  8-N , 13-C ) :   0.9207 B(  8-N , 28-C ) :   0.8988
B(  9-C , 10-H ) :   0.8964 B(  9-C , 11-H ) :   0.9025 B(  9-C , 12-H ) :   0.9013
B( 13-C , 14-H ) :   0.8926 B( 13-C , 15-H ) :   0.9036 B( 13-C , 16-H ) :   0.9019
B( 17-C , 18-C ) :   1.4257 B( 17-C , 22-C ) :   1.3818 B( 17-C , 28-C ) :   0.9559
B( 18-C , 19-C ) :   1.4250 B( 18-C , 25-H ) :   0.8941 B( 19-C , 20-C ) :   1.4236
B( 19-C , 22-C ) :   0.1063 B( 19-C , 26-H ) :   0.9160 B( 20-C , 21-C ) :   1.4377
B( 20-C , 23-H ) :   0.9177 B( 21-C , 22-C ) :   1.4276 B( 21-C , 24-H ) :   0.9165
B( 22-C , 27-H ) :   0.9163 B( 28-C , 29-H ) :   0.9007 B( 28-C , 30-H ) :   0.9024
B( 31-O , 32-C ) :   1.2516 B( 32-C , 33-O ) :   1.8638 B( 32-C , 34-C ) :   0.9355
B( 34-C , 35-H ) :   0.9168 B( 34-C , 36-H ) :   0.9111 B( 34-C , 37-H ) :   0.9182

Dispersion correction           -0.026032792
FINAL SINGLE POINT ENERGY      -988.540574046849
Dispersion correction            ... done

DIPOLE MOMENT
-------------
                                X             Y             Z
Electronic contribution:     33.76064      30.84273     -28.87175
Nuclear contribution   :    -35.30808     -30.95350      29.66016
                        -----------------------------------------
Total Dipole Moment    :     -1.54744      -0.11077       0.78841
                        -----------------------------------------
Magnitude (a.u.)       :      1.74024
Magnitude (Debye)      :      4.42333

Rotational constants in cm-1:     0.013519     0.008260     0.007063
Rotational constants in MHz :   405.280989   247.617177   211.746442

                             ****ORCA TERMINATED NORMALLY****
TOTAL RUN TIME: 0 days 0 hours 8 minutes 50 seconds 681 msec
