                         Program Version 5.0.3 -  RELEASE  -
|  1> ! EnGrad PBEh-3c
|  2> %output
|  3> xyzfile=True
|  4> end
|  5> %scf
|  6> maxiter 250
|  7> end
|  8> %output
|  9> Print[P_Hirshfeld] = 1
| 10> end
| 11> % maxcore
| 12> 4000
| 13> *xyz 0 1
| 14> Pd   0.72519671   0.60994901  -0.57706501
| 15> O    2.33115742   1.63568913   0.16318694
| 16> C    1.68076599   2.70815978   0.22140491
| 17> O    0.44470322   2.64743360  -0.05351993
| 18> C    2.39074924   3.98850972   0.53262713
| 19> H    1.74994988   4.71483651   1.02390069
| 20> H    2.73710688   4.44294413  -0.39704547
| 21> H    3.27471066   3.81452993   1.14685809
| 22> N   -1.16369414  -0.18642204  -1.13462238
| 23> C   -1.22163297  -0.75970616  -2.50268676
| 24> H   -0.91503663  -0.01636533  -3.23837154
| 25> H   -2.25045209  -1.07378490  -2.72670543
| 26> H   -0.55908695  -1.62263790  -2.59815659
| 27> C   -2.11362283   0.93484696  -1.10495841
| 28> H   -2.09235831   1.41164886  -0.12440886
| 29> H   -3.13524334   0.58143608  -1.30260651
| 30> H   -1.83601965   1.65955287  -1.86799219
| 31> C   -1.50670594  -1.01512680   1.29598677
| 32> C   -0.40244284  -1.54643804   1.93003428
| 33> C   -0.24124271  -1.45989216   3.31284647
| 34> C   -1.25879343  -0.90447689   4.06340782
| 35> C   -2.39797730  -0.42230022   3.44787968
| 36> C   -2.45619746  -0.38610236   2.08928710
| 37> H   -1.17290236  -0.82439107   5.14764939
| 38> H   -3.25383546  -0.05950091   4.03435728
| 39> H    0.35163085  -2.04736407   1.33865354
| 40> H    0.61459086  -1.87574945   3.78341398
| 41> H   -3.05555119   0.37396897   1.68644039
| 42> C   -1.62542795  -1.24088926  -0.20267610
| 43> H   -2.66912378  -1.48860266  -0.44444161
| 44> H   -1.03848476  -2.11993642  -0.41098540
| 45> O    1.67667744  -1.04341054  -1.08045784
| 46> C    2.24737380  -0.90777812  -2.23566318
| 47> O    1.97565328  -0.03053041  -3.03798719
| 48> C    3.32610175  -1.93686080  -2.50652750
| 49> H    3.00420005  -2.95559867  -2.26944849
| 50> H    4.19994121  -1.73713385  -1.87656813
| 51> H    3.62871952  -1.88683346  -3.54497671
| 52> *
| 53>
| 54>                          ****END OF INPUT****

CARTESIAN COORDINATES (ANGSTROEM)
---------------------------------
  Pd     0.725197    0.609949   -0.577065
  O      2.331157    1.635689    0.163187
  C      1.680766    2.708160    0.221405
  O      0.444703    2.647434   -0.053520
  C      2.390749    3.988510    0.532627
  H      1.749950    4.714837    1.023901
  H      2.737107    4.442944   -0.397045
  H      3.274711    3.814530    1.146858
  N     -1.163694   -0.186422   -1.134622
  C     -1.221633   -0.759706   -2.502687
  H     -0.915037   -0.016365   -3.238372
  H     -2.250452   -1.073785   -2.726705
  H     -0.559087   -1.622638   -2.598157
  C     -2.113623    0.934847   -1.104958
  H     -2.092358    1.411649   -0.124409
  H     -3.135243    0.581436   -1.302607
  H     -1.836020    1.659553   -1.867992
  C     -1.506706   -1.015127    1.295987
  C     -0.402443   -1.546438    1.930034
  C     -0.241243   -1.459892    3.312846
  C     -1.258793   -0.904477    4.063408
  C     -2.397977   -0.422300    3.447880
  C     -2.456197   -0.386102    2.089287
  H     -1.172902   -0.824391    5.147649
  H     -3.253835   -0.059501    4.034357
  H      0.351631   -2.047364    1.338654
  H      0.614591   -1.875749    3.783414
  H     -3.055551    0.373969    1.686440
  C     -1.625428   -1.240889   -0.202676
  H     -2.669124   -1.488603   -0.444442
  H     -1.038485   -2.119936   -0.410985
  O      1.676677   -1.043411   -1.080458
  C      2.247374   -0.907778   -2.235663
  O      1.975653   -0.030530   -3.037987
  C      3.326102   -1.936861   -2.506527
  H      3.004200   -2.955599   -2.269448
  H      4.199941   -1.737134   -1.876568
  H      3.628720   -1.886833   -3.544977

 Total Charge           Charge          ....    0
 Multiplicity           Mult            ....    1
 Number of Electrons    NEL             ....  154
 Basis Dimension        Dim             ....  339

ORBITAL ENERGIES
----------------

  NO   OCC          E(Eh)            E(eV)
   0   2.0000     -19.500726      -530.6417
   1   2.0000     -19.496123      -530.5165
   2   2.0000     -19.477881      -530.0201
   3   2.0000     -19.433917      -528.8238
   4   2.0000     -14.722543      -400.6208
   5   2.0000     -10.572474      -287.6916
   6   2.0000     -10.533364      -286.6274
   7   2.0000     -10.496730      -285.6305
   8   2.0000     -10.484016      -285.2846
   9   2.0000     -10.480408      -285.1864
  10   2.0000     -10.468096      -284.8514
  11   2.0000     -10.455889      -284.5192
  12   2.0000     -10.454719      -284.4874
  13   2.0000     -10.453786      -284.4620
  14   2.0000     -10.452452      -284.4257
  15   2.0000     -10.451214      -284.3920
  16   2.0000     -10.443122      -284.1718
  17   2.0000     -10.416443      -283.4458
  18   2.0000      -3.658784       -99.5606
  19   2.0000      -2.307010       -62.7769
  20   2.0000      -2.303889       -62.6920
  21   2.0000      -2.267062       -61.6899
  22   2.0000      -1.205721       -32.8093
  23   2.0000      -1.153872       -31.3985
  24   2.0000      -1.085558       -29.5395
  25   2.0000      -1.077881       -29.3306
  26   2.0000      -1.054881       -28.7048
  27   2.0000      -0.974803       -26.5257
  28   2.0000      -0.879016       -23.9192
  29   2.0000      -0.851560       -23.1721
  30   2.0000      -0.834160       -22.6986
  31   2.0000      -0.819917       -22.3111
  32   2.0000      -0.799641       -21.7594
  33   2.0000      -0.797956       -21.7135
  34   2.0000      -0.718394       -19.5485
  35   2.0000      -0.696050       -18.9405
  36   2.0000      -0.672911       -18.3108
  37   2.0000      -0.617426       -16.8010
  38   2.0000      -0.602314       -16.3898
  39   2.0000      -0.591825       -16.1044
  40   2.0000      -0.576795       -15.6954
  41   2.0000      -0.570433       -15.5223
  42   2.0000      -0.556589       -15.1456
  43   2.0000      -0.549457       -14.9515
  44   2.0000      -0.546808       -14.8794
  45   2.0000      -0.530233       -14.4284
  46   2.0000      -0.528736       -14.3876
  47   2.0000      -0.522113       -14.2074
  48   2.0000      -0.512147       -13.9362
  49   2.0000      -0.497853       -13.5473
  50   2.0000      -0.492804       -13.4099
  51   2.0000      -0.491339       -13.3700
  52   2.0000      -0.484821       -13.1927
  53   2.0000      -0.475150       -12.9295
  54   2.0000      -0.459553       -12.5051
  55   2.0000      -0.458044       -12.4640
  56   2.0000      -0.449338       -12.2271
  57   2.0000      -0.446984       -12.1630
  58   2.0000      -0.439652       -11.9635
  59   2.0000      -0.436712       -11.8835
  60   2.0000      -0.433965       -11.8088
  61   2.0000      -0.419367       -11.4116
  62   2.0000      -0.413179       -11.2432
  63   2.0000      -0.402556       -10.9541
  64   2.0000      -0.399496       -10.8708
  65   2.0000      -0.392749       -10.6873
  66   2.0000      -0.372852       -10.1458
  67   2.0000      -0.364648        -9.9226
  68   2.0000      -0.352726        -9.5982
  69   2.0000      -0.342146        -9.3103
  70   2.0000      -0.321576        -8.7505
  71   2.0000      -0.315543        -8.5864
  72   2.0000      -0.309698        -8.4273
  73   2.0000      -0.300598        -8.1797
  74   2.0000      -0.298277        -8.1165
  75   2.0000      -0.297109        -8.0847
  76   2.0000      -0.272142        -7.4054
  77   0.0000      -0.042901        -1.1674
  78   0.0000      -0.002250        -0.0612
  79   0.0000       0.007178         0.1953
  80   0.0000       0.044946         1.2230
  81   0.0000       0.069247         1.8843

MULLIKEN ATOMIC CHARGES
-----------------------
   0 Pd:    0.531955
   1 O :   -0.476761
   2 C :    0.671830
   3 O :   -0.514744
   4 C :   -0.773935
   5 H :    0.252623
   6 H :    0.264085
   7 H :    0.259163
   8 N :   -0.485006
   9 C :   -0.522471
  10 H :    0.285771
  11 H :    0.218808
  12 H :    0.272834
  13 C :   -0.528214
  14 H :    0.281076
  15 H :    0.221595
  16 H :    0.277175
  17 C :    0.097321
  18 C :   -0.271759
  19 C :   -0.200407
  20 C :   -0.231744
  21 C :   -0.211341
  22 C :   -0.262759
  23 H :    0.223014
  24 H :    0.224539
  25 H :    0.263148
  26 H :    0.230453
  27 H :    0.217490
  28 C :   -0.356661
  29 H :    0.238904
  30 H :    0.276732
  31 O :   -0.554372
  32 C :    0.564345
  33 O :   -0.452440
  34 C :   -0.745461
  35 H :    0.227928
  36 H :    0.246050
  37 H :    0.241236
Sum of atomic charges:   -0.0000000

LOEWDIN ATOMIC CHARGES
----------------------
   0 Pd:   -0.286874
   1 O :   -0.137318
   2 C :    0.189691
   3 O :   -0.190128
   4 C :   -0.377584
   5 H :    0.152163
   6 H :    0.165822
   7 H :    0.157066
   8 N :   -0.047969
   9 C :   -0.229538
  10 H :    0.160033
  11 H :    0.120169
  12 H :    0.153076
  13 C :   -0.231613
  14 H :    0.157436
  15 H :    0.122206
  16 H :    0.156473
  17 C :   -0.060198
  18 C :   -0.099283
  19 C :   -0.126390
  20 C :   -0.123178
  21 C :   -0.130823
  22 C :   -0.133752
  23 H :    0.137490
  24 H :    0.139492
  25 H :    0.159665
  26 H :    0.142409
  27 H :    0.139276
  28 C :   -0.111014
  29 H :    0.132365
  30 H :    0.157664
  31 O :   -0.193321
  32 C :    0.130464
  33 O :   -0.246911
  34 C :   -0.382764
  35 H :    0.140378
  36 H :    0.153052
  37 H :    0.142270

  Mayer bond orders larger than 0.100000
B(  0-Pd,  1-O ) :   0.5564 B(  0-Pd,  3-O ) :   0.4968 B(  0-Pd,  8-N ) :   0.4166
B(  0-Pd, 31-O ) :   0.6487 B(  0-Pd, 33-O ) :   0.1147 B(  1-O ,  2-C ) :   1.4424
B(  1-O ,  3-O ) :   0.1024 B(  2-C ,  3-O ) :   1.4694 B(  2-C ,  4-C ) :   0.9575
B(  4-C ,  5-H ) :   0.9092 B(  4-C ,  6-H ) :   0.9001 B(  4-C ,  7-H ) :   0.9076
B(  8-N ,  9-C ) :   0.9161 B(  8-N , 13-C ) :   0.9199 B(  8-N , 28-C ) :   0.8985
B(  9-C , 10-H ) :   0.8958 B(  9-C , 11-H ) :   0.9020 B(  9-C , 12-H ) :   0.9008
B( 13-C , 14-H ) :   0.8918 B( 13-C , 15-H ) :   0.9033 B( 13-C , 16-H ) :   0.9007
B( 17-C , 18-C ) :   1.4263 B( 17-C , 22-C ) :   1.3766 B( 17-C , 28-C ) :   0.9530
B( 18-C , 19-C ) :   1.4170 B( 18-C , 25-H ) :   0.8946 B( 19-C , 20-C ) :   1.4399
B( 19-C , 26-H ) :   0.9163 B( 20-C , 21-C ) :   1.4122 B( 20-C , 23-H ) :   0.9177
B( 21-C , 22-C ) :   1.4512 B( 21-C , 24-H ) :   0.9176 B( 22-C , 27-H ) :   0.9190
B( 28-C , 29-H ) :   0.9014 B( 28-C , 30-H ) :   0.9015 B( 31-O , 32-C ) :   1.2445
B( 32-C , 33-O ) :   1.8763 B( 32-C , 34-C ) :   0.9358 B( 34-C , 35-H ) :   0.9168
B( 34-C , 36-H ) :   0.9112 B( 34-C , 37-H ) :   0.9186

Dispersion correction           -0.026061342
FINAL SINGLE POINT ENERGY      -988.547970029084
Dispersion correction            ... done

DIPOLE MOMENT
-------------
                                X             Y             Z
Electronic contribution:     32.75861      30.54845     -29.11475
Nuclear contribution   :    -34.39087     -30.67682      29.86491
                        -----------------------------------------
Total Dipole Moment    :     -1.63226      -0.12838       0.75016
                        -----------------------------------------
Magnitude (a.u.)       :      1.80097
Magnitude (Debye)      :      4.57770

Rotational constants in cm-1:     0.013524     0.008270     0.007074
Rotational constants in MHz :   405.439390   247.941804   212.064241

                             ****ORCA TERMINATED NORMALLY****
TOTAL RUN TIME: 0 days 0 hours 12 minutes 52 seconds 836 msec
