                         Program Version 5.0.3 -  RELEASE  -
|  1> ! EnGrad PBEh-3c
|  2> %output
|  3> xyzfile=True
|  4> end
|  5> %scf
|  6> maxiter 250
|  7> end
|  8> %output
|  9> Print[P_Hirshfeld] = 1
| 10> end
| 11> % maxcore
| 12> 4000
| 13> *xyz 0 1
| 14> Pd   0.71483539   0.60257489  -0.57783142
| 15> O    2.33053377   1.62644206   0.16335395
| 16> C    1.67646667   2.70238987   0.22417087
| 17> O    0.44351783   2.64169832  -0.04722435
| 18> C    2.39344444   3.97992175   0.53529427
| 19> H    1.75707118   4.70945048   1.02557614
| 20> H    2.74312845   4.42902510  -0.39502802
| 21> H    3.27486147   3.79878969   1.14850761
| 22> N   -1.16774948  -0.19493480  -1.13571204
| 23> C   -1.22048347  -0.78118241  -2.49668413
| 24> H   -0.91288065  -0.04887743  -3.24134335
| 25> H   -2.24815031  -1.09834272  -2.72296850
| 26> H   -0.56222962  -1.64433210  -2.58279577
| 27> C   -2.11496415   0.92751064  -1.11945944
| 28> H   -2.09861242   1.41445284  -0.14700890
| 29> H   -3.13629644   0.57508390  -1.31730284
| 30> H   -1.83813678   1.64638006  -1.88933394
| 31> C   -1.51053646  -1.00658225   1.29861651
| 32> C   -0.41037089  -1.56328334   1.93829180
| 33> C   -0.25987768  -1.47210818   3.31072733
| 34> C   -1.25733077  -0.90724289   4.08114191
| 35> C   -2.40362523  -0.41401535   3.46239087
| 36> C   -2.42954399  -0.34425115   2.09111484
| 37> H   -1.17300450  -0.82866822   5.15859369
| 38> H   -3.24176314  -0.02533785   4.03966181
| 39> H    0.33231653  -2.06554311   1.33454456
| 40> H    0.60775113  -1.89149568   3.78432887
| 41> H   -3.01914774   0.43402024   1.68786711
| 42> C   -1.63864178  -1.23883564  -0.19275840
| 43> H   -2.68331000  -1.47898165  -0.44072560
| 44> H   -1.05503262  -2.12563190  -0.40018780
| 45> O    1.67710101  -1.04373298  -1.08268445
| 46> C    2.24756982  -0.89732459  -2.24344810
| 47> O    1.96678047  -0.02748902  -3.04005809
| 48> C    3.33676283  -1.91504543  -2.51456396
| 49> H    3.02605876  -2.93523416  -2.28192152
| 50> H    4.20569947  -1.70870574  -1.88404390
| 51> H    3.64116359  -1.85883335  -3.55434931
| 52> *
| 53>
| 54>                          ****END OF INPUT****

CARTESIAN COORDINATES (ANGSTROEM)
---------------------------------
  Pd     0.714835    0.602575   -0.577831
  O      2.330534    1.626442    0.163354
  C      1.676467    2.702390    0.224171
  O      0.443518    2.641698   -0.047224
  C      2.393444    3.979922    0.535294
  H      1.757071    4.709450    1.025576
  H      2.743128    4.429025   -0.395028
  H      3.274861    3.798790    1.148508
  N     -1.167749   -0.194935   -1.135712
  C     -1.220483   -0.781182   -2.496684
  H     -0.912881   -0.048877   -3.241343
  H     -2.248150   -1.098343   -2.722968
  H     -0.562230   -1.644332   -2.582796
  C     -2.114964    0.927511   -1.119459
  H     -2.098612    1.414453   -0.147009
  H     -3.136296    0.575084   -1.317303
  H     -1.838137    1.646380   -1.889334
  C     -1.510536   -1.006582    1.298617
  C     -0.410371   -1.563283    1.938292
  C     -0.259878   -1.472108    3.310727
  C     -1.257331   -0.907243    4.081142
  C     -2.403625   -0.414015    3.462391
  C     -2.429544   -0.344251    2.091115
  H     -1.173005   -0.828668    5.158594
  H     -3.241763   -0.025338    4.039662
  H      0.332317   -2.065543    1.334545
  H      0.607751   -1.891496    3.784329
  H     -3.019148    0.434020    1.687867
  C     -1.638642   -1.238836   -0.192758
  H     -2.683310   -1.478982   -0.440726
  H     -1.055033   -2.125632   -0.400188
  O      1.677101   -1.043733   -1.082684
  C      2.247570   -0.897325   -2.243448
  O      1.966780   -0.027489   -3.040058
  C      3.336763   -1.915045   -2.514564
  H      3.026059   -2.935234   -2.281922
  H      4.205699   -1.708706   -1.884044
  H      3.641164   -1.858833   -3.554349

 Total Charge           Charge          ....    0
 Multiplicity           Mult            ....    1
 Number of Electrons    NEL             ....  154
 Basis Dimension        Dim             ....  339

ORBITAL ENERGIES
----------------

  NO   OCC          E(Eh)            E(eV)
   0   2.0000     -19.498876      -530.5914
   1   2.0000     -19.496011      -530.5134
   2   2.0000     -19.477079      -529.9983
   3   2.0000     -19.435406      -528.8643
   4   2.0000     -14.722918      -400.6310
   5   2.0000     -10.571770      -287.6725
   6   2.0000     -10.533346      -286.6269
   7   2.0000     -10.497646      -285.6555
   8   2.0000     -10.484001      -285.2842
   9   2.0000     -10.480134      -285.1789
  10   2.0000     -10.468330      -284.8577
  11   2.0000     -10.457008      -284.5497
  12   2.0000     -10.456367      -284.5322
  13   2.0000     -10.453742      -284.4608
  14   2.0000     -10.453277      -284.4481
  15   2.0000     -10.451974      -284.4127
  16   2.0000     -10.442397      -284.1521
  17   2.0000     -10.415946      -283.4323
  18   2.0000      -3.658328       -99.5482
  19   2.0000      -2.306434       -62.7613
  20   2.0000      -2.303458       -62.6803
  21   2.0000      -2.266684       -61.6796
  22   2.0000      -1.203853       -32.7585
  23   2.0000      -1.154495       -31.4154
  24   2.0000      -1.084493       -29.5105
  25   2.0000      -1.078454       -29.3462
  26   2.0000      -1.056155       -28.7394
  27   2.0000      -0.973574       -26.4923
  28   2.0000      -0.878921       -23.9167
  29   2.0000      -0.850235       -23.1361
  30   2.0000      -0.833578       -22.6828
  31   2.0000      -0.820640       -22.3308
  32   2.0000      -0.799876       -21.7657
  33   2.0000      -0.798126       -21.7181
  34   2.0000      -0.719023       -19.5656
  35   2.0000      -0.694791       -18.9062
  36   2.0000      -0.673141       -18.3171
  37   2.0000      -0.616451       -16.7745
  38   2.0000      -0.602119       -16.3845
  39   2.0000      -0.590920       -16.0797
  40   2.0000      -0.577115       -15.7041
  41   2.0000      -0.570877       -15.5343
  42   2.0000      -0.557907       -15.1814
  43   2.0000      -0.548185       -14.9169
  44   2.0000      -0.545751       -14.8506
  45   2.0000      -0.529658       -14.4127
  46   2.0000      -0.527745       -14.3607
  47   2.0000      -0.521322       -14.1859
  48   2.0000      -0.512708       -13.9515
  49   2.0000      -0.498111       -13.5543
  50   2.0000      -0.492535       -13.4026
  51   2.0000      -0.491161       -13.3652
  52   2.0000      -0.485362       -13.2074
  53   2.0000      -0.475483       -12.9385
  54   2.0000      -0.460058       -12.5188
  55   2.0000      -0.458874       -12.4866
  56   2.0000      -0.449041       -12.2190
  57   2.0000      -0.446482       -12.1494
  58   2.0000      -0.440037       -11.9740
  59   2.0000      -0.435129       -11.8405
  60   2.0000      -0.434022       -11.8103
  61   2.0000      -0.419167       -11.4061
  62   2.0000      -0.414142       -11.2694
  63   2.0000      -0.406293       -11.0558
  64   2.0000      -0.397214       -10.8088
  65   2.0000      -0.392180       -10.6718
  66   2.0000      -0.372284       -10.1304
  67   2.0000      -0.365109        -9.9351
  68   2.0000      -0.352510        -9.5923
  69   2.0000      -0.341664        -9.2971
  70   2.0000      -0.321090        -8.7373
  71   2.0000      -0.314879        -8.5683
  72   2.0000      -0.309545        -8.4231
  73   2.0000      -0.300534        -8.1780
  74   2.0000      -0.297510        -8.0957
  75   2.0000      -0.296399        -8.0654
  76   2.0000      -0.272545        -7.4163
  77   0.0000      -0.042761        -1.1636
  78   0.0000      -0.002274        -0.0619
  79   0.0000       0.005699         0.1551
  80   0.0000       0.045493         1.2379
  81   0.0000       0.069456         1.8900

MULLIKEN ATOMIC CHARGES
-----------------------
   0 Pd:    0.530074
   1 O :   -0.479644
   2 C :    0.670264
   3 O :   -0.512341
   4 C :   -0.773026
   5 H :    0.251965
   6 H :    0.263700
   7 H :    0.259588
   8 N :   -0.485769
   9 C :   -0.524111
  10 H :    0.286455
  11 H :    0.218669
  12 H :    0.273791
  13 C :   -0.529594
  14 H :    0.281480
  15 H :    0.222009
  16 H :    0.277380
  17 C :    0.103803
  18 C :   -0.265531
  19 C :   -0.203321
  20 C :   -0.230917
  21 C :   -0.213219
  22 C :   -0.271690
  23 H :    0.225570
  24 H :    0.226152
  25 H :    0.263829
  26 H :    0.227609
  27 H :    0.217566
  28 C :   -0.357280
  29 H :    0.239778
  30 H :    0.275550
  31 O :   -0.557964
  32 C :    0.564533
  33 O :   -0.445127
  34 C :   -0.746118
  35 H :    0.229007
  36 H :    0.246939
  37 H :    0.239944
Sum of atomic charges:   -0.0000000

LOEWDIN ATOMIC CHARGES
----------------------
   0 Pd:   -0.288172
   1 O :   -0.143324
   2 C :    0.189779
   3 O :   -0.187623
   4 C :   -0.377691
   5 H :    0.151673
   6 H :    0.165612
   7 H :    0.157194
   8 N :   -0.047290
   9 C :   -0.230153
  10 H :    0.160133
  11 H :    0.120063
  12 H :    0.152936
  13 C :   -0.231822
  14 H :    0.157075
  15 H :    0.122277
  16 H :    0.156442
  17 C :   -0.060818
  18 C :   -0.099951
  19 C :   -0.128087
  20 C :   -0.123261
  21 C :   -0.129978
  22 C :   -0.131013
  23 H :    0.138505
  24 H :    0.139321
  25 H :    0.160174
  26 H :    0.141982
  27 H :    0.138692
  28 C :   -0.109965
  29 H :    0.132837
  30 H :    0.157641
  31 O :   -0.197580
  32 C :    0.129995
  33 O :   -0.238380
  34 C :   -0.383084
  35 H :    0.140637
  36 H :    0.153227
  37 H :    0.141996

  Mayer bond orders larger than 0.100000
B(  0-Pd,  1-O ) :   0.5581 B(  0-Pd,  3-O ) :   0.4912 B(  0-Pd,  8-N ) :   0.4176
B(  0-Pd, 31-O ) :   0.6550 B(  0-Pd, 33-O ) :   0.1133 B(  1-O ,  2-C ) :   1.4358
B(  1-O ,  3-O ) :   0.1025 B(  2-C ,  3-O ) :   1.4778 B(  2-C ,  4-C ) :   0.9575
B(  4-C ,  5-H ) :   0.9094 B(  4-C ,  6-H ) :   0.9004 B(  4-C ,  7-H ) :   0.9075
B(  8-N ,  9-C ) :   0.9166 B(  8-N , 13-C ) :   0.9202 B(  8-N , 28-C ) :   0.8972
B(  9-C , 10-H ) :   0.8954 B(  9-C , 11-H ) :   0.9022 B(  9-C , 12-H ) :   0.9003
B( 13-C , 14-H ) :   0.8913 B( 13-C , 15-H ) :   0.9032 B( 13-C , 16-H ) :   0.9007
B( 17-C , 18-C ) :   1.4133 B( 17-C , 22-C ) :   1.3885 B( 17-C , 28-C ) :   0.9521
B( 18-C , 19-C ) :   1.4276 B( 18-C , 25-H ) :   0.8940 B( 19-C , 20-C ) :   1.4293
B( 19-C , 26-H ) :   0.9177 B( 20-C , 21-C ) :   1.4185 B( 20-C , 23-H ) :   0.9172
B( 21-C , 22-C ) :   1.4426 B( 21-C , 24-H ) :   0.9173 B( 22-C , 27-H ) :   0.9198
B( 28-C , 29-H ) :   0.9004 B( 28-C , 30-H ) :   0.9025 B( 31-O , 32-C ) :   1.2347
B( 32-C , 33-O ) :   1.8863 B( 32-C , 34-C ) :   0.9357 B( 34-C , 35-H ) :   0.9165
B( 34-C , 36-H ) :   0.9109 B( 34-C , 37-H ) :   0.9193

Dispersion correction           -0.026060041
FINAL SINGLE POINT ENERGY      -988.548304389335
Dispersion correction            ... done

DIPOLE MOMENT
-------------
                                X             Y             Z
Electronic contribution:     32.20703      30.17724     -29.20203
Nuclear contribution   :    -33.86147     -30.29981      29.92207
                        -----------------------------------------
Total Dipole Moment    :     -1.65444      -0.12257       0.72004
                        -----------------------------------------
Magnitude (a.u.)       :      1.80849
Magnitude (Debye)      :      4.59682

Rotational constants in cm-1:     0.013549     0.008260     0.007069
Rotational constants in MHz :   406.196798   247.634569   211.920084

                             ****ORCA TERMINATED NORMALLY****
TOTAL RUN TIME: 0 days 0 hours 16 minutes 42 seconds 856 msec
