                         Program Version 5.0.3 -  RELEASE  -
|  1> ! EnGrad PBEh-3c
|  2> %output
|  3> xyzfile=True
|  4> end
|  5> %scf
|  6> maxiter 250
|  7> end
|  8> %output
|  9> Print[P_Hirshfeld] = 1
| 10> end
| 11> % maxcore
| 12> 4000
| 13> *xyz 0 1
| 14> Pd   0.69855571   0.58834839  -0.57611589
| 15> O    2.32521377   1.60324354   0.16143427
| 16> C    1.66852319   2.68423499   0.22983016
| 17> O    0.43667646   2.63039758  -0.03214024
| 18> C    2.39926674   3.95966894   0.54117703
| 19> H    1.77258021   4.69735628   1.02996349
| 20> H    2.75730047   4.39643892  -0.39137365
| 21> H    3.27558840   3.76126634   1.15295663
| 22> N   -1.18002530  -0.21370687  -1.14026616
| 23> C   -1.21864247  -0.83225879  -2.48402691
| 24> H   -0.90720540  -0.12445275  -3.24661679
| 25> H   -2.24209486  -1.15597631  -2.71329104
| 26> H   -0.56838143  -1.69602275  -2.54530093
| 27> C   -2.11957862   0.91134625  -1.15439231
| 28> H   -2.11361893   1.42178333  -0.19925275
| 29> H   -3.13835066   0.55911847  -1.35231895
| 30> H   -1.84275047   1.61469968  -1.93811582
| 31> C   -1.50917667  -0.98543339   1.30401937
| 32> C   -0.43674473  -1.60243109   1.94925326
| 33> C   -0.29123310  -1.50449172   3.31741169
| 34> C   -1.27123514  -0.91386833   4.11498727
| 35> C   -2.39776192  -0.38761473   3.48967691
| 36> C   -2.36903617  -0.24964622   2.10788575
| 37> H   -1.17233018  -0.84144607   5.18503045
| 38> H   -3.21279210   0.05773531   4.05338999
| 39> H    0.28704689  -2.11011808   1.32861216
| 40> H    0.58771006  -1.92716021   3.78477715
| 41> H   -2.94546959   0.57434516   1.68529365
| 42> C   -1.66712815  -1.23486624  -0.17003915
| 43> H   -2.71501924  -1.45595299  -0.42985948
| 44> H   -1.09498238  -2.13949026  -0.37565853
| 45> O    1.67741615  -1.04475620  -1.09051744
| 46> C    2.24894152  -0.88062965  -2.25313673
| 47> O    1.94336398  -0.01314458  -3.05172291
| 48> C    3.36252715  -1.86361162  -2.53449449
| 49> H    3.07619713  -2.88769662  -2.31136354
| 50> H    4.21968923  -1.64084616  -1.90122924
| 51> H    3.67032574  -1.79244172  -3.57590218
| 52> *
| 53>
| 54>                          ****END OF INPUT****

CARTESIAN COORDINATES (ANGSTROEM)
---------------------------------
  Pd     0.698556    0.588348   -0.576116
  O      2.325214    1.603244    0.161434
  C      1.668523    2.684235    0.229830
  O      0.436676    2.630398   -0.032140
  C      2.399267    3.959669    0.541177
  H      1.772580    4.697356    1.029963
  H      2.757300    4.396439   -0.391374
  H      3.275588    3.761266    1.152957
  N     -1.180025   -0.213707   -1.140266
  C     -1.218642   -0.832259   -2.484027
  H     -0.907205   -0.124453   -3.246617
  H     -2.242095   -1.155976   -2.713291
  H     -0.568381   -1.696023   -2.545301
  C     -2.119579    0.911346   -1.154392
  H     -2.113619    1.421783   -0.199253
  H     -3.138351    0.559118   -1.352319
  H     -1.842750    1.614700   -1.938116
  C     -1.509177   -0.985433    1.304019
  C     -0.436745   -1.602431    1.949253
  C     -0.291233   -1.504492    3.317412
  C     -1.271235   -0.913868    4.114987
  C     -2.397762   -0.387615    3.489677
  C     -2.369036   -0.249646    2.107886
  H     -1.172330   -0.841446    5.185030
  H     -3.212792    0.057735    4.053390
  H      0.287047   -2.110118    1.328612
  H      0.587710   -1.927160    3.784777
  H     -2.945470    0.574345    1.685294
  C     -1.667128   -1.234866   -0.170039
  H     -2.715019   -1.455953   -0.429859
  H     -1.094982   -2.139490   -0.375659
  O      1.677416   -1.044756   -1.090517
  C      2.248942   -0.880630   -2.253137
  O      1.943364   -0.013145   -3.051723
  C      3.362527   -1.863612   -2.534494
  H      3.076197   -2.887697   -2.311364
  H      4.219689   -1.640846   -1.901229
  H      3.670326   -1.792442   -3.575902

 Total Charge           Charge          ....    0
 Multiplicity           Mult            ....    1
 Number of Electrons    NEL             ....  154
 Basis Dimension        Dim             ....  339

ORBITAL ENERGIES
----------------

  NO   OCC          E(Eh)            E(eV)
   0   2.0000     -19.498068      -530.5694
   1   2.0000     -19.496564      -530.5285
   2   2.0000     -19.477599      -530.0124
   3   2.0000     -19.435295      -528.8613
   4   2.0000     -14.722881      -400.6300
   5   2.0000     -10.571881      -287.6755
   6   2.0000     -10.534148      -286.6487
   7   2.0000     -10.499680      -285.7108
   8   2.0000     -10.483436      -285.2688
   9   2.0000     -10.478793      -285.1424
  10   2.0000     -10.469593      -284.8921
  11   2.0000     -10.460436      -284.6429
  12   2.0000     -10.459285      -284.6116
  13   2.0000     -10.458701      -284.5957
  14   2.0000     -10.454501      -284.4814
  15   2.0000     -10.452832      -284.4360
  16   2.0000     -10.441920      -284.1391
  17   2.0000     -10.415627      -283.4236
  18   2.0000      -3.658202       -99.5447
  19   2.0000      -2.306235       -62.7558
  20   2.0000      -2.303406       -62.6789
  21   2.0000      -2.266556       -61.6761
  22   2.0000      -1.202116       -32.7112
  23   2.0000      -1.151581       -31.3361
  24   2.0000      -1.084008       -29.4974
  25   2.0000      -1.078533       -29.3484
  26   2.0000      -1.053953       -28.6795
  27   2.0000      -0.971601       -26.4386
  28   2.0000      -0.879915       -23.9437
  29   2.0000      -0.846479       -23.0339
  30   2.0000      -0.832296       -22.6479
  31   2.0000      -0.821966       -22.3668
  32   2.0000      -0.800199       -21.7745
  33   2.0000      -0.799248       -21.7486
  34   2.0000      -0.719639       -19.5824
  35   2.0000      -0.692963       -18.8565
  36   2.0000      -0.672303       -18.2943
  37   2.0000      -0.615583       -16.7509
  38   2.0000      -0.601293       -16.3620
  39   2.0000      -0.590752       -16.0752
  40   2.0000      -0.577078       -15.7031
  41   2.0000      -0.571163       -15.5421
  42   2.0000      -0.559560       -15.2264
  43   2.0000      -0.547009       -14.8849
  44   2.0000      -0.544988       -14.8299
  45   2.0000      -0.528313       -14.3761
  46   2.0000      -0.526612       -14.3298
  47   2.0000      -0.520308       -14.1583
  48   2.0000      -0.512229       -13.9385
  49   2.0000      -0.497700       -13.5431
  50   2.0000      -0.491701       -13.3799
  51   2.0000      -0.488100       -13.2819
  52   2.0000      -0.487040       -13.2530
  53   2.0000      -0.475768       -12.9463
  54   2.0000      -0.462002       -12.5717
  55   2.0000      -0.459282       -12.4977
  56   2.0000      -0.449026       -12.2186
  57   2.0000      -0.446247       -12.1430
  58   2.0000      -0.440621       -11.9899
  59   2.0000      -0.433959       -11.8086
  60   2.0000      -0.433426       -11.7941
  61   2.0000      -0.419263       -11.4087
  62   2.0000      -0.415611       -11.3094
  63   2.0000      -0.408659       -11.1202
  64   2.0000      -0.395050       -10.7499
  65   2.0000      -0.391249       -10.6464
  66   2.0000      -0.371787       -10.1168
  67   2.0000      -0.364601        -9.9213
  68   2.0000      -0.352043        -9.5796
  69   2.0000      -0.341727        -9.2989
  70   2.0000      -0.320911        -8.7324
  71   2.0000      -0.314731        -8.5643
  72   2.0000      -0.309624        -8.4253
  73   2.0000      -0.299594        -8.1524
  74   2.0000      -0.297445        -8.0939
  75   2.0000      -0.292965        -7.9720
  76   2.0000      -0.272042        -7.4026
  77   0.0000      -0.043206        -1.1757
  78   0.0000      -0.005142        -0.1399
  79   0.0000       0.004402         0.1198
  80   0.0000       0.045876         1.2483
  81   0.0000       0.069821         1.8999

MULLIKEN ATOMIC CHARGES
-----------------------
   0 Pd:    0.529150
   1 O :   -0.482699
   2 C :    0.668425
   3 O :   -0.508977
   4 C :   -0.770854
   5 H :    0.251268
   6 H :    0.263227
   7 H :    0.259635
   8 N :   -0.485941
   9 C :   -0.526795
  10 H :    0.288450
  11 H :    0.218040
  12 H :    0.275051
  13 C :   -0.531641
  14 H :    0.281472
  15 H :    0.222416
  16 H :    0.277974
  17 C :    0.115942
  18 C :   -0.261549
  19 C :   -0.208939
  20 C :   -0.231345
  21 C :   -0.207304
  22 C :   -0.285930
  23 H :    0.229732
  24 H :    0.226016
  25 H :    0.264343
  26 H :    0.225310
  27 H :    0.216624
  28 C :   -0.358037
  29 H :    0.241591
  30 H :    0.272776
  31 O :   -0.559401
  32 C :    0.568169
  33 O :   -0.449658
  34 C :   -0.745395
  35 H :    0.230424
  36 H :    0.248405
  37 H :    0.240025
Sum of atomic charges:   -0.0000000

LOEWDIN ATOMIC CHARGES
----------------------
   0 Pd:   -0.288446
   1 O :   -0.148741
   2 C :    0.191693
   3 O :   -0.185078
   4 C :   -0.377948
   5 H :    0.151026
   6 H :    0.165315
   7 H :    0.157152
   8 N :   -0.047639
   9 C :   -0.231563
  10 H :    0.160686
  11 H :    0.119523
  12 H :    0.152529
  13 C :   -0.232574
  14 H :    0.156055
  15 H :    0.122113
  16 H :    0.156324
  17 C :   -0.062841
  18 C :   -0.102394
  19 C :   -0.129754
  20 C :   -0.123624
  21 C :   -0.130462
  22 C :   -0.121866
  23 H :    0.140243
  24 H :    0.139238
  25 H :    0.160355
  26 H :    0.141108
  27 H :    0.137643
  28 C :   -0.107518
  29 H :    0.133711
  30 H :    0.157337
  31 O :   -0.199151
  32 C :    0.136018
  33 O :   -0.243668
  34 C :   -0.382315
  35 H :    0.141126
  36 H :    0.153683
  37 H :    0.142707

  Mayer bond orders larger than 0.100000
B(  0-Pd,  1-O ) :   0.5622 B(  0-Pd,  3-O ) :   0.4852 B(  0-Pd,  8-N ) :   0.4185
B(  0-Pd, 31-O ) :   0.6574 B(  0-Pd, 33-O ) :   0.1143 B(  1-O ,  2-C ) :   1.4258
B(  1-O ,  3-O ) :   0.1027 B(  2-C ,  3-O ) :   1.4878 B(  2-C ,  4-C ) :   0.9570
B(  4-C ,  5-H ) :   0.9098 B(  4-C ,  6-H ) :   0.9008 B(  4-C ,  7-H ) :   0.9073
B(  8-N ,  9-C ) :   0.9176 B(  8-N , 13-C ) :   0.9213 B(  8-N , 28-C ) :   0.8943
B(  9-C , 10-H ) :   0.8943 B(  9-C , 11-H ) :   0.9024 B(  9-C , 12-H ) :   0.8997
B( 13-C , 14-H ) :   0.8908 B( 13-C , 15-H ) :   0.9032 B( 13-C , 16-H ) :   0.9005
B( 17-C , 18-C ) :   1.3984 B( 17-C , 22-C ) :   1.3952 B( 17-C , 28-C ) :   0.9498
B( 18-C , 19-C ) :   1.4408 B( 18-C , 25-H ) :   0.8938 B( 19-C , 20-C ) :   1.4146
B( 19-C , 26-H ) :   0.9189 B( 20-C , 21-C ) :   1.4257 B( 20-C , 23-H ) :   0.9162
B( 21-C , 22-C ) :   1.4293 B( 21-C , 24-H ) :   0.9174 B( 22-C , 27-H ) :   0.9207
B( 28-C , 29-H ) :   0.8983 B( 28-C , 30-H ) :   0.9049 B( 31-O , 32-C ) :   1.2318
B( 32-C , 33-O ) :   1.8793 B( 32-C , 34-C ) :   0.9381 B( 34-C , 35-H ) :   0.9155
B( 34-C , 36-H ) :   0.9099 B( 34-C , 37-H ) :   0.9199

Dispersion correction           -0.026032253
FINAL SINGLE POINT ENERGY      -988.545488943330
Dispersion correction            ... done

DIPOLE MOMENT
-------------
                                X             Y             Z
Electronic contribution:     31.38849      29.44547     -29.14085
Nuclear contribution   :    -33.05072     -29.57636      29.85694
                        -----------------------------------------
Total Dipole Moment    :     -1.66222      -0.13090       0.71610
                        -----------------------------------------
Magnitude (a.u.)       :      1.81464
Magnitude (Debye)      :      4.61245

Rotational constants in cm-1:     0.013602     0.008236     0.007056
Rotational constants in MHz :   407.788131   246.898222   211.544719

                             ****ORCA TERMINATED NORMALLY****
TOTAL RUN TIME: 0 days 0 hours 14 minutes 54 seconds 107 msec
