                         Program Version 5.0.3 -  RELEASE  -
|  1> ! EnGrad PBEh-3c
|  2> %output
|  3> xyzfile=True
|  4> end
|  5> %scf
|  6> maxiter 250
|  7> end
|  8> %output
|  9> Print[P_Hirshfeld] = 1
| 10> end
| 11> % maxcore
| 12> 4000
| 13> *xyz 0 1
| 14> Pd   0.69469689   0.58213833  -0.57178972
| 15> O    2.31863964   1.58399947   0.15699976
| 16> C    1.66191714   2.67099765   0.23243426
| 17> O    0.43061389   2.62433483  -0.02056243
| 18> C    2.40257941   3.94452973   0.54436390
| 19> H    1.78126868   4.68912392   1.03319869
| 20> H    2.76663680   4.37422625  -0.39022033
| 21> H    3.27600345   3.73519470   1.15647118
| 22> N   -1.19007880  -0.22579016  -1.14420813
| 23> C   -1.21814957  -0.86679164  -2.47607645
| 24> H   -0.90213688  -0.17424564  -3.24778313
| 25> H   -2.23782624  -1.19532923  -2.70595814
| 26> H   -0.57074482  -1.73169920  -2.51733816
| 27> C   -2.12461081   0.90129791  -1.17838303
| 28> H   -2.12450097   1.42769367  -0.23385936
| 29> H   -3.13990875   0.54675821  -1.37699997
| 30> H   -1.84531385   1.59303314  -1.96933687
| 31> C   -1.49699723  -0.96575158   1.31002258
| 32> C   -0.45542231  -1.62944038   1.95760543
| 33> C   -0.31419914  -1.52548365   3.32938639
| 34> C   -1.27993664  -0.92769537   4.13076116
| 35> C   -2.38062456  -0.35226770   3.50872961
| 36> C   -2.33548603  -0.18394335   2.11356943
| 37> H   -1.17324315  -0.85473449   5.20247195
| 38> H   -3.18559445   0.11752934   4.06070743
| 39> H    0.25561285  -2.14354029   1.32997993
| 40> H    0.57376349  -1.95243163   3.78673323
| 41> H   -2.91348080   0.65832077   1.67759378
| 42> C   -1.68296371  -1.23269181  -0.15843986
| 43> H   -2.73377562  -1.43969203  -0.41822870
| 44> H   -1.12368149  -2.14919478  -0.36051564
| 45> O    1.67643189  -1.04672579  -1.09681325
| 46> C    2.24646560  -0.86375771  -2.26484838
| 47> O    1.92911939  -0.00924441  -3.05471488
| 48> C    3.38038550  -1.82899190  -2.54852511
| 49> H    3.10866322  -2.85573382  -2.33173968
| 50> H    4.22971722  -1.59329574  -1.91236853
| 51> H    3.68978787  -1.74638882  -3.58999872
| 52> *
| 53>
| 54>                          ****END OF INPUT****

CARTESIAN COORDINATES (ANGSTROEM)
---------------------------------
  Pd     0.694697    0.582138   -0.571790
  O      2.318640    1.583999    0.157000
  C      1.661917    2.670998    0.232434
  O      0.430614    2.624335   -0.020562
  C      2.402579    3.944530    0.544364
  H      1.781269    4.689124    1.033199
  H      2.766637    4.374226   -0.390220
  H      3.276003    3.735195    1.156471
  N     -1.190079   -0.225790   -1.144208
  C     -1.218150   -0.866792   -2.476076
  H     -0.902137   -0.174246   -3.247783
  H     -2.237826   -1.195329   -2.705958
  H     -0.570745   -1.731699   -2.517338
  C     -2.124611    0.901298   -1.178383
  H     -2.124501    1.427694   -0.233859
  H     -3.139909    0.546758   -1.377000
  H     -1.845314    1.593033   -1.969337
  C     -1.496997   -0.965752    1.310023
  C     -0.455422   -1.629440    1.957605
  C     -0.314199   -1.525484    3.329386
  C     -1.279937   -0.927695    4.130761
  C     -2.380625   -0.352268    3.508730
  C     -2.335486   -0.183943    2.113569
  H     -1.173243   -0.854734    5.202472
  H     -3.185594    0.117529    4.060707
  H      0.255613   -2.143540    1.329980
  H      0.573763   -1.952432    3.786733
  H     -2.913481    0.658321    1.677594
  C     -1.682964   -1.232692   -0.158440
  H     -2.733776   -1.439692   -0.418229
  H     -1.123681   -2.149195   -0.360516
  O      1.676432   -1.046726   -1.096813
  C      2.246466   -0.863758   -2.264848
  O      1.929119   -0.009244   -3.054715
  C      3.380385   -1.828992   -2.548525
  H      3.108663   -2.855734   -2.331740
  H      4.229717   -1.593296   -1.912369
  H      3.689788   -1.746389   -3.589999

 Total Charge           Charge          ....    0
 Multiplicity           Mult            ....    1
 Number of Electrons    NEL             ....  154
 Basis Dimension        Dim             ....  339

ORBITAL ENERGIES
----------------

  NO   OCC          E(Eh)            E(eV)
   0   2.0000     -19.498782      -530.5888
   1   2.0000     -19.497868      -530.5640
   2   2.0000     -19.475915      -529.9666
   3   2.0000     -19.437074      -528.9097
   4   2.0000     -14.721413      -400.5900
   5   2.0000     -10.572997      -287.7059
   6   2.0000     -10.533613      -286.6342
   7   2.0000     -10.500012      -285.7199
   8   2.0000     -10.482551      -285.2447
   9   2.0000     -10.477575      -285.1093
  10   2.0000     -10.471055      -284.9319
  11   2.0000     -10.465461      -284.7797
  12   2.0000     -10.460635      -284.6484
  13   2.0000     -10.458913      -284.6015
  14   2.0000     -10.454746      -284.4881
  15   2.0000     -10.453076      -284.4427
  16   2.0000     -10.442663      -284.1593
  17   2.0000     -10.414742      -283.3995
  18   2.0000      -3.657516       -99.5261
  19   2.0000      -2.305619       -62.7391
  20   2.0000      -2.302665       -62.6587
  21   2.0000      -2.265950       -61.6596
  22   2.0000      -1.202101       -32.7108
  23   2.0000      -1.153753       -31.3952
  24   2.0000      -1.084738       -29.5172
  25   2.0000      -1.077550       -29.3216
  26   2.0000      -1.055773       -28.7290
  27   2.0000      -0.969464       -26.3805
  28   2.0000      -0.879844       -23.9418
  29   2.0000      -0.843417       -22.9505
  30   2.0000      -0.831818       -22.6349
  31   2.0000      -0.822250       -22.3746
  32   2.0000      -0.799463       -21.7545
  33   2.0000      -0.798230       -21.7209
  34   2.0000      -0.718709       -19.5571
  35   2.0000      -0.692614       -18.8470
  36   2.0000      -0.670534       -18.2462
  37   2.0000      -0.615654       -16.7528
  38   2.0000      -0.600153       -16.3310
  39   2.0000      -0.589065       -16.0293
  40   2.0000      -0.576113       -15.6768
  41   2.0000      -0.570263       -15.5176
  42   2.0000      -0.559302       -15.2194
  43   2.0000      -0.547071       -14.8866
  44   2.0000      -0.545720       -14.8498
  45   2.0000      -0.527434       -14.3522
  46   2.0000      -0.526124       -14.3166
  47   2.0000      -0.520209       -14.1556
  48   2.0000      -0.512554       -13.9473
  49   2.0000      -0.498048       -13.5526
  50   2.0000      -0.491924       -13.3859
  51   2.0000      -0.488579       -13.2949
  52   2.0000      -0.484684       -13.1889
  53   2.0000      -0.475409       -12.9365
  54   2.0000      -0.462017       -12.5721
  55   2.0000      -0.459605       -12.5065
  56   2.0000      -0.449076       -12.2200
  57   2.0000      -0.446500       -12.1499
  58   2.0000      -0.441024       -12.0009
  59   2.0000      -0.434061       -11.8114
  60   2.0000      -0.432512       -11.7693
  61   2.0000      -0.419044       -11.4028
  62   2.0000      -0.414836       -11.2883
  63   2.0000      -0.408561       -11.1175
  64   2.0000      -0.394544       -10.7361
  65   2.0000      -0.391011       -10.6400
  66   2.0000      -0.372164       -10.1271
  67   2.0000      -0.365792        -9.9537
  68   2.0000      -0.352301        -9.5866
  69   2.0000      -0.342021        -9.3069
  70   2.0000      -0.320224        -8.7137
  71   2.0000      -0.314487        -8.5576
  72   2.0000      -0.309606        -8.4248
  73   2.0000      -0.299701        -8.1553
  74   2.0000      -0.297243        -8.0884
  75   2.0000      -0.291744        -7.9388
  76   2.0000      -0.272479        -7.4145
  77   0.0000      -0.042170        -1.1475
  78   0.0000      -0.005675        -0.1544
  79   0.0000       0.003307         0.0900
  80   0.0000       0.045193         1.2298
  81   0.0000       0.070059         1.9064

MULLIKEN ATOMIC CHARGES
-----------------------
   0 Pd:    0.526428
   1 O :   -0.486793
   2 C :    0.669164
   3 O :   -0.505356
   4 C :   -0.769748
   5 H :    0.250988
   6 H :    0.262869
   7 H :    0.259757
   8 N :   -0.484140
   9 C :   -0.527962
  10 H :    0.288271
  11 H :    0.217632
  12 H :    0.275185
  13 C :   -0.531843
  14 H :    0.280796
  15 H :    0.222040
  16 H :    0.277691
  17 C :    0.111695
  18 C :   -0.257783
  19 C :   -0.212365
  20 C :   -0.226231
  21 C :   -0.209058
  22 C :   -0.287760
  23 H :    0.230233
  24 H :    0.227153
  25 H :    0.265402
  26 H :    0.224281
  27 H :    0.215707
  28 C :   -0.356111
  29 H :    0.242052
  30 H :    0.270966
  31 O :   -0.563669
  32 C :    0.566250
  33 O :   -0.437783
  34 C :   -0.745436
  35 H :    0.230961
  36 H :    0.248351
  37 H :    0.238163
Sum of atomic charges:   -0.0000000

LOEWDIN ATOMIC CHARGES
----------------------
   0 Pd:   -0.290944
   1 O :   -0.150753
   2 C :    0.194481
   3 O :   -0.181796
   4 C :   -0.377932
   5 H :    0.150957
   6 H :    0.165201
   7 H :    0.157239
   8 N :   -0.049715
   9 C :   -0.232612
  10 H :    0.160249
  11 H :    0.119044
  12 H :    0.152275
  13 C :   -0.233111
  14 H :    0.155357
  15 H :    0.121707
  16 H :    0.155828
  17 C :   -0.061331
  18 C :   -0.105042
  19 C :   -0.128940
  20 C :   -0.126327
  21 C :   -0.130016
  22 C :   -0.118565
  23 H :    0.141308
  24 H :    0.139268
  25 H :    0.160661
  26 H :    0.140767
  27 H :    0.137474
  28 C :   -0.106672
  29 H :    0.133712
  30 H :    0.156583
  31 O :   -0.204801
  32 C :    0.133331
  33 O :   -0.230097
  34 C :   -0.383173
  35 H :    0.141119
  36 H :    0.153368
  37 H :    0.141897

  Mayer bond orders larger than 0.100000
B(  0-Pd,  1-O ) :   0.5693 B(  0-Pd,  3-O ) :   0.4798 B(  0-Pd,  8-N ) :   0.4148
B(  0-Pd, 31-O ) :   0.6641 B(  0-Pd, 33-O ) :   0.1124 B(  1-O ,  2-C ) :   1.4129
B(  1-O ,  3-O ) :   0.1031 B(  2-C ,  3-O ) :   1.4968 B(  2-C ,  4-C ) :   0.9563
B(  4-C ,  5-H ) :   0.9100 B(  4-C ,  6-H ) :   0.9009 B(  4-C ,  7-H ) :   0.9071
B(  8-N ,  9-C ) :   0.9190 B(  8-N , 13-C ) :   0.9227 B(  8-N , 28-C ) :   0.8939
B(  9-C , 10-H ) :   0.8944 B(  9-C , 11-H ) :   0.9027 B(  9-C , 12-H ) :   0.8995
B( 13-C , 14-H ) :   0.8909 B( 13-C , 15-H ) :   0.9034 B( 13-C , 16-H ) :   0.9007
B( 17-C , 18-C ) :   1.4023 B( 17-C , 22-C ) :   1.3898 B( 17-C , 28-C ) :   0.9484
B( 18-C , 19-C ) :   1.4365 B( 18-C , 25-H ) :   0.8936 B( 19-C , 20-C ) :   1.4165
B( 19-C , 26-H ) :   0.9192 B( 20-C , 21-C ) :   1.4224 B( 20-C , 23-H ) :   0.9164
B( 21-C , 22-C ) :   1.4301 B( 21-C , 24-H ) :   0.9167 B( 22-C , 27-H ) :   0.9211
B( 28-C , 29-H ) :   0.8973 B( 28-C , 30-H ) :   0.9063 B( 31-O , 32-C ) :   1.2202
B( 32-C , 33-O ) :   1.8949 B( 32-C , 34-C ) :   0.9367 B( 34-C , 35-H ) :   0.9157
B( 34-C , 36-H ) :   0.9102 B( 34-C , 37-H ) :   0.9206

Dispersion correction           -0.026002772
FINAL SINGLE POINT ENERGY      -988.543849288322
Dispersion correction            ... done

DIPOLE MOMENT
-------------
                                X             Y             Z
Electronic contribution:     31.23473      29.16849     -28.94840
Nuclear contribution   :    -32.88195     -29.26849      29.63793
                        -----------------------------------------
Total Dipole Moment    :     -1.64722      -0.10000       0.68953
                        -----------------------------------------
Magnitude (a.u.)       :      1.78851
Magnitude (Debye)      :      4.54604

Rotational constants in cm-1:     0.013635     0.008223     0.007051
Rotational constants in MHz :   408.764908   246.516002   211.379449

                             ****ORCA TERMINATED NORMALLY****
TOTAL RUN TIME: 0 days 0 hours 13 minutes 57 seconds 892 msec
