                         Program Version 5.0.3 -  RELEASE  -
|  1> ! EnGrad PBEh-3c
|  2> %output
|  3> xyzfile=True
|  4> end
|  5> %scf
|  6> maxiter 250
|  7> end
|  8> %output
|  9> Print[P_Hirshfeld] = 1
| 10> end
| 11> % maxcore
| 12> 4000
| 13> *xyz 0 1
| 14> Pd   0.68429439   0.56657814  -0.56454327
| 15> O    2.30197888   1.55102246   0.14877728
| 16> C    1.65419177   2.64279838   0.23913709
| 17> O    0.41758763   2.61036582   0.00250737
| 18> C    2.40833376   3.91147006   0.55010082
| 19> H    1.79983837   4.67179911   1.03928498
| 20> H    2.78559710   4.32902897  -0.38704349
| 21> H    3.27727571   3.68242671   1.16396809
| 22> N   -1.20718017  -0.25120576  -1.14982468
| 23> C   -1.21869221  -0.93666865  -2.45918269
| 24> H   -0.89137422  -0.27503618  -3.25178419
| 25> H   -2.23075403  -1.27579011  -2.69124877
| 26> H   -0.57389740  -1.80614968  -2.46037157
| 27> C   -2.13484866   0.88009176  -1.22922255
| 28> H   -2.14607869   1.43990044  -0.30284186
| 29> H   -3.14505621   0.52141602  -1.42746532
| 30> H   -1.84972906   1.54920663  -2.03468179
| 31> C   -1.48289838  -0.92379610   1.32947411
| 32> C   -0.49909292  -1.67660885   1.97516384
| 33> C   -0.35273075  -1.57294759   3.35417966
| 34> C   -1.29689639  -0.95223416   4.15880012
| 35> C   -2.34671636  -0.27680338   3.53086726
| 36> C   -2.27484532  -0.05031656   2.12734457
| 37> H   -1.17584467  -0.88170711   5.23873137
| 38> H   -3.13267409   0.23847868   4.07798294
| 39> H    0.19224344  -2.21312486   1.33248906
| 40> H    0.54066668  -2.00364008   3.78987824
| 41> H   -2.82798948   0.81838361   1.67353884
| 42> C   -1.71250655  -1.22729146  -0.13941614
| 43> H   -2.77247881  -1.40667531  -0.39290038
| 44> H   -1.18368827  -2.16623464  -0.32818340
| 45> O    1.67678064  -1.04925085  -1.11391042
| 46> C    2.24388160  -0.83950009  -2.27855273
| 47> O    1.89620549   0.00844277  -3.06827906
| 48> C    3.41544765  -1.75591882  -2.57857658
| 49> H    3.17517908  -2.79301123  -2.37284541
| 50> H    4.25168273  -1.49627530  -1.93406080
| 51> H    3.72890031  -1.65227692  -3.61748283
| 52> *
| 53>
| 54>                          ****END OF INPUT****

CARTESIAN COORDINATES (ANGSTROEM)
---------------------------------
  Pd     0.684294    0.566578   -0.564543
  O      2.301979    1.551022    0.148777
  C      1.654192    2.642798    0.239137
  O      0.417588    2.610366    0.002507
  C      2.408334    3.911470    0.550101
  H      1.799838    4.671799    1.039285
  H      2.785597    4.329029   -0.387043
  H      3.277276    3.682427    1.163968
  N     -1.207180   -0.251206   -1.149825
  C     -1.218692   -0.936669   -2.459183
  H     -0.891374   -0.275036   -3.251784
  H     -2.230754   -1.275790   -2.691249
  H     -0.573897   -1.806150   -2.460372
  C     -2.134849    0.880092   -1.229223
  H     -2.146079    1.439900   -0.302842
  H     -3.145056    0.521416   -1.427465
  H     -1.849729    1.549207   -2.034682
  C     -1.482898   -0.923796    1.329474
  C     -0.499093   -1.676609    1.975164
  C     -0.352731   -1.572948    3.354180
  C     -1.296896   -0.952234    4.158800
  C     -2.346716   -0.276803    3.530867
  C     -2.274845   -0.050317    2.127345
  H     -1.175845   -0.881707    5.238731
  H     -3.132674    0.238479    4.077983
  H      0.192243   -2.213125    1.332489
  H      0.540667   -2.003640    3.789878
  H     -2.827989    0.818384    1.673539
  C     -1.712507   -1.227291   -0.139416
  H     -2.772479   -1.406675   -0.392900
  H     -1.183688   -2.166235   -0.328183
  O      1.676781   -1.049251   -1.113910
  C      2.243882   -0.839500   -2.278553
  O      1.896205    0.008443   -3.068279
  C      3.415448   -1.755919   -2.578577
  H      3.175179   -2.793011   -2.372845
  H      4.251683   -1.496275   -1.934061
  H      3.728900   -1.652277   -3.617483

 Total Charge           Charge          ....    0
 Multiplicity           Mult            ....    1
 Number of Electrons    NEL             ....  154
 Basis Dimension        Dim             ....  339

ORBITAL ENERGIES
----------------

  NO   OCC          E(Eh)            E(eV)
   0   2.0000     -19.501369      -530.6592
   1   2.0000     -19.498667      -530.5857
   2   2.0000     -19.475753      -529.9622
   3   2.0000     -19.435944      -528.8789
   4   2.0000     -14.719846      -400.5474
   5   2.0000     -10.574549      -287.7481
   6   2.0000     -10.533500      -286.6311
   7   2.0000     -10.501275      -285.7542
   8   2.0000     -10.482073      -285.2317
   9   2.0000     -10.476136      -285.0702
  10   2.0000     -10.475424      -285.0508
  11   2.0000     -10.472376      -284.9678
  12   2.0000     -10.464945      -284.7656
  13   2.0000     -10.461058      -284.6598
  14   2.0000     -10.456665      -284.5403
  15   2.0000     -10.454046      -284.4690
  16   2.0000     -10.444081      -284.1979
  17   2.0000     -10.414584      -283.3952
  18   2.0000      -3.657458       -99.5245
  19   2.0000      -2.305736       -62.7423
  20   2.0000      -2.302615       -62.6573
  21   2.0000      -2.265825       -61.6562
  22   2.0000      -1.203053       -32.7367
  23   2.0000      -1.151788       -31.3417
  24   2.0000      -1.086392       -29.5622
  25   2.0000      -1.076031       -29.2803
  26   2.0000      -1.054353       -28.6904
  27   2.0000      -0.964841       -26.2546
  28   2.0000      -0.876815       -23.8594
  29   2.0000      -0.840470       -22.8703
  30   2.0000      -0.831601       -22.6290
  31   2.0000      -0.822010       -22.3680
  32   2.0000      -0.797974       -21.7140
  33   2.0000      -0.796864       -21.6838
  34   2.0000      -0.717158       -19.5149
  35   2.0000      -0.690926       -18.8010
  36   2.0000      -0.668342       -18.1865
  37   2.0000      -0.616332       -16.7713
  38   2.0000      -0.598291       -16.2803
  39   2.0000      -0.588270       -16.0076
  40   2.0000      -0.574016       -15.6198
  41   2.0000      -0.568446       -15.4682
  42   2.0000      -0.558663       -15.2020
  43   2.0000      -0.547869       -14.9083
  44   2.0000      -0.547068       -14.8865
  45   2.0000      -0.527785       -14.3618
  46   2.0000      -0.523148       -14.2356
  47   2.0000      -0.520232       -14.1562
  48   2.0000      -0.511229       -13.9113
  49   2.0000      -0.497380       -13.5344
  50   2.0000      -0.490959       -13.3597
  51   2.0000      -0.488025       -13.2798
  52   2.0000      -0.483910       -13.1679
  53   2.0000      -0.474834       -12.9209
  54   2.0000      -0.461264       -12.5516
  55   2.0000      -0.459679       -12.5085
  56   2.0000      -0.448945       -12.2164
  57   2.0000      -0.446632       -12.1535
  58   2.0000      -0.441309       -12.0086
  59   2.0000      -0.433608       -11.7991
  60   2.0000      -0.431061       -11.7298
  61   2.0000      -0.418753       -11.3949
  62   2.0000      -0.413447       -11.2505
  63   2.0000      -0.407829       -11.0976
  64   2.0000      -0.394110       -10.7243
  65   2.0000      -0.390592       -10.6285
  66   2.0000      -0.372883       -10.1467
  67   2.0000      -0.365344        -9.9415
  68   2.0000      -0.352509        -9.5922
  69   2.0000      -0.342690        -9.3251
  70   2.0000      -0.320151        -8.7118
  71   2.0000      -0.314242        -8.5510
  72   2.0000      -0.308922        -8.4062
  73   2.0000      -0.299017        -8.1367
  74   2.0000      -0.295402        -8.0383
  75   2.0000      -0.290701        -7.9104
  76   2.0000      -0.271393        -7.3850
  77   0.0000      -0.041939        -1.1412
  78   0.0000      -0.008491        -0.2311
  79   0.0000       0.001509         0.0411
  80   0.0000       0.044277         1.2048
  81   0.0000       0.070422         1.9163

MULLIKEN ATOMIC CHARGES
-----------------------
   0 Pd:    0.527690
   1 O :   -0.487885
   2 C :    0.671450
   3 O :   -0.504414
   4 C :   -0.769113
   5 H :    0.251129
   6 H :    0.262960
   7 H :    0.259118
   8 N :   -0.481665
   9 C :   -0.530550
  10 H :    0.289355
  11 H :    0.217699
  12 H :    0.274468
  13 C :   -0.532138
  14 H :    0.278565
  15 H :    0.222190
  16 H :    0.278238
  17 C :    0.090013
  18 C :   -0.251651
  19 C :   -0.217406
  20 C :   -0.218266
  21 C :   -0.220602
  22 C :   -0.273613
  23 H :    0.230714
  24 H :    0.228069
  25 H :    0.264989
  26 H :    0.225960
  27 H :    0.218750
  28 C :   -0.350180
  29 H :    0.241793
  30 H :    0.268144
  31 O :   -0.563303
  32 C :    0.568377
  33 O :   -0.441850
  34 C :   -0.743710
  35 H :    0.230258
  36 H :    0.247589
  37 H :    0.238829
Sum of atomic charges:    0.0000000

LOEWDIN ATOMIC CHARGES
----------------------
   0 Pd:   -0.291638
   1 O :   -0.146522
   2 C :    0.197086
   3 O :   -0.182634
   4 C :   -0.377794
   5 H :    0.151215
   6 H :    0.165402
   7 H :    0.157299
   8 N :   -0.052612
   9 C :   -0.234405
  10 H :    0.160422
  11 H :    0.118495
  12 H :    0.151875
  13 C :   -0.233399
  14 H :    0.154088
  15 H :    0.121465
  16 H :    0.155595
  17 C :   -0.054795
  18 C :   -0.111403
  19 C :   -0.127873
  20 C :   -0.130910
  21 C :   -0.127877
  22 C :   -0.116986
  23 H :    0.143234
  24 H :    0.139190
  25 H :    0.160929
  26 H :    0.140656
  27 H :    0.139650
  28 C :   -0.106174
  29 H :    0.133412
  30 H :    0.154791
  31 O :   -0.204398
  32 C :    0.135931
  33 O :   -0.234756
  34 C :   -0.382714
  35 H :    0.141024
  36 H :    0.153053
  37 H :    0.142078

  Mayer bond orders larger than 0.100000
B(  0-Pd,  1-O ) :   0.5761 B(  0-Pd,  3-O ) :   0.4780 B(  0-Pd,  8-N ) :   0.4108
B(  0-Pd, 31-O ) :   0.6626 B(  0-Pd, 33-O ) :   0.1143 B(  1-O ,  2-C ) :   1.4042
B(  1-O ,  3-O ) :   0.1033 B(  2-C ,  3-O ) :   1.5003 B(  2-C ,  4-C ) :   0.9554
B(  4-C ,  5-H ) :   0.9104 B(  4-C ,  6-H ) :   0.9007 B(  4-C ,  7-H ) :   0.9067
B(  8-N ,  9-C ) :   0.9199 B(  8-N , 13-C ) :   0.9240 B(  8-N , 28-C ) :   0.8931
B(  9-C , 10-H ) :   0.8937 B(  9-C , 11-H ) :   0.9024 B(  9-C , 12-H ) :   0.8998
B( 13-C , 14-H ) :   0.8916 B( 13-C , 15-H ) :   0.9034 B( 13-C , 16-H ) :   0.9007
B( 17-C , 18-C ) :   1.4132 B( 17-C , 22-C ) :   1.3749 B( 17-C , 28-C ) :   0.9478
B( 18-C , 19-C ) :   1.4226 B( 18-C , 25-H ) :   0.8944 B( 19-C , 20-C ) :   1.4273
B( 19-C , 26-H ) :   0.9181 B( 20-C , 21-C ) :   1.4066 B( 20-C , 23-H ) :   0.9168
B( 21-C , 22-C ) :   1.4405 B( 21-C , 24-H ) :   0.9161 B( 22-C , 27-H ) :   0.9191
B( 28-C , 29-H ) :   0.8959 B( 28-C , 30-H ) :   0.9076 B( 31-O , 32-C ) :   1.2224
B( 32-C , 33-O ) :   1.8874 B( 32-C , 34-C ) :   0.9370 B( 34-C , 35-H ) :   0.9157
B( 34-C , 36-H ) :   0.9102 B( 34-C , 37-H ) :   0.9205

Dispersion correction           -0.025937176
FINAL SINGLE POINT ENERGY      -988.538002984672
Dispersion correction            ... done

DIPOLE MOMENT
-------------
                                X             Y             Z
Electronic contribution:     30.80621      28.38585     -28.55600
Nuclear contribution   :    -32.41127     -28.46894      29.26085
                        -----------------------------------------
Total Dipole Moment    :     -1.60506      -0.08309       0.70485
                        -----------------------------------------
Magnitude (a.u.)       :      1.75498
Magnitude (Debye)      :      4.46080

Rotational constants in cm-1:     0.013697     0.008198     0.007039
Rotational constants in MHz :   410.635905   245.767060   211.026844

                             ****ORCA TERMINATED NORMALLY****
TOTAL RUN TIME: 0 days 0 hours 12 minutes 37 seconds 129 msec
