                         Program Version 5.0.3 -  RELEASE  -
|  1> ! EnGrad PBEh-3c
|  2> %output
|  3> xyzfile=True
|  4> end
|  5> %scf
|  6> maxiter 250
|  7> end
|  8> %output
|  9> Print[P_Hirshfeld] = 1
| 10> end
| 11> % maxcore
| 12> 4000
| 13> *xyz 0 1
| 14> Pd   0.69080439   0.56694247  -0.55998399
| 15> O    2.29262621   1.54579477   0.14238245
| 16> C    1.65383738   2.63712880   0.23886157
| 17> O    0.41402786   2.60952221   0.00831077
| 18> C    2.40775255   3.90323520   0.54924291
| 19> H    1.80003077   4.66701521   1.03922915
| 20> H    2.78717949   4.32206542  -0.38795717
| 21> H    3.27678468   3.67425411   1.16574299
| 22> N   -1.20892655  -0.25352558  -1.15183506
| 23> C   -1.21894688  -0.94642960  -2.45701911
| 24> H   -0.88704800  -0.28599232  -3.24820506
| 25> H   -2.23136418  -1.28787113  -2.68796030
| 26> H   -0.57069408  -1.81686126  -2.44689521
| 27> C   -2.13875468   0.87754122  -1.23610093
| 28> H   -2.15025437   1.44257867  -0.31098781
| 29> H   -3.14852928   0.51456029  -1.43694767
| 30> H   -1.84828572   1.54324349  -2.04186816
| 31> C   -1.47936575  -0.90120062   1.33739421
| 32> C   -0.51321420  -1.67250218   1.98079430
| 33> C   -0.35288030  -1.58569725   3.36077240
| 34> C   -1.30765939  -0.95868824   4.15511107
| 35> C   -2.31972400  -0.22830138   3.51434501
| 36> C   -2.27078467  -0.04305861   2.12588721
| 37> H   -1.18112534  -0.89623533   5.23608043
| 38> H   -3.10668444   0.26169734   4.07894351
| 39> H    0.18101322  -2.23012911   1.34544644
| 40> H    0.53447784  -2.01581926   3.79686811
| 41> H   -2.83407882   0.80735452   1.67035651
| 42> C   -1.70746812  -1.22241743  -0.13869503
| 43> H   -2.77197549  -1.40067355  -0.37829140
| 44> H   -1.19453318  -2.16918149  -0.32688800
| 45> O    1.67658184  -1.05046843  -1.12126848
| 46> C    2.24222626  -0.84013683  -2.27834440
| 47> O    1.88972324   0.01287489  -3.07171045
| 48> C    3.41884820  -1.74411698  -2.58252816
| 49> H    3.18216102  -2.78523097  -2.37954341
| 50> H    4.25579657  -1.47971582  -1.93596139
| 51> H    3.73322516  -1.63663819  -3.61993011
| 52> *
| 53>
| 54>                          ****END OF INPUT****

CARTESIAN COORDINATES (ANGSTROEM)
---------------------------------
  Pd     0.690804    0.566942   -0.559984
  O      2.292626    1.545795    0.142382
  C      1.653837    2.637129    0.238862
  O      0.414028    2.609522    0.008311
  C      2.407753    3.903235    0.549243
  H      1.800031    4.667015    1.039229
  H      2.787179    4.322065   -0.387957
  H      3.276785    3.674254    1.165743
  N     -1.208927   -0.253526   -1.151835
  C     -1.218947   -0.946430   -2.457019
  H     -0.887048   -0.285992   -3.248205
  H     -2.231364   -1.287871   -2.687960
  H     -0.570694   -1.816861   -2.446895
  C     -2.138755    0.877541   -1.236101
  H     -2.150254    1.442579   -0.310988
  H     -3.148529    0.514560   -1.436948
  H     -1.848286    1.543243   -2.041868
  C     -1.479366   -0.901201    1.337394
  C     -0.513214   -1.672502    1.980794
  C     -0.352880   -1.585697    3.360772
  C     -1.307659   -0.958688    4.155111
  C     -2.319724   -0.228301    3.514345
  C     -2.270785   -0.043059    2.125887
  H     -1.181125   -0.896235    5.236080
  H     -3.106684    0.261697    4.078944
  H      0.181013   -2.230129    1.345446
  H      0.534478   -2.015819    3.796868
  H     -2.834079    0.807355    1.670357
  C     -1.707468   -1.222417   -0.138695
  H     -2.771975   -1.400674   -0.378291
  H     -1.194533   -2.169181   -0.326888
  O      1.676582   -1.050468   -1.121268
  C      2.242226   -0.840137   -2.278344
  O      1.889723    0.012875   -3.071710
  C      3.418848   -1.744117   -2.582528
  H      3.182161   -2.785231   -2.379543
  H      4.255797   -1.479716   -1.935961
  H      3.733225   -1.636638   -3.619930

 Total Charge           Charge          ....    0
 Multiplicity           Mult            ....    1
 Number of Electrons    NEL             ....  154
 Basis Dimension        Dim             ....  339

ORBITAL ENERGIES
----------------

  NO   OCC          E(Eh)            E(eV)
   0   2.0000     -19.503972      -530.7301
   1   2.0000     -19.499199      -530.6002
   2   2.0000     -19.475993      -529.9687
   3   2.0000     -19.433648      -528.8165
   4   2.0000     -14.718589      -400.5132
   5   2.0000     -10.575581      -287.7762
   6   2.0000     -10.532800      -286.6121
   7   2.0000     -10.500986      -285.7463
   8   2.0000     -10.481961      -285.2287
   9   2.0000     -10.475732      -285.0592
  10   2.0000     -10.474366      -285.0220
  11   2.0000     -10.467985      -284.8483
  12   2.0000     -10.462657      -284.7034
  13   2.0000     -10.460719      -284.6506
  14   2.0000     -10.456666      -284.5403
  15   2.0000     -10.454383      -284.4782
  16   2.0000     -10.445290      -284.2308
  17   2.0000     -10.414701      -283.3984
  18   2.0000      -3.657914       -99.5369
  19   2.0000      -2.306479       -62.7625
  20   2.0000      -2.302996       -62.6677
  21   2.0000      -2.266185       -61.6660
  22   2.0000      -1.206143       -32.8208
  23   2.0000      -1.150518       -31.3072
  24   2.0000      -1.088651       -29.6237
  25   2.0000      -1.075576       -29.2679
  26   2.0000      -1.052963       -28.6526
  27   2.0000      -0.966515       -26.3002
  28   2.0000      -0.875026       -23.8107
  29   2.0000      -0.843394       -22.9499
  30   2.0000      -0.832811       -22.6619
  31   2.0000      -0.821199       -22.3460
  32   2.0000      -0.797798       -21.7092
  33   2.0000      -0.796617       -21.6770
  34   2.0000      -0.715983       -19.4829
  35   2.0000      -0.690923       -18.8010
  36   2.0000      -0.669799       -18.2262
  37   2.0000      -0.618024       -16.8173
  38   2.0000      -0.598575       -16.2881
  39   2.0000      -0.588807       -16.0222
  40   2.0000      -0.573513       -15.6061
  41   2.0000      -0.567667       -15.4470
  42   2.0000      -0.557029       -15.1575
  43   2.0000      -0.549907       -14.9637
  44   2.0000      -0.549200       -14.9445
  45   2.0000      -0.529791       -14.4163
  46   2.0000      -0.523838       -14.2543
  47   2.0000      -0.519876       -14.1466
  48   2.0000      -0.510321       -13.8865
  49   2.0000      -0.497082       -13.5263
  50   2.0000      -0.490493       -13.3470
  51   2.0000      -0.487861       -13.2754
  52   2.0000      -0.484733       -13.1903
  53   2.0000      -0.474433       -12.9100
  54   2.0000      -0.460889       -12.5414
  55   2.0000      -0.459426       -12.5016
  56   2.0000      -0.449619       -12.2348
  57   2.0000      -0.446748       -12.1566
  58   2.0000      -0.440114       -11.9761
  59   2.0000      -0.432924       -11.7805
  60   2.0000      -0.432494       -11.7688
  61   2.0000      -0.418764       -11.3952
  62   2.0000      -0.413786       -11.2597
  63   2.0000      -0.407677       -11.0934
  64   2.0000      -0.393671       -10.7123
  65   2.0000      -0.390419       -10.6238
  66   2.0000      -0.374269       -10.1844
  67   2.0000      -0.364279        -9.9125
  68   2.0000      -0.352611        -9.5950
  69   2.0000      -0.343490        -9.3468
  70   2.0000      -0.320410        -8.7188
  71   2.0000      -0.314624        -8.5613
  72   2.0000      -0.308497        -8.3946
  73   2.0000      -0.298717        -8.1285
  74   2.0000      -0.295549        -8.0423
  75   2.0000      -0.293585        -7.9888
  76   2.0000      -0.270556        -7.3622
  77   0.0000      -0.041595        -1.1319
  78   0.0000      -0.006513        -0.1772
  79   0.0000       0.003993         0.1087
  80   0.0000       0.043366         1.1801
  81   0.0000       0.070352         1.9144

MULLIKEN ATOMIC CHARGES
-----------------------
   0 Pd:    0.531212
   1 O :   -0.487077
   2 C :    0.674175
   3 O :   -0.504911
   4 C :   -0.770400
   5 H :    0.251892
   6 H :    0.263558
   7 H :    0.258819
   8 N :   -0.479109
   9 C :   -0.529567
  10 H :    0.289434
  11 H :    0.217191
  12 H :    0.273114
  13 C :   -0.531323
  14 H :    0.278189
  15 H :    0.221520
  16 H :    0.277902
  17 C :    0.097993
  18 C :   -0.258774
  19 C :   -0.215324
  20 C :   -0.223058
  21 C :   -0.219928
  22 C :   -0.269673
  23 H :    0.227854
  24 H :    0.228798
  25 H :    0.261710
  26 H :    0.228842
  27 H :    0.216663
  28 C :   -0.350243
  29 H :    0.239722
  30 H :    0.268605
  31 O :   -0.559596
  32 C :    0.569564
  33 O :   -0.450500
  34 C :   -0.742695
  35 H :    0.229055
  36 H :    0.246447
  37 H :    0.239923
Sum of atomic charges:   -0.0000000

LOEWDIN ATOMIC CHARGES
----------------------
   0 Pd:   -0.289775
   1 O :   -0.138871
   2 C :    0.196609
   3 O :   -0.183365
   4 C :   -0.377388
   5 H :    0.151899
   6 H :    0.165879
   7 H :    0.157402
   8 N :   -0.054365
   9 C :   -0.234386
  10 H :    0.160519
  11 H :    0.118314
  12 H :    0.151749
  13 C :   -0.233294
  14 H :    0.154162
  15 H :    0.121442
  16 H :    0.155356
  17 C :   -0.052994
  18 C :   -0.110937
  19 C :   -0.127401
  20 C :   -0.130751
  21 C :   -0.128313
  22 C :   -0.119301
  23 H :    0.142143
  24 H :    0.139603
  25 H :    0.159580
  26 H :    0.141071
  27 H :    0.139471
  28 C :   -0.106023
  29 H :    0.132245
  30 H :    0.154116
  31 O :   -0.199676
  32 C :    0.135392
  33 O :   -0.244387
  34 C :   -0.381830
  35 H :    0.140848
  36 H :    0.152907
  37 H :    0.142353

  Mayer bond orders larger than 0.100000
B(  0-Pd,  1-O ) :   0.5795 B(  0-Pd,  3-O ) :   0.4814 B(  0-Pd,  8-N ) :   0.4073
B(  0-Pd, 31-O ) :   0.6560 B(  0-Pd, 33-O ) :   0.1165 B(  1-O ,  2-C ) :   1.4037
B(  1-O ,  3-O ) :   0.1033 B(  2-C ,  3-O ) :   1.4972 B(  2-C ,  4-C ) :   0.9556
B(  4-C ,  5-H ) :   0.9103 B(  4-C ,  6-H ) :   0.9003 B(  4-C ,  7-H ) :   0.9065
B(  8-N ,  9-C ) :   0.9202 B(  8-N , 13-C ) :   0.9245 B(  8-N , 28-C ) :   0.8956
B(  9-C , 10-H ) :   0.8936 B(  9-C , 11-H ) :   0.9024 B(  9-C , 12-H ) :   0.9003
B( 13-C , 14-H ) :   0.8919 B( 13-C , 15-H ) :   0.9036 B( 13-C , 16-H ) :   0.9009
B( 17-C , 18-C ) :   1.4161 B( 17-C , 22-C ) :   1.3730 B( 17-C , 28-C ) :   0.9446
B( 18-C , 19-C ) :   1.4195 B( 18-C , 25-H ) :   0.8963 B( 19-C , 20-C ) :   1.4328
B( 19-C , 26-H ) :   0.9168 B( 20-C , 21-C ) :   1.4021 B( 20-C , 23-H ) :   0.9178
B( 21-C , 22-C ) :   1.4480 B( 21-C , 24-H ) :   0.9161 B( 22-C , 27-H ) :   0.9201
B( 28-C , 29-H ) :   0.8969 B( 28-C , 30-H ) :   0.9074 B( 31-O , 32-C ) :   1.2336
B( 32-C , 33-O ) :   1.8754 B( 32-C , 34-C ) :   0.9376 B( 34-C , 35-H ) :   0.9160
B( 34-C , 36-H ) :   0.9106 B( 34-C , 37-H ) :   0.9201

Dispersion correction           -0.025938358
FINAL SINGLE POINT ENERGY      -988.543468496308
Dispersion correction            ... done

DIPOLE MOMENT
-------------
                                X             Y             Z
Electronic contribution:     31.20752      28.38434     -28.24501
Nuclear contribution   :    -32.77333     -28.46866      28.99553
                        -----------------------------------------
Total Dipole Moment    :     -1.56581      -0.08432       0.75052
                        -----------------------------------------
Magnitude (a.u.)       :      1.73843
Magnitude (Debye)      :      4.41874

Rotational constants in cm-1:     0.013722     0.008210     0.007050
Rotational constants in MHz :   411.375944   246.122053   211.343876

                             ****ORCA TERMINATED NORMALLY****
TOTAL RUN TIME: 0 days 0 hours 12 minutes 58 seconds 548 msec
