                         Program Version 5.0.3 -  RELEASE  -
|  1> ! EnGrad PBEh-3c
|  2> %output
|  3> xyzfile=True
|  4> end
|  5> %scf
|  6> maxiter 250
|  7> end
|  8> %output
|  9> Print[P_Hirshfeld] = 1
| 10> end
| 11> % maxcore
| 12> 4000
| 13> *xyz 0 1
| 14> Pd   0.75626101   0.66855921  -0.57274185
| 15> O    2.37143791   1.68134303   0.15000080
| 16> C    1.68870359   2.77332576   0.19151010
| 17> O    0.47546116   2.70820041  -0.08811945
| 18> C    2.37118609   4.07620346   0.51281745
| 19> H    1.67874865   4.74811127   1.01073942
| 20> H    2.68423209   4.54347398  -0.42256871
| 21> H    3.25487713   3.92730157   1.12379023
| 22> N   -1.14054697  -0.12578803  -1.12678493
| 23> C   -1.21341704  -0.57638258  -2.52389463
| 24> H   -0.93214181   0.23368806  -3.18593887
| 25> H   -2.24015251  -0.88339293  -2.76384688
| 26> H   -0.56096935  -1.41425245  -2.70366591
| 27> C   -2.09284146   0.98002240  -0.96521194
| 28> H   -2.06181933   1.39140399   0.03006111
| 29> H   -3.10594557   0.63554326  -1.19021642
| 30> H   -1.83765294   1.77244355  -1.66439276
| 31> C   -1.40988353  -1.03074840   1.22471161
| 32> C   -0.26582010  -1.47636768   1.91835073
| 33> C   -0.17533392  -1.38873922   3.29357381
| 34> C   -1.22805468  -0.89367362   4.02488154
| 35> C   -2.40247641  -0.52225885   3.37626661
| 36> C   -2.60258484  -0.51658688   1.95763829
| 37> H   -1.16161911  -0.83049761   5.10553921
| 38> H   -3.25229023  -0.26082296   3.98156569
| 39> H    0.54657883  -1.93311152   1.37523025
| 40> H    0.71077266  -1.75079005   3.79781755
| 41> H   -3.60522770  -0.19023748   1.54622400
| 42> C   -1.51494695  -1.27303390  -0.24416532
| 43> H   -2.54729203  -1.55897085  -0.46804891
| 44> H   -0.88412534  -2.12359251  -0.54305635
| 45> O    1.64609624  -1.04323516  -1.02178440
| 46> C    2.25255670  -0.97889830  -2.19283856
| 47> O    2.07516234  -0.11272420  -3.00759746
| 48> C    3.23599588  -2.11022574  -2.43757033
| 49> H    2.81774880  -3.07290289  -2.17992787
| 50> H    4.12387596  -1.95681753  -1.83306832
| 51> H    3.54426835  -2.11683409  -3.48652647
| 52> *
| 53>
| 54>                          ****END OF INPUT****

CARTESIAN COORDINATES (ANGSTROEM)
---------------------------------
  Pd     0.756261    0.668559   -0.572742
  O      2.371438    1.681343    0.150001
  C      1.688704    2.773326    0.191510
  O      0.475461    2.708200   -0.088119
  C      2.371186    4.076203    0.512817
  H      1.678749    4.748111    1.010739
  H      2.684232    4.543474   -0.422569
  H      3.254877    3.927302    1.123790
  N     -1.140547   -0.125788   -1.126785
  C     -1.213417   -0.576383   -2.523895
  H     -0.932142    0.233688   -3.185939
  H     -2.240153   -0.883393   -2.763847
  H     -0.560969   -1.414252   -2.703666
  C     -2.092841    0.980022   -0.965212
  H     -2.061819    1.391404    0.030061
  H     -3.105946    0.635543   -1.190216
  H     -1.837653    1.772444   -1.664393
  C     -1.409884   -1.030748    1.224712
  C     -0.265820   -1.476368    1.918351
  C     -0.175334   -1.388739    3.293574
  C     -1.228055   -0.893674    4.024882
  C     -2.402476   -0.522259    3.376267
  C     -2.602585   -0.516587    1.957638
  H     -1.161619   -0.830498    5.105539
  H     -3.252290   -0.260823    3.981566
  H      0.546579   -1.933112    1.375230
  H      0.710773   -1.750790    3.797818
  H     -3.605228   -0.190237    1.546224
  C     -1.514947   -1.273034   -0.244165
  H     -2.547292   -1.558971   -0.468049
  H     -0.884125   -2.123593   -0.543056
  O      1.646096   -1.043235   -1.021784
  C      2.252557   -0.978898   -2.192839
  O      2.075162   -0.112724   -3.007597
  C      3.235996   -2.110226   -2.437570
  H      2.817749   -3.072903   -2.179928
  H      4.123876   -1.956818   -1.833068
  H      3.544268   -2.116834   -3.486526

 Total Charge           Charge          ....    0
 Multiplicity           Mult            ....    1
 Number of Electrons    NEL             ....  154
 Basis Dimension        Dim             ....  339

ORBITAL ENERGIES
----------------

  NO   OCC          E(Eh)            E(eV)
   0   2.0000     -19.502261      -530.6835
   1   2.0000     -19.497406      -530.5514
   2   2.0000     -19.474368      -529.9245
   3   2.0000     -19.436703      -528.8996
   4   2.0000     -14.718962      -400.5233
   5   2.0000     -10.574175      -287.7379
   6   2.0000     -10.533002      -286.6176
   7   2.0000     -10.494307      -285.5646
   8   2.0000     -10.483011      -285.2572
   9   2.0000     -10.482712      -285.2491
  10   2.0000     -10.479121      -285.1514
  11   2.0000     -10.476202      -285.0720
  12   2.0000     -10.461465      -284.6709
  13   2.0000     -10.457038      -284.5505
  14   2.0000     -10.456623      -284.5392
  15   2.0000     -10.454244      -284.4745
  16   2.0000     -10.443067      -284.1703
  17   2.0000     -10.415075      -283.4086
  18   2.0000      -3.656655       -99.5027
  19   2.0000      -2.305043       -62.7234
  20   2.0000      -2.301369       -62.6234
  21   2.0000      -2.265180       -61.6387
  22   2.0000      -1.203435       -32.7471
  23   2.0000      -1.151636       -31.3376
  24   2.0000      -1.084713       -29.5165
  25   2.0000      -1.074642       -29.2425
  26   2.0000      -1.053544       -28.6684
  27   2.0000      -0.959467       -26.1084
  28   2.0000      -0.876536       -23.8518
  29   2.0000      -0.843303       -22.9475
  30   2.0000      -0.833107       -22.6700
  31   2.0000      -0.820013       -22.3137
  32   2.0000      -0.798081       -21.7169
  33   2.0000      -0.794086       -21.6082
  34   2.0000      -0.716331       -19.4924
  35   2.0000      -0.690749       -18.7962
  36   2.0000      -0.664559       -18.0836
  37   2.0000      -0.615779       -16.7562
  38   2.0000      -0.595497       -16.2043
  39   2.0000      -0.588448       -16.0125
  40   2.0000      -0.575926       -15.6718
  41   2.0000      -0.567191       -15.4341
  42   2.0000      -0.557785       -15.1781
  43   2.0000      -0.547841       -14.9075
  44   2.0000      -0.546794       -14.8790
  45   2.0000      -0.528558       -14.3828
  46   2.0000      -0.526725       -14.3329
  47   2.0000      -0.518490       -14.1088
  48   2.0000      -0.511099       -13.9077
  49   2.0000      -0.496160       -13.5012
  50   2.0000      -0.491321       -13.3695
  51   2.0000      -0.489031       -13.3072
  52   2.0000      -0.483215       -13.1490
  53   2.0000      -0.469155       -12.7664
  54   2.0000      -0.461189       -12.5496
  55   2.0000      -0.459181       -12.4949
  56   2.0000      -0.449862       -12.2414
  57   2.0000      -0.446235       -12.1427
  58   2.0000      -0.443333       -12.0637
  59   2.0000      -0.432945       -11.7810
  60   2.0000      -0.423669       -11.5286
  61   2.0000      -0.418798       -11.3961
  62   2.0000      -0.411866       -11.2074
  63   2.0000      -0.407304       -11.0833
  64   2.0000      -0.394022       -10.7219
  65   2.0000      -0.390852       -10.6356
  66   2.0000      -0.372618       -10.1395
  67   2.0000      -0.365239        -9.9387
  68   2.0000      -0.350242        -9.5306
  69   2.0000      -0.342556        -9.3214
  70   2.0000      -0.318683        -8.6718
  71   2.0000      -0.313590        -8.5332
  72   2.0000      -0.309544        -8.4231
  73   2.0000      -0.300546        -8.1783
  74   2.0000      -0.298286        -8.1168
  75   2.0000      -0.293665        -7.9910
  76   2.0000      -0.272520        -7.4156
  77   0.0000      -0.039551        -1.0762
  78   0.0000      -0.010506        -0.2859
  79   0.0000       0.006889         0.1875
  80   0.0000       0.044220         1.2033
  81   0.0000       0.070006         1.9050

MULLIKEN ATOMIC CHARGES
-----------------------
   0 Pd:    0.524270
   1 O :   -0.498296
   2 C :    0.670669
   3 O :   -0.493919
   4 C :   -0.766855
   5 H :    0.251113
   6 H :    0.262018
   7 H :    0.260523
   8 N :   -0.485717
   9 C :   -0.517960
  10 H :    0.280700
  11 H :    0.216292
  12 H :    0.274585
  13 C :   -0.534417
  14 H :    0.295299
  15 H :    0.217023
  16 H :    0.276648
  17 C :    0.040657
  18 C :   -0.234073
  19 C :   -0.214004
  20 C :   -0.201731
  21 C :   -0.222279
  22 C :   -0.267049
  23 H :    0.227048
  24 H :    0.219182
  25 H :    0.273537
  26 H :    0.230686
  27 H :    0.229611
  28 C :   -0.358168
  29 H :    0.236645
  30 H :    0.280741
  31 O :   -0.571644
  32 C :    0.558195
  33 O :   -0.429202
  34 C :   -0.744941
  35 H :    0.229414
  36 H :    0.247660
  37 H :    0.237737
Sum of atomic charges:    0.0000000

LOEWDIN ATOMIC CHARGES
----------------------
   0 Pd:   -0.295954
   1 O :   -0.163375
   2 C :    0.197536
   3 O :   -0.166115
   4 C :   -0.376575
   5 H :    0.152974
   6 H :    0.165089
   7 H :    0.156569
   8 N :   -0.048437
   9 C :   -0.229466
  10 H :    0.157552
  11 H :    0.118417
  12 H :    0.152542
  13 C :   -0.234850
  14 H :    0.161745
  15 H :    0.119865
  16 H :    0.155957
  17 C :   -0.045304
  18 C :   -0.105862
  19 C :   -0.120133
  20 C :   -0.133904
  21 C :   -0.129567
  22 C :   -0.136926
  23 H :    0.140768
  24 H :    0.133323
  25 H :    0.167810
  26 H :    0.141741
  27 H :    0.147113
  28 C :   -0.112586
  29 H :    0.130420
  30 H :    0.159342
  31 O :   -0.216576
  32 C :    0.132153
  33 O :   -0.225238
  34 C :   -0.384397
  35 H :    0.139805
  36 H :    0.152710
  37 H :    0.141831

  Mayer bond orders larger than 0.100000
B(  0-Pd,  1-O ) :   0.5754 B(  0-Pd,  3-O ) :   0.4810 B(  0-Pd,  8-N ) :   0.4177
B(  0-Pd, 31-O ) :   0.6511 B(  0-Pd, 33-O ) :   0.1062 B(  1-O ,  2-C ) :   1.3983
B(  1-O ,  3-O ) :   0.1037 B(  2-C ,  3-O ) :   1.5038 B(  2-C ,  4-C ) :   0.9573
B(  4-C ,  5-H ) :   0.9094 B(  4-C ,  6-H ) :   0.9016 B(  4-C ,  7-H ) :   0.9074
B(  8-N ,  9-C ) :   0.9228 B(  8-N , 13-C ) :   0.9209 B(  8-N , 28-C ) :   0.8890
B(  9-C , 10-H ) :   0.8987 B(  9-C , 11-H ) :   0.9034 B(  9-C , 12-H ) :   0.8998
B( 13-C , 14-H ) :   0.8848 B( 13-C , 15-H ) :   0.9060 B( 13-C , 16-H ) :   0.8994
B( 17-C , 18-C ) :   1.4365 B( 17-C , 22-C ) :   1.3483 B( 17-C , 28-C ) :   0.9522
B( 18-C , 19-C ) :   1.4105 B( 18-C , 25-H ) :   0.8903 B( 19-C , 20-C ) :   1.4341
B( 19-C , 22-C ) :   0.1015 B( 19-C , 26-H ) :   0.9139 B( 20-C , 21-C ) :   1.4103
B( 20-C , 23-H ) :   0.9167 B( 21-C , 22-C ) :   1.4508 B( 21-C , 24-H ) :   0.9181
B( 22-C , 27-H ) :   0.9151 B( 28-C , 29-H ) :   0.9037 B( 28-C , 30-H ) :   0.8972
B( 31-O , 32-C ) :   1.2152 B( 32-C , 33-O ) :   1.9095 B( 32-C , 34-C ) :   0.9371
B( 34-C , 35-H ) :   0.9164 B( 34-C , 36-H ) :   0.9109 B( 34-C , 37-H ) :   0.9209

Dispersion correction           -0.026090256
FINAL SINGLE POINT ENERGY      -988.549350512086
Dispersion correction            ... done

DIPOLE MOMENT
-------------
                                X             Y             Z
Electronic contribution:     33.93658      33.55151     -28.84000
Nuclear contribution   :    -35.74160     -33.68431      29.59508
                        -----------------------------------------
Total Dipole Moment    :     -1.80502      -0.13280       0.75508
                        -----------------------------------------
Magnitude (a.u.)       :      1.96109
Magnitude (Debye)      :      4.98470

Rotational constants in cm-1:     0.013247     0.008360     0.007119
Rotational constants in MHz :   397.129211   250.620185   213.433365

                             ****ORCA TERMINATED NORMALLY****
TOTAL RUN TIME: 0 days 0 hours 14 minutes 6 seconds 75 msec
