                         Program Version 5.0.3 -  RELEASE  -
|  1> ! EnGrad PBEh-3c
|  2> %output
|  3> xyzfile=True
|  4> end
|  5> %scf
|  6> maxiter 250
|  7> end
|  8> %output
|  9> Print[P_Hirshfeld] = 1
| 10> end
| 11> % maxcore
| 12> 4000
| 13> *xyz 0 1
| 14> Pd   0.68759310   0.56459979  -0.56131533
| 15> O    2.29137487   1.54805651   0.14101658
| 16> C    1.65409388   2.63811890   0.23927472
| 17> O    0.41476963   2.60792743   0.00992392
| 18> C    2.40743128   3.90087131   0.54866326
| 19> H    1.79997514   4.66407384   1.03798003
| 20> H    2.78658989   4.32070366  -0.38755465
| 21> H    3.27600953   3.67339453   1.16585809
| 22> N   -1.20592568  -0.25352913  -1.15064550
| 23> C   -1.21880046  -0.94738127  -2.45553193
| 24> H   -0.88534991  -0.28602270  -3.24735251
| 25> H   -2.23259306  -1.28951977  -2.68751543
| 26> H   -0.56914754  -1.81756888  -2.44359844
| 27> C   -2.13925482   0.87657312  -1.23711670
| 28> H   -2.15095625   1.44277443  -0.31132127
| 29> H   -3.15065765   0.51305522  -1.43883306
| 30> H   -1.84720332   1.54317706  -2.04292119
| 31> C   -1.48137175  -0.89840768   1.33815626
| 32> C   -0.51636932  -1.66487644   1.98021143
| 33> C   -0.35195806  -1.59036972   3.36302894
| 34> C   -1.30999528  -0.95301087   4.14691873
| 35> C   -2.30833156  -0.21776054   3.50553083
| 36> C   -2.27581057  -0.04082181   2.12288071
| 37> H   -1.18498849  -0.90140430   5.23402526
| 38> H   -3.09821831   0.26800569   4.07956529
| 39> H    0.17694319  -2.23320525   1.35243901
| 40> H    0.53124120  -2.01999536   3.79997279
| 41> H   -2.83164922   0.78804190   1.67418700
| 42> C   -1.70390567  -1.21880321  -0.13843123
| 43> H   -2.76966282  -1.39923453  -0.37181491
| 44> H   -1.19648342  -2.16787972  -0.32679081
| 45> O    1.67744492  -1.05071463  -1.12349378
| 46> C    2.24118431  -0.83993893  -2.27980400
| 47> O    1.88888323   0.01304555  -3.07124903
| 48> C    3.41830397  -1.74214452  -2.58247940
| 49> H    3.18284987  -2.78482940  -2.38059056
| 50> H    4.25624996  -1.47722986  -1.93587875
| 51> H    3.73285573  -1.63400375  -3.61920241
| 52> *
| 53>
| 54>                          ****END OF INPUT****

CARTESIAN COORDINATES (ANGSTROEM)
---------------------------------
  Pd     0.687593    0.564600   -0.561315
  O      2.291375    1.548057    0.141017
  C      1.654094    2.638119    0.239275
  O      0.414770    2.607927    0.009924
  C      2.407431    3.900871    0.548663
  H      1.799975    4.664074    1.037980
  H      2.786590    4.320704   -0.387555
  H      3.276010    3.673395    1.165858
  N     -1.205926   -0.253529   -1.150645
  C     -1.218800   -0.947381   -2.455532
  H     -0.885350   -0.286023   -3.247353
  H     -2.232593   -1.289520   -2.687515
  H     -0.569148   -1.817569   -2.443598
  C     -2.139255    0.876573   -1.237117
  H     -2.150956    1.442774   -0.311321
  H     -3.150658    0.513055   -1.438833
  H     -1.847203    1.543177   -2.042921
  C     -1.481372   -0.898408    1.338156
  C     -0.516369   -1.664876    1.980211
  C     -0.351958   -1.590370    3.363029
  C     -1.309995   -0.953011    4.146919
  C     -2.308332   -0.217761    3.505531
  C     -2.275811   -0.040822    2.122881
  H     -1.184988   -0.901404    5.234025
  H     -3.098218    0.268006    4.079565
  H      0.176943   -2.233205    1.352439
  H      0.531241   -2.019995    3.799973
  H     -2.831649    0.788042    1.674187
  C     -1.703906   -1.218803   -0.138431
  H     -2.769663   -1.399235   -0.371815
  H     -1.196483   -2.167880   -0.326791
  O      1.677445   -1.050715   -1.123494
  C      2.241184   -0.839939   -2.279804
  O      1.888883    0.013046   -3.071249
  C      3.418304   -1.742145   -2.582479
  H      3.182850   -2.784829   -2.380591
  H      4.256250   -1.477230   -1.935879
  H      3.732856   -1.634004   -3.619202

 Total Charge           Charge          ....    0
 Multiplicity           Mult            ....    1
 Number of Electrons    NEL             ....  154
 Basis Dimension        Dim             ....  339

ORBITAL ENERGIES
----------------

  NO   OCC          E(Eh)            E(eV)
   0   2.0000     -19.503021      -530.7042
   1   2.0000     -19.498321      -530.5763
   2   2.0000     -19.475782      -529.9630
   3   2.0000     -19.433410      -528.8100
   4   2.0000     -14.719297      -400.5324
   5   2.0000     -10.574556      -287.7483
   6   2.0000     -10.532314      -286.5988
   7   2.0000     -10.500606      -285.7360
   8   2.0000     -10.482777      -285.2509
   9   2.0000     -10.476375      -285.0767
  10   2.0000     -10.473677      -285.0032
  11   2.0000     -10.464988      -284.7668
  12   2.0000     -10.461314      -284.6668
  13   2.0000     -10.460052      -284.6325
  14   2.0000     -10.456275      -284.5297
  15   2.0000     -10.454403      -284.4788
  16   2.0000     -10.444681      -284.2142
  17   2.0000     -10.414548      -283.3943
  18   2.0000      -3.657888       -99.5362
  19   2.0000      -2.306401       -62.7604
  20   2.0000      -2.302977       -62.6672
  21   2.0000      -2.266165       -61.6655
  22   2.0000      -1.206220       -32.8229
  23   2.0000      -1.151219       -31.3263
  24   2.0000      -1.088029       -29.6068
  25   2.0000      -1.076422       -29.2909
  26   2.0000      -1.053386       -28.6641
  27   2.0000      -0.967691       -26.3322
  28   2.0000      -0.875470       -23.8227
  29   2.0000      -0.844739       -22.9865
  30   2.0000      -0.833324       -22.6759
  31   2.0000      -0.821097       -22.3432
  32   2.0000      -0.797860       -21.7109
  33   2.0000      -0.796738       -21.6803
  34   2.0000      -0.716439       -19.4953
  35   2.0000      -0.691918       -18.8280
  36   2.0000      -0.670096       -18.2343
  37   2.0000      -0.617728       -16.8092
  38   2.0000      -0.599549       -16.3146
  39   2.0000      -0.588739       -16.0204
  40   2.0000      -0.573773       -15.6132
  41   2.0000      -0.568093       -15.4586
  42   2.0000      -0.557258       -15.1638
  43   2.0000      -0.549648       -14.9567
  44   2.0000      -0.548868       -14.9355
  45   2.0000      -0.529828       -14.4174
  46   2.0000      -0.524167       -14.2633
  47   2.0000      -0.520931       -14.1753
  48   2.0000      -0.510483       -13.8910
  49   2.0000      -0.497212       -13.5298
  50   2.0000      -0.490779       -13.3548
  51   2.0000      -0.488680       -13.2977
  52   2.0000      -0.485152       -13.2017
  53   2.0000      -0.474752       -12.9187
  54   2.0000      -0.460595       -12.5334
  55   2.0000      -0.459141       -12.4939
  56   2.0000      -0.449434       -12.2297
  57   2.0000      -0.446761       -12.1570
  58   2.0000      -0.439740       -11.9659
  59   2.0000      -0.433376       -11.7927
  60   2.0000      -0.432679       -11.7738
  61   2.0000      -0.418664       -11.3924
  62   2.0000      -0.413554       -11.2534
  63   2.0000      -0.405999       -11.0478
  64   2.0000      -0.395324       -10.7573
  65   2.0000      -0.390546       -10.6273
  66   2.0000      -0.373702       -10.1689
  67   2.0000      -0.364378        -9.9152
  68   2.0000      -0.352741        -9.5986
  69   2.0000      -0.343042        -9.3346
  70   2.0000      -0.320462        -8.7202
  71   2.0000      -0.314704        -8.5635
  72   2.0000      -0.308528        -8.3955
  73   2.0000      -0.298773        -8.1300
  74   2.0000      -0.296080        -8.0568
  75   2.0000      -0.294070        -8.0021
  76   2.0000      -0.270554        -7.3622
  77   0.0000      -0.041719        -1.1352
  78   0.0000      -0.006266        -0.1705
  79   0.0000       0.005608         0.1526
  80   0.0000       0.044012         1.1976
  81   0.0000       0.070499         1.9184

MULLIKEN ATOMIC CHARGES
-----------------------
   0 Pd:    0.531464
   1 O :   -0.486271
   2 C :    0.673769
   3 O :   -0.505538
   4 C :   -0.771193
   5 H :    0.251886
   6 H :    0.263735
   7 H :    0.258969
   8 N :   -0.479844
   9 C :   -0.529485
  10 H :    0.289453
  11 H :    0.217459
  12 H :    0.273268
  13 C :   -0.531739
  14 H :    0.278437
  15 H :    0.221862
  16 H :    0.278158
  17 C :    0.098174
  18 C :   -0.262085
  19 C :   -0.213469
  20 C :   -0.224253
  21 C :   -0.218448
  22 C :   -0.265843
  23 H :    0.226376
  24 H :    0.226837
  25 H :    0.259909
  26 H :    0.230384
  27 H :    0.218727
  28 C :   -0.351618
  29 H :    0.239267
  30 H :    0.269088
  31 O :   -0.558730
  32 C :    0.569326
  33 O :   -0.449938
  34 C :   -0.742987
  35 H :    0.228705
  36 H :    0.246342
  37 H :    0.239846
Sum of atomic charges:    0.0000000

LOEWDIN ATOMIC CHARGES
----------------------
   0 Pd:   -0.289563
   1 O :   -0.138809
   2 C :    0.194227
   3 O :   -0.183882
   4 C :   -0.377270
   5 H :    0.151855
   6 H :    0.166013
   7 H :    0.157554
   8 N :   -0.053035
   9 C :   -0.234106
  10 H :    0.160744
  11 H :    0.118615
  12 H :    0.151897
  13 C :   -0.232926
  14 H :    0.154409
  15 H :    0.121811
  16 H :    0.155550
  17 C :   -0.052534
  18 C :   -0.110174
  19 C :   -0.127125
  20 C :   -0.130509
  21 C :   -0.128268
  22 C :   -0.120348
  23 H :    0.141598
  24 H :    0.139412
  25 H :    0.158764
  26 H :    0.141433
  27 H :    0.139687
  28 C :   -0.106675
  29 H :    0.132013
  30 H :    0.154128
  31 O :   -0.198681
  32 C :    0.133448
  33 O :   -0.243427
  34 C :   -0.381746
  35 H :    0.140779
  36 H :    0.152938
  37 H :    0.142202

  Mayer bond orders larger than 0.100000
B(  0-Pd,  1-O ) :   0.5781 B(  0-Pd,  3-O ) :   0.4814 B(  0-Pd,  8-N ) :   0.4085
B(  0-Pd, 31-O ) :   0.6560 B(  0-Pd, 33-O ) :   0.1166 B(  1-O ,  2-C ) :   1.4063
B(  1-O ,  3-O ) :   0.1030 B(  2-C ,  3-O ) :   1.4972 B(  2-C ,  4-C ) :   0.9562
B(  4-C ,  5-H ) :   0.9103 B(  4-C ,  6-H ) :   0.9002 B(  4-C ,  7-H ) :   0.9066
B(  8-N ,  9-C ) :   0.9196 B(  8-N , 13-C ) :   0.9238 B(  8-N , 28-C ) :   0.8961
B(  9-C , 10-H ) :   0.8935 B(  9-C , 11-H ) :   0.9024 B(  9-C , 12-H ) :   0.9001
B( 13-C , 14-H ) :   0.8918 B( 13-C , 15-H ) :   0.9035 B( 13-C , 16-H ) :   0.9008
B( 17-C , 18-C ) :   1.4192 B( 17-C , 22-C ) :   1.3744 B( 17-C , 28-C ) :   0.9442
B( 18-C , 19-C ) :   1.4183 B( 18-C , 25-H ) :   0.8974 B( 19-C , 20-C ) :   1.4336
B( 19-C , 26-H ) :   0.9160 B( 20-C , 21-C ) :   1.4026 B( 20-C , 23-H ) :   0.9182
B( 21-C , 22-C ) :   1.4495 B( 21-C , 24-H ) :   0.9169 B( 22-C , 27-H ) :   0.9195
B( 28-C , 29-H ) :   0.8973 B( 28-C , 30-H ) :   0.9072 B( 31-O , 32-C ) :   1.2348
B( 32-C , 33-O ) :   1.8763 B( 32-C , 34-C ) :   0.9373 B( 34-C , 35-H ) :   0.9162
B( 34-C , 36-H ) :   0.9107 B( 34-C , 37-H ) :   0.9200

Dispersion correction           -0.025960142
FINAL SINGLE POINT ENERGY      -988.545860981027
Dispersion correction            ... done

DIPOLE MOMENT
-------------
                                X             Y             Z
Electronic contribution:     31.02386      28.23300     -28.30788
Nuclear contribution   :    -32.59962     -28.33017      29.05482
                        -----------------------------------------
Total Dipole Moment    :     -1.57576      -0.09716       0.74694
                        -----------------------------------------
Magnitude (a.u.)       :      1.74653
Magnitude (Debye)      :      4.43933

Rotational constants in cm-1:     0.013736     0.008221     0.007058
Rotational constants in MHz :   411.797267   246.463928   211.598194

                             ****ORCA TERMINATED NORMALLY****
TOTAL RUN TIME: 0 days 0 hours 12 minutes 56 seconds 493 msec
