                         Program Version 5.0.3 -  RELEASE  -
|  1> ! EnGrad PBEh-3c
|  2> %output
|  3> xyzfile=True
|  4> end
|  5> %scf
|  6> maxiter 250
|  7> end
|  8> %output
|  9> Print[P_Hirshfeld] = 1
| 10> end
| 11> % maxcore
| 12> 4000
| 13> *xyz 0 1
| 14> Pd   0.68042130   0.55681529  -0.56208582
| 15> O    2.28513462   1.54382749   0.13363946
| 16> C    1.65086556   2.63383346   0.24087390
| 17> O    0.41170265   2.60141312   0.01996917
| 18> C    2.40819401   3.88825742   0.54862381
| 19> H    1.80280410   4.65162013   1.03561433
| 20> H    2.78869362   4.30718857  -0.38631482
| 21> H    3.27399929   3.65957409   1.16796781
| 22> N   -1.20323659  -0.25687109  -1.15061752
| 23> C   -1.21757722  -0.96536360  -2.44918933
| 24> H   -0.87792346  -0.30717807  -3.24424700
| 25> H   -2.23391720  -1.31068171  -2.68217351
| 26> H   -0.56502144  -1.83477934  -2.42118427
| 27> C   -2.14339846   0.87047377  -1.24998250
| 28> H   -2.15775024   1.44586478  -0.32720486
| 29> H   -3.15687605   0.50299852  -1.45508531
| 30> H   -1.84472135   1.53342492  -2.05897284
| 31> C   -1.48275563  -0.87905348   1.33945960
| 32> C   -0.52835218  -1.65718739   1.98694509
| 33> C   -0.36483846  -1.60841026   3.36878142
| 34> C   -1.31390915  -0.94667923   4.13671378
| 35> C   -2.27216916  -0.16215107   3.49385107
| 36> C   -2.26845129  -0.02056168   2.11660338
| 37> H   -1.19977191  -0.92323896   5.22737269
| 38> H   -3.05567338   0.31218159   4.08150158
| 39> H    0.14923474  -2.25597273   1.37585908
| 40> H    0.51769444  -2.04636741   3.81266682
| 41> H   -2.82179007   0.77345129   1.67635062
| 42> C   -1.70111302  -1.20746977  -0.13050038
| 43> H   -2.76930533  -1.38722584  -0.34617848
| 44> H   -1.21409453  -2.16804184  -0.32009474
| 45> O    1.67822485  -1.05297070  -1.13230127
| 46> C    2.23857792  -0.83518912  -2.28711720
| 47> O    1.87847465   0.01929321  -3.07467110
| 48> C    3.42494840  -1.72264957  -2.58765699
| 49> H    3.19858345  -2.77003660  -2.39247586
| 50> H    4.26160761  -1.44929577  -1.94033971
| 51> H    3.73980512  -1.60615120  -3.62309206
| 52> *
| 53>
| 54>                          ****END OF INPUT****

CARTESIAN COORDINATES (ANGSTROEM)
---------------------------------
  Pd     0.680421    0.556815   -0.562086
  O      2.285135    1.543827    0.133639
  C      1.650866    2.633833    0.240874
  O      0.411703    2.601413    0.019969
  C      2.408194    3.888257    0.548624
  H      1.802804    4.651620    1.035614
  H      2.788694    4.307189   -0.386315
  H      3.273999    3.659574    1.167968
  N     -1.203237   -0.256871   -1.150618
  C     -1.217577   -0.965364   -2.449189
  H     -0.877923   -0.307178   -3.244247
  H     -2.233917   -1.310682   -2.682174
  H     -0.565021   -1.834779   -2.421184
  C     -2.143398    0.870474   -1.249982
  H     -2.157750    1.445865   -0.327205
  H     -3.156876    0.502999   -1.455085
  H     -1.844721    1.533425   -2.058973
  C     -1.482756   -0.879053    1.339460
  C     -0.528352   -1.657187    1.986945
  C     -0.364838   -1.608410    3.368781
  C     -1.313909   -0.946679    4.136714
  C     -2.272169   -0.162151    3.493851
  C     -2.268451   -0.020562    2.116603
  H     -1.199772   -0.923239    5.227373
  H     -3.055673    0.312182    4.081502
  H      0.149235   -2.255973    1.375859
  H      0.517694   -2.046367    3.812667
  H     -2.821790    0.773451    1.676351
  C     -1.701113   -1.207470   -0.130500
  H     -2.769305   -1.387226   -0.346178
  H     -1.214095   -2.168042   -0.320095
  O      1.678225   -1.052971   -1.132301
  C      2.238578   -0.835189   -2.287117
  O      1.878475    0.019293   -3.074671
  C      3.424948   -1.722650   -2.587657
  H      3.198583   -2.770037   -2.392476
  H      4.261608   -1.449296   -1.940340
  H      3.739805   -1.606151   -3.623092

 Total Charge           Charge          ....    0
 Multiplicity           Mult            ....    1
 Number of Electrons    NEL             ....  154
 Basis Dimension        Dim             ....  339

ORBITAL ENERGIES
----------------

  NO   OCC          E(Eh)            E(eV)
   0   2.0000     -19.501688      -530.6679
   1   2.0000     -19.497352      -530.5499
   2   2.0000     -19.475307      -529.9500
   3   2.0000     -19.432815      -528.7938
   4   2.0000     -14.720009      -400.5518
   5   2.0000     -10.573230      -287.7122
   6   2.0000     -10.531733      -286.5830
   7   2.0000     -10.499796      -285.7140
   8   2.0000     -10.484043      -285.2853
   9   2.0000     -10.477309      -285.1021
  10   2.0000     -10.472594      -284.9738
  11   2.0000     -10.460284      -284.6388
  12   2.0000     -10.459212      -284.6096
  13   2.0000     -10.458612      -284.5933
  14   2.0000     -10.455627      -284.5121
  15   2.0000     -10.454425      -284.4794
  16   2.0000     -10.443740      -284.1886
  17   2.0000     -10.414475      -283.3923
  18   2.0000      -3.657696       -99.5310
  19   2.0000      -2.306239       -62.7560
  20   2.0000      -2.302741       -62.6608
  21   2.0000      -2.265975       -61.6603
  22   2.0000      -1.206279       -32.8245
  23   2.0000      -1.151053       -31.3217
  24   2.0000      -1.087213       -29.5846
  25   2.0000      -1.077049       -29.3080
  26   2.0000      -1.052863       -28.6499
  27   2.0000      -0.969567       -26.3833
  28   2.0000      -0.876144       -23.8411
  29   2.0000      -0.847609       -23.0646
  30   2.0000      -0.834412       -22.7055
  31   2.0000      -0.820498       -22.3269
  32   2.0000      -0.797951       -21.7134
  33   2.0000      -0.796736       -21.6803
  34   2.0000      -0.717079       -19.5127
  35   2.0000      -0.693417       -18.8688
  36   2.0000      -0.671368       -18.2688
  37   2.0000      -0.617458       -16.8019
  38   2.0000      -0.600955       -16.3528
  39   2.0000      -0.588460       -16.0128
  40   2.0000      -0.574101       -15.6221
  41   2.0000      -0.568308       -15.4644
  42   2.0000      -0.557701       -15.1758
  43   2.0000      -0.549300       -14.9472
  44   2.0000      -0.548652       -14.9296
  45   2.0000      -0.530049       -14.4234
  46   2.0000      -0.525317       -14.2946
  47   2.0000      -0.522260       -14.2114
  48   2.0000      -0.510086       -13.8802
  49   2.0000      -0.497113       -13.5271
  50   2.0000      -0.491550       -13.3758
  51   2.0000      -0.489797       -13.3281
  52   2.0000      -0.485111       -13.2006
  53   2.0000      -0.474995       -12.9253
  54   2.0000      -0.460342       -12.5265
  55   2.0000      -0.458399       -12.4737
  56   2.0000      -0.449323       -12.2267
  57   2.0000      -0.446667       -12.1544
  58   2.0000      -0.439126       -11.9492
  59   2.0000      -0.433947       -11.8083
  60   2.0000      -0.432017       -11.7558
  61   2.0000      -0.418564       -11.3897
  62   2.0000      -0.414057       -11.2671
  63   2.0000      -0.405410       -11.0318
  64   2.0000      -0.395664       -10.7666
  65   2.0000      -0.390050       -10.6138
  66   2.0000      -0.372920       -10.1477
  67   2.0000      -0.364190        -9.9101
  68   2.0000      -0.352745        -9.5987
  69   2.0000      -0.342324        -9.3151
  70   2.0000      -0.320295        -8.7157
  71   2.0000      -0.314691        -8.5632
  72   2.0000      -0.308290        -8.3890
  73   2.0000      -0.299223        -8.1423
  74   2.0000      -0.297447        -8.0940
  75   2.0000      -0.294516        -8.0142
  76   2.0000      -0.270116        -7.3502
  77   0.0000      -0.041474        -1.1286
  78   0.0000      -0.004982        -0.1356
  79   0.0000       0.007124         0.1939
  80   0.0000       0.044778         1.2185
  81   0.0000       0.070754         1.9253

MULLIKEN ATOMIC CHARGES
-----------------------
   0 Pd:    0.532834
   1 O :   -0.486777
   2 C :    0.673416
   3 O :   -0.505243
   4 C :   -0.772176
   5 H :    0.251980
   6 H :    0.264146
   7 H :    0.259418
   8 N :   -0.481393
   9 C :   -0.528797
  10 H :    0.289618
  11 H :    0.217598
  12 H :    0.273257
  13 C :   -0.531911
  14 H :    0.278713
  15 H :    0.222140
  16 H :    0.278198
  17 C :    0.101842
  18 C :   -0.264706
  19 C :   -0.209318
  20 C :   -0.228170
  21 C :   -0.216101
  22 C :   -0.261903
  23 H :    0.224371
  24 H :    0.225004
  25 H :    0.255811
  26 H :    0.231829
  27 H :    0.219317
  28 C :   -0.354210
  29 H :    0.239020
  30 H :    0.269266
  31 O :   -0.557197
  32 C :    0.569892
  33 O :   -0.451502
  34 C :   -0.742702
  35 H :    0.228321
  36 H :    0.246402
  37 H :    0.239714
Sum of atomic charges:    0.0000000

LOEWDIN ATOMIC CHARGES
----------------------
   0 Pd:   -0.289994
   1 O :   -0.139142
   2 C :    0.191498
   3 O :   -0.183804
   4 C :   -0.376930
   5 H :    0.151780
   6 H :    0.166345
   7 H :    0.157995
   8 N :   -0.051597
   9 C :   -0.233527
  10 H :    0.161273
  11 H :    0.119046
  12 H :    0.152157
  13 C :   -0.232441
  14 H :    0.154824
  15 H :    0.122418
  16 H :    0.155667
  17 C :   -0.051848
  18 C :   -0.107868
  19 C :   -0.127487
  20 C :   -0.129543
  21 C :   -0.128450
  22 C :   -0.121295
  23 H :    0.140238
  24 H :    0.139586
  25 H :    0.156655
  26 H :    0.142209
  27 H :    0.139141
  28 C :   -0.107563
  29 H :    0.131820
  30 H :    0.153870
  31 O :   -0.197477
  32 C :    0.132451
  33 O :   -0.244819
  34 C :   -0.381282
  35 H :    0.140865
  36 H :    0.153177
  37 H :    0.142051

  Mayer bond orders larger than 0.100000
B(  0-Pd,  1-O ) :   0.5788 B(  0-Pd,  3-O ) :   0.4796 B(  0-Pd,  8-N ) :   0.4100
B(  0-Pd, 31-O ) :   0.6553 B(  0-Pd, 33-O ) :   0.1172 B(  1-O ,  2-C ) :   1.4054
B(  1-O ,  3-O ) :   0.1026 B(  2-C ,  3-O ) :   1.5007 B(  2-C ,  4-C ) :   0.9576
B(  4-C ,  5-H ) :   0.9102 B(  4-C ,  6-H ) :   0.9000 B(  4-C ,  7-H ) :   0.9065
B(  8-N ,  9-C ) :   0.9182 B(  8-N , 13-C ) :   0.9229 B(  8-N , 28-C ) :   0.8965
B(  9-C , 10-H ) :   0.8931 B(  9-C , 11-H ) :   0.9024 B(  9-C , 12-H ) :   0.8996
B( 13-C , 14-H ) :   0.8917 B( 13-C , 15-H ) :   0.9035 B( 13-C , 16-H ) :   0.9008
B( 17-C , 18-C ) :   1.4181 B( 17-C , 22-C ) :   1.3811 B( 17-C , 28-C ) :   0.9433
B( 18-C , 19-C ) :   1.4205 B( 18-C , 25-H ) :   0.8996 B( 19-C , 20-C ) :   1.4333
B( 19-C , 26-H ) :   0.9150 B( 20-C , 21-C ) :   1.4043 B( 20-C , 23-H ) :   0.9186
B( 21-C , 22-C ) :   1.4496 B( 21-C , 24-H ) :   0.9179 B( 22-C , 27-H ) :   0.9192
B( 28-C , 29-H ) :   0.8978 B( 28-C , 30-H ) :   0.9075 B( 31-O , 32-C ) :   1.2374
B( 32-C , 33-O ) :   1.8741 B( 32-C , 34-C ) :   0.9370 B( 34-C , 35-H ) :   0.9164
B( 34-C , 36-H ) :   0.9107 B( 34-C , 37-H ) :   0.9199

Dispersion correction           -0.025997398
FINAL SINGLE POINT ENERGY      -988.548431893277
Dispersion correction            ... done

DIPOLE MOMENT
-------------
                                X             Y             Z
Electronic contribution:     30.64085      27.75871     -28.31346
Nuclear contribution   :    -32.22776     -27.88735      29.06697
                        -----------------------------------------
Total Dipole Moment    :     -1.58691      -0.12863       0.75352
                        -----------------------------------------
Magnitude (a.u.)       :      1.76142
Magnitude (Debye)      :      4.47718

Rotational constants in cm-1:     0.013783     0.008244     0.007076
Rotational constants in MHz :   413.213229   247.138380   212.143748

                             ****ORCA TERMINATED NORMALLY****
TOTAL RUN TIME: 0 days 0 hours 13 minutes 49 seconds 96 msec
