                         Program Version 5.0.3 -  RELEASE  -
|  1> ! EnGrad PBEh-3c
|  2> %output
|  3> xyzfile=True
|  4> end
|  5> %scf
|  6> maxiter 250
|  7> end
|  8> %output
|  9> Print[P_Hirshfeld] = 1
| 10> end
| 11> % maxcore
| 12> 4000
| 13> *xyz 0 1
| 14> Pd   0.67685026   0.55428726  -0.56540209
| 15> O    2.28537011   1.54842352   0.12556967
| 16> C    1.64959161   2.63503216   0.23944474
| 17> O    0.40853212   2.59927822   0.02497714
| 18> C    2.40722352   3.88608349   0.54669084
| 19> H    1.79785444   4.64204465   1.03061511
| 20> H    2.78415410   4.30633187  -0.38672275
| 21> H    3.27079275   3.66073698   1.16807607
| 22> N   -1.19710069  -0.25009542  -1.14978614
| 23> C   -1.21527340  -0.96176143  -2.44741996
| 24> H   -0.87229042  -0.29777598  -3.23702193
| 25> H   -2.23526147  -1.30690974  -2.67958481
| 26> H   -0.55876599  -1.82794134  -2.41274390
| 27> C   -2.14484888   0.87181382  -1.24789492
| 28> H   -2.15915597   1.44503505  -0.32300905
| 29> H   -3.15985613   0.50007041  -1.45705598
| 30> H   -1.84053392   1.53686965  -2.05373497
| 31> C   -1.48246290  -0.87548114   1.33134019
| 32> C   -0.52226558  -1.63425947   1.99038693
| 33> C   -0.36670777  -1.61166736   3.36571408
| 34> C   -1.30676870  -0.92757582   4.12015732
| 35> C   -2.23988641  -0.12554440   3.47862534
| 36> C   -2.26946956  -0.04960979   2.10726333
| 37> H   -1.22061167  -0.94190223   5.20245600
| 38> H   -3.01612831   0.33132503   4.07653143
| 39> H    0.13803168  -2.25969115   1.40504785
| 40> H    0.50759042  -2.06314767   3.82740087
| 41> H   -2.86495555   0.70651356   1.66647869
| 42> C   -1.68808218  -1.19881234  -0.12759749
| 43> H   -2.75374745  -1.38214755  -0.32151385
| 44> H   -1.21301912  -2.16073181  -0.32345267
| 45> O    1.67677577  -1.05579476  -1.13592610
| 46> C    2.23649773  -0.83835128  -2.29000358
| 47> O    1.87725086   0.02165518  -3.07632292
| 48> C    3.42152395  -1.72581300  -2.58384183
| 49> H    3.19399471  -2.77327714  -2.39252311
| 50> H    4.25867301  -1.44932347  -1.93827809
| 51> H    3.73419461  -1.60541788  -3.61783399
| 52> *
| 53>
| 54>                          ****END OF INPUT****

CARTESIAN COORDINATES (ANGSTROEM)
---------------------------------
  Pd     0.676850    0.554287   -0.565402
  O      2.285370    1.548424    0.125570
  C      1.649592    2.635032    0.239445
  O      0.408532    2.599278    0.024977
  C      2.407224    3.886083    0.546691
  H      1.797854    4.642045    1.030615
  H      2.784154    4.306332   -0.386723
  H      3.270793    3.660737    1.168076
  N     -1.197101   -0.250095   -1.149786
  C     -1.215273   -0.961761   -2.447420
  H     -0.872290   -0.297776   -3.237022
  H     -2.235261   -1.306910   -2.679585
  H     -0.558766   -1.827941   -2.412744
  C     -2.144849    0.871814   -1.247895
  H     -2.159156    1.445035   -0.323009
  H     -3.159856    0.500070   -1.457056
  H     -1.840534    1.536870   -2.053735
  C     -1.482463   -0.875481    1.331340
  C     -0.522266   -1.634259    1.990387
  C     -0.366708   -1.611667    3.365714
  C     -1.306769   -0.927576    4.120157
  C     -2.239886   -0.125544    3.478625
  C     -2.269470   -0.049610    2.107263
  H     -1.220612   -0.941902    5.202456
  H     -3.016128    0.331325    4.076531
  H      0.138032   -2.259691    1.405048
  H      0.507590   -2.063148    3.827401
  H     -2.864956    0.706514    1.666479
  C     -1.688082   -1.198812   -0.127597
  H     -2.753747   -1.382148   -0.321514
  H     -1.213019   -2.160732   -0.323453
  O      1.676776   -1.055795   -1.135926
  C      2.236498   -0.838351   -2.290004
  O      1.877251    0.021655   -3.076323
  C      3.421524   -1.725813   -2.583842
  H      3.193995   -2.773277   -2.392523
  H      4.258673   -1.449323   -1.938278
  H      3.734195   -1.605418   -3.617834

 Total Charge           Charge          ....    0
 Multiplicity           Mult            ....    1
 Number of Electrons    NEL             ....  154
 Basis Dimension        Dim             ....  339

ORBITAL ENERGIES
----------------

  NO   OCC          E(Eh)            E(eV)
   0   2.0000     -19.500490      -530.6353
   1   2.0000     -19.496388      -530.5237
   2   2.0000     -19.475399      -529.9525
   3   2.0000     -19.432642      -528.7891
   4   2.0000     -14.720945      -400.5773
   5   2.0000     -10.572058      -287.6803
   6   2.0000     -10.531704      -286.5822
   7   2.0000     -10.498068      -285.6670
   8   2.0000     -10.484683      -285.3027
   9   2.0000     -10.478078      -285.1230
  10   2.0000     -10.469294      -284.8840
  11   2.0000     -10.456154      -284.5264
  12   2.0000     -10.455710      -284.5143
  13   2.0000     -10.454846      -284.4908
  14   2.0000     -10.453729      -284.4604
  15   2.0000     -10.453086      -284.4429
  16   2.0000     -10.442271      -284.1486
  17   2.0000     -10.414295      -283.3874
  18   2.0000      -3.657681       -99.5306
  19   2.0000      -2.306223       -62.7555
  20   2.0000      -2.302684       -62.6592
  21   2.0000      -2.265972       -61.6602
  22   2.0000      -1.205457       -32.8022
  23   2.0000      -1.150476       -31.3061
  24   2.0000      -1.086178       -29.5564
  25   2.0000      -1.078338       -29.3431
  26   2.0000      -1.052133       -28.6300
  27   2.0000      -0.974010       -26.5042
  28   2.0000      -0.879506       -23.9326
  29   2.0000      -0.850121       -23.1330
  30   2.0000      -0.834939       -22.7198
  31   2.0000      -0.820632       -22.3305
  32   2.0000      -0.799467       -21.7546
  33   2.0000      -0.797667       -21.7056
  34   2.0000      -0.718485       -19.5510
  35   2.0000      -0.695198       -18.9173
  36   2.0000      -0.673715       -18.3327
  37   2.0000      -0.616974       -16.7887
  38   2.0000      -0.602929       -16.4065
  39   2.0000      -0.588734       -16.0203
  40   2.0000      -0.575749       -15.6669
  41   2.0000      -0.569487       -15.4965
  42   2.0000      -0.558178       -15.1888
  43   2.0000      -0.548716       -14.9313
  44   2.0000      -0.547842       -14.9075
  45   2.0000      -0.529919       -14.4198
  46   2.0000      -0.528023       -14.3682
  47   2.0000      -0.522141       -14.2082
  48   2.0000      -0.509839       -13.8734
  49   2.0000      -0.497203       -13.5296
  50   2.0000      -0.492031       -13.3888
  51   2.0000      -0.490003       -13.3337
  52   2.0000      -0.486397       -13.2355
  53   2.0000      -0.475492       -12.9388
  54   2.0000      -0.460390       -12.5279
  55   2.0000      -0.458537       -12.4774
  56   2.0000      -0.449410       -12.2291
  57   2.0000      -0.446812       -12.1584
  58   2.0000      -0.438976       -11.9451
  59   2.0000      -0.435569       -11.8524
  60   2.0000      -0.431832       -11.7508
  61   2.0000      -0.418725       -11.3941
  62   2.0000      -0.414589       -11.2815
  63   2.0000      -0.405921       -11.0457
  64   2.0000      -0.395306       -10.7568
  65   2.0000      -0.389893       -10.6095
  66   2.0000      -0.371990       -10.1224
  67   2.0000      -0.364168        -9.9095
  68   2.0000      -0.352570        -9.5939
  69   2.0000      -0.341552        -9.2941
  70   2.0000      -0.320523        -8.7219
  71   2.0000      -0.315042        -8.5727
  72   2.0000      -0.308570        -8.3966
  73   2.0000      -0.301733        -8.2106
  74   2.0000      -0.297709        -8.1011
  75   2.0000      -0.295537        -8.0420
  76   2.0000      -0.270059        -7.3487
  77   0.0000      -0.041345        -1.1250
  78   0.0000      -0.002210        -0.0601
  79   0.0000       0.009161         0.2493
  80   0.0000       0.045606         1.2410
  81   0.0000       0.070941         1.9304

MULLIKEN ATOMIC CHARGES
-----------------------
   0 Pd:    0.533250
   1 O :   -0.485786
   2 C :    0.672019
   3 O :   -0.506362
   4 C :   -0.772023
   5 H :    0.252181
   6 H :    0.264310
   7 H :    0.259612
   8 N :   -0.484345
   9 C :   -0.527369
  10 H :    0.289796
  11 H :    0.217784
  12 H :    0.273485
  13 C :   -0.531582
  14 H :    0.279982
  15 H :    0.222011
  16 H :    0.278161
  17 C :    0.125764
  18 C :   -0.269944
  19 C :   -0.203956
  20 C :   -0.236877
  21 C :   -0.202877
  22 C :   -0.276816
  23 H :    0.224526
  24 H :    0.222844
  25 H :    0.250205
  26 H :    0.231513
  27 H :    0.215064
  28 C :   -0.358436
  29 H :    0.240018
  30 H :    0.270689
  31 O :   -0.555672
  32 C :    0.570098
  33 O :   -0.454225
  34 C :   -0.742454
  35 H :    0.228565
  36 H :    0.246951
  37 H :    0.239897
Sum of atomic charges:    0.0000000

LOEWDIN ATOMIC CHARGES
----------------------
   0 Pd:   -0.290389
   1 O :   -0.139469
   2 C :    0.190071
   3 O :   -0.185542
   4 C :   -0.376705
   5 H :    0.151568
   6 H :    0.166394
   7 H :    0.158169
   8 N :   -0.049308
   9 C :   -0.232396
  10 H :    0.161742
  11 H :    0.119618
  12 H :    0.152561
  13 C :   -0.232219
  14 H :    0.155805
  15 H :    0.122909
  16 H :    0.155794
  17 C :   -0.055748
  18 C :   -0.102769
  19 C :   -0.128689
  20 C :   -0.126190
  21 C :   -0.131184
  22 C :   -0.119870
  23 H :    0.138184
  24 H :    0.140036
  25 H :    0.154011
  26 H :    0.142748
  27 H :    0.137387
  28 C :   -0.108066
  29 H :    0.132466
  30 H :    0.154361
  31 O :   -0.196527
  32 C :    0.133038
  33 O :   -0.247820
  34 C :   -0.380867
  35 H :    0.141130
  36 H :    0.153646
  37 H :    0.142122

  Mayer bond orders larger than 0.100000
B(  0-Pd,  1-O ) :   0.5763 B(  0-Pd,  3-O ) :   0.4798 B(  0-Pd,  8-N ) :   0.4134
B(  0-Pd, 31-O ) :   0.6545 B(  0-Pd, 33-O ) :   0.1175 B(  1-O ,  2-C ) :   1.4091
B(  1-O ,  3-O ) :   0.1025 B(  2-C ,  3-O ) :   1.4994 B(  2-C ,  4-C ) :   0.9589
B(  4-C ,  5-H ) :   0.9099 B(  4-C ,  6-H ) :   0.9001 B(  4-C ,  7-H ) :   0.9067
B(  8-N ,  9-C ) :   0.9167 B(  8-N , 13-C ) :   0.9220 B(  8-N , 28-C ) :   0.8976
B(  9-C , 10-H ) :   0.8928 B(  9-C , 11-H ) :   0.9025 B(  9-C , 12-H ) :   0.8991
B( 13-C , 14-H ) :   0.8912 B( 13-C , 15-H ) :   0.9037 B( 13-C , 16-H ) :   0.9007
B( 17-C , 18-C ) :   1.4082 B( 17-C , 22-C ) :   1.3911 B( 17-C , 28-C ) :   0.9426
B( 18-C , 19-C ) :   1.4328 B( 18-C , 25-H ) :   0.9022 B( 19-C , 20-C ) :   1.4255
B( 19-C , 26-H ) :   0.9150 B( 20-C , 21-C ) :   1.4177 B( 20-C , 23-H ) :   0.9177
B( 21-C , 22-C ) :   1.4395 B( 21-C , 24-H ) :   0.9188 B( 22-C , 27-H ) :   0.9210
B( 28-C , 29-H ) :   0.8989 B( 28-C , 30-H ) :   0.9072 B( 31-O , 32-C ) :   1.2398
B( 32-C , 33-O ) :   1.8708 B( 32-C , 34-C ) :   0.9375 B( 34-C , 35-H ) :   0.9164
B( 34-C , 36-H ) :   0.9106 B( 34-C , 37-H ) :   0.9197

Dispersion correction           -0.026060326
FINAL SINGLE POINT ENERGY      -988.551349542706
Dispersion correction            ... done

DIPOLE MOMENT
-------------
                                X             Y             Z
Electronic contribution:     30.39850      27.53483     -28.44375
Nuclear contribution   :    -32.01081     -27.71906      29.20802
                        -----------------------------------------
Total Dipole Moment    :     -1.61230      -0.18423       0.76426
                        -----------------------------------------
Magnitude (a.u.)       :      1.79376
Magnitude (Debye)      :      4.55937

Rotational constants in cm-1:     0.013816     0.008279     0.007104
Rotational constants in MHz :   414.181843   248.184152   212.958739

                             ****ORCA TERMINATED NORMALLY****
TOTAL RUN TIME: 0 days 0 hours 13 minutes 19 seconds 570 msec
