                         Program Version 5.0.3 -  RELEASE  -
|  1> ! EnGrad PBEh-3c
|  2> %output
|  3> xyzfile=True
|  4> end
|  5> %scf
|  6> maxiter 250
|  7> end
|  8> %output
|  9> Print[P_Hirshfeld] = 1
| 10> end
| 11> % maxcore
| 12> 4000
| 13> *xyz 0 1
| 14> Pd   0.67152368   0.54977608  -0.56711695
| 15> O    2.28484706   1.54294841   0.11898830
| 16> C    1.64569784   2.62763562   0.23966958
| 17> O    0.40303664   2.59390048   0.03315021
| 18> C    2.40799316   3.87809731   0.54716124
| 19> H    1.79810341   4.63350439   1.02962559
| 20> H    2.78590800   4.29595813  -0.38649184
| 21> H    3.26957402   3.64965179   1.16999509
| 22> N   -1.19980051  -0.25153969  -1.15047554
| 23> C   -1.21340417  -0.97425195  -2.44225026
| 24> H   -0.86698712  -0.31596897  -3.23440214
| 25> H   -2.23213451  -1.32126744  -2.67394997
| 26> H   -0.55625975  -1.83974929  -2.39605291
| 27> C   -2.14723782   0.86894357  -1.25823287
| 28> H   -2.16485945   1.44663123  -0.33666555
| 29> H   -3.15996873   0.49419374  -1.46870623
| 30> H   -1.83965445   1.52932554  -2.06573719
| 31> C   -1.47221714  -0.87665844   1.32978692
| 32> C   -0.52415134  -1.63544007   1.99408192
| 33> C   -0.37281038  -1.62101293   3.36934275
| 34> C   -1.30080562  -0.91619737   4.12063218
| 35> C   -2.21738613  -0.10409150   3.48455478
| 36> C   -2.25684132  -0.03204712   2.10644603
| 37> H   -1.23499599  -0.95579324   5.19770591
| 38> H   -2.98417584   0.37500339   4.07774143
| 39> H    0.11975670  -2.27671761   1.41821471
| 40> H    0.48748976  -2.08584809   3.83404402
| 41> H   -2.87618523   0.71258178   1.65547515
| 42> C   -1.69071254  -1.19492839  -0.12209682
| 43> H   -2.75587157  -1.37055530  -0.30341728
| 44> H   -1.22311510  -2.15883862  -0.31661768
| 45> O    1.67473536  -1.05820184  -1.14094104
| 46> C    2.23405626  -0.83190814  -2.29563280
| 47> O    1.86995921   0.02595349  -3.07983874
| 48> C    3.42783421  -1.71202600  -2.58878721
| 49> H    3.20713420  -2.76151927  -2.40118049
| 50> H    4.26075203  -1.42865020  -1.94181118
| 51> H    3.73967607  -1.58460846  -3.62129667
| 52> *
| 53>
| 54>                          ****END OF INPUT****

CARTESIAN COORDINATES (ANGSTROEM)
---------------------------------
  Pd     0.671524    0.549776   -0.567117
  O      2.284847    1.542948    0.118988
  C      1.645698    2.627636    0.239670
  O      0.403037    2.593900    0.033150
  C      2.407993    3.878097    0.547161
  H      1.798103    4.633504    1.029626
  H      2.785908    4.295958   -0.386492
  H      3.269574    3.649652    1.169995
  N     -1.199801   -0.251540   -1.150476
  C     -1.213404   -0.974252   -2.442250
  H     -0.866987   -0.315969   -3.234402
  H     -2.232135   -1.321267   -2.673950
  H     -0.556260   -1.839749   -2.396053
  C     -2.147238    0.868944   -1.258233
  H     -2.164859    1.446631   -0.336666
  H     -3.159969    0.494194   -1.468706
  H     -1.839654    1.529326   -2.065737
  C     -1.472217   -0.876658    1.329787
  C     -0.524151   -1.635440    1.994082
  C     -0.372810   -1.621013    3.369343
  C     -1.300806   -0.916197    4.120632
  C     -2.217386   -0.104092    3.484555
  C     -2.256841   -0.032047    2.106446
  H     -1.234996   -0.955793    5.197706
  H     -2.984176    0.375003    4.077741
  H      0.119757   -2.276718    1.418215
  H      0.487490   -2.085848    3.834044
  H     -2.876185    0.712582    1.655475
  C     -1.690713   -1.194928   -0.122097
  H     -2.755872   -1.370555   -0.303417
  H     -1.223115   -2.158839   -0.316618
  O      1.674735   -1.058202   -1.140941
  C      2.234056   -0.831908   -2.295633
  O      1.869959    0.025953   -3.079839
  C      3.427834   -1.712026   -2.588787
  H      3.207134   -2.761519   -2.401180
  H      4.260752   -1.428650   -1.941811
  H      3.739676   -1.584608   -3.621297

 Total Charge           Charge          ....    0
 Multiplicity           Mult            ....    1
 Number of Electrons    NEL             ....  154
 Basis Dimension        Dim             ....  339

ORBITAL ENERGIES
----------------

  NO   OCC          E(Eh)            E(eV)
   0   2.0000     -19.500209      -530.6277
   1   2.0000     -19.496402      -530.5241
   2   2.0000     -19.475269      -529.9490
   3   2.0000     -19.433310      -528.8072
   4   2.0000     -14.721098      -400.5814
   5   2.0000     -10.571908      -287.6762
   6   2.0000     -10.531952      -286.5890
   7   2.0000     -10.497203      -285.6434
   8   2.0000     -10.484608      -285.3007
   9   2.0000     -10.477978      -285.1203
  10   2.0000     -10.469306      -284.8843
  11   2.0000     -10.458613      -284.5933
  12   2.0000     -10.455065      -284.4968
  13   2.0000     -10.454321      -284.4765
  14   2.0000     -10.453264      -284.4478
  15   2.0000     -10.452214      -284.4192
  16   2.0000     -10.441751      -284.1345
  17   2.0000     -10.414135      -283.3830
  18   2.0000      -3.657527       -99.5264
  19   2.0000      -2.306087       -62.7518
  20   2.0000      -2.302508       -62.6544
  21   2.0000      -2.265844       -61.6568
  22   2.0000      -1.204609       -32.7791
  23   2.0000      -1.150426       -31.3047
  24   2.0000      -1.086105       -29.5544
  25   2.0000      -1.078522       -29.3481
  26   2.0000      -1.052466       -28.6391
  27   2.0000      -0.973723       -26.4963
  28   2.0000      -0.881023       -23.9738
  29   2.0000      -0.849171       -23.1071
  30   2.0000      -0.834116       -22.6974
  31   2.0000      -0.821062       -22.3422
  32   2.0000      -0.799806       -21.7638
  33   2.0000      -0.797302       -21.6957
  34   2.0000      -0.719060       -19.5666
  35   2.0000      -0.695575       -18.9275
  36   2.0000      -0.673598       -18.3295
  37   2.0000      -0.616457       -16.7746
  38   2.0000      -0.603146       -16.4124
  39   2.0000      -0.588351       -16.0098
  40   2.0000      -0.576087       -15.6761
  41   2.0000      -0.569766       -15.5041
  42   2.0000      -0.558816       -15.2062
  43   2.0000      -0.548248       -14.9186
  44   2.0000      -0.547307       -14.8930
  45   2.0000      -0.529446       -14.4070
  46   2.0000      -0.527719       -14.3600
  47   2.0000      -0.522764       -14.2251
  48   2.0000      -0.509605       -13.8670
  49   2.0000      -0.497189       -13.5292
  50   2.0000      -0.491680       -13.3793
  51   2.0000      -0.489803       -13.3282
  52   2.0000      -0.487652       -13.2697
  53   2.0000      -0.475753       -12.9459
  54   2.0000      -0.460326       -12.5261
  55   2.0000      -0.458876       -12.4867
  56   2.0000      -0.449257       -12.2249
  57   2.0000      -0.446848       -12.1594
  58   2.0000      -0.439116       -11.9490
  59   2.0000      -0.435617       -11.8537
  60   2.0000      -0.431959       -11.7542
  61   2.0000      -0.418588       -11.3903
  62   2.0000      -0.414243       -11.2721
  63   2.0000      -0.404929       -11.0187
  64   2.0000      -0.397199       -10.8083
  65   2.0000      -0.389901       -10.6097
  66   2.0000      -0.371643       -10.1129
  67   2.0000      -0.364474        -9.9179
  68   2.0000      -0.352511        -9.5923
  69   2.0000      -0.341217        -9.2850
  70   2.0000      -0.320645        -8.7252
  71   2.0000      -0.315327        -8.5805
  72   2.0000      -0.308894        -8.4054
  73   2.0000      -0.300898        -8.1879
  74   2.0000      -0.297737        -8.1018
  75   2.0000      -0.296205        -8.0601
  76   2.0000      -0.270270        -7.3544
  77   0.0000      -0.041188        -1.1208
  78   0.0000      -0.002815        -0.0766
  79   0.0000       0.010143         0.2760
  80   0.0000       0.045986         1.2513
  81   0.0000       0.071260         1.9391

MULLIKEN ATOMIC CHARGES
-----------------------
   0 Pd:    0.532031
   1 O :   -0.485770
   2 C :    0.671293
   3 O :   -0.506068
   4 C :   -0.770951
   5 H :    0.251683
   6 H :    0.263950
   7 H :    0.259401
   8 N :   -0.485824
   9 C :   -0.527721
  10 H :    0.290040
  11 H :    0.218125
  12 H :    0.273781
  13 C :   -0.531443
  14 H :    0.280129
  15 H :    0.222066
  16 H :    0.278366
  17 C :    0.127530
  18 C :   -0.268698
  19 C :   -0.204146
  20 C :   -0.236258
  21 C :   -0.198579
  22 C :   -0.281337
  23 H :    0.225019
  24 H :    0.222259
  25 H :    0.246990
  26 H :    0.231784
  27 H :    0.214150
  28 C :   -0.357885
  29 H :    0.241308
  30 H :    0.270092
  31 O :   -0.556100
  32 C :    0.569845
  33 O :   -0.452370
  34 C :   -0.742096
  35 H :    0.228634
  36 H :    0.247114
  37 H :    0.239658
Sum of atomic charges:   -0.0000000

LOEWDIN ATOMIC CHARGES
----------------------
   0 Pd:   -0.291764
   1 O :   -0.140352
   2 C :    0.190617
   3 O :   -0.185819
   4 C :   -0.376773
   5 H :    0.151175
   6 H :    0.166113
   7 H :    0.158100
   8 N :   -0.048813
   9 C :   -0.232291
  10 H :    0.161814
  11 H :    0.119720
  12 H :    0.152826
  13 C :   -0.232249
  14 H :    0.155947
  15 H :    0.122936
  16 H :    0.155879
  17 C :   -0.056503
  18 C :   -0.102787
  19 C :   -0.128031
  20 C :   -0.126163
  21 C :   -0.131889
  22 C :   -0.117266
  23 H :    0.137917
  24 H :    0.139784
  25 H :    0.152964
  26 H :    0.142866
  27 H :    0.137037
  28 C :   -0.108455
  29 H :    0.133222
  30 H :    0.154415
  31 O :   -0.197822
  32 C :    0.133864
  33 O :   -0.245789
  34 C :   -0.381167
  35 H :    0.141165
  36 H :    0.153652
  37 H :    0.141920

  Mayer bond orders larger than 0.100000
B(  0-Pd,  1-O ) :   0.5760 B(  0-Pd,  3-O ) :   0.4785 B(  0-Pd,  8-N ) :   0.4148
B(  0-Pd, 31-O ) :   0.6559 B(  0-Pd, 33-O ) :   0.1173 B(  1-O ,  2-C ) :   1.4084
B(  1-O ,  3-O ) :   0.1027 B(  2-C ,  3-O ) :   1.5006 B(  2-C ,  4-C ) :   0.9586
B(  4-C ,  5-H ) :   0.9101 B(  4-C ,  6-H ) :   0.9004 B(  4-C ,  7-H ) :   0.9069
B(  8-N ,  9-C ) :   0.9163 B(  8-N , 13-C ) :   0.9220 B(  8-N , 28-C ) :   0.8976
B(  9-C , 10-H ) :   0.8924 B(  9-C , 11-H ) :   0.9025 B(  9-C , 12-H ) :   0.8988
B( 13-C , 14-H ) :   0.8912 B( 13-C , 15-H ) :   0.9038 B( 13-C , 16-H ) :   0.9006
B( 17-C , 18-C ) :   1.4119 B( 17-C , 22-C ) :   1.3873 B( 17-C , 28-C ) :   0.9438
B( 18-C , 19-C ) :   1.4326 B( 18-C , 25-H ) :   0.9039 B( 19-C , 20-C ) :   1.4245
B( 19-C , 26-H ) :   0.9149 B( 20-C , 21-C ) :   1.4212 B( 20-C , 23-H ) :   0.9173
B( 21-C , 22-C ) :   1.4383 B( 21-C , 24-H ) :   0.9189 B( 22-C , 27-H ) :   0.9215
B( 28-C , 29-H ) :   0.8986 B( 28-C , 30-H ) :   0.9076 B( 31-O , 32-C ) :   1.2373
B( 32-C , 33-O ) :   1.8728 B( 32-C , 34-C ) :   0.9369 B( 34-C , 35-H ) :   0.9166
B( 34-C , 36-H ) :   0.9107 B( 34-C , 37-H ) :   0.9196

Dispersion correction           -0.026072910
FINAL SINGLE POINT ENERGY      -988.553148882532
Dispersion correction            ... done

DIPOLE MOMENT
-------------
                                X             Y             Z
Electronic contribution:     30.09378      27.27147     -28.52416
Nuclear contribution   :    -31.72360     -27.47948      29.28744
                        -----------------------------------------
Total Dipole Moment    :     -1.62982      -0.20801       0.76328
                        -----------------------------------------
Magnitude (a.u.)       :      1.81167
Magnitude (Debye)      :      4.60491

Rotational constants in cm-1:     0.013840     0.008287     0.007113
Rotational constants in MHz :   414.901092   248.435300   213.229048

                             ****ORCA TERMINATED NORMALLY****
TOTAL RUN TIME: 0 days 0 hours 13 minutes 29 seconds 172 msec
