                         Program Version 5.0.3 -  RELEASE  -
|  1> ! EnGrad PBEh-3c
|  2> %output
|  3> xyzfile=True
|  4> end
|  5> %scf
|  6> maxiter 250
|  7> end
|  8> %output
|  9> Print[P_Hirshfeld] = 1
| 10> end
| 11> % maxcore
| 12> 4000
| 13> *xyz 0 1
| 14> Pd   0.67297666   0.55277335  -0.56911946
| 15> O    2.29041942   1.54344455   0.11871351
| 16> C    1.64476156   2.62690039   0.23823942
| 17> O    0.40208156   2.59373796   0.03145858
| 18> C    2.40705875   3.88201990   0.54710813
| 19> H    1.79431439   4.63664915   1.03016764
| 20> H    2.78445319   4.30029811  -0.38751280
| 21> H    3.26997088   3.65416462   1.16969434
| 22> N   -1.20295293  -0.24858627  -1.15017302
| 23> C   -1.21224334  -0.96645723  -2.44329587
| 24> H   -0.86839376  -0.30873436  -3.23468229
| 25> H   -2.22858753  -1.31176460  -2.67372643
| 26> H   -0.55659148  -1.83159061  -2.40227919
| 27> C   -2.14532464   0.87283986  -1.25402979
| 28> H   -2.16321955   1.44487772  -0.33154888
| 29> H   -3.15475981   0.49880882  -1.46312498
| 30> H   -1.84023501   1.53362821  -2.06024302
| 31> C   -1.46535365  -0.89397961   1.32792948
| 32> C   -0.51044481  -1.64112876   1.99154132
| 33> C   -0.36813959  -1.60811239   3.36654426
| 34> C   -1.28632615  -0.91043036   4.12500264
| 35> C   -2.22990618  -0.13201312   3.49687919
| 36> C   -2.26015059  -0.03917527   2.10558099
| 37> H   -1.23745817  -0.94881281   5.19768846
| 38> H   -2.99093351   0.37335114   4.07570424
| 39> H    0.13025886  -2.27048741   1.41083081
| 40> H    0.48168777  -2.08528767   3.83079088
| 41> H   -2.89615615   0.71254266   1.64733133
| 42> C   -1.69309558  -1.20027780  -0.12485176
| 43> H   -2.75664373  -1.37128695  -0.30849155
| 44> H   -1.21338077  -2.15565953  -0.31783354
| 45> O    1.67190575  -1.05833000  -1.13818525
| 46> C    2.23380795  -0.83102556  -2.29470834
| 47> O    1.87376917   0.02365855  -3.07890166
| 48> C    3.42526166  -1.71965261  -2.58683348
| 49> H    3.20248455  -2.76738658  -2.39667848
| 50> H    4.25691500  -1.43864131  -1.93966275
| 51> H    3.73640139  -1.59400585  -3.61971424
| 52> *
| 53>
| 54>                          ****END OF INPUT****

CARTESIAN COORDINATES (ANGSTROEM)
---------------------------------
  Pd     0.672977    0.552773   -0.569119
  O      2.290419    1.543445    0.118714
  C      1.644762    2.626900    0.238239
  O      0.402082    2.593738    0.031459
  C      2.407059    3.882020    0.547108
  H      1.794314    4.636649    1.030168
  H      2.784453    4.300298   -0.387513
  H      3.269971    3.654165    1.169694
  N     -1.202953   -0.248586   -1.150173
  C     -1.212243   -0.966457   -2.443296
  H     -0.868394   -0.308734   -3.234682
  H     -2.228588   -1.311765   -2.673726
  H     -0.556591   -1.831591   -2.402279
  C     -2.145325    0.872840   -1.254030
  H     -2.163220    1.444878   -0.331549
  H     -3.154760    0.498809   -1.463125
  H     -1.840235    1.533628   -2.060243
  C     -1.465354   -0.893980    1.327929
  C     -0.510445   -1.641129    1.991541
  C     -0.368140   -1.608112    3.366544
  C     -1.286326   -0.910430    4.125003
  C     -2.229906   -0.132013    3.496879
  C     -2.260151   -0.039175    2.105581
  H     -1.237458   -0.948813    5.197688
  H     -2.990934    0.373351    4.075704
  H      0.130259   -2.270487    1.410831
  H      0.481688   -2.085288    3.830791
  H     -2.896156    0.712543    1.647331
  C     -1.693096   -1.200278   -0.124852
  H     -2.756644   -1.371287   -0.308492
  H     -1.213381   -2.155660   -0.317834
  O      1.671906   -1.058330   -1.138185
  C      2.233808   -0.831026   -2.294708
  O      1.873769    0.023659   -3.078902
  C      3.425262   -1.719653   -2.586833
  H      3.202485   -2.767387   -2.396678
  H      4.256915   -1.438641   -1.939663
  H      3.736401   -1.594006   -3.619714

 Total Charge           Charge          ....    0
 Multiplicity           Mult            ....    1
 Number of Electrons    NEL             ....  154
 Basis Dimension        Dim             ....  339

ORBITAL ENERGIES
----------------

  NO   OCC          E(Eh)            E(eV)
   0   2.0000     -19.500404      -530.6330
   1   2.0000     -19.497194      -530.5456
   2   2.0000     -19.475263      -529.9488
   3   2.0000     -19.434452      -528.8383
   4   2.0000     -14.720716      -400.5710
   5   2.0000     -10.572544      -287.6935
   6   2.0000     -10.532387      -286.6008
   7   2.0000     -10.496880      -285.6346
   8   2.0000     -10.483681      -285.2755
   9   2.0000     -10.477210      -285.0994
  10   2.0000     -10.470188      -284.9083
  11   2.0000     -10.462365      -284.6954
  12   2.0000     -10.456077      -284.5243
  13   2.0000     -10.453421      -284.4520
  14   2.0000     -10.452508      -284.4272
  15   2.0000     -10.451721      -284.4058
  16   2.0000     -10.442066      -284.1431
  17   2.0000     -10.414032      -283.3802
  18   2.0000      -3.657372       -99.5221
  19   2.0000      -2.305874       -62.7460
  20   2.0000      -2.302402       -62.6516
  21   2.0000      -2.265721       -61.6534
  22   2.0000      -1.203849       -32.7584
  23   2.0000      -1.151077       -31.3224
  24   2.0000      -1.086447       -29.5637
  25   2.0000      -1.078436       -29.3457
  26   2.0000      -1.053485       -28.6668
  27   2.0000      -0.972446       -26.4616
  28   2.0000      -0.881867       -23.9968
  29   2.0000      -0.847019       -23.0486
  30   2.0000      -0.832810       -22.6619
  31   2.0000      -0.821886       -22.3647
  32   2.0000      -0.800035       -21.7701
  33   2.0000      -0.797034       -21.6884
  34   2.0000      -0.719065       -19.5667
  35   2.0000      -0.695652       -18.9296
  36   2.0000      -0.672517       -18.3001
  37   2.0000      -0.616147       -16.7662
  38   2.0000      -0.602798       -16.4030
  39   2.0000      -0.588226       -16.0064
  40   2.0000      -0.576478       -15.6868
  41   2.0000      -0.569986       -15.5101
  42   2.0000      -0.559269       -15.2185
  43   2.0000      -0.548050       -14.9132
  44   2.0000      -0.547017       -14.8851
  45   2.0000      -0.528843       -14.3906
  46   2.0000      -0.527194       -14.3457
  47   2.0000      -0.522449       -14.2166
  48   2.0000      -0.509985       -13.8774
  49   2.0000      -0.497360       -13.5338
  50   2.0000      -0.491478       -13.3738
  51   2.0000      -0.489445       -13.3185
  52   2.0000      -0.488055       -13.2806
  53   2.0000      -0.475899       -12.9499
  54   2.0000      -0.460488       -12.5305
  55   2.0000      -0.459256       -12.4970
  56   2.0000      -0.449143       -12.2218
  57   2.0000      -0.446816       -12.1585
  58   2.0000      -0.440182       -11.9780
  59   2.0000      -0.435548       -11.8519
  60   2.0000      -0.432469       -11.7681
  61   2.0000      -0.418534       -11.3889
  62   2.0000      -0.413658       -11.2562
  63   2.0000      -0.405196       -11.0259
  64   2.0000      -0.398142       -10.8340
  65   2.0000      -0.390216       -10.6183
  66   2.0000      -0.371805       -10.1173
  67   2.0000      -0.364981        -9.9316
  68   2.0000      -0.352400        -9.5893
  69   2.0000      -0.341320        -9.2878
  70   2.0000      -0.320683        -8.7262
  71   2.0000      -0.315518        -8.5857
  72   2.0000      -0.309243        -8.4149
  73   2.0000      -0.299584        -8.1521
  74   2.0000      -0.297809        -8.1038
  75   2.0000      -0.296718        -8.0741
  76   2.0000      -0.270783        -7.3684
  77   0.0000      -0.040971        -1.1149
  78   0.0000      -0.003277        -0.0892
  79   0.0000       0.010008         0.2723
  80   0.0000       0.045748         1.2449
  81   0.0000       0.071378         1.9423

MULLIKEN ATOMIC CHARGES
-----------------------
   0 Pd:    0.529699
   1 O :   -0.486164
   2 C :    0.671438
   3 O :   -0.505454
   4 C :   -0.769859
   5 H :    0.251036
   6 H :    0.263378
   7 H :    0.259151
   8 N :   -0.485833
   9 C :   -0.528432
  10 H :    0.289916
  11 H :    0.218285
  12 H :    0.274179
  13 C :   -0.531291
  14 H :    0.280299
  15 H :    0.221909
  16 H :    0.278410
  17 C :    0.118002
  18 C :   -0.261100
  19 C :   -0.208238
  20 C :   -0.226513
  21 C :   -0.203757
  22 C :   -0.281669
  23 H :    0.225582
  24 H :    0.224015
  25 H :    0.248387
  26 H :    0.229326
  27 H :    0.213319
  28 C :   -0.355479
  29 H :    0.242152
  30 H :    0.269271
  31 O :   -0.557932
  32 C :    0.569077
  33 O :   -0.448202
  34 C :   -0.742425
  35 H :    0.229026
  36 H :    0.247266
  37 H :    0.239224
Sum of atomic charges:    0.0000000

LOEWDIN ATOMIC CHARGES
----------------------
   0 Pd:   -0.292982
   1 O :   -0.142123
   2 C :    0.192604
   3 O :   -0.184815
   4 C :   -0.377025
   5 H :    0.150877
   6 H :    0.165718
   7 H :    0.157863
   8 N :   -0.049164
   9 C :   -0.232501
  10 H :    0.161423
  11 H :    0.119500
  12 H :    0.152843
  13 C :   -0.232512
  14 H :    0.155854
  15 H :    0.122504
  16 H :    0.155917
  17 C :   -0.055859
  18 C :   -0.104452
  19 C :   -0.125893
  20 C :   -0.127923
  21 C :   -0.130843
  22 C :   -0.117028
  23 H :    0.138680
  24 H :    0.139099
  25 H :    0.153756
  26 H :    0.141993
  27 H :    0.137057
  28 C :   -0.108428
  29 H :    0.133726
  30 H :    0.154572
  31 O :   -0.200021
  32 C :    0.134235
  33 O :   -0.241228
  34 C :   -0.381812
  35 H :    0.141118
  36 H :    0.153510
  37 H :    0.141760

  Mayer bond orders larger than 0.100000
B(  0-Pd,  1-O ) :   0.5756 B(  0-Pd,  3-O ) :   0.4783 B(  0-Pd,  8-N ) :   0.4150
B(  0-Pd, 31-O ) :   0.6583 B(  0-Pd, 33-O ) :   0.1164 B(  1-O ,  2-C ) :   1.4075
B(  1-O ,  3-O ) :   0.1031 B(  2-C ,  3-O ) :   1.5004 B(  2-C ,  4-C ) :   0.9574
B(  4-C ,  5-H ) :   0.9103 B(  4-C ,  6-H ) :   0.9007 B(  4-C ,  7-H ) :   0.9070
B(  8-N ,  9-C ) :   0.9169 B(  8-N , 13-C ) :   0.9227 B(  8-N , 28-C ) :   0.8976
B(  9-C , 10-H ) :   0.8926 B(  9-C , 11-H ) :   0.9026 B(  9-C , 12-H ) :   0.8988
B( 13-C , 14-H ) :   0.8912 B( 13-C , 15-H ) :   0.9038 B( 13-C , 16-H ) :   0.9007
B( 17-C , 18-C ) :   1.4178 B( 17-C , 22-C ) :   1.3835 B( 17-C , 28-C ) :   0.9459
B( 18-C , 19-C ) :   1.4307 B( 18-C , 25-H ) :   0.9032 B( 19-C , 20-C ) :   1.4254
B( 19-C , 26-H ) :   0.9161 B( 20-C , 21-C ) :   1.4230 B( 20-C , 23-H ) :   0.9172
B( 21-C , 22-C ) :   1.4384 B( 21-C , 24-H ) :   0.9179 B( 22-C , 27-H ) :   0.9222
B( 28-C , 29-H ) :   0.8982 B( 28-C , 30-H ) :   0.9079 B( 31-O , 32-C ) :   1.2323
B( 32-C , 33-O ) :   1.8784 B( 32-C , 34-C ) :   0.9364 B( 34-C , 35-H ) :   0.9166
B( 34-C , 36-H ) :   0.9106 B( 34-C , 37-H ) :   0.9198

Dispersion correction           -0.026065636
FINAL SINGLE POINT ENERGY      -988.554592770766
Dispersion correction            ... done

DIPOLE MOMENT
-------------
                                X             Y             Z
Electronic contribution:     30.14616      27.45690     -28.64966
Nuclear contribution   :    -31.78667     -27.65801      29.40245
                        -----------------------------------------
Total Dipole Moment    :     -1.64051      -0.20111       0.75280
                        -----------------------------------------
Magnitude (a.u.)       :      1.81616
Magnitude (Debye)      :      4.61631

Rotational constants in cm-1:     0.013824     0.008280     0.007110
Rotational constants in MHz :   414.444908   248.239590   213.143220

                             ****ORCA TERMINATED NORMALLY****
TOTAL RUN TIME: 0 days 0 hours 13 minutes 14 seconds 516 msec
