                         Program Version 5.0.3 -  RELEASE  -
|  1> ! EnGrad PBEh-3c
|  2> %output
|  3> xyzfile=True
|  4> end
|  5> %scf
|  6> maxiter 250
|  7> end
|  8> %output
|  9> Print[P_Hirshfeld] = 1
| 10> end
| 11> % maxcore
| 12> 4000
| 13> *xyz 0 1
| 14> Pd   0.67329721   0.55276968  -0.57026303
| 15> O    2.29040515   1.54106606   0.11272223
| 16> C    1.64317435   2.62364488   0.23737487
| 17> O    0.39930613   2.59001990   0.03574995
| 18> C    2.40548495   3.87844263   0.54664058
| 19> H    1.79102609   4.63301844   1.02948260
| 20> H    2.78376503   4.29744930  -0.38833452
| 21> H    3.26888197   3.65122117   1.17055400
| 22> N   -1.20455228  -0.24745942  -1.14987979
| 23> C   -1.21024961  -0.96755040  -2.44079508
| 24> H   -0.86523010  -0.31166288  -3.23247661
| 25> H   -2.22574017  -1.31332758  -2.67055274
| 26> H   -0.55404594  -1.83209409  -2.39559427
| 27> C   -2.14588508   0.87378854  -1.25616553
| 28> H   -2.16549877   1.44550490  -0.33420348
| 29> H   -3.15330032   0.49781047  -1.46657992
| 30> H   -1.83924909   1.53332070  -2.06251183
| 31> C   -1.46242595  -0.89113924   1.33002482
| 32> C   -0.50449699  -1.64176862   1.99526341
| 33> C   -0.36804377  -1.60585626   3.36661983
| 34> C   -1.27527734  -0.90461527   4.12451066
| 35> C   -2.22319212  -0.11923339   3.49290794
| 36> C   -2.25819769  -0.03985280   2.10123427
| 37> H   -1.24733264  -0.95527176   5.19564422
| 38> H   -2.97073144   0.39642307   4.07459834
| 39> H    0.12946005  -2.27996656   1.41617988
| 40> H    0.46975710  -2.10057462   3.83609212
| 41> H   -2.91774082   0.69680633   1.63879942
| 42> C   -1.69107006  -1.19932602  -0.12378507
| 43> H   -2.75724867  -1.36562750  -0.29852986
| 44> H   -1.21259512  -2.15411522  -0.31757085
| 45> O    1.66868267  -1.05958509  -1.14142630
| 46> C    2.23224658  -0.82948876  -2.29663611
| 47> O    1.87194131   0.02486112  -3.08010481
| 48> C    3.42520973  -1.71664018  -2.58750069
| 49> H    3.20532022  -2.76559744  -2.39843961
| 50> H    4.25593756  -1.43356210  -1.93949042
| 51> H    3.73681649  -1.58880294  -3.62028993
| 52> *
| 53>
| 54>                          ****END OF INPUT****

CARTESIAN COORDINATES (ANGSTROEM)
---------------------------------
  Pd     0.673297    0.552770   -0.570263
  O      2.290405    1.541066    0.112722
  C      1.643174    2.623645    0.237375
  O      0.399306    2.590020    0.035750
  C      2.405485    3.878443    0.546641
  H      1.791026    4.633018    1.029483
  H      2.783765    4.297449   -0.388335
  H      3.268882    3.651221    1.170554
  N     -1.204552   -0.247459   -1.149880
  C     -1.210250   -0.967550   -2.440795
  H     -0.865230   -0.311663   -3.232477
  H     -2.225740   -1.313328   -2.670553
  H     -0.554046   -1.832094   -2.395594
  C     -2.145885    0.873789   -1.256166
  H     -2.165499    1.445505   -0.334203
  H     -3.153300    0.497810   -1.466580
  H     -1.839249    1.533321   -2.062512
  C     -1.462426   -0.891139    1.330025
  C     -0.504497   -1.641769    1.995263
  C     -0.368044   -1.605856    3.366620
  C     -1.275277   -0.904615    4.124511
  C     -2.223192   -0.119233    3.492908
  C     -2.258198   -0.039853    2.101234
  H     -1.247333   -0.955272    5.195644
  H     -2.970731    0.396423    4.074598
  H      0.129460   -2.279967    1.416180
  H      0.469757   -2.100575    3.836092
  H     -2.917741    0.696806    1.638799
  C     -1.691070   -1.199326   -0.123785
  H     -2.757249   -1.365627   -0.298530
  H     -1.212595   -2.154115   -0.317571
  O      1.668683   -1.059585   -1.141426
  C      2.232247   -0.829489   -2.296636
  O      1.871941    0.024861   -3.080105
  C      3.425210   -1.716640   -2.587501
  H      3.205320   -2.765597   -2.398440
  H      4.255938   -1.433562   -1.939490
  H      3.736816   -1.588803   -3.620290

 Total Charge           Charge          ....    0
 Multiplicity           Mult            ....    1
 Number of Electrons    NEL             ....  154
 Basis Dimension        Dim             ....  339

ORBITAL ENERGIES
----------------

  NO   OCC          E(Eh)            E(eV)
   0   2.0000     -19.500670      -530.6402
   1   2.0000     -19.497568      -530.5558
   2   2.0000     -19.474987      -529.9414
   3   2.0000     -19.434483      -528.8392
   4   2.0000     -14.720244      -400.5582
   5   2.0000     -10.572846      -287.7018
   6   2.0000     -10.532253      -286.5972
   7   2.0000     -10.496620      -285.6276
   8   2.0000     -10.483307      -285.2653
   9   2.0000     -10.476713      -285.0859
  10   2.0000     -10.470099      -284.9059
  11   2.0000     -10.462336      -284.6946
  12   2.0000     -10.456397      -284.5330
  13   2.0000     -10.453403      -284.4516
  14   2.0000     -10.452247      -284.4201
  15   2.0000     -10.451510      -284.4001
  16   2.0000     -10.442397      -284.1521
  17   2.0000     -10.414005      -283.3795
  18   2.0000      -3.657170       -99.5167
  19   2.0000      -2.305737       -62.7423
  20   2.0000      -2.302182       -62.6456
  21   2.0000      -2.265523       -61.6480
  22   2.0000      -1.203919       -32.7603
  23   2.0000      -1.151211       -31.3260
  24   2.0000      -1.086735       -29.5716
  25   2.0000      -1.078425       -29.3454
  26   2.0000      -1.053558       -28.6688
  27   2.0000      -0.972489       -26.4628
  28   2.0000      -0.881356       -23.9829
  29   2.0000      -0.847675       -23.0664
  30   2.0000      -0.832756       -22.6604
  31   2.0000      -0.821968       -22.3669
  32   2.0000      -0.799801       -21.7637
  33   2.0000      -0.796828       -21.6828
  34   2.0000      -0.718751       -19.5582
  35   2.0000      -0.695512       -18.9258
  36   2.0000      -0.672670       -18.3043
  37   2.0000      -0.616258       -16.7692
  38   2.0000      -0.602598       -16.3975
  39   2.0000      -0.588163       -16.0047
  40   2.0000      -0.576705       -15.6929
  41   2.0000      -0.569808       -15.5053
  42   2.0000      -0.558996       -15.2111
  43   2.0000      -0.548262       -14.9190
  44   2.0000      -0.547255       -14.8916
  45   2.0000      -0.528948       -14.3934
  46   2.0000      -0.527380       -14.3508
  47   2.0000      -0.522147       -14.2083
  48   2.0000      -0.509959       -13.8767
  49   2.0000      -0.497359       -13.5338
  50   2.0000      -0.491569       -13.3763
  51   2.0000      -0.489605       -13.3228
  52   2.0000      -0.487595       -13.2681
  53   2.0000      -0.475840       -12.9483
  54   2.0000      -0.460362       -12.5271
  55   2.0000      -0.459137       -12.4938
  56   2.0000      -0.448973       -12.2172
  57   2.0000      -0.446716       -12.1558
  58   2.0000      -0.440490       -11.9863
  59   2.0000      -0.435247       -11.8437
  60   2.0000      -0.432325       -11.7642
  61   2.0000      -0.418357       -11.3841
  62   2.0000      -0.413648       -11.2559
  63   2.0000      -0.406379       -11.0581
  64   2.0000      -0.397370       -10.8130
  65   2.0000      -0.390255       -10.6194
  66   2.0000      -0.371944       -10.1211
  67   2.0000      -0.364980        -9.9316
  68   2.0000      -0.352214        -9.5842
  69   2.0000      -0.341205        -9.2847
  70   2.0000      -0.320584        -8.7235
  71   2.0000      -0.315208        -8.5773
  72   2.0000      -0.309067        -8.4101
  73   2.0000      -0.300760        -8.1841
  74   2.0000      -0.297920        -8.1068
  75   2.0000      -0.296358        -8.0643
  76   2.0000      -0.270625        -7.3641
  77   0.0000      -0.040345        -1.0979
  78   0.0000      -0.001850        -0.0503
  79   0.0000       0.009447         0.2571
  80   0.0000       0.045445         1.2366
  81   0.0000       0.071535         1.9466

MULLIKEN ATOMIC CHARGES
-----------------------
   0 Pd:    0.529493
   1 O :   -0.486704
   2 C :    0.672655
   3 O :   -0.505306
   4 C :   -0.769896
   5 H :    0.250923
   6 H :    0.263307
   7 H :    0.259122
   8 N :   -0.485597
   9 C :   -0.528659
  10 H :    0.289945
  11 H :    0.218297
  12 H :    0.274118
  13 C :   -0.530936
  14 H :    0.280468
  15 H :    0.221692
  16 H :    0.278271
  17 C :    0.118311
  18 C :   -0.258074
  19 C :   -0.207528
  20 C :   -0.225673
  21 C :   -0.206168
  22 C :   -0.281858
  23 H :    0.225774
  24 H :    0.224646
  25 H :    0.247591
  26 H :    0.228188
  27 H :    0.211883
  28 C :   -0.354671
  29 H :    0.241318
  30 H :    0.269050
  31 O :   -0.558279
  32 C :    0.569212
  33 O :   -0.447599
  34 C :   -0.742513
  35 H :    0.229017
  36 H :    0.247168
  37 H :    0.239014
Sum of atomic charges:   -0.0000000

LOEWDIN ATOMIC CHARGES
----------------------
   0 Pd:   -0.294367
   1 O :   -0.141864
   2 C :    0.193387
   3 O :   -0.184318
   4 C :   -0.376895
   5 H :    0.150898
   6 H :    0.165765
   7 H :    0.157972
   8 N :   -0.049378
   9 C :   -0.232565
  10 H :    0.161363
  11 H :    0.119394
  12 H :    0.152904
  13 C :   -0.232552
  14 H :    0.155985
  15 H :    0.122358
  16 H :    0.155944
  17 C :   -0.055318
  18 C :   -0.103909
  19 C :   -0.126087
  20 C :   -0.127680
  21 C :   -0.130198
  22 C :   -0.117808
  23 H :    0.138603
  24 H :    0.138872
  25 H :    0.153720
  26 H :    0.141649
  27 H :    0.136856
  28 C :   -0.108321
  29 H :    0.133570
  30 H :    0.154505
  31 O :   -0.200373
  32 C :    0.133924
  33 O :   -0.240484
  34 C :   -0.381850
  35 H :    0.141103
  36 H :    0.153509
  37 H :    0.141686

  Mayer bond orders larger than 0.100000
B(  0-Pd,  1-O ) :   0.5763 B(  0-Pd,  3-O ) :   0.4789 B(  0-Pd,  8-N ) :   0.4147
B(  0-Pd, 31-O ) :   0.6580 B(  0-Pd, 33-O ) :   0.1164 B(  1-O ,  2-C ) :   1.4062
B(  1-O ,  3-O ) :   0.1033 B(  2-C ,  3-O ) :   1.4999 B(  2-C ,  4-C ) :   0.9572
B(  4-C ,  5-H ) :   0.9103 B(  4-C ,  6-H ) :   0.9006 B(  4-C ,  7-H ) :   0.9070
B(  8-N ,  9-C ) :   0.9171 B(  8-N , 13-C ) :   0.9230 B(  8-N , 28-C ) :   0.8980
B(  9-C , 10-H ) :   0.8925 B(  9-C , 11-H ) :   0.9026 B(  9-C , 12-H ) :   0.8987
B( 13-C , 14-H ) :   0.8913 B( 13-C , 15-H ) :   0.9039 B( 13-C , 16-H ) :   0.9008
B( 17-C , 18-C ) :   1.4165 B( 17-C , 22-C ) :   1.3840 B( 17-C , 28-C ) :   0.9457
B( 18-C , 19-C ) :   1.4313 B( 18-C , 25-H ) :   0.9036 B( 19-C , 20-C ) :   1.4267
B( 19-C , 26-H ) :   0.9166 B( 20-C , 21-C ) :   1.4223 B( 20-C , 23-H ) :   0.9171
B( 21-C , 22-C ) :   1.4393 B( 21-C , 24-H ) :   0.9175 B( 22-C , 27-H ) :   0.9231
B( 28-C , 29-H ) :   0.8987 B( 28-C , 30-H ) :   0.9080 B( 31-O , 32-C ) :   1.2320
B( 32-C , 33-O ) :   1.8792 B( 32-C , 34-C ) :   0.9361 B( 34-C , 35-H ) :   0.9166
B( 34-C , 36-H ) :   0.9107 B( 34-C , 37-H ) :   0.9198

Dispersion correction           -0.026074764
FINAL SINGLE POINT ENERGY      -988.555934386576
Dispersion correction            ... done

DIPOLE MOMENT
-------------
                                X             Y             Z
Electronic contribution:     30.15550      27.45117     -28.68873
Nuclear contribution   :    -31.79828     -27.65636      29.45124
                        -----------------------------------------
Total Dipole Moment    :     -1.64278      -0.20519       0.76251
                        -----------------------------------------
Magnitude (a.u.)       :      1.82270
Magnitude (Debye)      :      4.63293

Rotational constants in cm-1:     0.013838     0.008288     0.007119
Rotational constants in MHz :   414.860754   248.481633   213.426554

                             ****ORCA TERMINATED NORMALLY****
TOTAL RUN TIME: 0 days 0 hours 12 minutes 59 seconds 882 msec
