                         Program Version 5.0.3 -  RELEASE  -
|  1> ! EnGrad PBEh-3c
|  2> %output
|  3> xyzfile=True
|  4> end
|  5> %scf
|  6> maxiter 250
|  7> end
|  8> %output
|  9> Print[P_Hirshfeld] = 1
| 10> end
| 11> % maxcore
| 12> 4000
| 13> *xyz 0 1
| 14> Pd   0.67329617   0.55322041  -0.57514263
| 15> O    2.29161835   1.53950934   0.09597850
| 16> C    1.64097866   2.61697783   0.23454456
| 17> O    0.39392426   2.57896385   0.04591005
| 18> C    2.39979861   3.87195414   0.54487975
| 19> H    1.77960454   4.62382135   1.02658470
| 20> H    2.77928839   4.29366215  -0.39025053
| 21> H    3.26461645   3.64846455   1.17172854
| 22> N   -1.20505154  -0.24181433  -1.14709649
| 23> C   -1.20412527  -0.96284325  -2.43469019
| 24> H   -0.85695188  -0.30911391  -3.22674286
| 25> H   -2.21841914  -1.30920192  -2.66334235
| 26> H   -0.54620974  -1.82528221  -2.38262401
| 27> C   -2.14558335   0.87851223  -1.25695254
| 28> H   -2.16974003   1.44682397  -0.33391038
| 29> H   -3.14932295   0.49841107  -1.47130034
| 30> H   -1.83592395   1.53787494  -2.06280544
| 31> C   -1.45331347  -0.89041841   1.33364410
| 32> C   -0.48701100  -1.63531975   1.99800051
| 33> C   -0.35582644  -1.59872311   3.36635953
| 34> C   -1.25335828  -0.87600053   4.11754594
| 35> C   -2.20289665  -0.09655388   3.47775475
| 36> C   -2.26526819  -0.05126465   2.08921322
| 37> H   -1.27350482  -0.96969581   5.18997571
| 38> H   -2.92047138   0.45185784   4.07075627
| 39> H    0.13699170  -2.30097528   1.42920512
| 40> H    0.43824067  -2.14085609   3.85076297
| 41> H   -2.98303160   0.62982420   1.61798324
| 42> C   -1.68338447  -1.19598531  -0.12060891
| 43> H   -2.75605426  -1.35315893  -0.27374409
| 44> H   -1.20289424  -2.14865227  -0.32077318
| 45> O    1.65893955  -1.06233960  -1.14981408
| 46> C    2.22879591  -0.83100924  -2.29841146
| 47> O    1.86959445   0.02894948  -3.08410345
| 48> C    3.42094718  -1.71535550  -2.58658377
| 49> H    3.20668489  -2.76715748  -2.39881391
| 50> H    4.25045676  -1.42964845  -1.93654620
| 51> H    3.73402170  -1.58441864  -3.61901779
| 52> *
| 53>
| 54>                          ****END OF INPUT****

CARTESIAN COORDINATES (ANGSTROEM)
---------------------------------
  Pd     0.673296    0.553220   -0.575143
  O      2.291618    1.539509    0.095978
  C      1.640979    2.616978    0.234545
  O      0.393924    2.578964    0.045910
  C      2.399799    3.871954    0.544880
  H      1.779605    4.623821    1.026585
  H      2.779288    4.293662   -0.390251
  H      3.264616    3.648465    1.171729
  N     -1.205052   -0.241814   -1.147096
  C     -1.204125   -0.962843   -2.434690
  H     -0.856952   -0.309114   -3.226743
  H     -2.218419   -1.309202   -2.663342
  H     -0.546210   -1.825282   -2.382624
  C     -2.145583    0.878512   -1.256953
  H     -2.169740    1.446824   -0.333910
  H     -3.149323    0.498411   -1.471300
  H     -1.835924    1.537875   -2.062805
  C     -1.453313   -0.890418    1.333644
  C     -0.487011   -1.635320    1.998001
  C     -0.355826   -1.598723    3.366360
  C     -1.253358   -0.876001    4.117546
  C     -2.202897   -0.096554    3.477755
  C     -2.265268   -0.051265    2.089213
  H     -1.273505   -0.969696    5.189976
  H     -2.920471    0.451858    4.070756
  H      0.136992   -2.300975    1.429205
  H      0.438241   -2.140856    3.850763
  H     -2.983032    0.629824    1.617983
  C     -1.683384   -1.195985   -0.120609
  H     -2.756054   -1.353159   -0.273744
  H     -1.202894   -2.148652   -0.320773
  O      1.658940   -1.062340   -1.149814
  C      2.228796   -0.831009   -2.298411
  O      1.869594    0.028949   -3.084103
  C      3.420947   -1.715355   -2.586584
  H      3.206685   -2.767157   -2.398814
  H      4.250457   -1.429648   -1.936546
  H      3.734022   -1.584419   -3.619018

 Total Charge           Charge          ....    0
 Multiplicity           Mult            ....    1
 Number of Electrons    NEL             ....  154
 Basis Dimension        Dim             ....  339

ORBITAL ENERGIES
----------------

  NO   OCC          E(Eh)            E(eV)
   0   2.0000     -19.500948      -530.6478
   1   2.0000     -19.497935      -530.5658
   2   2.0000     -19.475009      -529.9419
   3   2.0000     -19.433429      -528.8105
   4   2.0000     -14.719648      -400.5420
   5   2.0000     -10.573022      -287.7066
   6   2.0000     -10.532080      -286.5925
   7   2.0000     -10.496059      -285.6123
   8   2.0000     -10.482796      -285.2514
   9   2.0000     -10.475643      -285.0567
  10   2.0000     -10.469526      -284.8903
  11   2.0000     -10.461934      -284.6837
  12   2.0000     -10.456162      -284.5266
  13   2.0000     -10.453777      -284.4617
  14   2.0000     -10.452983      -284.4401
  15   2.0000     -10.451592      -284.4023
  16   2.0000     -10.442788      -284.1627
  17   2.0000     -10.414172      -283.3840
  18   2.0000      -3.656897       -99.5092
  19   2.0000      -2.305609       -62.7388
  20   2.0000      -2.301902       -62.6379
  21   2.0000      -2.265215       -61.6396
  22   2.0000      -1.204487       -32.7758
  23   2.0000      -1.150205       -31.2987
  24   2.0000      -1.087264       -29.5860
  25   2.0000      -1.078729       -29.3537
  26   2.0000      -1.052294       -28.6344
  27   2.0000      -0.973242       -26.4833
  28   2.0000      -0.881165       -23.9777
  29   2.0000      -0.849007       -23.1027
  30   2.0000      -0.832844       -22.6628
  31   2.0000      -0.822085       -22.3701
  32   2.0000      -0.799322       -21.7507
  33   2.0000      -0.797044       -21.6887
  34   2.0000      -0.718247       -19.5445
  35   2.0000      -0.695821       -18.9343
  36   2.0000      -0.672473       -18.2989
  37   2.0000      -0.616484       -16.7754
  38   2.0000      -0.602337       -16.3904
  39   2.0000      -0.588721       -16.0199
  40   2.0000      -0.577259       -15.7080
  41   2.0000      -0.569344       -15.4926
  42   2.0000      -0.558142       -15.1878
  43   2.0000      -0.548843       -14.9348
  44   2.0000      -0.547688       -14.9034
  45   2.0000      -0.529437       -14.4067
  46   2.0000      -0.528096       -14.3702
  47   2.0000      -0.521685       -14.1958
  48   2.0000      -0.509690       -13.8694
  49   2.0000      -0.497107       -13.5270
  50   2.0000      -0.492115       -13.3911
  51   2.0000      -0.489839       -13.3292
  52   2.0000      -0.486485       -13.2379
  53   2.0000      -0.475650       -12.9431
  54   2.0000      -0.460145       -12.5212
  55   2.0000      -0.458883       -12.4868
  56   2.0000      -0.448509       -12.2045
  57   2.0000      -0.446398       -12.1471
  58   2.0000      -0.440731       -11.9929
  59   2.0000      -0.434781       -11.8310
  60   2.0000      -0.431825       -11.7505
  61   2.0000      -0.417951       -11.3730
  62   2.0000      -0.413168       -11.2429
  63   2.0000      -0.405598       -11.0369
  64   2.0000      -0.399275       -10.8648
  65   2.0000      -0.390578       -10.6282
  66   2.0000      -0.372130       -10.1262
  67   2.0000      -0.364186        -9.9100
  68   2.0000      -0.351601        -9.5676
  69   2.0000      -0.340785        -9.2732
  70   2.0000      -0.320616        -8.7244
  71   2.0000      -0.314969        -8.5707
  72   2.0000      -0.309016        -8.4087
  73   2.0000      -0.302773        -8.2389
  74   2.0000      -0.297407        -8.0928
  75   2.0000      -0.296059        -8.0562
  76   2.0000      -0.269855        -7.3431
  77   0.0000      -0.038891        -1.0583
  78   0.0000      -0.000607        -0.0165
  79   0.0000       0.009931         0.2702
  80   0.0000       0.045192         1.2297
  81   0.0000       0.072054         1.9607

MULLIKEN ATOMIC CHARGES
-----------------------
   0 Pd:    0.530385
   1 O :   -0.486420
   2 C :    0.675187
   3 O :   -0.506095
   4 C :   -0.770314
   5 H :    0.250826
   6 H :    0.263286
   7 H :    0.258992
   8 N :   -0.485886
   9 C :   -0.529107
  10 H :    0.290460
  11 H :    0.218334
  12 H :    0.274092
  13 C :   -0.530373
  14 H :    0.281116
  15 H :    0.221206
  16 H :    0.278164
  17 C :    0.120490
  18 C :   -0.254035
  19 C :   -0.209528
  20 C :   -0.222573
  21 C :   -0.209762
  22 C :   -0.277917
  23 H :    0.224914
  24 H :    0.224067
  25 H :    0.244286
  26 H :    0.228174
  27 H :    0.210813
  28 C :   -0.354047
  29 H :    0.239219
  30 H :    0.268220
  31 O :   -0.557346
  32 C :    0.570989
  33 O :   -0.452671
  34 C :   -0.742610
  35 H :    0.228855
  36 H :    0.247125
  37 H :    0.239486
Sum of atomic charges:   -0.0000000

LOEWDIN ATOMIC CHARGES
----------------------
   0 Pd:   -0.297690
   1 O :   -0.140202
   2 C :    0.193802
   3 O :   -0.183743
   4 C :   -0.376576
   5 H :    0.150954
   6 H :    0.165932
   7 H :    0.158218
   8 N :   -0.048937
   9 C :   -0.232596
  10 H :    0.161576
  11 H :    0.119217
  12 H :    0.153059
  13 C :   -0.232570
  14 H :    0.156447
  15 H :    0.122077
  16 H :    0.156234
  17 C :   -0.054888
  18 C :   -0.103005
  19 C :   -0.125293
  20 C :   -0.127676
  21 C :   -0.129387
  22 C :   -0.119270
  23 H :    0.138563
  24 H :    0.138258
  25 H :    0.153582
  26 H :    0.141154
  27 H :    0.136970
  28 C :   -0.107841
  29 H :    0.133311
  30 H :    0.154520
  31 O :   -0.198570
  32 C :    0.134990
  33 O :   -0.246168
  34 C :   -0.381332
  35 H :    0.141096
  36 H :    0.153743
  37 H :    0.142044

  Mayer bond orders larger than 0.100000
B(  0-Pd,  1-O ) :   0.5753 B(  0-Pd,  3-O ) :   0.4829 B(  0-Pd,  8-N ) :   0.4160
B(  0-Pd, 31-O ) :   0.6540 B(  0-Pd, 33-O ) :   0.1175 B(  1-O ,  2-C ) :   1.4076
B(  1-O ,  3-O ) :   0.1034 B(  2-C ,  3-O ) :   1.4953 B(  2-C ,  4-C ) :   0.9572
B(  4-C ,  5-H ) :   0.9103 B(  4-C ,  6-H ) :   0.9005 B(  4-C ,  7-H ) :   0.9070
B(  8-N ,  9-C ) :   0.9171 B(  8-N , 13-C ) :   0.9232 B(  8-N , 28-C ) :   0.8981
B(  9-C , 10-H ) :   0.8919 B(  9-C , 11-H ) :   0.9027 B(  9-C , 12-H ) :   0.8983
B( 13-C , 14-H ) :   0.8913 B( 13-C , 15-H ) :   0.9040 B( 13-C , 16-H ) :   0.9009
B( 17-C , 18-C ) :   1.4119 B( 17-C , 22-C ) :   1.3875 B( 17-C , 28-C ) :   0.9451
B( 18-C , 19-C ) :   1.4359 B( 18-C , 25-H ) :   0.9057 B( 19-C , 20-C ) :   1.4231
B( 19-C , 26-H ) :   0.9163 B( 20-C , 21-C ) :   1.4264 B( 20-C , 23-H ) :   0.9172
B( 21-C , 22-C ) :   1.4367 B( 21-C , 24-H ) :   0.9176 B( 22-C , 27-H ) :   0.9242
B( 28-C , 29-H ) :   0.9002 B( 28-C , 30-H ) :   0.9082 B( 31-O , 32-C ) :   1.2366
B( 32-C , 33-O ) :   1.8721 B( 32-C , 34-C ) :   0.9367 B( 34-C , 35-H ) :   0.9166
B( 34-C , 36-H ) :   0.9104 B( 34-C , 37-H ) :   0.9198

Dispersion correction           -0.026111869
FINAL SINGLE POINT ENERGY      -988.558657574762
Dispersion correction            ... done

DIPOLE MOMENT
-------------
                                X             Y             Z
Electronic contribution:     30.12339      27.43586     -28.87252
Nuclear contribution   :    -31.77599     -27.66953      29.67219
                        -----------------------------------------
Total Dipole Moment    :     -1.65259      -0.23367       0.79966
                        -----------------------------------------
Magnitude (a.u.)       :      1.85071
Magnitude (Debye)      :      4.70413

Rotational constants in cm-1:     0.013878     0.008316     0.007148
Rotational constants in MHz :   416.050898   249.301477   214.297324

                             ****ORCA TERMINATED NORMALLY****
TOTAL RUN TIME: 0 days 0 hours 13 minutes 4 seconds 286 msec
