                         Program Version 5.0.3 -  RELEASE  -
|  1> ! EnGrad PBEh-3c
|  2> %output
|  3> xyzfile=True
|  4> end
|  5> %scf
|  6> maxiter 250
|  7> end
|  8> %output
|  9> Print[P_Hirshfeld] = 1
| 10> end
| 11> % maxcore
| 12> 4000
| 13> *xyz 0 1
| 14> Pd   0.67317883   0.55331509  -0.57654189
| 15> O    2.29129360   1.53736353   0.08854902
| 16> C    1.64082876   2.61339678   0.23384723
| 17> O    0.39309538   2.57228375   0.05057813
| 18> C    2.39695114   3.86910314   0.54474427
| 19> H    1.77542081   4.62053673   1.02613385
| 20> H    2.77780218   4.29064049  -0.39019168
| 21> H    3.26186271   3.64596179   1.17176414
| 22> N   -1.20464690  -0.24096650  -1.14471728
| 23> C   -1.20135056  -0.96241186  -2.43169974
| 24> H   -0.85352181  -0.31129564  -3.22616391
| 25> H   -2.21489721  -1.30974535  -2.66061422
| 26> H   -0.54341504  -1.82478279  -2.37706333
| 27> C   -2.14468666   0.87999035  -1.25845311
| 28> H   -2.17195057   1.44908496  -0.33528305
| 29> H   -3.14807294   0.49937771  -1.47452144
| 30> H   -1.83519995   1.53915973  -2.06555558
| 31> C   -1.45126515  -0.88568703   1.33598997
| 32> C   -0.48115766  -1.63808450   1.99736946
| 33> C   -0.34955788  -1.59639742   3.36834514
| 34> C   -1.24896357  -0.86829428   4.12007268
| 35> C   -2.20235577  -0.08517833   3.47054167
| 36> C   -2.26875089  -0.05040909   2.08768657
| 37> H   -1.27918662  -0.97101083   5.19371944
| 38> H   -2.90311770   0.47600905   4.06936813
| 39> H    0.14392807  -2.31183593   1.42807965
| 40> H    0.42710813  -2.16026167   3.85599644
| 41> H   -2.99972647   0.61092840   1.61236223
| 42> C   -1.68357371  -1.19599330  -0.11732964
| 43> H   -2.75985423  -1.34831184  -0.26791804
| 44> H   -1.19952378  -2.14888272  -0.32211642
| 45> O    1.65379639  -1.06319186  -1.15361484
| 46> C    2.22611305  -0.82945934  -2.30131301
| 47> O    1.86936626   0.02901713  -3.08413063
| 48> C    3.42047983  -1.71294390  -2.58775509
| 49> H    3.20956511  -2.76565764  -2.39959114
| 50> H    4.24856006  -1.42608029  -1.93591022
| 51> H    3.73481642  -1.58116615  -3.62003744
| 52> *
| 53>
| 54>                          ****END OF INPUT****

CARTESIAN COORDINATES (ANGSTROEM)
---------------------------------
  Pd     0.673179    0.553315   -0.576542
  O      2.291294    1.537364    0.088549
  C      1.640829    2.613397    0.233847
  O      0.393095    2.572284    0.050578
  C      2.396951    3.869103    0.544744
  H      1.775421    4.620537    1.026134
  H      2.777802    4.290640   -0.390192
  H      3.261863    3.645962    1.171764
  N     -1.204647   -0.240967   -1.144717
  C     -1.201351   -0.962412   -2.431700
  H     -0.853522   -0.311296   -3.226164
  H     -2.214897   -1.309745   -2.660614
  H     -0.543415   -1.824783   -2.377063
  C     -2.144687    0.879990   -1.258453
  H     -2.171951    1.449085   -0.335283
  H     -3.148073    0.499378   -1.474521
  H     -1.835200    1.539160   -2.065556
  C     -1.451265   -0.885687    1.335990
  C     -0.481158   -1.638084    1.997369
  C     -0.349558   -1.596397    3.368345
  C     -1.248964   -0.868294    4.120073
  C     -2.202356   -0.085178    3.470542
  C     -2.268751   -0.050409    2.087687
  H     -1.279187   -0.971011    5.193719
  H     -2.903118    0.476009    4.069368
  H      0.143928   -2.311836    1.428080
  H      0.427108   -2.160262    3.855996
  H     -2.999726    0.610928    1.612362
  C     -1.683574   -1.195993   -0.117330
  H     -2.759854   -1.348312   -0.267918
  H     -1.199524   -2.148883   -0.322116
  O      1.653796   -1.063192   -1.153615
  C      2.226113   -0.829459   -2.301313
  O      1.869366    0.029017   -3.084131
  C      3.420480   -1.712944   -2.587755
  H      3.209565   -2.765658   -2.399591
  H      4.248560   -1.426080   -1.935910
  H      3.734816   -1.581166   -3.620037

 Total Charge           Charge          ....    0
 Multiplicity           Mult            ....    1
 Number of Electrons    NEL             ....  154
 Basis Dimension        Dim             ....  339

ORBITAL ENERGIES
----------------

  NO   OCC          E(Eh)            E(eV)
   0   2.0000     -19.500904      -530.6466
   1   2.0000     -19.497898      -530.5648
   2   2.0000     -19.474220      -529.9205
   3   2.0000     -19.433579      -528.8146
   4   2.0000     -14.719249      -400.5311
   5   2.0000     -10.572989      -287.7056
   6   2.0000     -10.531617      -286.5799
   7   2.0000     -10.496399      -285.6215
   8   2.0000     -10.482707      -285.2490
   9   2.0000     -10.475225      -285.0454
  10   2.0000     -10.469937      -284.9015
  11   2.0000     -10.461472      -284.6711
  12   2.0000     -10.456675      -284.5406
  13   2.0000     -10.455448      -284.5072
  14   2.0000     -10.454674      -284.4862
  15   2.0000     -10.452661      -284.4314
  16   2.0000     -10.442974      -284.1678
  17   2.0000     -10.413963      -283.3783
  18   2.0000      -3.656466       -99.4975
  19   2.0000      -2.305251       -62.7291
  20   2.0000      -2.301452       -62.6257
  21   2.0000      -2.264797       -61.6283
  22   2.0000      -1.205030       -32.7905
  23   2.0000      -1.150976       -31.3196
  24   2.0000      -1.087383       -29.5892
  25   2.0000      -1.078078       -29.3360
  26   2.0000      -1.052912       -28.6512
  27   2.0000      -0.972033       -26.4504
  28   2.0000      -0.879802       -23.9406
  29   2.0000      -0.849519       -23.1166
  30   2.0000      -0.833132       -22.6707
  31   2.0000      -0.821544       -22.3553
  32   2.0000      -0.798241       -21.7212
  33   2.0000      -0.796441       -21.6723
  34   2.0000      -0.717698       -19.5296
  35   2.0000      -0.695168       -18.9165
  36   2.0000      -0.672286       -18.2938
  37   2.0000      -0.616583       -16.7781
  38   2.0000      -0.601591       -16.3701
  39   2.0000      -0.588369       -16.0103
  40   2.0000      -0.576873       -15.6975
  41   2.0000      -0.568507       -15.4699
  42   2.0000      -0.557677       -15.1752
  43   2.0000      -0.549129       -14.9425
  44   2.0000      -0.548011       -14.9121
  45   2.0000      -0.529533       -14.4093
  46   2.0000      -0.527840       -14.3633
  47   2.0000      -0.521645       -14.1947
  48   2.0000      -0.509866       -13.8742
  49   2.0000      -0.497056       -13.5256
  50   2.0000      -0.492785       -13.4094
  51   2.0000      -0.490069       -13.3354
  52   2.0000      -0.485352       -13.2071
  53   2.0000      -0.475287       -12.9332
  54   2.0000      -0.460151       -12.5213
  55   2.0000      -0.458758       -12.4834
  56   2.0000      -0.448375       -12.2009
  57   2.0000      -0.446015       -12.1367
  58   2.0000      -0.440325       -11.9819
  59   2.0000      -0.433662       -11.8005
  60   2.0000      -0.431781       -11.7493
  61   2.0000      -0.417628       -11.3642
  62   2.0000      -0.413067       -11.2401
  63   2.0000      -0.406099       -11.0505
  64   2.0000      -0.399240       -10.8639
  65   2.0000      -0.390748       -10.6328
  66   2.0000      -0.372190       -10.1278
  67   2.0000      -0.364252        -9.9118
  68   2.0000      -0.351572        -9.5668
  69   2.0000      -0.340379        -9.2622
  70   2.0000      -0.320286        -8.7154
  71   2.0000      -0.314315        -8.5529
  72   2.0000      -0.308743        -8.4013
  73   2.0000      -0.303630        -8.2622
  74   2.0000      -0.297222        -8.0878
  75   2.0000      -0.295201        -8.0328
  76   2.0000      -0.269650        -7.3376
  77   0.0000      -0.037600        -1.0231
  78   0.0000      -0.001110        -0.0302
  79   0.0000       0.009666         0.2630
  80   0.0000       0.045144         1.2284
  81   0.0000       0.072356         1.9689

MULLIKEN ATOMIC CHARGES
-----------------------
   0 Pd:    0.530722
   1 O :   -0.486710
   2 C :    0.676080
   3 O :   -0.506405
   4 C :   -0.770662
   5 H :    0.250994
   6 H :    0.263352
   7 H :    0.259078
   8 N :   -0.485952
   9 C :   -0.529658
  10 H :    0.290431
  11 H :    0.218342
  12 H :    0.274082
  13 C :   -0.530240
  14 H :    0.281091
  15 H :    0.220874
  16 H :    0.278008
  17 C :    0.119054
  18 C :   -0.253909
  19 C :   -0.209959
  20 C :   -0.223378
  21 C :   -0.212478
  22 C :   -0.272158
  23 H :    0.225294
  24 H :    0.224290
  25 H :    0.245116
  26 H :    0.228056
  27 H :    0.210901
  28 C :   -0.353966
  29 H :    0.238104
  30 H :    0.267700
  31 O :   -0.558812
  32 C :    0.570377
  33 O :   -0.449331
  34 C :   -0.742992
  35 H :    0.228709
  36 H :    0.246952
  37 H :    0.239004
Sum of atomic charges:    0.0000000

LOEWDIN ATOMIC CHARGES
----------------------
   0 Pd:   -0.300595
   1 O :   -0.139433
   2 C :    0.193758
   3 O :   -0.182939
   4 C :   -0.376446
   5 H :    0.151099
   6 H :    0.166020
   7 H :    0.158349
   8 N :   -0.049171
   9 C :   -0.232912
  10 H :    0.161532
  11 H :    0.119076
  12 H :    0.153024
  13 C :   -0.232672
  14 H :    0.156460
  15 H :    0.121831
  16 H :    0.156267
  17 C :   -0.053987
  18 C :   -0.102711
  19 C :   -0.125382
  20 C :   -0.127461
  21 C :   -0.129009
  22 C :   -0.120500
  23 H :    0.138784
  24 H :    0.138203
  25 H :    0.154167
  26 H :    0.140874
  27 H :    0.137262
  28 C :   -0.106999
  29 H :    0.133019
  30 H :    0.154544
  31 O :   -0.199844
  32 C :    0.133318
  33 O :   -0.242284
  34 C :   -0.381620
  35 H :    0.140916
  36 H :    0.153646
  37 H :    0.141816

  Mayer bond orders larger than 0.100000
B(  0-Pd,  1-O ) :   0.5750 B(  0-Pd,  3-O ) :   0.4847 B(  0-Pd,  8-N ) :   0.4160
B(  0-Pd, 31-O ) :   0.6543 B(  0-Pd, 33-O ) :   0.1170 B(  1-O ,  2-C ) :   1.4078
B(  1-O ,  3-O ) :   0.1034 B(  2-C ,  3-O ) :   1.4934 B(  2-C ,  4-C ) :   0.9574
B(  4-C ,  5-H ) :   0.9103 B(  4-C ,  6-H ) :   0.9005 B(  4-C ,  7-H ) :   0.9069
B(  8-N ,  9-C ) :   0.9172 B(  8-N , 13-C ) :   0.9233 B(  8-N , 28-C ) :   0.8969
B(  9-C , 10-H ) :   0.8919 B(  9-C , 11-H ) :   0.9027 B(  9-C , 12-H ) :   0.8981
B( 13-C , 14-H ) :   0.8915 B( 13-C , 15-H ) :   0.9040 B( 13-C , 16-H ) :   0.9009
B( 17-C , 18-C ) :   1.4116 B( 17-C , 22-C ) :   1.3858 B( 17-C , 28-C ) :   0.9440
B( 18-C , 19-C ) :   1.4335 B( 18-C , 25-H ) :   0.9055 B( 19-C , 20-C ) :   1.4262
B( 19-C , 26-H ) :   0.9163 B( 20-C , 21-C ) :   1.4213 B( 20-C , 23-H ) :   0.9171
B( 21-C , 22-C ) :   1.4406 B( 21-C , 24-H ) :   0.9175 B( 22-C , 27-H ) :   0.9243
B( 28-C , 29-H ) :   0.9007 B( 28-C , 30-H ) :   0.9085 B( 31-O , 32-C ) :   1.2343
B( 32-C , 33-O ) :   1.8765 B( 32-C , 34-C ) :   0.9361 B( 34-C , 35-H ) :   0.9167
B( 34-C , 36-H ) :   0.9105 B( 34-C , 37-H ) :   0.9199

Dispersion correction           -0.026118002
FINAL SINGLE POINT ENERGY      -988.559402104442
Dispersion correction            ... done

DIPOLE MOMENT
-------------
                                X             Y             Z
Electronic contribution:     30.11629      27.44706     -28.93010
Nuclear contribution   :    -31.76958     -27.67678      29.73667
                        -----------------------------------------
Total Dipole Moment    :     -1.65329      -0.22973       0.80657
                        -----------------------------------------
Magnitude (a.u.)       :      1.85383
Magnitude (Debye)      :      4.71206

Rotational constants in cm-1:     0.013896     0.008321     0.007155
Rotational constants in MHz :   416.583548   249.444540   214.505566

                             ****ORCA TERMINATED NORMALLY****
TOTAL RUN TIME: 0 days 0 hours 12 minutes 48 seconds 231 msec
