                         Program Version 5.0.3 -  RELEASE  -
|  1> ! EnGrad PBEh-3c
|  2> %output
|  3> xyzfile=True
|  4> end
|  5> %scf
|  6> maxiter 250
|  7> end
|  8> %output
|  9> Print[P_Hirshfeld] = 1
| 10> end
| 11> % maxcore
| 12> 4000
| 13> *xyz 0 1
| 14> Pd   0.67034612   0.55110444  -0.57842621
| 15> O    2.29039696   1.53286506   0.07585272
| 16> C    1.64018226   2.60684082   0.23341563
| 17> O    0.39218182   2.56001106   0.05988526
| 18> C    2.39278983   3.86269081   0.54492295
| 19> H    1.77009210   4.61324649   1.02530169
| 20> H    2.77587008   4.28254293  -0.38901447
| 21> H    3.25627623   3.63888194   1.17179157
| 22> N   -1.20281723  -0.24089849  -1.14032865
| 23> C   -1.19673765  -0.96634514  -2.42576833
| 24> H   -0.84693527  -0.32028286  -3.22552840
| 25> H   -2.20978675  -1.31600922  -2.65596856
| 26> H   -0.53875256  -1.82848009  -2.36450687
| 27> C   -2.14372212   0.88072090  -1.26349524
| 28> H   -2.17676343   1.45425409  -0.34139594
| 29> H   -3.14781011   0.49953253  -1.48319941
| 30> H   -1.83397590   1.53872016  -2.07376041
| 31> C   -1.44486915  -0.87790829   1.33907709
| 32> C   -0.47686162  -1.64171470   1.99473528
| 33> C   -0.34531692  -1.59711043   3.37522001
| 34> C   -1.25026939  -0.85609605   4.11947055
| 35> C   -2.19191947  -0.06082518   3.46541794
| 36> C   -2.27367230  -0.04071338   2.08426022
| 37> H   -1.28632961  -0.97301225   5.20068796
| 38> H   -2.87304114   0.52146578   4.06757757
| 39> H    0.14915436  -2.33075732   1.42853787
| 40> H    0.40988227  -2.19542333   3.86581271
| 41> H   -3.01593145   0.58472568   1.60627751
| 42> C   -1.68607669  -1.19477213  -0.11027743
| 43> H   -2.76639904  -1.33949361  -0.25746902
| 44> H   -1.19946064  -2.14960926  -0.32235444
| 45> O    1.64572461  -1.06488145  -1.16131302
| 46> C    2.22206317  -0.82838486  -2.30567272
| 47> O    1.86657138   0.03228600  -3.08670948
| 48> C    3.42192999  -1.70462186  -2.59145150
| 49> H    3.21801271  -2.75896999  -2.40340834
| 50> H    4.24667093  -1.41431033  -1.93633995
| 51> H    3.73855047  -1.57046371  -3.62296423
| 52> *
| 53>
| 54>                          ****END OF INPUT****

CARTESIAN COORDINATES (ANGSTROEM)
---------------------------------
  Pd     0.670346    0.551104   -0.578426
  O      2.290397    1.532865    0.075853
  C      1.640182    2.606841    0.233416
  O      0.392182    2.560011    0.059885
  C      2.392790    3.862691    0.544923
  H      1.770092    4.613246    1.025302
  H      2.775870    4.282543   -0.389014
  H      3.256276    3.638882    1.171792
  N     -1.202817   -0.240898   -1.140329
  C     -1.196738   -0.966345   -2.425768
  H     -0.846935   -0.320283   -3.225528
  H     -2.209787   -1.316009   -2.655969
  H     -0.538753   -1.828480   -2.364507
  C     -2.143722    0.880721   -1.263495
  H     -2.176763    1.454254   -0.341396
  H     -3.147810    0.499533   -1.483199
  H     -1.833976    1.538720   -2.073760
  C     -1.444869   -0.877908    1.339077
  C     -0.476862   -1.641715    1.994735
  C     -0.345317   -1.597110    3.375220
  C     -1.250269   -0.856096    4.119471
  C     -2.191919   -0.060825    3.465418
  C     -2.273672   -0.040713    2.084260
  H     -1.286330   -0.973012    5.200688
  H     -2.873041    0.521466    4.067578
  H      0.149154   -2.330757    1.428538
  H      0.409882   -2.195423    3.865813
  H     -3.015931    0.584726    1.606278
  C     -1.686077   -1.194772   -0.110277
  H     -2.766399   -1.339494   -0.257469
  H     -1.199461   -2.149609   -0.322354
  O      1.645725   -1.064881   -1.161313
  C      2.222063   -0.828385   -2.305673
  O      1.866571    0.032286   -3.086709
  C      3.421930   -1.704622   -2.591451
  H      3.218013   -2.758970   -2.403408
  H      4.246671   -1.414310   -1.936340
  H      3.738550   -1.570464   -3.622964

 Total Charge           Charge          ....    0
 Multiplicity           Mult            ....    1
 Number of Electrons    NEL             ....  154
 Basis Dimension        Dim             ....  339

ORBITAL ENERGIES
----------------

  NO   OCC          E(Eh)            E(eV)
   0   2.0000     -19.500406      -530.6330
   1   2.0000     -19.497760      -530.5610
   2   2.0000     -19.473552      -529.9023
   3   2.0000     -19.432900      -528.7961
   4   2.0000     -14.719078      -400.5265
   5   2.0000     -10.572656      -287.6966
   6   2.0000     -10.531105      -286.5659
   7   2.0000     -10.496747      -285.6310
   8   2.0000     -10.483045      -285.2582
   9   2.0000     -10.474884      -285.0361
  10   2.0000     -10.470548      -284.9181
  11   2.0000     -10.461198      -284.6637
  12   2.0000     -10.457739      -284.5695
  13   2.0000     -10.457259      -284.5565
  14   2.0000     -10.457118      -284.5526
  15   2.0000     -10.455229      -284.5012
  16   2.0000     -10.442837      -284.1640
  17   2.0000     -10.413754      -283.3727
  18   2.0000      -3.655980       -99.4843
  19   2.0000      -2.304878       -62.7189
  20   2.0000      -2.300944       -62.6119
  21   2.0000      -2.264297       -61.6147
  22   2.0000      -1.205750       -32.8101
  23   2.0000      -1.150713       -31.3125
  24   2.0000      -1.087336       -29.5879
  25   2.0000      -1.076956       -29.3055
  26   2.0000      -1.052408       -28.6375
  27   2.0000      -0.970364       -26.4050
  28   2.0000      -0.878748       -23.9120
  29   2.0000      -0.849304       -23.1107
  30   2.0000      -0.833835       -22.6898
  31   2.0000      -0.820554       -22.3284
  32   2.0000      -0.797030       -21.6883
  33   2.0000      -0.795677       -21.6515
  34   2.0000      -0.716902       -19.5079
  35   2.0000      -0.695243       -18.9185
  36   2.0000      -0.671356       -18.2685
  37   2.0000      -0.616654       -16.7800
  38   2.0000      -0.600644       -16.3443
  39   2.0000      -0.588151       -16.0044
  40   2.0000      -0.576187       -15.6788
  41   2.0000      -0.567133       -15.4325
  42   2.0000      -0.557000       -15.1567
  43   2.0000      -0.549394       -14.9498
  44   2.0000      -0.548386       -14.9223
  45   2.0000      -0.529852       -14.4180
  46   2.0000      -0.527232       -14.3467
  47   2.0000      -0.522125       -14.2077
  48   2.0000      -0.509647       -13.8682
  49   2.0000      -0.496634       -13.5141
  50   2.0000      -0.493623       -13.4322
  51   2.0000      -0.489767       -13.3272
  52   2.0000      -0.484484       -13.1835
  53   2.0000      -0.474594       -12.9144
  54   2.0000      -0.460355       -12.5269
  55   2.0000      -0.458131       -12.4664
  56   2.0000      -0.448401       -12.2016
  57   2.0000      -0.445260       -12.1161
  58   2.0000      -0.439428       -11.9574
  59   2.0000      -0.432302       -11.7635
  60   2.0000      -0.431555       -11.7432
  61   2.0000      -0.417195       -11.3525
  62   2.0000      -0.413052       -11.2397
  63   2.0000      -0.405396       -11.0314
  64   2.0000      -0.400774       -10.9056
  65   2.0000      -0.390836       -10.6352
  66   2.0000      -0.372143       -10.1265
  67   2.0000      -0.363732        -9.8976
  68   2.0000      -0.351465        -9.5638
  69   2.0000      -0.339802        -9.2465
  70   2.0000      -0.319887        -8.7046
  71   2.0000      -0.313837        -8.5399
  72   2.0000      -0.308415        -8.3924
  73   2.0000      -0.303345        -8.2544
  74   2.0000      -0.296557        -8.0697
  75   2.0000      -0.294641        -8.0176
  76   2.0000      -0.268981        -7.3193
  77   0.0000      -0.035875        -0.9762
  78   0.0000      -0.001712        -0.0466
  79   0.0000       0.008578         0.2334
  80   0.0000       0.045347         1.2339
  81   0.0000       0.072872         1.9830

MULLIKEN ATOMIC CHARGES
-----------------------
   0 Pd:    0.532527
   1 O :   -0.487457
   2 C :    0.676860
   3 O :   -0.506404
   4 C :   -0.771187
   5 H :    0.251235
   6 H :    0.263728
   7 H :    0.259423
   8 N :   -0.487110
   9 C :   -0.530443
  10 H :    0.290768
  11 H :    0.218309
  12 H :    0.274163
  13 C :   -0.530288
  14 H :    0.280909
  15 H :    0.220488
  16 H :    0.278035
  17 C :    0.116246
  18 C :   -0.255843
  19 C :   -0.210488
  20 C :   -0.223977
  21 C :   -0.213616
  22 C :   -0.264399
  23 H :    0.224913
  24 H :    0.223965
  25 H :    0.245986
  26 H :    0.228308
  27 H :    0.213008
  28 C :   -0.354135
  29 H :    0.237235
  30 H :    0.266655
  31 O :   -0.559590
  32 C :    0.570555
  33 O :   -0.449593
  34 C :   -0.743045
  35 H :    0.228329
  36 H :    0.246897
  37 H :    0.239029
Sum of atomic charges:    0.0000000

LOEWDIN ATOMIC CHARGES
----------------------
   0 Pd:   -0.304658
   1 O :   -0.139189
   2 C :    0.193258
   3 O :   -0.181144
   4 C :   -0.376258
   5 H :    0.151265
   6 H :    0.166226
   7 H :    0.158611
   8 N :   -0.049044
   9 C :   -0.233275
  10 H :    0.161765
  11 H :    0.118930
  12 H :    0.152992
  13 C :   -0.232771
  14 H :    0.156454
  15 H :    0.121606
  16 H :    0.156410
  17 C :   -0.053153
  18 C :   -0.102561
  19 C :   -0.124962
  20 C :   -0.127820
  21 C :   -0.128478
  22 C :   -0.121409
  23 H :    0.139017
  24 H :    0.138281
  25 H :    0.154844
  26 H :    0.140931
  27 H :    0.137922
  28 C :   -0.105867
  29 H :    0.132821
  30 H :    0.154435
  31 O :   -0.200044
  32 C :    0.132946
  33 O :   -0.242652
  34 C :   -0.381597
  35 H :    0.140645
  36 H :    0.153675
  37 H :    0.141849

  Mayer bond orders larger than 0.100000
B(  0-Pd,  1-O ) :   0.5747 B(  0-Pd,  3-O ) :   0.4872 B(  0-Pd,  8-N ) :   0.4170
B(  0-Pd, 31-O ) :   0.6523 B(  0-Pd, 33-O ) :   0.1173 B(  1-O ,  2-C ) :   1.4074
B(  1-O ,  3-O ) :   0.1032 B(  2-C ,  3-O ) :   1.4916 B(  2-C ,  4-C ) :   0.9583
B(  4-C ,  5-H ) :   0.9104 B(  4-C ,  6-H ) :   0.9003 B(  4-C ,  7-H ) :   0.9066
B(  8-N ,  9-C ) :   0.9166 B(  8-N , 13-C ) :   0.9229 B(  8-N , 28-C ) :   0.8944
B(  9-C , 10-H ) :   0.8914 B(  9-C , 11-H ) :   0.9027 B(  9-C , 12-H ) :   0.8976
B( 13-C , 14-H ) :   0.8916 B( 13-C , 15-H ) :   0.9041 B( 13-C , 16-H ) :   0.9008
B( 17-C , 18-C ) :   1.4120 B( 17-C , 22-C ) :   1.3845 B( 17-C , 28-C ) :   0.9425
B( 18-C , 19-C ) :   1.4286 B( 18-C , 25-H ) :   0.9055 B( 19-C , 20-C ) :   1.4280
B( 19-C , 26-H ) :   0.9160 B( 20-C , 21-C ) :   1.4170 B( 20-C , 23-H ) :   0.9174
B( 21-C , 22-C ) :   1.4437 B( 21-C , 24-H ) :   0.9178 B( 22-C , 27-H ) :   0.9234
B( 28-C , 29-H ) :   0.9013 B( 28-C , 30-H ) :   0.9092 B( 31-O , 32-C ) :   1.2350
B( 32-C , 33-O ) :   1.8758 B( 32-C , 34-C ) :   0.9362 B( 34-C , 35-H ) :   0.9167
B( 34-C , 36-H ) :   0.9105 B( 34-C , 37-H ) :   0.9200

Dispersion correction           -0.026130304
FINAL SINGLE POINT ENERGY      -988.559870005944
Dispersion correction            ... done

DIPOLE MOMENT
-------------
                                X             Y             Z
Electronic contribution:     29.96139      27.32964     -28.99251
Nuclear contribution   :    -31.62354     -27.56184      29.81803
                        -----------------------------------------
Total Dipole Moment    :     -1.66214      -0.23219       0.82551
                        -----------------------------------------
Magnitude (a.u.)       :      1.87032
Magnitude (Debye)      :      4.75399

Rotational constants in cm-1:     0.013933     0.008329     0.007165
Rotational constants in MHz :   417.702341   249.687453   214.807223

                             ****ORCA TERMINATED NORMALLY****
TOTAL RUN TIME: 0 days 0 hours 12 minutes 25 seconds 598 msec
