                         Program Version 5.0.3 -  RELEASE  -
|  1> ! EnGrad PBEh-3c
|  2> %output
|  3> xyzfile=True
|  4> end
|  5> %scf
|  6> maxiter 250
|  7> end
|  8> %output
|  9> Print[P_Hirshfeld] = 1
| 10> end
| 11> % maxcore
| 12> 4000
| 13> *xyz 0 1
| 14> Pd   0.66617443   0.54772871  -0.57964712
| 15> O    2.29220175   1.52872771   0.06297159
| 16> C    1.64066586   2.59953173   0.23311653
| 17> O    0.39196805   2.54655745   0.06954626
| 18> C    2.38768064   3.85702336   0.54555621
| 19> H    1.76451004   4.60671561   1.02503214
| 20> H    2.77320668   4.27422100  -0.38681626
| 21> H    3.24912488   3.63203642   1.17141824
| 22> N   -1.20112223  -0.24113028  -1.13507865
| 23> C   -1.19163414  -0.97026803  -2.42023687
| 24> H   -0.84059856  -0.32961412  -3.22562419
| 25> H   -2.20430892  -1.32229271  -2.65234047
| 26> H   -0.53437686  -1.83214379  -2.35379146
| 27> C   -2.14224266   0.88186512  -1.26742238
| 28> H   -2.18119532   1.46119480  -0.34787270
| 29> H   -3.14731536   0.50187693  -1.49163724
| 30> H   -1.83298094   1.53820906  -2.08145747
| 31> C   -1.43785799  -0.87469512   1.34100921
| 32> C   -0.47168064  -1.64654004   1.99468350
| 33> C   -0.34667025  -1.60001282   3.37991798
| 34> C   -1.25706190  -0.84963815   4.12146542
| 35> C   -2.18296733  -0.04039647   3.46769161
| 36> C   -2.27318224  -0.03360849   2.08525882
| 37> H   -1.28538421  -0.96406499   5.20661173
| 38> H   -2.85193329   0.56454490   4.06504470
| 39> H    0.15507419  -2.34229339   1.42522550
| 40> H    0.39435805  -2.22865667   3.87384351
| 41> H   -3.02495772   0.56519641   1.60225835
| 42> C   -1.69118489  -1.19561461  -0.10464474
| 43> H   -2.77325218  -1.33328413  -0.25393866
| 44> H   -1.20187184  -2.14969573  -0.32214511
| 45> O    1.63662635  -1.06748193  -1.16909418
| 46> C    2.21803052  -0.82860132  -2.31022430
| 47> O    1.86490398   0.03621475  -3.09029835
| 48> C    3.42368839  -1.69690152  -2.59554133
| 49> H    3.22667044  -2.75138938  -2.40675843
| 50> H    4.24399452  -1.40320516  -1.93707440
| 51> H    3.74340822  -1.56152971  -3.62641880
| 52> *
| 53>
| 54>                          ****END OF INPUT****

CARTESIAN COORDINATES (ANGSTROEM)
---------------------------------
  Pd     0.666174    0.547729   -0.579647
  O      2.292202    1.528728    0.062972
  C      1.640666    2.599532    0.233117
  O      0.391968    2.546557    0.069546
  C      2.387681    3.857023    0.545556
  H      1.764510    4.606716    1.025032
  H      2.773207    4.274221   -0.386816
  H      3.249125    3.632036    1.171418
  N     -1.201122   -0.241130   -1.135079
  C     -1.191634   -0.970268   -2.420237
  H     -0.840599   -0.329614   -3.225624
  H     -2.204309   -1.322293   -2.652340
  H     -0.534377   -1.832144   -2.353791
  C     -2.142243    0.881865   -1.267422
  H     -2.181195    1.461195   -0.347873
  H     -3.147315    0.501877   -1.491637
  H     -1.832981    1.538209   -2.081457
  C     -1.437858   -0.874695    1.341009
  C     -0.471681   -1.646540    1.994684
  C     -0.346670   -1.600013    3.379918
  C     -1.257062   -0.849638    4.121465
  C     -2.182967   -0.040396    3.467692
  C     -2.273182   -0.033608    2.085259
  H     -1.285384   -0.964065    5.206612
  H     -2.851933    0.564545    4.065045
  H      0.155074   -2.342293    1.425226
  H      0.394358   -2.228657    3.873844
  H     -3.024958    0.565196    1.602258
  C     -1.691185   -1.195615   -0.104645
  H     -2.773252   -1.333284   -0.253939
  H     -1.201872   -2.149696   -0.322145
  O      1.636626   -1.067482   -1.169094
  C      2.218031   -0.828601   -2.310224
  O      1.864904    0.036215   -3.090298
  C      3.423688   -1.696902   -2.595541
  H      3.226670   -2.751389   -2.406758
  H      4.243995   -1.403205   -1.937074
  H      3.743408   -1.561530   -3.626419

 Total Charge           Charge          ....    0
 Multiplicity           Mult            ....    1
 Number of Electrons    NEL             ....  154
 Basis Dimension        Dim             ....  339

ORBITAL ENERGIES
----------------

  NO   OCC          E(Eh)            E(eV)
   0   2.0000     -19.499857      -530.6181
   1   2.0000     -19.497557      -530.5555
   2   2.0000     -19.473244      -529.8939
   3   2.0000     -19.432245      -528.7783
   4   2.0000     -14.719341      -400.5336
   5   2.0000     -10.572297      -287.6868
   6   2.0000     -10.530924      -286.5610
   7   2.0000     -10.497199      -285.6433
   8   2.0000     -10.483444      -285.2690
   9   2.0000     -10.474770      -285.0330
  10   2.0000     -10.471240      -284.9369
  11   2.0000     -10.461538      -284.6729
  12   2.0000     -10.459140      -284.6077
  13   2.0000     -10.459039      -284.6049
  14   2.0000     -10.458071      -284.5786
  15   2.0000     -10.457565      -284.5648
  16   2.0000     -10.442408      -284.1524
  17   2.0000     -10.413548      -283.3671
  18   2.0000      -3.655688       -99.4763
  19   2.0000      -2.304650       -62.7127
  20   2.0000      -2.300642       -62.6037
  21   2.0000      -2.263990       -61.6063
  22   2.0000      -1.206049       -32.8183
  23   2.0000      -1.149887       -31.2900
  24   2.0000      -1.087099       -29.5815
  25   2.0000      -1.075905       -29.2769
  26   2.0000      -1.051536       -28.6138
  27   2.0000      -0.968938       -26.3661
  28   2.0000      -0.878060       -23.8932
  29   2.0000      -0.848698       -23.0943
  30   2.0000      -0.834486       -22.7075
  31   2.0000      -0.819823       -22.3085
  32   2.0000      -0.796613       -21.6769
  33   2.0000      -0.794961       -21.6320
  34   2.0000      -0.716591       -19.4994
  35   2.0000      -0.694755       -18.9053
  36   2.0000      -0.670788       -18.2531
  37   2.0000      -0.616595       -16.7784
  38   2.0000      -0.599815       -16.3218
  39   2.0000      -0.588133       -16.0039
  40   2.0000      -0.575767       -15.6674
  41   2.0000      -0.566090       -15.4041
  42   2.0000      -0.556768       -15.1504
  43   2.0000      -0.549486       -14.9523
  44   2.0000      -0.548489       -14.9251
  45   2.0000      -0.530060       -14.4237
  46   2.0000      -0.526618       -14.3300
  47   2.0000      -0.521772       -14.1981
  48   2.0000      -0.509379       -13.8609
  49   2.0000      -0.496145       -13.5008
  50   2.0000      -0.493599       -13.4315
  51   2.0000      -0.489308       -13.3147
  52   2.0000      -0.484248       -13.1771
  53   2.0000      -0.473898       -12.8954
  54   2.0000      -0.460750       -12.5377
  55   2.0000      -0.457863       -12.4591
  56   2.0000      -0.448497       -12.2042
  57   2.0000      -0.444698       -12.1009
  58   2.0000      -0.439200       -11.9512
  59   2.0000      -0.431510       -11.7420
  60   2.0000      -0.431241       -11.7347
  61   2.0000      -0.416881       -11.3439
  62   2.0000      -0.413313       -11.2468
  63   2.0000      -0.405189       -11.0258
  64   2.0000      -0.401204       -10.9173
  65   2.0000      -0.390996       -10.6396
  66   2.0000      -0.371985       -10.1222
  67   2.0000      -0.363159        -9.8820
  68   2.0000      -0.351447        -9.5634
  69   2.0000      -0.339285        -9.2324
  70   2.0000      -0.319734        -8.7004
  71   2.0000      -0.313611        -8.5338
  72   2.0000      -0.308225        -8.3872
  73   2.0000      -0.302654        -8.2356
  74   2.0000      -0.295948        -8.0531
  75   2.0000      -0.294326        -8.0090
  76   2.0000      -0.268437        -7.3045
  77   0.0000      -0.034552        -0.9402
  78   0.0000      -0.002536        -0.0690
  79   0.0000       0.007885         0.2146
  80   0.0000       0.045649         1.2422
  81   0.0000       0.073310         1.9949

MULLIKEN ATOMIC CHARGES
-----------------------
   0 Pd:    0.534007
   1 O :   -0.487698
   2 C :    0.677313
   3 O :   -0.506852
   4 C :   -0.771588
   5 H :    0.251532
   6 H :    0.264167
   7 H :    0.259739
   8 N :   -0.488968
   9 C :   -0.531583
  10 H :    0.291403
  11 H :    0.218274
  12 H :    0.274642
  13 C :   -0.530630
  14 H :    0.281126
  15 H :    0.220251
  16 H :    0.278201
  17 C :    0.113542
  18 C :   -0.256444
  19 C :   -0.211120
  20 C :   -0.224925
  21 C :   -0.212422
  22 C :   -0.260953
  23 H :    0.225337
  24 H :    0.223856
  25 H :    0.247154
  26 H :    0.227327
  27 H :    0.214076
  28 C :   -0.353366
  29 H :    0.237535
  30 H :    0.266041
  31 O :   -0.560478
  32 C :    0.570897
  33 O :   -0.450976
  34 C :   -0.742940
  35 H :    0.228180
  36 H :    0.247143
  37 H :    0.239199
Sum of atomic charges:   -0.0000000

LOEWDIN ATOMIC CHARGES
----------------------
   0 Pd:   -0.308278
   1 O :   -0.139566
   2 C :    0.192985
   3 O :   -0.179824
   4 C :   -0.376186
   5 H :    0.151397
   6 H :    0.166383
   7 H :    0.158786
   8 N :   -0.048486
   9 C :   -0.233541
  10 H :    0.162082
  11 H :    0.118809
  12 H :    0.153036
  13 C :   -0.232924
  14 H :    0.156567
  15 H :    0.121423
  16 H :    0.156584
  17 C :   -0.052609
  18 C :   -0.102744
  19 C :   -0.124726
  20 C :   -0.127838
  21 C :   -0.128426
  22 C :   -0.121343
  23 H :    0.139231
  24 H :    0.138593
  25 H :    0.155462
  26 H :    0.141050
  27 H :    0.137992
  28 C :   -0.104867
  29 H :    0.133068
  30 H :    0.154406
  31 O :   -0.200448
  32 C :    0.133876
  33 O :   -0.244584
  34 C :   -0.381533
  35 H :    0.140371
  36 H :    0.153804
  37 H :    0.142020

  Mayer bond orders larger than 0.100000
B(  0-Pd,  1-O ) :   0.5732 B(  0-Pd,  3-O ) :   0.4904 B(  0-Pd,  8-N ) :   0.4190
B(  0-Pd, 31-O ) :   0.6500 B(  0-Pd, 33-O ) :   0.1176 B(  1-O ,  2-C ) :   1.4084
B(  1-O ,  3-O ) :   0.1032 B(  2-C ,  3-O ) :   1.4887 B(  2-C ,  4-C ) :   0.9592
B(  4-C ,  5-H ) :   0.9105 B(  4-C ,  6-H ) :   0.9001 B(  4-C ,  7-H ) :   0.9063
B(  8-N ,  9-C ) :   0.9156 B(  8-N , 13-C ) :   0.9223 B(  8-N , 28-C ) :   0.8919
B(  9-C , 10-H ) :   0.8909 B(  9-C , 11-H ) :   0.9027 B(  9-C , 12-H ) :   0.8970
B( 13-C , 14-H ) :   0.8916 B( 13-C , 15-H ) :   0.9041 B( 13-C , 16-H ) :   0.9006
B( 17-C , 18-C ) :   1.4091 B( 17-C , 22-C ) :   1.3865 B( 17-C , 28-C ) :   0.9421
B( 18-C , 19-C ) :   1.4280 B( 18-C , 25-H ) :   0.9050 B( 19-C , 20-C ) :   1.4245
B( 19-C , 26-H ) :   0.9165 B( 20-C , 21-C ) :   1.4176 B( 20-C , 23-H ) :   0.9174
B( 21-C , 22-C ) :   1.4418 B( 21-C , 24-H ) :   0.9180 B( 22-C , 27-H ) :   0.9227
B( 28-C , 29-H ) :   0.9015 B( 28-C , 30-H ) :   0.9096 B( 31-O , 32-C ) :   1.2357
B( 32-C , 33-O ) :   1.8734 B( 32-C , 34-C ) :   0.9368 B( 34-C , 35-H ) :   0.9166
B( 34-C , 36-H ) :   0.9103 B( 34-C , 37-H ) :   0.9201

Dispersion correction           -0.026137985
FINAL SINGLE POINT ENERGY      -988.559820271785
Dispersion correction            ... done

DIPOLE MOMENT
-------------
                                X             Y             Z
Electronic contribution:     29.73357      27.16785     -29.03071
Nuclear contribution   :    -31.40692     -27.40035      29.87030
                        -----------------------------------------
Total Dipole Moment    :     -1.67335      -0.23249       0.83959
                        -----------------------------------------
Magnitude (a.u.)       :      1.88655
Magnitude (Debye)      :      4.79523

Rotational constants in cm-1:     0.013970     0.008331     0.007169
Rotational constants in MHz :   418.814632   249.749471   214.928477

                             ****ORCA TERMINATED NORMALLY****
TOTAL RUN TIME: 0 days 0 hours 12 minutes 38 seconds 140 msec
