                         Program Version 5.0.3 -  RELEASE  -
|  1> ! EnGrad PBEh-3c
|  2> %output
|  3> xyzfile=True
|  4> end
|  5> %scf
|  6> maxiter 250
|  7> end
|  8> %output
|  9> Print[P_Hirshfeld] = 1
| 10> end
| 11> % maxcore
| 12> 4000
| 13> *xyz 0 1
| 14> Pd   0.74229964   0.66385683  -0.57829521
| 15> O    2.37088137   1.69942610   0.14973123
| 16> C    1.70399974   2.77505861   0.19244881
| 17> O    0.47831065   2.70967233  -0.08979954
| 18> C    2.36648660   4.07822925   0.50934766
| 19> H    1.67376796   4.74976773   1.00981303
| 20> H    2.68025697   4.54920185  -0.42392573
| 21> H    3.25209051   3.93345874   1.12154266
| 22> N   -1.13239680  -0.12520900  -1.11507560
| 23> C   -1.21577277  -0.56067924  -2.51988296
| 24> H   -0.93239538   0.25047433  -3.18394004
| 25> H   -2.23777070  -0.87183077  -2.76859733
| 26> H   -0.56109231  -1.39988060  -2.70990854
| 27> C   -2.08866286   0.97941536  -0.95906603
| 28> H   -2.06096353   1.39060661   0.04121749
| 29> H   -3.10501836   0.64035503  -1.18281876
| 30> H   -1.84025243   1.78265216  -1.64943087
| 31> C   -1.40315574  -1.03250521   1.22401660
| 32> C   -0.26418933  -1.46795639   1.91288951
| 33> C   -0.17492772  -1.39139376   3.29138854
| 34> C   -1.22860685  -0.88396670   4.02354929
| 35> C   -2.40648529  -0.54304512   3.37284638
| 36> C   -2.52044792  -0.53425089   1.97123125
| 37> H   -1.16285205  -0.83325252   5.10354807
| 38> H   -3.25368812  -0.26450124   3.98257492
| 39> H    0.55649999  -1.92327041   1.37702960
| 40> H    0.71584393  -1.73925741   3.79739128
| 41> H   -3.70135827  -0.21946309   1.50751309
| 42> C   -1.50572953  -1.27811924  -0.25218923
| 43> H   -2.54086430  -1.56382715  -0.47226154
| 44> H   -0.87477718  -2.12073906  -0.55130429
| 45> O    1.64657717  -1.04059188  -1.02188289
| 46> C    2.25148166  -0.98813536  -2.18051096
| 47> O    2.08364655  -0.11988824  -3.00686292
| 48> C    3.22681800  -2.11576612  -2.43779405
| 49> H    2.80414346  -3.08023275  -2.17339321
| 50> H    4.11826255  -1.97124896  -1.82959501
| 51> H    3.53957251  -2.13366550  -3.48202836
| 52> *
| 53>
| 54>                          ****END OF INPUT****

CARTESIAN COORDINATES (ANGSTROEM)
---------------------------------
  Pd     0.742300    0.663857   -0.578295
  O      2.370881    1.699426    0.149731
  C      1.704000    2.775059    0.192449
  O      0.478311    2.709672   -0.089800
  C      2.366487    4.078229    0.509348
  H      1.673768    4.749768    1.009813
  H      2.680257    4.549202   -0.423926
  H      3.252091    3.933459    1.121543
  N     -1.132397   -0.125209   -1.115076
  C     -1.215773   -0.560679   -2.519883
  H     -0.932395    0.250474   -3.183940
  H     -2.237771   -0.871831   -2.768597
  H     -0.561092   -1.399881   -2.709909
  C     -2.088663    0.979415   -0.959066
  H     -2.060964    1.390607    0.041217
  H     -3.105018    0.640355   -1.182819
  H     -1.840252    1.782652   -1.649431
  C     -1.403156   -1.032505    1.224017
  C     -0.264189   -1.467956    1.912890
  C     -0.174928   -1.391394    3.291389
  C     -1.228607   -0.883967    4.023549
  C     -2.406485   -0.543045    3.372846
  C     -2.520448   -0.534251    1.971231
  H     -1.162852   -0.833253    5.103548
  H     -3.253688   -0.264501    3.982575
  H      0.556500   -1.923270    1.377030
  H      0.715844   -1.739257    3.797391
  H     -3.701358   -0.219463    1.507513
  C     -1.505730   -1.278119   -0.252189
  H     -2.540864   -1.563827   -0.472262
  H     -0.874777   -2.120739   -0.551304
  O      1.646577   -1.040592   -1.021883
  C      2.251482   -0.988135   -2.180511
  O      2.083647   -0.119888   -3.006863
  C      3.226818   -2.115766   -2.437794
  H      2.804143   -3.080233   -2.173393
  H      4.118263   -1.971249   -1.829595
  H      3.539573   -2.133665   -3.482028

 Total Charge           Charge          ....    0
 Multiplicity           Mult            ....    1
 Number of Electrons    NEL             ....  154
 Basis Dimension        Dim             ....  339

ORBITAL ENERGIES
----------------

  NO   OCC          E(Eh)            E(eV)
   0   2.0000     -19.497356      -530.5500
   1   2.0000     -19.496277      -530.5207
   2   2.0000     -19.476786      -529.9903
   3   2.0000     -19.433578      -528.8145
   4   2.0000     -14.722865      -400.6295
   5   2.0000     -10.570601      -287.6407
   6   2.0000     -10.532336      -286.5994
   7   2.0000     -10.497085      -285.6402
   8   2.0000     -10.490127      -285.4509
   9   2.0000     -10.480088      -285.1777
  10   2.0000     -10.479022      -285.1487
  11   2.0000     -10.478137      -285.1246
  12   2.0000     -10.460305      -284.6394
  13   2.0000     -10.457241      -284.5560
  14   2.0000     -10.457155      -284.5537
  15   2.0000     -10.454581      -284.4836
  16   2.0000     -10.441448      -284.1262
  17   2.0000     -10.415224      -283.4126
  18   2.0000      -3.658379       -99.5495
  19   2.0000      -2.306491       -62.7628
  20   2.0000      -2.303273       -62.6752
  21   2.0000      -2.266839       -61.6838
  22   2.0000      -1.202235       -32.7145
  23   2.0000      -1.151516       -31.3343
  24   2.0000      -1.084068       -29.4990
  25   2.0000      -1.078402       -29.3448
  26   2.0000      -1.054434       -28.6926
  27   2.0000      -0.966662       -26.3042
  28   2.0000      -0.879555       -23.9339
  29   2.0000      -0.843764       -22.9600
  30   2.0000      -0.833463       -22.6797
  31   2.0000      -0.820314       -22.3219
  32   2.0000      -0.798651       -21.7324
  33   2.0000      -0.798165       -21.7192
  34   2.0000      -0.718230       -19.5440
  35   2.0000      -0.687734       -18.7142
  36   2.0000      -0.668794       -18.1988
  37   2.0000      -0.614185       -16.7128
  38   2.0000      -0.594353       -16.1732
  39   2.0000      -0.590719       -16.0743
  40   2.0000      -0.578396       -15.7390
  41   2.0000      -0.570064       -15.5122
  42   2.0000      -0.553998       -15.0751
  43   2.0000      -0.546249       -14.8642
  44   2.0000      -0.545189       -14.8353
  45   2.0000      -0.529696       -14.4138
  46   2.0000      -0.527396       -14.3512
  47   2.0000      -0.515128       -14.0173
  48   2.0000      -0.510550       -13.8928
  49   2.0000      -0.496426       -13.5084
  50   2.0000      -0.490473       -13.3464
  51   2.0000      -0.486184       -13.2298
  52   2.0000      -0.482072       -13.1179
  53   2.0000      -0.468054       -12.7364
  54   2.0000      -0.459967       -12.5163
  55   2.0000      -0.458787       -12.4842
  56   2.0000      -0.448168       -12.1953
  57   2.0000      -0.445926       -12.1343
  58   2.0000      -0.442825       -12.0499
  59   2.0000      -0.433011       -11.7828
  60   2.0000      -0.427757       -11.6399
  61   2.0000      -0.418916       -11.3993
  62   2.0000      -0.410619       -11.1735
  63   2.0000      -0.402231       -10.9453
  64   2.0000      -0.399163       -10.8618
  65   2.0000      -0.392019       -10.6674
  66   2.0000      -0.371879       -10.1194
  67   2.0000      -0.364564        -9.9203
  68   2.0000      -0.350928        -9.5492
  69   2.0000      -0.341486        -9.2923
  70   2.0000      -0.321170        -8.7395
  71   2.0000      -0.314627        -8.5614
  72   2.0000      -0.309859        -8.4317
  73   2.0000      -0.303198        -8.2504
  74   2.0000      -0.299553        -8.1513
  75   2.0000      -0.295713        -8.0468
  76   2.0000      -0.272542        -7.4162
  77   0.0000      -0.042216        -1.1488
  78   0.0000      -0.005551        -0.1510
  79   0.0000       0.007129         0.1940
  80   0.0000       0.046610         1.2683
  81   0.0000       0.070478         1.9178

MULLIKEN ATOMIC CHARGES
-----------------------
   0 Pd:    0.527735
   1 O :   -0.483442
   2 C :    0.670087
   3 O :   -0.507826
   4 C :   -0.769054
   5 H :    0.252059
   6 H :    0.262242
   7 H :    0.258142
   8 N :   -0.490444
   9 C :   -0.522222
  10 H :    0.283342
  11 H :    0.219952
  12 H :    0.274572
  13 C :   -0.536754
  14 H :    0.297443
  15 H :    0.219474
  16 H :    0.279242
  17 C :    0.076161
  18 C :   -0.246679
  19 C :   -0.213129
  20 C :   -0.212533
  21 C :   -0.207499
  22 C :   -0.271245
  23 H :    0.226974
  24 H :    0.226113
  25 H :    0.271849
  26 H :    0.231589
  27 H :    0.194148
  28 C :   -0.355817
  29 H :    0.239382
  30 H :    0.283940
  31 O :   -0.566149
  32 C :    0.559919
  33 O :   -0.440051
  34 C :   -0.745092
  35 H :    0.226517
  36 H :    0.246033
  37 H :    0.241022
Sum of atomic charges:    0.0000000

LOEWDIN ATOMIC CHARGES
----------------------
   0 Pd:   -0.291486
   1 O :   -0.150586
   2 C :    0.188322
   3 O :   -0.182791
   4 C :   -0.376373
   5 H :    0.153613
   6 H :    0.165364
   7 H :    0.155820
   8 N :   -0.042574
   9 C :   -0.229524
  10 H :    0.158989
  11 H :    0.119916
  12 H :    0.152638
  13 C :   -0.234462
  14 H :    0.162920
  15 H :    0.121246
  16 H :    0.157069
  17 C :   -0.056458
  18 C :   -0.101574
  19 C :   -0.123420
  20 C :   -0.129506
  21 C :   -0.136421
  22 C :   -0.121984
  23 H :    0.139790
  24 H :    0.137292
  25 H :    0.167007
  26 H :    0.141908
  27 H :    0.135242
  28 C :   -0.108124
  29 H :    0.132465
  30 H :    0.160643
  31 O :   -0.207339
  32 C :    0.128817
  33 O :   -0.237165
  34 C :   -0.383258
  35 H :    0.138871
  36 H :    0.152389
  37 H :    0.142723

  Mayer bond orders larger than 0.100000
B(  0-Pd,  1-O ) :   0.5542 B(  0-Pd,  3-O ) :   0.4957 B(  0-Pd,  8-N ) :   0.4280
B(  0-Pd, 31-O ) :   0.6418 B(  0-Pd, 33-O ) :   0.1089 B(  1-O ,  2-C ) :   1.4384
B(  1-O ,  3-O ) :   0.1029 B(  2-C ,  3-O ) :   1.4751 B(  2-C ,  4-C ) :   0.9578
B(  4-C ,  5-H ) :   0.9097 B(  4-C ,  6-H ) :   0.9015 B(  4-C ,  7-H ) :   0.9080
B(  8-N ,  9-C ) :   0.9202 B(  8-N , 13-C ) :   0.9177 B(  8-N , 28-C ) :   0.8914
B(  9-C , 10-H ) :   0.8977 B(  9-C , 11-H ) :   0.9021 B(  9-C , 12-H ) :   0.8998
B( 13-C , 14-H ) :   0.8840 B( 13-C , 15-H ) :   0.9054 B( 13-C , 16-H ) :   0.8976
B( 17-C , 18-C ) :   1.4220 B( 17-C , 22-C ) :   1.3591 B( 17-C , 28-C ) :   0.9490
B( 18-C , 19-C ) :   1.4215 B( 18-C , 25-H ) :   0.8907 B( 19-C , 20-C ) :   1.4280
B( 19-C , 26-H ) :   0.9143 B( 20-C , 21-C ) :   1.4201 B( 20-C , 23-H ) :   0.9161
B( 21-C , 22-C ) :   1.4338 B( 21-C , 24-H ) :   0.9156 B( 22-C , 27-H ) :   0.9246
B( 28-C , 29-H ) :   0.9031 B( 28-C , 30-H ) :   0.8960 B( 31-O , 32-C ) :   1.2312
B( 32-C , 33-O ) :   1.8945 B( 32-C , 34-C ) :   0.9387 B( 34-C , 35-H ) :   0.9169
B( 34-C , 36-H ) :   0.9111 B( 34-C , 37-H ) :   0.9199

Dispersion correction           -0.026161868
FINAL SINGLE POINT ENERGY      -988.539938704946
Dispersion correction            ... done

DIPOLE MOMENT
-------------
                                X             Y             Z
Electronic contribution:     33.11155      33.21430     -29.11471
Nuclear contribution   :    -34.92640     -33.43066      29.90586
                        -----------------------------------------
Total Dipole Moment    :     -1.81485      -0.21636       0.79116
                        -----------------------------------------
Magnitude (a.u.)       :      1.99159
Magnitude (Debye)      :      5.06222

Rotational constants in cm-1:     0.013263     0.008390     0.007134
Rotational constants in MHz :   397.611808   251.524411   213.873656

                             ****ORCA TERMINATED NORMALLY****
TOTAL RUN TIME: 0 days 0 hours 14 minutes 8 seconds 256 msec
