                         Program Version 5.0.3 -  RELEASE  -
|  1> ! EnGrad PBEh-3c
|  2> %output
|  3> xyzfile=True
|  4> end
|  5> %scf
|  6> maxiter 250
|  7> end
|  8> %output
|  9> Print[P_Hirshfeld] = 1
| 10> end
| 11> % maxcore
| 12> 4000
| 13> *xyz 0 1
| 14> Pd   0.66365219   0.54432547  -0.57868169
| 15> O    2.29646321   1.52703427   0.05719378
| 16> C    1.64215146   2.59432426   0.23313063
| 17> O    0.39243719   2.53911941   0.07471325
| 18> C    2.38399932   3.85479394   0.54661609
| 19> H    1.76187847   4.60501704   1.02604385
| 20> H    2.77144276   4.26991679  -0.38475440
| 21> H    3.24436126   3.62858041   1.17140874
| 22> N   -1.20209569  -0.24238178  -1.13282923
| 23> C   -1.18946345  -0.97293596  -2.41845930
| 24> H   -0.83815761  -0.33592054  -3.22639388
| 25> H   -2.20103110  -1.32634003  -2.65199788
| 26> H   -0.53282262  -1.83531403  -2.35113887
| 27> C   -2.14134272   0.88273267  -1.26883563
| 28> H   -2.18264815   1.46700497  -0.35237284
| 29> H   -3.14653782   0.50574916  -1.49549230
| 30> H   -1.83270581   1.53659337  -2.08462946
| 31> C   -1.43556446  -0.87927326   1.34292104
| 32> C   -0.47166239  -1.65028437   1.99499417
| 33> C   -0.35282680  -1.61003260   3.38406825
| 34> C   -1.26699163  -0.85586820   4.12619418
| 35> C   -2.18241166  -0.03637704   3.47719193
| 36> C   -2.26218799  -0.03366778   2.09322298
| 37> H   -1.27189830  -0.94369153   5.20989310
| 38> H   -2.85588543   0.57965491   4.06307648
| 39> H    0.15761759  -2.33621411   1.41882348
| 40> H    0.38636468  -2.23673245   3.87240032
| 41> H   -3.01505752   0.57173009   1.60396333
| 42> C   -1.69670277  -1.19759451  -0.10415047
| 43> H   -2.77746970  -1.33445833  -0.26285361
| 44> H   -1.20810837  -2.15010461  -0.32096303
| 45> O    1.63159216  -1.07054602  -1.17341999
| 46> C    2.21529643  -0.82716528  -2.31469691
| 47> O    1.86622854   0.03669367  -3.09148677
| 48> C    3.42541332  -1.69300584  -2.59873334
| 49> H    3.23172883  -2.74641346  -2.40815737
| 50> H    4.24236016  -1.39753604  -1.93809645
| 51> H    3.74777219  -1.55875828  -3.62887291
| 52> *
| 53>
| 54>                          ****END OF INPUT****

CARTESIAN COORDINATES (ANGSTROEM)
---------------------------------
  Pd     0.663652    0.544325   -0.578682
  O      2.296463    1.527034    0.057194
  C      1.642151    2.594324    0.233131
  O      0.392437    2.539119    0.074713
  C      2.383999    3.854794    0.546616
  H      1.761878    4.605017    1.026044
  H      2.771443    4.269917   -0.384754
  H      3.244361    3.628580    1.171409
  N     -1.202096   -0.242382   -1.132829
  C     -1.189463   -0.972936   -2.418459
  H     -0.838158   -0.335921   -3.226394
  H     -2.201031   -1.326340   -2.651998
  H     -0.532823   -1.835314   -2.351139
  C     -2.141343    0.882733   -1.268836
  H     -2.182648    1.467005   -0.352373
  H     -3.146538    0.505749   -1.495492
  H     -1.832706    1.536593   -2.084629
  C     -1.435564   -0.879273    1.342921
  C     -0.471662   -1.650284    1.994994
  C     -0.352827   -1.610033    3.384068
  C     -1.266992   -0.855868    4.126194
  C     -2.182412   -0.036377    3.477192
  C     -2.262188   -0.033668    2.093223
  H     -1.271898   -0.943692    5.209893
  H     -2.855885    0.579655    4.063076
  H      0.157618   -2.336214    1.418823
  H      0.386365   -2.236732    3.872400
  H     -3.015058    0.571730    1.603963
  C     -1.696703   -1.197595   -0.104150
  H     -2.777470   -1.334458   -0.262854
  H     -1.208108   -2.150105   -0.320963
  O      1.631592   -1.070546   -1.173420
  C      2.215296   -0.827165   -2.314697
  O      1.866229    0.036694   -3.091487
  C      3.425413   -1.693006   -2.598733
  H      3.231729   -2.746413   -2.408157
  H      4.242360   -1.397536   -1.938096
  H      3.747772   -1.558758   -3.628873

 Total Charge           Charge          ....    0
 Multiplicity           Mult            ....    1
 Number of Electrons    NEL             ....  154
 Basis Dimension        Dim             ....  339

ORBITAL ENERGIES
----------------

  NO   OCC          E(Eh)            E(eV)
   0   2.0000     -19.499769      -530.6157
   1   2.0000     -19.497377      -530.5506
   2   2.0000     -19.472939      -529.8856
   3   2.0000     -19.432855      -528.7949
   4   2.0000     -14.719807      -400.5463
   5   2.0000     -10.572139      -287.6825
   6   2.0000     -10.530874      -286.5597
   7   2.0000     -10.497626      -285.6549
   8   2.0000     -10.483506      -285.2707
   9   2.0000     -10.474946      -285.0378
  10   2.0000     -10.471095      -284.9330
  11   2.0000     -10.461900      -284.6828
  12   2.0000     -10.459211      -284.6096
  13   2.0000     -10.459061      -284.6055
  14   2.0000     -10.458324      -284.5855
  15   2.0000     -10.457880      -284.5734
  16   2.0000     -10.441998      -284.1412
  17   2.0000     -10.413168      -283.3567
  18   2.0000      -3.655705       -99.4768
  19   2.0000      -2.304625       -62.7120
  20   2.0000      -2.300653       -62.6040
  21   2.0000      -2.264040       -61.6077
  22   2.0000      -1.205908       -32.8144
  23   2.0000      -1.150636       -31.3104
  24   2.0000      -1.087083       -29.5810
  25   2.0000      -1.075670       -29.2705
  26   2.0000      -1.052442       -28.6384
  27   2.0000      -0.968523       -26.3548
  28   2.0000      -0.877953       -23.8903
  29   2.0000      -0.847843       -23.0710
  30   2.0000      -0.834465       -22.7069
  31   2.0000      -0.819939       -22.3117
  32   2.0000      -0.796419       -21.6717
  33   2.0000      -0.794946       -21.6316
  34   2.0000      -0.716764       -19.5041
  35   2.0000      -0.694479       -18.8977
  36   2.0000      -0.671196       -18.2642
  37   2.0000      -0.616423       -16.7737
  38   2.0000      -0.599775       -16.3207
  39   2.0000      -0.587879       -15.9970
  40   2.0000      -0.575647       -15.6641
  41   2.0000      -0.566038       -15.4027
  42   2.0000      -0.556772       -15.1505
  43   2.0000      -0.549431       -14.9508
  44   2.0000      -0.548285       -14.9196
  45   2.0000      -0.529995       -14.4219
  46   2.0000      -0.526284       -14.3209
  47   2.0000      -0.521900       -14.2016
  48   2.0000      -0.509661       -13.8686
  49   2.0000      -0.496224       -13.5029
  50   2.0000      -0.493168       -13.4198
  51   2.0000      -0.489319       -13.3151
  52   2.0000      -0.484595       -13.1865
  53   2.0000      -0.473671       -12.8892
  54   2.0000      -0.460855       -12.5405
  55   2.0000      -0.458118       -12.4660
  56   2.0000      -0.448418       -12.2021
  57   2.0000      -0.444808       -12.1038
  58   2.0000      -0.439564       -11.9611
  59   2.0000      -0.431786       -11.7495
  60   2.0000      -0.430859       -11.7243
  61   2.0000      -0.416741       -11.3401
  62   2.0000      -0.413414       -11.2496
  63   2.0000      -0.405407       -11.0317
  64   2.0000      -0.401375       -10.9220
  65   2.0000      -0.391269       -10.6470
  66   2.0000      -0.371839       -10.1183
  67   2.0000      -0.363615        -9.8945
  68   2.0000      -0.351708        -9.5705
  69   2.0000      -0.339090        -9.2271
  70   2.0000      -0.319984        -8.7072
  71   2.0000      -0.313812        -8.5393
  72   2.0000      -0.308335        -8.3902
  73   2.0000      -0.301779        -8.2118
  74   2.0000      -0.296162        -8.0590
  75   2.0000      -0.294729        -8.0200
  76   2.0000      -0.268882        -7.3166
  77   0.0000      -0.034465        -0.9378
  78   0.0000      -0.002540        -0.0691
  79   0.0000       0.007935         0.2159
  80   0.0000       0.045928         1.2498
  81   0.0000       0.073321         1.9952

MULLIKEN ATOMIC CHARGES
-----------------------
   0 Pd:    0.532691
   1 O :   -0.486904
   2 C :    0.677169
   3 O :   -0.507644
   4 C :   -0.771655
   5 H :    0.251696
   6 H :    0.264173
   7 H :    0.259637
   8 N :   -0.489732
   9 C :   -0.532768
  10 H :    0.291702
  11 H :    0.218501
  12 H :    0.275349
  13 C :   -0.531020
  14 H :    0.281497
  15 H :    0.220441
  16 H :    0.278386
  17 C :    0.118028
  18 C :   -0.260262
  19 C :   -0.209898
  20 C :   -0.229142
  21 C :   -0.206990
  22 C :   -0.265223
  23 H :    0.225352
  24 H :    0.224260
  25 H :    0.247951
  26 H :    0.227744
  27 H :    0.212481
  28 C :   -0.352458
  29 H :    0.238457
  30 H :    0.266358
  31 O :   -0.562211
  32 C :    0.569740
  33 O :   -0.446769
  34 C :   -0.743183
  35 H :    0.228250
  36 H :    0.247248
  37 H :    0.238748
Sum of atomic charges:    0.0000000

LOEWDIN ATOMIC CHARGES
----------------------
   0 Pd:   -0.309226
   1 O :   -0.139855
   2 C :    0.192749
   3 O :   -0.179979
   4 C :   -0.376341
   5 H :    0.151379
   6 H :    0.166291
   7 H :    0.158692
   8 N :   -0.047997
   9 C :   -0.233715
  10 H :    0.162087
  11 H :    0.118807
  12 H :    0.153281
  13 C :   -0.233063
  14 H :    0.156751
  15 H :    0.121406
  16 H :    0.156549
  17 C :   -0.053603
  18 C :   -0.102452
  19 C :   -0.125105
  20 C :   -0.126910
  21 C :   -0.129404
  22 C :   -0.119834
  23 H :    0.138839
  24 H :    0.139196
  25 H :    0.155450
  26 H :    0.141257
  27 H :    0.137273
  28 C :   -0.104337
  29 H :    0.133360
  30 H :    0.154497
  31 O :   -0.202441
  32 C :    0.132914
  33 O :   -0.240124
  34 C :   -0.382013
  35 H :    0.140131
  36 H :    0.153742
  37 H :    0.141746

  Mayer bond orders larger than 0.100000
B(  0-Pd,  1-O ) :   0.5710 B(  0-Pd,  3-O ) :   0.4922 B(  0-Pd,  8-N ) :   0.4204
B(  0-Pd, 31-O ) :   0.6513 B(  0-Pd, 33-O ) :   0.1167 B(  1-O ,  2-C ) :   1.4112
B(  1-O ,  3-O ) :   0.1032 B(  2-C ,  3-O ) :   1.4860 B(  2-C ,  4-C ) :   0.9595
B(  4-C ,  5-H ) :   0.9107 B(  4-C ,  6-H ) :   0.9001 B(  4-C ,  7-H ) :   0.9062
B(  8-N ,  9-C ) :   0.9152 B(  8-N , 13-C ) :   0.9219 B(  8-N , 28-C ) :   0.8915
B(  9-C , 10-H ) :   0.8908 B(  9-C , 11-H ) :   0.9027 B(  9-C , 12-H ) :   0.8965
B( 13-C , 14-H ) :   0.8916 B( 13-C , 15-H ) :   0.9041 B( 13-C , 16-H ) :   0.9004
B( 17-C , 18-C ) :   1.4083 B( 17-C , 22-C ) :   1.3863 B( 17-C , 28-C ) :   0.9427
B( 18-C , 19-C ) :   1.4280 B( 18-C , 25-H ) :   0.9045 B( 19-C , 20-C ) :   1.4233
B( 19-C , 26-H ) :   0.9166 B( 20-C , 21-C ) :   1.4182 B( 20-C , 23-H ) :   0.9176
B( 21-C , 22-C ) :   1.4394 B( 21-C , 24-H ) :   0.9179 B( 22-C , 27-H ) :   0.9231
B( 28-C , 29-H ) :   0.9010 B( 28-C , 30-H ) :   0.9094 B( 31-O , 32-C ) :   1.2318
B( 32-C , 33-O ) :   1.8791 B( 32-C , 34-C ) :   0.9364 B( 34-C , 35-H ) :   0.9166
B( 34-C , 36-H ) :   0.9103 B( 34-C , 37-H ) :   0.9203

Dispersion correction           -0.026132348
FINAL SINGLE POINT ENERGY      -988.560433394655
Dispersion correction            ... done

DIPOLE MOMENT
-------------
                                X             Y             Z
Electronic contribution:     29.60349      27.03435     -28.99443
Nuclear contribution   :    -31.27828     -27.25425      29.82256
                        -----------------------------------------
Total Dipole Moment    :     -1.67479      -0.21990       0.82812
                        -----------------------------------------
Magnitude (a.u.)       :      1.88124
Magnitude (Debye)      :      4.78173

Rotational constants in cm-1:     0.013985     0.008322     0.007162
Rotational constants in MHz :   419.255248   249.474365   214.702983

                             ****ORCA TERMINATED NORMALLY****
TOTAL RUN TIME: 0 days 0 hours 12 minutes 33 seconds 923 msec
