                         Program Version 5.0.3 -  RELEASE  -
|  1> ! EnGrad PBEh-3c
|  2> %output
|  3> xyzfile=True
|  4> end
|  5> %scf
|  6> maxiter 250
|  7> end
|  8> %output
|  9> Print[P_Hirshfeld] = 1
| 10> end
| 11> % maxcore
| 12> 4000
| 13> *xyz 0 1
| 14> Pd   0.76053513   0.66824841  -0.57106942
| 15> O    2.36552907   1.68140194   0.15025829
| 16> C    1.69320256   2.76651333   0.19290614
| 17> O    0.47041911   2.70691855  -0.08797827
| 18> C    2.37155172   4.07284028   0.51328875
| 19> H    1.68138071   4.74772275   1.01149138
| 20> H    2.68641746   4.54044739  -0.42179974
| 21> H    3.25661172   3.92356908   1.12525278
| 22> N   -1.14241977  -0.12702461  -1.12892204
| 23> C   -1.21480675  -0.58341606  -2.52484923
| 24> H   -0.93164603   0.22505387  -3.18785622
| 25> H   -2.24087069  -0.88981248  -2.76189082
| 26> H   -0.55992211  -1.42300777  -2.70034517
| 27> C   -2.09422633   0.97888976  -0.97134348
| 28> H   -2.06232737   1.39233420   0.02570310
| 29> H   -3.10716615   0.63324099  -1.19421441
| 30> H   -1.83685548   1.76759025  -1.67224826
| 31> C   -1.42671710  -1.02475724   1.23419383
| 32> C   -0.27421790  -1.47733597   1.91750867
| 33> C   -0.17451814  -1.38934943   3.29547950
| 34> C   -1.23025649  -0.89606161   4.02447729
| 35> C   -2.40619766  -0.51226352   3.36903735
| 36> C   -2.61664989  -0.51276821   1.95578310
| 37> H   -1.16138272  -0.82945933   5.10602391
| 38> H   -3.25221362  -0.25717907   3.98356839
| 39> H    0.54169413  -1.93851165   1.37378756
| 40> H    0.70820692  -1.75663625   3.79823943
| 41> H   -3.55524297  -0.17710200   1.56604836
| 42> C   -1.51706650  -1.27206251  -0.24390787
| 43> H   -2.55135269  -1.55654362  -0.46621188
| 44> H   -0.89012843  -2.12354886  -0.53835322
| 45> O    1.64788151  -1.04342927  -1.02577779
| 46> C    2.25210959  -0.97914985  -2.19062875
| 47> O    2.07033326  -0.10562048  -3.01176772
| 48> C    3.23994761  -2.10405849  -2.44068079
| 49> H    2.82433089  -3.07019198  -2.18285903
| 50> H    4.12767845  -1.94898570  -1.83412156
| 51> H    3.54681706  -2.10827485  -3.48794054
| 52> *
| 53>
| 54>                          ****END OF INPUT****

CARTESIAN COORDINATES (ANGSTROEM)
---------------------------------
  Pd     0.760535    0.668248   -0.571069
  O      2.365529    1.681402    0.150258
  C      1.693203    2.766513    0.192906
  O      0.470419    2.706919   -0.087978
  C      2.371552    4.072840    0.513289
  H      1.681381    4.747723    1.011491
  H      2.686417    4.540447   -0.421800
  H      3.256612    3.923569    1.125253
  N     -1.142420   -0.127025   -1.128922
  C     -1.214807   -0.583416   -2.524849
  H     -0.931646    0.225054   -3.187856
  H     -2.240871   -0.889812   -2.761891
  H     -0.559922   -1.423008   -2.700345
  C     -2.094226    0.978890   -0.971343
  H     -2.062327    1.392334    0.025703
  H     -3.107166    0.633241   -1.194214
  H     -1.836855    1.767590   -1.672248
  C     -1.426717   -1.024757    1.234194
  C     -0.274218   -1.477336    1.917509
  C     -0.174518   -1.389349    3.295479
  C     -1.230256   -0.896062    4.024477
  C     -2.406198   -0.512264    3.369037
  C     -2.616650   -0.512768    1.955783
  H     -1.161383   -0.829459    5.106024
  H     -3.252214   -0.257179    3.983568
  H      0.541694   -1.938512    1.373788
  H      0.708207   -1.756636    3.798239
  H     -3.555243   -0.177102    1.566048
  C     -1.517067   -1.272063   -0.243908
  H     -2.551353   -1.556544   -0.466212
  H     -0.890128   -2.123549   -0.538353
  O      1.647882   -1.043429   -1.025778
  C      2.252110   -0.979150   -2.190629
  O      2.070333   -0.105620   -3.011768
  C      3.239948   -2.104058   -2.440681
  H      2.824331   -3.070192   -2.182859
  H      4.127678   -1.948986   -1.834122
  H      3.546817   -2.108275   -3.487941

 Total Charge           Charge          ....    0
 Multiplicity           Mult            ....    1
 Number of Electrons    NEL             ....  154
 Basis Dimension        Dim             ....  339

ORBITAL ENERGIES
----------------

  NO   OCC          E(Eh)            E(eV)
   0   2.0000     -19.501154      -530.6534
   1   2.0000     -19.500543      -530.6367
   2   2.0000     -19.475584      -529.9576
   3   2.0000     -19.434960      -528.8522
   4   2.0000     -14.718528      -400.5115
   5   2.0000     -10.574923      -287.7583
   6   2.0000     -10.533332      -286.6265
   7   2.0000     -10.494146      -285.5602
   8   2.0000     -10.483029      -285.2577
   9   2.0000     -10.479074      -285.1501
  10   2.0000     -10.476648      -285.0841
  11   2.0000     -10.475918      -285.0642
  12   2.0000     -10.461827      -284.6808
  13   2.0000     -10.458034      -284.5776
  14   2.0000     -10.457288      -284.5573
  15   2.0000     -10.454654      -284.4856
  16   2.0000     -10.443707      -284.1877
  17   2.0000     -10.415464      -283.4192
  18   2.0000      -3.657269       -99.5193
  19   2.0000      -2.305775       -62.7433
  20   2.0000      -2.301998       -62.6406
  21   2.0000      -2.265680       -61.6523
  22   2.0000      -1.204080       -32.7647
  23   2.0000      -1.149173       -31.2706
  24   2.0000      -1.087082       -29.5810
  25   2.0000      -1.074116       -29.2282
  26   2.0000      -1.052439       -28.6383
  27   2.0000      -0.959163       -26.1002
  28   2.0000      -0.874925       -23.8079
  29   2.0000      -0.845378       -23.0039
  30   2.0000      -0.833134       -22.6707
  31   2.0000      -0.819629       -22.3032
  32   2.0000      -0.798316       -21.7233
  33   2.0000      -0.793854       -21.6019
  34   2.0000      -0.715832       -19.4788
  35   2.0000      -0.693329       -18.8664
  36   2.0000      -0.664810       -18.0904
  37   2.0000      -0.616547       -16.7771
  38   2.0000      -0.596934       -16.2434
  39   2.0000      -0.589436       -16.0394
  40   2.0000      -0.575461       -15.6591
  41   2.0000      -0.566790       -15.4231
  42   2.0000      -0.559206       -15.2168
  43   2.0000      -0.548666       -14.9300
  44   2.0000      -0.548105       -14.9147
  45   2.0000      -0.529118       -14.3980
  46   2.0000      -0.527759       -14.3611
  47   2.0000      -0.520804       -14.1718
  48   2.0000      -0.510537       -13.8924
  49   2.0000      -0.495729       -13.4895
  50   2.0000      -0.493471       -13.4280
  51   2.0000      -0.489039       -13.3074
  52   2.0000      -0.481557       -13.1038
  53   2.0000      -0.469413       -12.7734
  54   2.0000      -0.461247       -12.5512
  55   2.0000      -0.458440       -12.4748
  56   2.0000      -0.450134       -12.2488
  57   2.0000      -0.446153       -12.1404
  58   2.0000      -0.443135       -12.0583
  59   2.0000      -0.432919       -11.7803
  60   2.0000      -0.423857       -11.5337
  61   2.0000      -0.418938       -11.3999
  62   2.0000      -0.412003       -11.2112
  63   2.0000      -0.407491       -11.0884
  64   2.0000      -0.393903       -10.7186
  65   2.0000      -0.391380       -10.6500
  66   2.0000      -0.373591       -10.1659
  67   2.0000      -0.364306        -9.9133
  68   2.0000      -0.350512        -9.5379
  69   2.0000      -0.342978        -9.3329
  70   2.0000      -0.319626        -8.6975
  71   2.0000      -0.313654        -8.5350
  72   2.0000      -0.309183        -8.4133
  73   2.0000      -0.301236        -8.1971
  74   2.0000      -0.298610        -8.1256
  75   2.0000      -0.292912        -7.9706
  76   2.0000      -0.271911        -7.3991
  77   0.0000      -0.040049        -1.0898
  78   0.0000      -0.009823        -0.2673
  79   0.0000       0.005932         0.1614
  80   0.0000       0.043756         1.1907
  81   0.0000       0.070054         1.9063

MULLIKEN ATOMIC CHARGES
-----------------------
   0 Pd:    0.526926
   1 O :   -0.491485
   2 C :    0.672426
   3 O :   -0.500970
   4 C :   -0.767419
   5 H :    0.252232
   6 H :    0.262384
   7 H :    0.259262
   8 N :   -0.483887
   9 C :   -0.517401
  10 H :    0.280848
  11 H :    0.216468
  12 H :    0.273799
  13 C :   -0.533568
  14 H :    0.293730
  15 H :    0.216825
  16 H :    0.276959
  17 C :    0.034638
  18 C :   -0.235645
  19 C :   -0.212112
  20 C :   -0.203564
  21 C :   -0.228882
  22 C :   -0.253088
  23 H :    0.227014
  24 H :    0.217591
  25 H :    0.273355
  26 H :    0.230928
  27 H :    0.232841
  28 C :   -0.358791
  29 H :    0.234831
  30 H :    0.280750
  31 O :   -0.567735
  32 C :    0.559740
  33 O :   -0.440088
  34 C :   -0.743979
  35 H :    0.228627
  36 H :    0.247042
  37 H :    0.239396
Sum of atomic charges:   -0.0000000

LOEWDIN ATOMIC CHARGES
----------------------
   0 Pd:   -0.293450
   1 O :   -0.151798
   2 C :    0.197753
   3 O :   -0.174564
   4 C :   -0.376637
   5 H :    0.153408
   6 H :    0.165195
   7 H :    0.156147
   8 N :   -0.049419
   9 C :   -0.229468
  10 H :    0.157640
  11 H :    0.118454
  12 H :    0.152560
  13 C :   -0.234905
  14 H :    0.161510
  15 H :    0.119694
  16 H :    0.156061
  17 C :   -0.042887
  18 C :   -0.106711
  19 C :   -0.120235
  20 C :   -0.134374
  21 C :   -0.126433
  22 C :   -0.137799
  23 H :    0.140611
  24 H :    0.132773
  25 H :    0.167925
  26 H :    0.141634
  27 H :    0.145432
  28 C :   -0.112937
  29 H :    0.129459
  30 H :    0.158814
  31 O :   -0.211566
  32 C :    0.134604
  33 O :   -0.237459
  34 C :   -0.383777
  35 H :    0.139728
  36 H :    0.152631
  37 H :    0.142388

  Mayer bond orders larger than 0.100000
B(  0-Pd,  1-O ) :   0.5697 B(  0-Pd,  3-O ) :   0.4900 B(  0-Pd,  8-N ) :   0.4174
B(  0-Pd, 31-O ) :   0.6447 B(  0-Pd, 33-O ) :   0.1084 B(  1-O ,  2-C ) :   1.4132
B(  1-O ,  3-O ) :   0.1038 B(  2-C ,  3-O ) :   1.4869 B(  2-C ,  4-C ) :   0.9570
B(  4-C ,  5-H ) :   0.9093 B(  4-C ,  6-H ) :   0.9014 B(  4-C ,  7-H ) :   0.9076
B(  8-N ,  9-C ) :   0.9225 B(  8-N , 13-C ) :   0.9215 B(  8-N , 28-C ) :   0.8899
B(  9-C , 10-H ) :   0.8987 B(  9-C , 11-H ) :   0.9033 B(  9-C , 12-H ) :   0.9003
B( 13-C , 14-H ) :   0.8856 B( 13-C , 15-H ) :   0.9058 B( 13-C , 16-H ) :   0.8995
B( 17-C , 18-C ) :   1.4336 B( 17-C , 22-C ) :   1.3538 B( 17-C , 28-C ) :   0.9520
B( 18-C , 19-C ) :   1.4095 B( 18-C , 25-H ) :   0.8908 B( 19-C , 20-C ) :   1.4367
B( 19-C , 22-C ) :   0.1001 B( 19-C , 26-H ) :   0.9136 B( 20-C , 21-C ) :   1.4074
B( 20-C , 23-H ) :   0.9169 B( 21-C , 22-C ) :   1.4563 B( 21-C , 24-H ) :   0.9188
B( 22-C , 27-H ) :   0.9144 B( 28-C , 29-H ) :   0.9043 B( 28-C , 30-H ) :   0.8972
B( 31-O , 32-C ) :   1.2263 B( 32-C , 33-O ) :   1.8946 B( 32-C , 34-C ) :   0.9380
B( 34-C , 35-H ) :   0.9164 B( 34-C , 36-H ) :   0.9110 B( 34-C , 37-H ) :   0.9202

Dispersion correction           -0.026083662
FINAL SINGLE POINT ENERGY      -988.551836034173
Dispersion correction            ... done

DIPOLE MOMENT
-------------
                                X             Y             Z
Electronic contribution:     34.23833      33.51941     -28.70046
Nuclear contribution   :    -36.00842     -33.66072      29.49277
                        -----------------------------------------
Total Dipole Moment    :     -1.77009      -0.14131       0.79231
                        -----------------------------------------
Magnitude (a.u.)       :      1.94447
Magnitude (Debye)      :      4.94244

Rotational constants in cm-1:     0.013254     0.008351     0.007115
Rotational constants in MHz :   397.356317   250.371338   213.311237

                             ****ORCA TERMINATED NORMALLY****
TOTAL RUN TIME: 0 days 0 hours 13 minutes 38 seconds 972 msec
