                         Program Version 5.0.3 -  RELEASE  -
|  1> ! EnGrad PBEh-3c
|  2> %output
|  3> xyzfile=True
|  4> end
|  5> %scf
|  6> maxiter 250
|  7> end
|  8> %output
|  9> Print[P_Hirshfeld] = 1
| 10> end
| 11> % maxcore
| 12> 4000
| 13> *xyz 0 1
| 14> Pd   0.78480153   0.66940073  -0.56223224
| 15> O    2.35153059   1.65785902   0.15066516
| 16> C    1.68293036   2.75033580   0.19671148
| 17> O    0.45625662   2.69677933  -0.08358647
| 18> C    2.37774421   4.05507431   0.51830287
| 19> H    1.69610052   4.74407300   1.01514207
| 20> H    2.69837939   4.52274126  -0.41723927
| 21> H    3.26510107   3.90305938   1.13260319
| 22> N   -1.15449060  -0.13339985  -1.14461988
| 23> C   -1.21725845  -0.62535904  -2.53133596
| 24> H   -0.92866016   0.17570312  -3.19840735
| 25> H   -2.24642952  -0.92627728  -2.75019277
| 26> H   -0.55512020  -1.47057223  -2.68081104
| 27> C   -2.10341348   0.97470135  -1.00023141
| 28> H   -2.06548730   1.39649569  -0.00172645
| 29> H   -3.11392669   0.61995799  -1.21675798
| 30> H   -1.83173879   1.74047128  -1.71762604
| 31> C   -1.49587218  -1.00572790   1.25868540
| 32> C   -0.31531383  -1.48538431   1.92020802
| 33> C   -0.17509272  -1.39029227   3.29989794
| 34> C   -1.24828120  -0.90977438   4.01863638
| 35> C   -2.42133784  -0.45642134   3.34575556
| 36> C   -2.62660568  -0.51497877   1.99678191
| 37> H   -1.16183360  -0.82323817   5.10738891
| 38> H   -3.25162645  -0.23525021   3.99138702
| 39> H    0.50789847  -1.96538238   1.36518293
| 40> H    0.69552581  -1.78997752   3.80061834
| 41> H   -3.35886387  -0.07207956   1.63802570
| 42> C   -1.53866945  -1.26009162  -0.23249094
| 43> H   -2.57289400  -1.54236347  -0.45775959
| 44> H   -0.92107729  -2.12517926  -0.51090526
| 45> O    1.65394551  -1.04739948  -1.03937746
| 46> C    2.24951210  -0.95799779  -2.20844583
| 47> O    2.04573959  -0.08356835  -3.01598300
| 48> C    3.26265836  -2.07436129  -2.45173973
| 49> H    2.86321382  -3.05298545  -2.20015222
| 50> H    4.14790451  -1.90488365  -1.84091191
| 51> H    3.56096036  -2.05878785  -3.49806272
| 52> *
| 53>
| 54>                          ****END OF INPUT****

CARTESIAN COORDINATES (ANGSTROEM)
---------------------------------
  Pd     0.784802    0.669401   -0.562232
  O      2.351531    1.657859    0.150665
  C      1.682930    2.750336    0.196711
  O      0.456257    2.696779   -0.083586
  C      2.377744    4.055074    0.518303
  H      1.696101    4.744073    1.015142
  H      2.698379    4.522741   -0.417239
  H      3.265101    3.903059    1.132603
  N     -1.154491   -0.133400   -1.144620
  C     -1.217258   -0.625359   -2.531336
  H     -0.928660    0.175703   -3.198407
  H     -2.246430   -0.926277   -2.750193
  H     -0.555120   -1.470572   -2.680811
  C     -2.103413    0.974701   -1.000231
  H     -2.065487    1.396496   -0.001726
  H     -3.113927    0.619958   -1.216758
  H     -1.831739    1.740471   -1.717626
  C     -1.495872   -1.005728    1.258685
  C     -0.315314   -1.485384    1.920208
  C     -0.175093   -1.390292    3.299898
  C     -1.248281   -0.909774    4.018636
  C     -2.421338   -0.456421    3.345756
  C     -2.626606   -0.514979    1.996782
  H     -1.161834   -0.823238    5.107389
  H     -3.251626   -0.235250    3.991387
  H      0.507898   -1.965382    1.365183
  H      0.695526   -1.789978    3.800618
  H     -3.358864   -0.072080    1.638026
  C     -1.538669   -1.260092   -0.232491
  H     -2.572894   -1.542363   -0.457760
  H     -0.921077   -2.125179   -0.510905
  O      1.653946   -1.047399   -1.039377
  C      2.249512   -0.957998   -2.208446
  O      2.045740   -0.083568   -3.015983
  C      3.262658   -2.074361   -2.451740
  H      2.863214   -3.052985   -2.200152
  H      4.147905   -1.904884   -1.840912
  H      3.560960   -2.058788   -3.498063

 Total Charge           Charge          ....    0
 Multiplicity           Mult            ....    1
 Number of Electrons    NEL             ....  154
 Basis Dimension        Dim             ....  339

ORBITAL ENERGIES
----------------

  NO   OCC          E(Eh)            E(eV)
   0   2.0000     -19.506458      -530.7977
   1   2.0000     -19.505897      -530.7824
   2   2.0000     -19.473677      -529.9057
   3   2.0000     -19.436865      -528.9040
   4   2.0000     -14.714042      -400.3894
   5   2.0000     -10.580570      -287.9119
   6   2.0000     -10.533541      -286.6322
   7   2.0000     -10.493023      -285.5297
   8   2.0000     -10.479233      -285.1544
   9   2.0000     -10.478438      -285.1328
  10   2.0000     -10.474764      -285.0328
  11   2.0000     -10.460560      -284.6463
  12   2.0000     -10.459169      -284.6085
  13   2.0000     -10.456832      -284.5449
  14   2.0000     -10.454810      -284.4898
  15   2.0000     -10.451616      -284.4029
  16   2.0000     -10.447807      -284.2993
  17   2.0000     -10.415850      -283.4297
  18   2.0000      -3.656747       -99.5051
  19   2.0000      -2.305886       -62.7464
  20   2.0000      -2.301297       -62.6215
  21   2.0000      -2.265095       -61.6364
  22   2.0000      -1.207731       -32.8640
  23   2.0000      -1.150750       -31.3135
  24   2.0000      -1.091769       -29.7085
  25   2.0000      -1.069427       -29.1006
  26   2.0000      -1.053178       -28.6584
  27   2.0000      -0.963249       -26.2113
  28   2.0000      -0.871468       -23.7138
  29   2.0000      -0.856945       -23.3186
  30   2.0000      -0.834306       -22.7026
  31   2.0000      -0.817964       -22.2579
  32   2.0000      -0.796216       -21.6661
  33   2.0000      -0.790447       -21.5091
  34   2.0000      -0.714490       -19.4423
  35   2.0000      -0.697513       -18.9803
  36   2.0000      -0.667689       -18.1688
  37   2.0000      -0.620977       -16.8976
  38   2.0000      -0.601404       -16.3650
  39   2.0000      -0.588524       -16.0146
  40   2.0000      -0.572568       -15.5804
  41   2.0000      -0.564902       -15.3718
  42   2.0000      -0.559266       -15.2184
  43   2.0000      -0.553098       -15.0506
  44   2.0000      -0.552514       -15.0347
  45   2.0000      -0.531754       -14.4698
  46   2.0000      -0.529192       -14.4000
  47   2.0000      -0.524054       -14.2602
  48   2.0000      -0.509970       -13.8770
  49   2.0000      -0.498115       -13.5544
  50   2.0000      -0.495659       -13.4876
  51   2.0000      -0.489527       -13.3207
  52   2.0000      -0.476565       -12.9680
  53   2.0000      -0.469470       -12.7749
  54   2.0000      -0.463115       -12.6020
  55   2.0000      -0.453557       -12.3419
  56   2.0000      -0.452218       -12.3055
  57   2.0000      -0.446525       -12.1506
  58   2.0000      -0.440946       -11.9987
  59   2.0000      -0.433294       -11.7905
  60   2.0000      -0.426795       -11.6137
  61   2.0000      -0.419107       -11.4045
  62   2.0000      -0.411383       -11.1943
  63   2.0000      -0.404646       -11.0110
  64   2.0000      -0.396906       -10.8004
  65   2.0000      -0.393234       -10.7004
  66   2.0000      -0.377940       -10.2843
  67   2.0000      -0.364485        -9.9182
  68   2.0000      -0.350146        -9.5280
  69   2.0000      -0.344048        -9.3620
  70   2.0000      -0.318563        -8.6685
  71   2.0000      -0.313201        -8.5226
  72   2.0000      -0.310908        -8.4602
  73   2.0000      -0.305545        -8.3143
  74   2.0000      -0.298993        -8.1360
  75   2.0000      -0.289350        -7.8736
  76   2.0000      -0.271719        -7.3938
  77   0.0000      -0.037555        -1.0219
  78   0.0000      -0.007626        -0.2075
  79   0.0000       0.006519         0.1774
  80   0.0000       0.038919         1.0590
  81   0.0000       0.068756         1.8709

MULLIKEN ATOMIC CHARGES
-----------------------
   0 Pd:    0.528914
   1 O :   -0.496992
   2 C :    0.678150
   3 O :   -0.499000
   4 C :   -0.768391
   5 H :    0.253254
   6 H :    0.263498
   7 H :    0.260242
   8 N :   -0.476780
   9 C :   -0.512766
  10 H :    0.278357
  11 H :    0.214893
  12 H :    0.271117
  13 C :   -0.527030
  14 H :    0.285751
  15 H :    0.216050
  16 H :    0.273235
  17 C :    0.018099
  18 C :   -0.253706
  19 C :   -0.193753
  20 C :   -0.227273
  21 C :   -0.238302
  22 C :   -0.193826
  23 H :    0.225281
  24 H :    0.214951
  25 H :    0.272653
  26 H :    0.230908
  27 H :    0.229962
  28 C :   -0.361521
  29 H :    0.230291
  30 H :    0.279048
  31 O :   -0.567327
  32 C :    0.557106
  33 O :   -0.434793
  34 C :   -0.743327
  35 H :    0.229128
  36 H :    0.246316
  37 H :    0.237584
Sum of atomic charges:    0.0000000

LOEWDIN ATOMIC CHARGES
----------------------
   0 Pd:   -0.294761
   1 O :   -0.144453
   2 C :    0.207790
   3 O :   -0.171706
   4 C :   -0.376637
   5 H :    0.153809
   6 H :    0.165644
   7 H :    0.156846
   8 N :   -0.058502
   9 C :   -0.229255
  10 H :    0.156503
  11 H :    0.117876
  12 H :    0.152580
  13 C :   -0.234642
  14 H :    0.159403
  15 H :    0.119089
  16 H :    0.154584
  17 C :   -0.041763
  18 C :   -0.102309
  19 C :   -0.125059
  20 C :   -0.128927
  21 C :   -0.122877
  22 C :   -0.138426
  23 H :    0.138405
  24 H :    0.134445
  25 H :    0.166927
  26 H :    0.142109
  27 H :    0.134240
  28 C :   -0.114063
  29 H :    0.126939
  30 H :    0.158212
  31 O :   -0.213830
  32 C :    0.133982
  33 O :   -0.230776
  34 C :   -0.385041
  35 H :    0.140205
  36 H :    0.152312
  37 H :    0.141128

  Mayer bond orders larger than 0.100000
B(  0-Pd,  1-O ) :   0.5836 B(  0-Pd,  3-O ) :   0.4893 B(  0-Pd,  8-N ) :   0.4026
B(  0-Pd, 31-O ) :   0.6480 B(  0-Pd, 33-O ) :   0.1081 B(  1-O ,  2-C ) :   1.3944
B(  1-O ,  3-O ) :   0.1046 B(  2-C ,  3-O ) :   1.4884 B(  2-C ,  4-C ) :   0.9563
B(  4-C ,  5-H ) :   0.9086 B(  4-C ,  6-H ) :   0.9005 B(  4-C ,  7-H ) :   0.9070
B(  8-N ,  9-C ) :   0.9235 B(  8-N , 13-C ) :   0.9252 B(  8-N , 28-C ) :   0.8927
B(  9-C , 10-H ) :   0.8998 B(  9-C , 11-H ) :   0.9037 B(  9-C , 12-H ) :   0.9015
B( 13-C , 14-H ) :   0.8902 B( 13-C , 15-H ) :   0.9053 B( 13-C , 16-H ) :   0.9020
B( 17-C , 18-C ) :   1.4235 B( 17-C , 22-C ) :   1.3751 B( 17-C , 28-C ) :   0.9554
B( 18-C , 19-C ) :   1.4046 B( 18-C , 25-H ) :   0.8917 B( 19-C , 20-C ) :   1.4496
B( 19-C , 26-H ) :   0.9136 B( 20-C , 21-C ) :   1.3883 B( 20-C , 23-H ) :   0.9175
B( 21-C , 22-C ) :   1.4850 B( 21-C , 24-H ) :   0.9204 B( 22-C , 27-H ) :   0.9110
B( 28-C , 29-H ) :   0.9049 B( 28-C , 30-H ) :   0.8982 B( 31-O , 32-C ) :   1.2235
B( 32-C , 33-O ) :   1.9012 B( 32-C , 34-C ) :   0.9344 B( 34-C , 35-H ) :   0.9170
B( 34-C , 36-H ) :   0.9118 B( 34-C , 37-H ) :   0.9199

Dispersion correction           -0.026040025
FINAL SINGLE POINT ENERGY      -988.527583114908
Dispersion correction            ... done

DIPOLE MOMENT
-------------
                                X             Y             Z
Electronic contribution:     35.83498      33.69731     -28.18922
Nuclear contribution   :    -37.45522     -33.73001      28.99255
                        -----------------------------------------
Total Dipole Moment    :     -1.62024      -0.03270       0.80333
                        -----------------------------------------
Magnitude (a.u.)       :      1.80875
Magnitude (Debye)      :      4.59748

Rotational constants in cm-1:     0.013306     0.008314     0.007093
Rotational constants in MHz :   398.911483   249.241302   212.656849

                             ****ORCA TERMINATED NORMALLY****
TOTAL RUN TIME: 0 days 0 hours 17 minutes 42 seconds 977 msec
