                         Program Version 5.0.3 -  RELEASE  -
|  1> ! EnGrad PBEh-3c
|  2> %output
|  3> xyzfile=True
|  4> end
|  5> %scf
|  6> maxiter 250
|  7> end
|  8> %output
|  9> Print[P_Hirshfeld] = 1
| 10> end
| 11> % maxcore
| 12> 4000
| 13> *xyz 0 1
| 14> Pd   0.76752003   0.66858010  -0.56852571
| 15> O    2.36149971   1.67462529   0.15037540
| 16> C    1.69024579   2.76185675   0.19400148
| 17> O    0.46634254   2.70400005  -0.08671412
| 18> C    2.37333419   4.06772648   0.51473203
| 19> H    1.68561770   4.74667220   1.01254220
| 20> H    2.68986061   4.53535081  -0.42048704
| 21> H    3.25905532   3.91766552   1.12736854
| 22> N   -1.14589426  -0.12885968  -1.13344055
| 23> C   -1.21551245  -0.59548904  -2.52671638
| 24> H   -0.93078657   0.21084862  -3.19089328
| 25> H   -2.24247076  -0.90030860  -2.75852362
| 26> H   -0.55853991  -1.43669885  -2.69472242
| 27> C   -2.09687078   0.97768416  -0.97965865
| 28> H   -2.06323694   1.39353206   0.01780771
| 29> H   -3.10911212   0.62941758  -1.20070341
| 30> H   -1.83538268   1.75978426  -1.68530991
| 31> C   -1.44662288  -1.01927979   1.24124355
| 32> C   -0.28604705  -1.47965262   1.91828566
| 33> C   -0.17468353  -1.38962082   3.29675132
| 34> C   -1.23544477  -0.90000873   4.02279603
| 35> C   -2.41055565  -0.49618977   3.36233586
| 36> C   -2.61951559  -0.51340450   1.96758430
| 37> H   -1.16151250  -0.82766862   5.10641681
| 38> H   -3.25204461  -0.25086701   3.98581893
| 39> H    0.53196630  -1.94624619   1.37131078
| 40> H    0.70455676  -1.76623329   3.79892418
| 41> H   -3.49871671  -0.14687207   1.58676650
| 42> C   -1.52328475  -1.26861678  -0.24062159
| 43> H   -2.55755320  -1.55246197  -0.46377895
| 44> H   -0.89903683  -2.12401816  -0.53045253
| 45> O    1.64962699  -1.04457207  -1.02969235
| 46> C    2.25136192  -0.97306139  -2.19575727
| 47> O    2.06325415  -0.09927294  -3.01298105
| 48> C    3.24648473  -2.09551038  -2.44386402
| 49> H    2.83552305  -3.06523921  -2.18783675
| 50> H    4.13350037  -1.93629125  -1.83607611
| 51> H    3.55088810  -2.09403039  -3.49085413
| 52> *
| 53>
| 54>                          ****END OF INPUT****

CARTESIAN COORDINATES (ANGSTROEM)
---------------------------------
  Pd     0.767520    0.668580   -0.568526
  O      2.361500    1.674625    0.150375
  C      1.690246    2.761857    0.194001
  O      0.466343    2.704000   -0.086714
  C      2.373334    4.067726    0.514732
  H      1.685618    4.746672    1.012542
  H      2.689861    4.535351   -0.420487
  H      3.259055    3.917666    1.127369
  N     -1.145894   -0.128860   -1.133441
  C     -1.215512   -0.595489   -2.526716
  H     -0.930787    0.210849   -3.190893
  H     -2.242471   -0.900309   -2.758524
  H     -0.558540   -1.436699   -2.694722
  C     -2.096871    0.977684   -0.979659
  H     -2.063237    1.393532    0.017808
  H     -3.109112    0.629418   -1.200703
  H     -1.835383    1.759784   -1.685310
  C     -1.446623   -1.019280    1.241244
  C     -0.286047   -1.479653    1.918286
  C     -0.174684   -1.389621    3.296751
  C     -1.235445   -0.900009    4.022796
  C     -2.410556   -0.496190    3.362336
  C     -2.619516   -0.513405    1.967584
  H     -1.161512   -0.827669    5.106417
  H     -3.252045   -0.250867    3.985819
  H      0.531966   -1.946246    1.371311
  H      0.704557   -1.766233    3.798924
  H     -3.498717   -0.146872    1.586766
  C     -1.523285   -1.268617   -0.240622
  H     -2.557553   -1.552462   -0.463779
  H     -0.899037   -2.124018   -0.530453
  O      1.649627   -1.044572   -1.029692
  C      2.251362   -0.973061   -2.195757
  O      2.063254   -0.099273   -3.012981
  C      3.246485   -2.095510   -2.443864
  H      2.835523   -3.065239   -2.187837
  H      4.133500   -1.936291   -1.836076
  H      3.550888   -2.094030   -3.490854

 Total Charge           Charge          ....    0
 Multiplicity           Mult            ....    1
 Number of Electrons    NEL             ....  154
 Basis Dimension        Dim             ....  339

ORBITAL ENERGIES
----------------

  NO   OCC          E(Eh)            E(eV)
   0   2.0000     -19.502519      -530.6905
   1   2.0000     -19.502238      -530.6829
   2   2.0000     -19.475027      -529.9424
   3   2.0000     -19.435483      -528.8664
   4   2.0000     -14.717232      -400.4762
   5   2.0000     -10.576539      -287.8023
   6   2.0000     -10.533359      -286.6273
   7   2.0000     -10.493773      -285.5501
   8   2.0000     -10.481822      -285.2249
   9   2.0000     -10.478906      -285.1455
  10   2.0000     -10.475566      -285.0547
  11   2.0000     -10.469246      -284.8827
  12   2.0000     -10.460288      -284.6389
  13   2.0000     -10.458660      -284.5946
  14   2.0000     -10.457741      -284.5696
  15   2.0000     -10.454559      -284.4830
  16   2.0000     -10.444878      -284.2196
  17   2.0000     -10.415541      -283.4213
  18   2.0000      -3.657073       -99.5140
  19   2.0000      -2.305746       -62.7425
  20   2.0000      -2.301749       -62.6338
  21   2.0000      -2.265466       -61.6465
  22   2.0000      -1.205109       -32.7927
  23   2.0000      -1.149623       -31.2828
  24   2.0000      -1.088402       -29.6169
  25   2.0000      -1.072784       -29.1919
  26   2.0000      -1.052678       -28.6448
  27   2.0000      -0.959962       -26.1219
  28   2.0000      -0.873655       -23.7734
  29   2.0000      -0.848706       -23.0945
  30   2.0000      -0.833468       -22.6798
  31   2.0000      -0.819163       -22.2906
  32   2.0000      -0.797707       -21.7067
  33   2.0000      -0.793060       -21.5803
  34   2.0000      -0.715394       -19.4669
  35   2.0000      -0.694445       -18.8968
  36   2.0000      -0.665555       -18.1107
  37   2.0000      -0.617760       -16.8101
  38   2.0000      -0.598099       -16.2751
  39   2.0000      -0.589186       -16.0326
  40   2.0000      -0.574624       -15.6363
  41   2.0000      -0.566055       -15.4031
  42   2.0000      -0.559453       -15.2235
  43   2.0000      -0.549924       -14.9642
  44   2.0000      -0.549370       -14.9491
  45   2.0000      -0.529829       -14.4174
  46   2.0000      -0.528309       -14.3760
  47   2.0000      -0.521954       -14.2031
  48   2.0000      -0.510408       -13.8889
  49   2.0000      -0.495792       -13.4912
  50   2.0000      -0.495199       -13.4751
  51   2.0000      -0.489248       -13.3131
  52   2.0000      -0.479900       -13.0587
  53   2.0000      -0.469603       -12.7785
  54   2.0000      -0.461768       -12.5654
  55   2.0000      -0.457112       -12.4386
  56   2.0000      -0.450825       -12.2676
  57   2.0000      -0.446289       -12.1441
  58   2.0000      -0.442483       -12.0406
  59   2.0000      -0.433011       -11.7828
  60   2.0000      -0.424511       -11.5515
  61   2.0000      -0.418943       -11.4000
  62   2.0000      -0.411353       -11.1935
  63   2.0000      -0.407276       -11.0825
  64   2.0000      -0.394927       -10.7465
  65   2.0000      -0.392077       -10.6689
  66   2.0000      -0.374719       -10.1966
  67   2.0000      -0.364357        -9.9147
  68   2.0000      -0.350541        -9.5387
  69   2.0000      -0.343397        -9.3443
  70   2.0000      -0.319287        -8.6882
  71   2.0000      -0.313464        -8.5298
  72   2.0000      -0.309209        -8.4140
  73   2.0000      -0.302699        -8.2369
  74   2.0000      -0.298972        -8.1354
  75   2.0000      -0.291946        -7.9442
  76   2.0000      -0.271865        -7.3978
  77   0.0000      -0.039319        -1.0699
  78   0.0000      -0.008568        -0.2331
  79   0.0000       0.006047         0.1645
  80   0.0000       0.042401         1.1538
  81   0.0000       0.069709         1.8969

MULLIKEN ATOMIC CHARGES
-----------------------
   0 Pd:    0.527266
   1 O :   -0.492973
   2 C :    0.674191
   3 O :   -0.500422
   4 C :   -0.767710
   5 H :    0.252527
   6 H :    0.262703
   7 H :    0.259549
   8 N :   -0.481691
   9 C :   -0.516032
  10 H :    0.280112
  11 H :    0.215984
  12 H :    0.273024
  13 C :   -0.531708
  14 H :    0.291442
  15 H :    0.216549
  16 H :    0.275885
  17 C :    0.033332
  18 C :   -0.241640
  19 C :   -0.206388
  20 C :   -0.210970
  21 C :   -0.229338
  22 C :   -0.239115
  23 H :    0.226513
  24 H :    0.216691
  25 H :    0.273081
  26 H :    0.230753
  27 H :    0.231347
  28 C :   -0.360136
  29 H :    0.233404
  30 H :    0.280276
  31 O :   -0.567575
  32 C :    0.558969
  33 O :   -0.438562
  34 C :   -0.743824
  35 H :    0.228781
  36 H :    0.246836
  37 H :    0.238870
Sum of atomic charges:    0.0000000

LOEWDIN ATOMIC CHARGES
----------------------
   0 Pd:   -0.293909
   1 O :   -0.149663
   2 C :    0.200677
   3 O :   -0.173727
   4 C :   -0.376637
   5 H :    0.153520
   6 H :    0.165323
   7 H :    0.156350
   8 N :   -0.051979
   9 C :   -0.229395
  10 H :    0.157300
  11 H :    0.118266
  12 H :    0.152562
  13 C :   -0.234861
  14 H :    0.160911
  15 H :    0.119484
  16 H :    0.155638
  17 C :   -0.042900
  18 C :   -0.105439
  19 C :   -0.121811
  20 C :   -0.132778
  21 C :   -0.125791
  22 C :   -0.136800
  23 H :    0.139995
  24 H :    0.133160
  25 H :    0.167635
  26 H :    0.141744
  27 H :    0.142068
  28 C :   -0.113245
  29 H :    0.128676
  30 H :    0.158630
  31 O :   -0.212132
  32 C :    0.134357
  33 O :   -0.235515
  34 C :   -0.384140
  35 H :    0.139864
  36 H :    0.152539
  37 H :    0.142021

  Mayer bond orders larger than 0.100000
B(  0-Pd,  1-O ) :   0.5738 B(  0-Pd,  3-O ) :   0.4899 B(  0-Pd,  8-N ) :   0.4131
B(  0-Pd, 31-O ) :   0.6457 B(  0-Pd, 33-O ) :   0.1083 B(  1-O ,  2-C ) :   1.4077
B(  1-O ,  3-O ) :   0.1040 B(  2-C ,  3-O ) :   1.4873 B(  2-C ,  4-C ) :   0.9569
B(  4-C ,  5-H ) :   0.9091 B(  4-C ,  6-H ) :   0.9012 B(  4-C ,  7-H ) :   0.9074
B(  8-N ,  9-C ) :   0.9229 B(  8-N , 13-C ) :   0.9226 B(  8-N , 28-C ) :   0.8909
B(  9-C , 10-H ) :   0.8991 B(  9-C , 11-H ) :   0.9034 B(  9-C , 12-H ) :   0.9006
B( 13-C , 14-H ) :   0.8870 B( 13-C , 15-H ) :   0.9056 B( 13-C , 16-H ) :   0.9003
B( 17-C , 18-C ) :   1.4309 B( 17-C , 22-C ) :   1.3591 B( 17-C , 28-C ) :   0.9523
B( 18-C , 19-C ) :   1.4082 B( 18-C , 25-H ) :   0.8912 B( 19-C , 20-C ) :   1.4405
B( 19-C , 26-H ) :   0.9137 B( 20-C , 21-C ) :   1.4020 B( 20-C , 23-H ) :   0.9172
B( 21-C , 22-C ) :   1.4652 B( 21-C , 24-H ) :   0.9193 B( 22-C , 27-H ) :   0.9149
B( 28-C , 29-H ) :   0.9046 B( 28-C , 30-H ) :   0.8976 B( 31-O , 32-C ) :   1.2255
B( 32-C , 33-O ) :   1.8965 B( 32-C , 34-C ) :   0.9370 B( 34-C , 35-H ) :   0.9166
B( 34-C , 36-H ) :   0.9112 B( 34-C , 37-H ) :   0.9201

Dispersion correction           -0.026072331
FINAL SINGLE POINT ENERGY      -988.551389206482
Dispersion correction            ... done

DIPOLE MOMENT
-------------
                                X             Y             Z
Electronic contribution:     34.69492      33.57192     -28.55371
Nuclear contribution   :    -36.42487     -33.68066      29.34879
                        -----------------------------------------
Total Dipole Moment    :     -1.72995      -0.10874       0.79508
                        -----------------------------------------
Magnitude (a.u.)       :      1.90701
Magnitude (Debye)      :      4.84724

Rotational constants in cm-1:     0.013270     0.008341     0.007109
Rotational constants in MHz :   397.820544   250.051447   213.128881

                             ****ORCA TERMINATED NORMALLY****
TOTAL RUN TIME: 0 days 0 hours 12 minutes 44 seconds 53 msec
