                         Program Version 5.0.3 -  RELEASE  -
|  1> ! EnGrad PBEh-3c
|  2> %output
|  3> xyzfile=True
|  4> end
|  5> %scf
|  6> maxiter 250
|  7> end
|  8> %output
|  9> Print[P_Hirshfeld] = 1
| 10> end
| 11> % maxcore
| 12> 4000
| 13> *xyz 0 1
| 14> Pd   0.76221489   0.66832818  -0.57045770
| 15> O    2.36456008   1.67977227   0.15028645
| 16> C    1.69249151   2.76539350   0.19316955
| 17> O    0.46943876   2.70621669  -0.08767426
| 18> C    2.37198038   4.07161050   0.51363584
| 19> H    1.68239964   4.74747011   1.01174409
| 20> H    2.68724548   4.53922175  -0.42148406
| 21> H    3.25719937   3.92214937   1.12576159
| 22> N   -1.14325533  -0.12746591  -1.13000867
| 23> C   -1.21497646  -0.58631941  -2.52529825
| 24> H   -0.93143934   0.22163774  -3.18858658
| 25> H   -2.24125548  -0.89233663  -2.76108106
| 26> H   -0.55958971  -1.42630025  -2.69899299
| 27> C   -2.09486227   0.97859983  -0.97334314
| 28> H   -2.06254611   1.39262227   0.02380438
| 29> H   -3.10763412   0.63232153  -1.19577491
| 30> H   -1.83650129   1.76571304  -1.67538937
| 31> C   -1.43150412  -1.02344001   1.23588917
| 32> C   -0.27706262  -1.47789309   1.91769553
| 33> C   -0.17455792  -1.38941469   3.29578535
| 34> C   -1.23150418  -0.89701083   4.02407298
| 35> C   -2.40724569  -0.50839805   3.36742575
| 36> C   -2.61733905  -0.51292123   1.95862109
| 37> H   -1.16141393  -0.82902870   5.10611839
| 38> H   -3.25217298  -0.25566112   3.98410961
| 39> H    0.53935475  -1.94037168   1.37319193
| 40> H    0.70732912  -1.75894418   3.79840410
| 41> H   -3.54164933  -0.16983220   1.57103073
| 42> C   -1.51856189  -1.27123387  -0.24311757
| 43> H   -2.55284381  -1.55556205  -0.46562680
| 44> H   -0.89227075  -2.12366172  -0.53645323
| 45> O    1.64830127  -1.04370409  -1.02671918
| 46> C    2.25192979  -0.97768568  -2.19186208
| 47> O    2.06863085  -0.10409400  -3.01205950
| 48> C    3.24151968  -2.10200281  -2.44144630
| 49> H    2.82702242  -3.06900092  -2.18405609
| 50> H    4.12907852  -1.94593289  -1.83459160
| 51> H    3.54779608  -2.10484929  -3.48864121
| 52> *
| 53>
| 54>                          ****END OF INPUT****

CARTESIAN COORDINATES (ANGSTROEM)
---------------------------------
  Pd     0.762215    0.668328   -0.570458
  O      2.364560    1.679772    0.150286
  C      1.692492    2.765394    0.193170
  O      0.469439    2.706217   -0.087674
  C      2.371980    4.071611    0.513636
  H      1.682400    4.747470    1.011744
  H      2.687245    4.539222   -0.421484
  H      3.257199    3.922149    1.125762
  N     -1.143255   -0.127466   -1.130009
  C     -1.214976   -0.586319   -2.525298
  H     -0.931439    0.221638   -3.188587
  H     -2.241255   -0.892337   -2.761081
  H     -0.559590   -1.426300   -2.698993
  C     -2.094862    0.978600   -0.973343
  H     -2.062546    1.392622    0.023804
  H     -3.107634    0.632322   -1.195775
  H     -1.836501    1.765713   -1.675389
  C     -1.431504   -1.023440    1.235889
  C     -0.277063   -1.477893    1.917696
  C     -0.174558   -1.389415    3.295785
  C     -1.231504   -0.897011    4.024073
  C     -2.407246   -0.508398    3.367426
  C     -2.617339   -0.512921    1.958621
  H     -1.161414   -0.829029    5.106118
  H     -3.252173   -0.255661    3.984110
  H      0.539355   -1.940372    1.373192
  H      0.707329   -1.758944    3.798404
  H     -3.541649   -0.169832    1.571031
  C     -1.518562   -1.271234   -0.243118
  H     -2.552844   -1.555562   -0.465627
  H     -0.892271   -2.123662   -0.536453
  O      1.648301   -1.043704   -1.026719
  C      2.251930   -0.977686   -2.191862
  O      2.068631   -0.104094   -3.012059
  C      3.241520   -2.102003   -2.441446
  H      2.827022   -3.069001   -2.184056
  H      4.129079   -1.945933   -1.834592
  H      3.547796   -2.104849   -3.488641

 Total Charge           Charge          ....    0
 Multiplicity           Mult            ....    1
 Number of Electrons    NEL             ....  154
 Basis Dimension        Dim             ....  339

ORBITAL ENERGIES
----------------

  NO   OCC          E(Eh)            E(eV)
   0   2.0000     -19.501482      -530.6623
   1   2.0000     -19.500950      -530.6478
   2   2.0000     -19.475450      -529.9539
   3   2.0000     -19.435084      -528.8555
   4   2.0000     -14.718216      -400.5030
   5   2.0000     -10.575311      -287.7688
   6   2.0000     -10.533336      -286.6267
   7   2.0000     -10.494052      -285.5577
   8   2.0000     -10.482731      -285.2496
   9   2.0000     -10.479034      -285.1490
  10   2.0000     -10.475832      -285.0619
  11   2.0000     -10.474865      -285.0356
  12   2.0000     -10.461450      -284.6705
  13   2.0000     -10.458177      -284.5815
  14   2.0000     -10.457392      -284.5601
  15   2.0000     -10.454621      -284.4847
  16   2.0000     -10.443988      -284.1954
  17   2.0000     -10.415480      -283.4196
  18   2.0000      -3.657218       -99.5180
  19   2.0000      -2.305764       -62.7430
  20   2.0000      -2.301935       -62.6388
  21   2.0000      -2.265625       -61.6508
  22   2.0000      -1.204326       -32.7714
  23   2.0000      -1.149281       -31.2735
  24   2.0000      -1.087398       -29.5896
  25   2.0000      -1.073797       -29.2195
  26   2.0000      -1.052498       -28.6399
  27   2.0000      -0.959330       -26.1047
  28   2.0000      -0.874608       -23.7993
  29   2.0000      -0.846159       -23.0252
  30   2.0000      -0.833214       -22.6729
  31   2.0000      -0.819517       -22.3002
  32   2.0000      -0.798169       -21.7193
  33   2.0000      -0.793681       -21.5971
  34   2.0000      -0.715724       -19.4758
  35   2.0000      -0.693585       -18.8734
  36   2.0000      -0.664982       -18.0951
  37   2.0000      -0.616834       -16.7849
  38   2.0000      -0.597194       -16.2505
  39   2.0000      -0.589377       -16.0378
  40   2.0000      -0.575260       -15.6536
  41   2.0000      -0.566603       -15.4180
  42   2.0000      -0.559269       -15.2185
  43   2.0000      -0.548967       -14.9382
  44   2.0000      -0.548409       -14.9230
  45   2.0000      -0.529285       -14.4026
  46   2.0000      -0.527891       -14.3646
  47   2.0000      -0.521098       -14.1798
  48   2.0000      -0.510510       -13.8917
  49   2.0000      -0.495726       -13.4894
  50   2.0000      -0.493940       -13.4408
  51   2.0000      -0.489102       -13.3091
  52   2.0000      -0.481148       -13.0927
  53   2.0000      -0.469466       -12.7748
  54   2.0000      -0.461369       -12.5545
  55   2.0000      -0.458140       -12.4666
  56   2.0000      -0.450298       -12.2532
  57   2.0000      -0.446186       -12.1413
  58   2.0000      -0.442979       -12.0541
  59   2.0000      -0.432939       -11.7809
  60   2.0000      -0.424001       -11.5377
  61   2.0000      -0.418936       -11.3998
  62   2.0000      -0.411833       -11.2065
  63   2.0000      -0.407460       -11.0876
  64   2.0000      -0.394144       -10.7252
  65   2.0000      -0.391577       -10.6553
  66   2.0000      -0.373851       -10.1730
  67   2.0000      -0.364320        -9.9137
  68   2.0000      -0.350530        -9.5384
  69   2.0000      -0.343085        -9.3358
  70   2.0000      -0.319543        -8.6952
  71   2.0000      -0.313604        -8.5336
  72   2.0000      -0.309168        -8.4129
  73   2.0000      -0.301560        -8.2059
  74   2.0000      -0.298743        -8.1292
  75   2.0000      -0.292687        -7.9644
  76   2.0000      -0.271900        -7.3988
  77   0.0000      -0.039873        -1.0850
  78   0.0000      -0.009474        -0.2578
  79   0.0000       0.005952         0.1620
  80   0.0000       0.043433         1.1819
  81   0.0000       0.069973         1.9041

MULLIKEN ATOMIC CHARGES
-----------------------
   0 Pd:    0.526990
   1 O :   -0.491835
   2 C :    0.672859
   3 O :   -0.500840
   4 C :   -0.767489
   5 H :    0.252303
   6 H :    0.262461
   7 H :    0.259332
   8 N :   -0.483349
   9 C :   -0.517070
  10 H :    0.280669
  11 H :    0.216350
  12 H :    0.273613
  13 C :   -0.533125
  14 H :    0.293184
  15 H :    0.216755
  16 H :    0.276701
  17 C :    0.034568
  18 C :   -0.237106
  19 C :   -0.210752
  20 C :   -0.205357
  21 C :   -0.228833
  22 C :   -0.250101
  23 H :    0.226884
  24 H :    0.217390
  25 H :    0.273271
  26 H :    0.230879
  27 H :    0.232558
  28 C :   -0.359148
  29 H :    0.234480
  30 H :    0.280640
  31 O :   -0.567693
  32 C :    0.559553
  33 O :   -0.439721
  34 C :   -0.743944
  35 H :    0.228665
  36 H :    0.246993
  37 H :    0.239269
Sum of atomic charges:   -0.0000000

LOEWDIN ATOMIC CHARGES
----------------------
   0 Pd:   -0.293566
   1 O :   -0.151283
   2 C :    0.198459
   3 O :   -0.174362
   4 C :   -0.376637
   5 H :    0.153435
   6 H :    0.165226
   7 H :    0.156196
   8 N :   -0.050031
   9 C :   -0.229450
  10 H :    0.157557
  11 H :    0.118407
  12 H :    0.152561
  13 C :   -0.234896
  14 H :    0.161366
  15 H :    0.119641
  16 H :    0.155959
  17 C :   -0.042913
  18 C :   -0.106406
  19 C :   -0.120628
  20 C :   -0.133990
  21 C :   -0.126306
  22 C :   -0.137501
  23 H :    0.140464
  24 H :    0.132860
  25 H :    0.167855
  26 H :    0.141659
  27 H :    0.144641
  28 C :   -0.113009
  29 H :    0.129266
  30 H :    0.158769
  31 O :   -0.211696
  32 C :    0.134540
  33 O :   -0.236990
  34 C :   -0.383864
  35 H :    0.139761
  36 H :    0.152609
  37 H :    0.142299

  Mayer bond orders larger than 0.100000
B(  0-Pd,  1-O ) :   0.5707 B(  0-Pd,  3-O ) :   0.4900 B(  0-Pd,  8-N ) :   0.4164
B(  0-Pd, 31-O ) :   0.6449 B(  0-Pd, 33-O ) :   0.1084 B(  1-O ,  2-C ) :   1.4119
B(  1-O ,  3-O ) :   0.1038 B(  2-C ,  3-O ) :   1.4870 B(  2-C ,  4-C ) :   0.9570
B(  4-C ,  5-H ) :   0.9092 B(  4-C ,  6-H ) :   0.9014 B(  4-C ,  7-H ) :   0.9076
B(  8-N ,  9-C ) :   0.9226 B(  8-N , 13-C ) :   0.9218 B(  8-N , 28-C ) :   0.8901
B(  9-C , 10-H ) :   0.8988 B(  9-C , 11-H ) :   0.9033 B(  9-C , 12-H ) :   0.9003
B( 13-C , 14-H ) :   0.8860 B( 13-C , 15-H ) :   0.9058 B( 13-C , 16-H ) :   0.8997
B( 17-C , 18-C ) :   1.4330 B( 17-C , 22-C ) :   1.3550 B( 17-C , 28-C ) :   0.9520
B( 18-C , 19-C ) :   1.4092 B( 18-C , 25-H ) :   0.8909 B( 19-C , 20-C ) :   1.4376
B( 19-C , 26-H ) :   0.9136 B( 20-C , 21-C ) :   1.4061 B( 20-C , 23-H ) :   0.9170
B( 21-C , 22-C ) :   1.4585 B( 21-C , 24-H ) :   0.9189 B( 22-C , 27-H ) :   0.9145
B( 28-C , 29-H ) :   0.9044 B( 28-C , 30-H ) :   0.8973 B( 31-O , 32-C ) :   1.2261
B( 32-C , 33-O ) :   1.8951 B( 32-C , 34-C ) :   0.9378 B( 34-C , 35-H ) :   0.9165
B( 34-C , 36-H ) :   0.9110 B( 34-C , 37-H ) :   0.9202

Dispersion correction           -0.026080997
FINAL SINGLE POINT ENERGY      -988.552181795665
Dispersion correction            ... done

DIPOLE MOMENT
-------------
                                X             Y             Z
Electronic contribution:     34.34790      33.53215     -28.66520
Nuclear contribution   :    -36.10857     -33.66551      29.45815
                        -----------------------------------------
Total Dipole Moment    :     -1.76067      -0.13337       0.79295
                        -----------------------------------------
Magnitude (a.u.)       :      1.93559
Magnitude (Debye)      :      4.91988

Rotational constants in cm-1:     0.013258     0.008349     0.007114
Rotational constants in MHz :   397.469170   250.294813   213.267828

                             ****ORCA TERMINATED NORMALLY****
TOTAL RUN TIME: 0 days 0 hours 13 minutes 26 seconds 353 msec
