                         Program Version 5.0.3 -  RELEASE  -
|  1> ! EnGrad PBEh-3c
|  2> %output
|  3> xyzfile=True
|  4> end
|  5> %scf
|  6> maxiter 250
|  7> end
|  8> %output
|  9> Print[P_Hirshfeld] = 1
| 10> end
| 11> % maxcore
| 12> 4000
| 13> *xyz 0 1
| 14> Pd   0.76571628   0.66849444  -0.56918258
| 15> O    2.36254024   1.67637526   0.15034516
| 16> C    1.69100933   2.76305924   0.19371862
| 17> O    0.46739526   2.70475371  -0.08704057
| 18> C    2.37287389   4.06904705   0.51435932
| 19> H    1.68452356   4.74694349   1.01227084
| 20> H    2.68897147   4.53666693  -0.42082603
| 21> H    3.25842429   3.91919003   1.12682218
| 22> N   -1.14499703  -0.12838580  -1.13227371
| 23> C   -1.21533022  -0.59237136  -2.52623422
| 24> H   -0.93100851   0.21451692  -3.19010901
| 25> H   -2.24205756  -0.89759813  -2.75939315
| 26> H   -0.55889684  -1.43316332  -2.69617441
| 27> C   -2.09618789   0.97799548  -0.97751138
| 28> H   -2.06300205   1.39322273   0.01984658
| 29> H   -3.10860960   0.63040492  -1.19902772
| 30> H   -1.83576301   1.76180004  -1.68193693
| 31> C   -1.44148250  -1.02069426   1.23942306
| 32> C   -0.28299234  -1.47905438   1.91808502
| 33> C   -0.17464082  -1.38955073   3.29642289
| 34> C   -1.23410497  -0.89898944   4.02323019
| 35> C   -2.40943026  -0.50034058   3.36406643
| 36> C   -2.61877557  -0.51324019   1.96453681
| 37> H   -1.16147899  -0.82813105   5.10631535
| 38> H   -3.25208826  -0.25249701   3.98523776
| 39> H    0.53447837  -1.94424886   1.37195037
| 40> H    0.70549936  -1.76375499   3.79874736
| 41> H   -3.51331380  -0.15467852   1.58141634
| 42> C   -1.52167898  -1.26950659  -0.24147023
| 43> H   -2.55595201  -1.55351600  -0.46440722
| 44> H   -0.89673636  -2.12389697  -0.53249276
| 45> O    1.64917625  -1.04427696  -1.02868147
| 46> C    2.25155500  -0.97463365  -2.19443290
| 47> O    2.06508223  -0.10091210  -3.01266773
| 48> C    3.24479661  -2.09771780  -2.44304200
| 49> H    2.83263284  -3.06651819  -2.18655132
| 50> H    4.13199694  -1.93956941  -1.83557138
| 51> H    3.54983681  -2.09770882  -3.49010174
| 52> *
| 53>
| 54>                          ****END OF INPUT****

CARTESIAN COORDINATES (ANGSTROEM)
---------------------------------
  Pd     0.765716    0.668494   -0.569183
  O      2.362540    1.676375    0.150345
  C      1.691009    2.763059    0.193719
  O      0.467395    2.704754   -0.087041
  C      2.372874    4.069047    0.514359
  H      1.684524    4.746943    1.012271
  H      2.688971    4.536667   -0.420826
  H      3.258424    3.919190    1.126822
  N     -1.144997   -0.128386   -1.132274
  C     -1.215330   -0.592371   -2.526234
  H     -0.931009    0.214517   -3.190109
  H     -2.242058   -0.897598   -2.759393
  H     -0.558897   -1.433163   -2.696174
  C     -2.096188    0.977995   -0.977511
  H     -2.063002    1.393223    0.019847
  H     -3.108610    0.630405   -1.199028
  H     -1.835763    1.761800   -1.681937
  C     -1.441482   -1.020694    1.239423
  C     -0.282992   -1.479054    1.918085
  C     -0.174641   -1.389551    3.296423
  C     -1.234105   -0.898989    4.023230
  C     -2.409430   -0.500341    3.364066
  C     -2.618776   -0.513240    1.964537
  H     -1.161479   -0.828131    5.106315
  H     -3.252088   -0.252497    3.985238
  H      0.534478   -1.944249    1.371950
  H      0.705499   -1.763755    3.798747
  H     -3.513314   -0.154679    1.581416
  C     -1.521679   -1.269507   -0.241470
  H     -2.555952   -1.553516   -0.464407
  H     -0.896736   -2.123897   -0.532493
  O      1.649176   -1.044277   -1.028681
  C      2.251555   -0.974634   -2.194433
  O      2.065082   -0.100912   -3.012668
  C      3.244797   -2.097718   -2.443042
  H      2.832633   -3.066518   -2.186551
  H      4.131997   -1.939569   -1.835571
  H      3.549837   -2.097709   -3.490102

 Total Charge           Charge          ....    0
 Multiplicity           Mult            ....    1
 Number of Electrons    NEL             ....  154
 Basis Dimension        Dim             ....  339

ORBITAL ENERGIES
----------------

  NO   OCC          E(Eh)            E(eV)
   0   2.0000     -19.502166      -530.6809
   1   2.0000     -19.501800      -530.6710
   2   2.0000     -19.475171      -529.9463
   3   2.0000     -19.435346      -528.8626
   4   2.0000     -14.717566      -400.4853
   5   2.0000     -10.576121      -287.7909
   6   2.0000     -10.533350      -286.6270
   7   2.0000     -10.493865      -285.5526
   8   2.0000     -10.482126      -285.2331
   9   2.0000     -10.478950      -285.1467
  10   2.0000     -10.475656      -285.0571
  11   2.0000     -10.471152      -284.9345
  12   2.0000     -10.460677      -284.6495
  13   2.0000     -10.458490      -284.5900
  14   2.0000     -10.457619      -284.5663
  15   2.0000     -10.454572      -284.4834
  16   2.0000     -10.444575      -284.2113
  17   2.0000     -10.415518      -283.4207
  18   2.0000      -3.657120       -99.5153
  19   2.0000      -2.305749       -62.7426
  20   2.0000      -2.301810       -62.6354
  21   2.0000      -2.265518       -61.6479
  22   2.0000      -1.204841       -32.7854
  23   2.0000      -1.149507       -31.2797
  24   2.0000      -1.088059       -29.6076
  25   2.0000      -1.073130       -29.2013
  26   2.0000      -1.052618       -28.6432
  27   2.0000      -0.959729       -26.1155
  28   2.0000      -0.873970       -23.7819
  29   2.0000      -0.847829       -23.0706
  30   2.0000      -0.833382       -22.6775
  31   2.0000      -0.819284       -22.2938
  32   2.0000      -0.797864       -21.7110
  33   2.0000      -0.793283       -21.5863
  34   2.0000      -0.715504       -19.4699
  35   2.0000      -0.694144       -18.8886
  36   2.0000      -0.665355       -18.1052
  37   2.0000      -0.617442       -16.8015
  38   2.0000      -0.597778       -16.2664
  39   2.0000      -0.589252       -16.0344
  40   2.0000      -0.574840       -15.6422
  41   2.0000      -0.566233       -15.4080
  42   2.0000      -0.559396       -15.2219
  43   2.0000      -0.549598       -14.9553
  44   2.0000      -0.549043       -14.9402
  45   2.0000      -0.529641       -14.4123
  46   2.0000      -0.528168       -14.3722
  47   2.0000      -0.521677       -14.1955
  48   2.0000      -0.510445       -13.8899
  49   2.0000      -0.495745       -13.4899
  50   2.0000      -0.494823       -13.4648
  51   2.0000      -0.489205       -13.3119
  52   2.0000      -0.480316       -13.0701
  53   2.0000      -0.469563       -12.7775
  54   2.0000      -0.461631       -12.5616
  55   2.0000      -0.457473       -12.4485
  56   2.0000      -0.450644       -12.2626
  57   2.0000      -0.446255       -12.1432
  58   2.0000      -0.442651       -12.0451
  59   2.0000      -0.432986       -11.7821
  60   2.0000      -0.424328       -11.5466
  61   2.0000      -0.418938       -11.3999
  62   2.0000      -0.411501       -11.1975
  63   2.0000      -0.407359       -11.0848
  64   2.0000      -0.394661       -10.7393
  65   2.0000      -0.391923       -10.6648
  66   2.0000      -0.374417       -10.1884
  67   2.0000      -0.364345        -9.9143
  68   2.0000      -0.350545        -9.5388
  69   2.0000      -0.343296        -9.3416
  70   2.0000      -0.319373        -8.6906
  71   2.0000      -0.313509        -8.5310
  72   2.0000      -0.309178        -8.4132
  73   2.0000      -0.302303        -8.2261
  74   2.0000      -0.298918        -8.1340
  75   2.0000      -0.292202        -7.9512
  76   2.0000      -0.271877        -7.3982
  77   0.0000      -0.039507        -1.0750
  78   0.0000      -0.008842        -0.2406
  79   0.0000       0.006009         0.1635
  80   0.0000       0.042754         1.1634
  81   0.0000       0.069800         1.8994

MULLIKEN ATOMIC CHARGES
-----------------------
   0 Pd:    0.527159
   1 O :   -0.492581
   2 C :    0.673744
   3 O :   -0.500565
   4 C :   -0.767635
   5 H :    0.252451
   6 H :    0.262620
   7 H :    0.259476
   8 N :   -0.482248
   9 C :   -0.516384
  10 H :    0.280301
  11 H :    0.216107
  12 H :    0.273224
  13 C :   -0.532193
  14 H :    0.292037
  15 H :    0.216616
  16 H :    0.276163
  17 C :    0.033936
  18 C :   -0.240122
  19 C :   -0.207874
  20 C :   -0.209078
  21 C :   -0.229046
  22 C :   -0.243101
  23 H :    0.226634
  24 H :    0.216936
  25 H :    0.273134
  26 H :    0.230790
  27 H :    0.231792
  28 C :   -0.359826
  29 H :    0.233764
  30 H :    0.280402
  31 O :   -0.567613
  32 C :    0.559166
  33 O :   -0.438956
  34 C :   -0.743867
  35 H :    0.228742
  36 H :    0.246890
  37 H :    0.239005
Sum of atomic charges:    0.0000000

LOEWDIN ATOMIC CHARGES
----------------------
   0 Pd:   -0.293797
   1 O :   -0.150213
   2 C :    0.199925
   3 O :   -0.173942
   4 C :   -0.376637
   5 H :    0.153491
   6 H :    0.165290
   7 H :    0.156297
   8 N :   -0.051314
   9 C :   -0.229413
  10 H :    0.157386
  11 H :    0.118313
  12 H :    0.152562
  13 C :   -0.234874
  14 H :    0.161066
  15 H :    0.119535
  16 H :    0.155748
  17 C :   -0.042921
  18 C :   -0.105768
  19 C :   -0.121418
  20 C :   -0.133189
  21 C :   -0.125986
  22 C :   -0.136993
  23 H :    0.140156
  24 H :    0.133054
  25 H :    0.167709
  26 H :    0.141714
  27 H :    0.142952
  28 C :   -0.113164
  29 H :    0.128874
  30 H :    0.158677
  31 O :   -0.211979
  32 C :    0.134416
  33 O :   -0.236016
  34 C :   -0.384046
  35 H :    0.139829
  36 H :    0.152563
  37 H :    0.142115

  Mayer bond orders larger than 0.100000
B(  0-Pd,  1-O ) :   0.5728 B(  0-Pd,  3-O ) :   0.4899 B(  0-Pd,  8-N ) :   0.4142
B(  0-Pd, 31-O ) :   0.6454 B(  0-Pd, 33-O ) :   0.1083 B(  1-O ,  2-C ) :   1.4091
B(  1-O ,  3-O ) :   0.1040 B(  2-C ,  3-O ) :   1.4872 B(  2-C ,  4-C ) :   0.9569
B(  4-C ,  5-H ) :   0.9091 B(  4-C ,  6-H ) :   0.9012 B(  4-C ,  7-H ) :   0.9075
B(  8-N ,  9-C ) :   0.9228 B(  8-N , 13-C ) :   0.9223 B(  8-N , 28-C ) :   0.8906
B(  9-C , 10-H ) :   0.8990 B(  9-C , 11-H ) :   0.9034 B(  9-C , 12-H ) :   0.9005
B( 13-C , 14-H ) :   0.8866 B( 13-C , 15-H ) :   0.9057 B( 13-C , 16-H ) :   0.9001
B( 17-C , 18-C ) :   1.4317 B( 17-C , 22-C ) :   1.3577 B( 17-C , 28-C ) :   0.9521
B( 18-C , 19-C ) :   1.4086 B( 18-C , 25-H ) :   0.8911 B( 19-C , 20-C ) :   1.4395
B( 19-C , 26-H ) :   0.9137 B( 20-C , 21-C ) :   1.4034 B( 20-C , 23-H ) :   0.9171
B( 21-C , 22-C ) :   1.4630 B( 21-C , 24-H ) :   0.9191 B( 22-C , 27-H ) :   0.9148
B( 28-C , 29-H ) :   0.9046 B( 28-C , 30-H ) :   0.8975 B( 31-O , 32-C ) :   1.2257
B( 32-C , 33-O ) :   1.8960 B( 32-C , 34-C ) :   0.9373 B( 34-C , 35-H ) :   0.9166
B( 34-C , 36-H ) :   0.9111 B( 34-C , 37-H ) :   0.9202

Dispersion correction           -0.026075327
FINAL SINGLE POINT ENERGY      -988.551986615504
Dispersion correction            ... done

DIPOLE MOMENT
-------------
                                X             Y             Z
Electronic contribution:     34.57677      33.55847     -28.59163
Nuclear contribution   :    -36.31733     -33.67551      29.38597
                        -----------------------------------------
Total Dipole Moment    :     -1.74056      -0.11704       0.79434
                        -----------------------------------------
Magnitude (a.u.)       :      1.91682
Magnitude (Debye)      :      4.87217

Rotational constants in cm-1:     0.013266     0.008344     0.007111
Rotational constants in MHz :   397.701939   250.134476   213.176438

                             ****ORCA TERMINATED NORMALLY****
TOTAL RUN TIME: 0 days 0 hours 13 minutes 16 seconds 477 msec
