                         Program Version 5.0.3 -  RELEASE  -
|  1> ! EnGrad PBEh-3c
|  2> %output
|  3> xyzfile=True
|  4> end
|  5> %scf
|  6> maxiter 250
|  7> end
|  8> %output
|  9> Print[P_Hirshfeld] = 1
| 10> end
| 11> % maxcore
| 12> 4000
| 13> *xyz 0 1
| 14> Pd   0.79984735   0.66291130  -0.55720330
| 15> O    2.33541764   1.63950479   0.15161509
| 16> C    1.67528307   2.73172710   0.20265026
| 17> O    0.44409341   2.68111964  -0.07668883
| 18> C    2.38315017   4.03071123   0.52339265
| 19> H    1.71414047   4.73863641   1.01910245
| 20> H    2.71230992   4.50038421  -0.41108984
| 21> H    3.27369604   3.87734366   1.14057062
| 22> N   -1.16274665  -0.14399438  -1.15411374
| 23> C   -1.22053195  -0.67422622  -2.53473408
| 24> H   -0.92407596   0.11654202  -3.21330898
| 25> H   -2.25315136  -0.97141694  -2.73802554
| 26> H   -0.54944130  -1.52721081  -2.65646714
| 27> C   -2.11229585   0.96723054  -1.03552004
| 28> H   -2.07014496   1.40143600  -0.03497814
| 29> H   -3.12379516   0.60481889  -1.24401014
| 30> H   -1.82728656   1.71058902  -1.77233179
| 31> C   -1.55694682  -0.99406066   1.28730712
| 32> C   -0.37159287  -1.49149514   1.91625172
| 33> C   -0.18637844  -1.39440370   3.30100587
| 34> C   -1.27827521  -0.91643201   4.00972762
| 35> C   -2.42686701  -0.40477780   3.35095337
| 36> C   -2.52912052  -0.54487413   2.07143116
| 37> H   -1.16666523  -0.81703476   5.10314447
| 38> H   -3.25394141  -0.20053837   4.00096504
| 39> H    0.45717903  -1.99162717   1.35570634
| 40> H    0.68124293  -1.82832756   3.80311289
| 41> H   -3.21418568   0.08251959   1.68027759
| 42> C   -1.57045575  -1.24401875  -0.21938173
| 43> H   -2.59984326  -1.52552015  -0.45155483
| 44> H   -0.95831365  -2.12388785  -0.47520406
| 45> O    1.66280236  -1.04976508  -1.05834241
| 46> C    2.24716636  -0.93987680  -2.22142347
| 47> O    2.01621270  -0.05418600  -3.02456743
| 48> C    3.28670027  -2.03414323  -2.46679215
| 49> H    2.90984056  -3.03174251  -2.22060470
| 50> H    4.17180695  -1.85160527  -1.84863413
| 51> H    3.57880299  -2.00013197  -3.51069413
| 52> *
| 53>
| 54>                          ****END OF INPUT****

CARTESIAN COORDINATES (ANGSTROEM)
---------------------------------
  Pd     0.799847    0.662911   -0.557203
  O      2.335418    1.639505    0.151615
  C      1.675283    2.731727    0.202650
  O      0.444093    2.681120   -0.076689
  C      2.383150    4.030711    0.523393
  H      1.714140    4.738636    1.019102
  H      2.712310    4.500384   -0.411090
  H      3.273696    3.877344    1.140571
  N     -1.162747   -0.143994   -1.154114
  C     -1.220532   -0.674226   -2.534734
  H     -0.924076    0.116542   -3.213309
  H     -2.253151   -0.971417   -2.738026
  H     -0.549441   -1.527211   -2.656467
  C     -2.112296    0.967231   -1.035520
  H     -2.070145    1.401436   -0.034978
  H     -3.123795    0.604819   -1.244010
  H     -1.827287    1.710589   -1.772332
  C     -1.556947   -0.994061    1.287307
  C     -0.371593   -1.491495    1.916252
  C     -0.186378   -1.394404    3.301006
  C     -1.278275   -0.916432    4.009728
  C     -2.426867   -0.404778    3.350953
  C     -2.529121   -0.544874    2.071431
  H     -1.166665   -0.817035    5.103144
  H     -3.253941   -0.200538    4.000965
  H      0.457179   -1.991627    1.355706
  H      0.681243   -1.828328    3.803113
  H     -3.214186    0.082520    1.680278
  C     -1.570456   -1.244019   -0.219382
  H     -2.599843   -1.525520   -0.451555
  H     -0.958314   -2.123888   -0.475204
  O      1.662802   -1.049765   -1.058342
  C      2.247166   -0.939877   -2.221423
  O      2.016213   -0.054186   -3.024567
  C      3.286700   -2.034143   -2.466792
  H      2.909841   -3.031743   -2.220605
  H      4.171807   -1.851605   -1.848634
  H      3.578803   -2.000132   -3.510694

 Total Charge           Charge          ....    0
 Multiplicity           Mult            ....    1
 Number of Electrons    NEL             ....  154
 Basis Dimension        Dim             ....  339

ORBITAL ENERGIES
----------------

  NO   OCC          E(Eh)            E(eV)
   0   2.0000     -19.511372      -530.9314
   1   2.0000     -19.508468      -530.8524
   2   2.0000     -19.474300      -529.9227
   3   2.0000     -19.436017      -528.8809
   4   2.0000     -14.712462      -400.3464
   5   2.0000     -10.584096      -288.0079
   6   2.0000     -10.534226      -286.6509
   7   2.0000     -10.494751      -285.5767
   8   2.0000     -10.478967      -285.1472
   9   2.0000     -10.475767      -285.0601
  10   2.0000     -10.467291      -284.8295
  11   2.0000     -10.460657      -284.6490
  12   2.0000     -10.457759      -284.5701
  13   2.0000     -10.455489      -284.5083
  14   2.0000     -10.450992      -284.3860
  15   2.0000     -10.446778      -284.2713
  16   2.0000     -10.435642      -283.9683
  17   2.0000     -10.417407      -283.4720
  18   2.0000      -3.657824       -99.5344
  19   2.0000      -2.307531       -62.7911
  20   2.0000      -2.302302       -62.6488
  21   2.0000      -2.266028       -61.6618
  22   2.0000      -1.212555       -32.9953
  23   2.0000      -1.149789       -31.2873
  24   2.0000      -1.096203       -29.8292
  25   2.0000      -1.066770       -29.0283
  26   2.0000      -1.052362       -28.6362
  27   2.0000      -0.980258       -26.6742
  28   2.0000      -0.872027       -23.7291
  29   2.0000      -0.861202       -23.4345
  30   2.0000      -0.835638       -22.7389
  31   2.0000      -0.816160       -22.2089
  32   2.0000      -0.795436       -21.6449
  33   2.0000      -0.791549       -21.5391
  34   2.0000      -0.712190       -19.3797
  35   2.0000      -0.692848       -18.8534
  36   2.0000      -0.674367       -18.3505
  37   2.0000      -0.625050       -17.0085
  38   2.0000      -0.599323       -16.3084
  39   2.0000      -0.589765       -16.0483
  40   2.0000      -0.571946       -15.5634
  41   2.0000      -0.563327       -15.3289
  42   2.0000      -0.557256       -15.1637
  43   2.0000      -0.556925       -15.1547
  44   2.0000      -0.547804       -14.9065
  45   2.0000      -0.534909       -14.5556
  46   2.0000      -0.532735       -14.4965
  47   2.0000      -0.518269       -14.1028
  48   2.0000      -0.508967       -13.8497
  49   2.0000      -0.497215       -13.5299
  50   2.0000      -0.495581       -13.4854
  51   2.0000      -0.489693       -13.3252
  52   2.0000      -0.477400       -12.9907
  53   2.0000      -0.469753       -12.7826
  54   2.0000      -0.464001       -12.6261
  55   2.0000      -0.454758       -12.3746
  56   2.0000      -0.450093       -12.2476
  57   2.0000      -0.445675       -12.1274
  58   2.0000      -0.440818       -11.9953
  59   2.0000      -0.434907       -11.8344
  60   2.0000      -0.433211       -11.7883
  61   2.0000      -0.419933       -11.4270
  62   2.0000      -0.413874       -11.2621
  63   2.0000      -0.400948       -10.9104
  64   2.0000      -0.395381       -10.7589
  65   2.0000      -0.386659       -10.5215
  66   2.0000      -0.381835       -10.3903
  67   2.0000      -0.363964        -9.9040
  68   2.0000      -0.350211        -9.5297
  69   2.0000      -0.344828        -9.3833
  70   2.0000      -0.319086        -8.6828
  71   2.0000      -0.314519        -8.5585
  72   2.0000      -0.313278        -8.5247
  73   2.0000      -0.307066        -8.3557
  74   2.0000      -0.298873        -8.1327
  75   2.0000      -0.291067        -7.9203
  76   2.0000      -0.271739        -7.3944
  77   0.0000      -0.037062        -1.0085
  78   0.0000      -0.003654        -0.0994
  79   0.0000       0.011754         0.3198
  80   0.0000       0.035741         0.9726
  81   0.0000       0.067217         1.8291

MULLIKEN ATOMIC CHARGES
-----------------------
   0 Pd:    0.535169
   1 O :   -0.497342
   2 C :    0.682706
   3 O :   -0.499983
   4 C :   -0.771393
   5 H :    0.254048
   6 H :    0.264797
   7 H :    0.260772
   8 N :   -0.474000
   9 C :   -0.510088
  10 H :    0.278075
  11 H :    0.214780
  12 H :    0.268804
  13 C :   -0.520688
  14 H :    0.279285
  15 H :    0.216781
  16 H :    0.269980
  17 C :    0.084704
  18 C :   -0.284890
  19 C :   -0.187418
  20 C :   -0.254948
  21 C :   -0.211493
  22 C :   -0.223998
  23 H :    0.218361
  24 H :    0.223879
  25 H :    0.267157
  26 H :    0.230770
  27 H :    0.216148
  28 C :   -0.360534
  29 H :    0.230703
  30 H :    0.277473
  31 O :   -0.560610
  32 C :    0.558805
  33 O :   -0.445757
  34 C :   -0.742065
  35 H :    0.228326
  36 H :    0.245269
  37 H :    0.238413
Sum of atomic charges:   -0.0000000

LOEWDIN ATOMIC CHARGES
----------------------
   0 Pd:   -0.292005
   1 O :   -0.133768
   2 C :    0.210935
   3 O :   -0.172020
   4 C :   -0.376829
   5 H :    0.154098
   6 H :    0.166267
   7 H :    0.157493
   8 N :   -0.064759
   9 C :   -0.228568
  10 H :    0.156803
  11 H :    0.118160
  12 H :    0.152875
  13 C :   -0.233719
  14 H :    0.157595
  15 H :    0.119503
  16 H :    0.153433
  17 C :   -0.058172
  18 C :   -0.090302
  19 C :   -0.132803
  20 C :   -0.116622
  21 C :   -0.135911
  22 C :   -0.145249
  23 H :    0.133230
  24 H :    0.141505
  25 H :    0.162799
  26 H :    0.143427
  27 H :    0.141290
  28 C :   -0.109988
  29 H :    0.126778
  30 H :    0.158250
  31 O :   -0.206976
  32 C :    0.135932
  33 O :   -0.242108
  34 C :   -0.384570
  35 H :    0.140583
  36 H :    0.152386
  37 H :    0.141027

  Mayer bond orders larger than 0.100000
B(  0-Pd,  1-O ) :   0.5899 B(  0-Pd,  3-O ) :   0.4932 B(  0-Pd,  8-N ) :   0.3927
B(  0-Pd, 31-O ) :   0.6439 B(  0-Pd, 33-O ) :   0.1114 B(  1-O ,  2-C ) :   1.3901
B(  1-O ,  3-O ) :   0.1049 B(  2-C ,  3-O ) :   1.4841 B(  2-C ,  4-C ) :   0.9557
B(  4-C ,  5-H ) :   0.9081 B(  4-C ,  6-H ) :   0.8994 B(  4-C ,  7-H ) :   0.9066
B(  8-N ,  9-C ) :   0.9215 B(  8-N , 13-C ) :   0.9265 B(  8-N , 28-C ) :   0.8980
B(  9-C , 10-H ) :   0.8998 B(  9-C , 11-H ) :   0.9036 B(  9-C , 12-H ) :   0.9025
B( 13-C , 14-H ) :   0.8936 B( 13-C , 15-H ) :   0.9046 B( 13-C , 16-H ) :   0.9037
B( 17-C , 18-C ) :   1.3963 B( 17-C , 22-C ) :   1.3931 B( 17-C , 28-C ) :   0.9518
B( 18-C , 19-C ) :   1.4175 B( 18-C , 25-H ) :   0.8928 B( 19-C , 20-C ) :   1.4374
B( 19-C , 26-H ) :   0.9151 B( 20-C , 21-C ) :   1.4022 B( 20-C , 23-H ) :   0.9187
B( 21-C , 22-C ) :   1.4475 B( 21-C , 24-H ) :   0.9162 B( 22-C , 27-H ) :   0.9165
B( 28-C , 29-H ) :   0.9041 B( 28-C , 30-H ) :   0.8996 B( 31-O , 32-C ) :   1.2363
B( 32-C , 33-O ) :   1.8855 B( 32-C , 34-C ) :   0.9330 B( 34-C , 35-H ) :   0.9175
B( 34-C , 36-H ) :   0.9122 B( 34-C , 37-H ) :   0.9187

Dispersion correction           -0.025987384
FINAL SINGLE POINT ENERGY      -988.517847315355
Dispersion correction            ... done

DIPOLE MOMENT
-------------
                                X             Y             Z
Electronic contribution:     36.87842      33.42947     -27.89445
Nuclear contribution   :    -38.36799     -33.41120      28.72128
                        -----------------------------------------
Total Dipole Moment    :     -1.48957       0.01827       0.82683
                        -----------------------------------------
Magnitude (a.u.)       :      1.70376
Magnitude (Debye)      :      4.33061

Rotational constants in cm-1:     0.013405     0.008292     0.007076
Rotational constants in MHz :   401.871851   248.588017   212.130828

                             ****ORCA TERMINATED NORMALLY****
TOTAL RUN TIME: 0 days 0 hours 9 minutes 14 seconds 864 msec
