                         Program Version 5.0.3 -  RELEASE  -
|  1> ! EnGrad PBEh-3c
|  2> %output
|  3> xyzfile=True
|  4> end
|  5> %scf
|  6> maxiter 250
|  7> end
|  8> %output
|  9> Print[P_Hirshfeld] = 1
| 10> end
| 11> % maxcore
| 12> 4000
| 13> *xyz 0 1
| 14> Pd   0.77668946   0.66669945  -0.56533123
| 15> O    2.35382029   1.66452136   0.15075344
| 16> C    1.68595332   2.75298592   0.19659016
| 17> O    0.45990368   2.69715532  -0.08371247
| 18> C    2.37617773   4.05672203   0.51726355
| 19> H    1.69404543   4.74427275   1.01446721
| 20> H    2.69647481   4.52500199  -0.41769583
| 21> H    3.26333418   3.90573637   1.13124232
| 22> N   -1.15070355  -0.13340398  -1.13929531
| 23> C   -1.21700258  -0.61868781  -2.52896694
| 24> H   -0.92877969   0.18301786  -3.19756783
| 25> H   -2.24562424  -0.92133098  -2.75252344
| 26> H   -0.55585687  -1.46339971  -2.68340847
| 27> C   -2.10136662   0.97453454  -0.99616124
| 28> H   -2.06529851   1.39586331   0.00222036
| 29> H   -3.11349178   0.62217898  -1.21348963
| 30> H   -1.83303782   1.74533563  -1.71099899
| 31> C   -1.47860443  -1.01213153   1.25481785
| 32> C   -0.31147753  -1.48305410   1.91749561
| 33> C   -0.17841448  -1.39111097   3.29789632
| 34> C   -1.24830576  -0.90459725   4.01888910
| 35> C   -2.41503620  -0.46961702   3.35985056
| 36> C   -2.58995135  -0.52341054   1.99890348
| 37> H   -1.16314637  -0.82456357   5.10529591
| 38> H   -3.25268405  -0.23579224   3.99029410
| 39> H    0.50962653  -1.95948105   1.36672789
| 40> H    0.69770089  -1.78451516   3.80015088
| 41> H   -3.41714372  -0.07841901   1.61320036
| 42> C   -1.53736077  -1.26131222  -0.23436875
| 43> H   -2.57006310  -1.54451529  -0.46027516
| 44> H   -0.91653354  -2.12389404  -0.51407437
| 45> O    1.65355706  -1.04604139  -1.03821750
| 46> C    2.25014405  -0.96345928  -2.20311040
| 47> O    2.04937061  -0.08588960  -3.01649350
| 48> C    3.25826869  -2.07727850  -2.45067770
| 49> H    2.85745522  -3.05533777  -2.19749953
| 50> H    4.14479591  -1.91128882  -1.83977107
| 51> H    3.55914948  -2.06633773  -3.49672222
| 52> *
| 53>
| 54>                          ****END OF INPUT****

CARTESIAN COORDINATES (ANGSTROEM)
---------------------------------
  Pd     0.776689    0.666699   -0.565331
  O      2.353820    1.664521    0.150753
  C      1.685953    2.752986    0.196590
  O      0.459904    2.697155   -0.083712
  C      2.376178    4.056722    0.517264
  H      1.694045    4.744273    1.014467
  H      2.696475    4.525002   -0.417696
  H      3.263334    3.905736    1.131242
  N     -1.150704   -0.133404   -1.139295
  C     -1.217003   -0.618688   -2.528967
  H     -0.928780    0.183018   -3.197568
  H     -2.245624   -0.921331   -2.752523
  H     -0.555857   -1.463400   -2.683408
  C     -2.101367    0.974535   -0.996161
  H     -2.065299    1.395863    0.002220
  H     -3.113492    0.622179   -1.213490
  H     -1.833038    1.745336   -1.710999
  C     -1.478604   -1.012132    1.254818
  C     -0.311478   -1.483054    1.917496
  C     -0.178414   -1.391111    3.297896
  C     -1.248306   -0.904597    4.018889
  C     -2.415036   -0.469617    3.359851
  C     -2.589951   -0.523411    1.998903
  H     -1.163146   -0.824564    5.105296
  H     -3.252684   -0.235792    3.990294
  H      0.509627   -1.959481    1.366728
  H      0.697701   -1.784515    3.800151
  H     -3.417144   -0.078419    1.613200
  C     -1.537361   -1.261312   -0.234369
  H     -2.570063   -1.544515   -0.460275
  H     -0.916534   -2.123894   -0.514074
  O      1.653557   -1.046041   -1.038218
  C      2.250144   -0.963459   -2.203110
  O      2.049371   -0.085890   -3.016493
  C      3.258269   -2.077278   -2.450678
  H      2.857455   -3.055338   -2.197500
  H      4.144796   -1.911289   -1.839771
  H      3.559149   -2.066338   -3.496722

 Total Charge           Charge          ....    0
 Multiplicity           Mult            ....    1
 Number of Electrons    NEL             ....  154
 Basis Dimension        Dim             ....  339

ORBITAL ENERGIES
----------------

  NO   OCC          E(Eh)            E(eV)
   0   2.0000     -19.504854      -530.7541
   1   2.0000     -19.504183      -530.7358
   2   2.0000     -19.474850      -529.9376
   3   2.0000     -19.435490      -528.8666
   4   2.0000     -14.715891      -400.4398
   5   2.0000     -10.578660      -287.8600
   6   2.0000     -10.533526      -286.6318
   7   2.0000     -10.493924      -285.5542
   8   2.0000     -10.479011      -285.1484
   9   2.0000     -10.476898      -285.0909
  10   2.0000     -10.475611      -285.0559
  11   2.0000     -10.458871      -284.6004
  12   2.0000     -10.458678      -284.5951
  13   2.0000     -10.457477      -284.5624
  14   2.0000     -10.455586      -284.5110
  15   2.0000     -10.454528      -284.4822
  16   2.0000     -10.446611      -284.2667
  17   2.0000     -10.416018      -283.4343
  18   2.0000      -3.657235       -99.5184
  19   2.0000      -2.306166       -62.7540
  20   2.0000      -2.301861       -62.6368
  21   2.0000      -2.265569       -61.6493
  22   2.0000      -1.207230       -32.8504
  23   2.0000      -1.149631       -31.2831
  24   2.0000      -1.090658       -29.6783
  25   2.0000      -1.071180       -29.1483
  26   2.0000      -1.052582       -28.6422
  27   2.0000      -0.965078       -26.2611
  28   2.0000      -0.873098       -23.7582
  29   2.0000      -0.853004       -23.2114
  30   2.0000      -0.834104       -22.6971
  31   2.0000      -0.818365       -22.2688
  32   2.0000      -0.797094       -21.6900
  33   2.0000      -0.792759       -21.5721
  34   2.0000      -0.714576       -19.4446
  35   2.0000      -0.693571       -18.8730
  36   2.0000      -0.668597       -18.1934
  37   2.0000      -0.619732       -16.8638
  38   2.0000      -0.598633       -16.2896
  39   2.0000      -0.589437       -16.0394
  40   2.0000      -0.573786       -15.6135
  41   2.0000      -0.565238       -15.3809
  42   2.0000      -0.556176       -15.1343
  43   2.0000      -0.551900       -15.0180
  44   2.0000      -0.551400       -15.0044
  45   2.0000      -0.531220       -14.4552
  46   2.0000      -0.527365       -14.3503
  47   2.0000      -0.523288       -14.2394
  48   2.0000      -0.510041       -13.8789
  49   2.0000      -0.496479       -13.5099
  50   2.0000      -0.495530       -13.4841
  51   2.0000      -0.489397       -13.3172
  52   2.0000      -0.478819       -13.0293
  53   2.0000      -0.469909       -12.7869
  54   2.0000      -0.462395       -12.5824
  55   2.0000      -0.455022       -12.3818
  56   2.0000      -0.451784       -12.2937
  57   2.0000      -0.446274       -12.1437
  58   2.0000      -0.441273       -12.0076
  59   2.0000      -0.433073       -11.7845
  60   2.0000      -0.427788       -11.6407
  61   2.0000      -0.419094       -11.4041
  62   2.0000      -0.411159       -11.1882
  63   2.0000      -0.404611       -11.0100
  64   2.0000      -0.398406       -10.8412
  65   2.0000      -0.392948       -10.6926
  66   2.0000      -0.376642       -10.2489
  67   2.0000      -0.364153        -9.9091
  68   2.0000      -0.350646        -9.5416
  69   2.0000      -0.344109        -9.3637
  70   2.0000      -0.319175        -8.6852
  71   2.0000      -0.313656        -8.5350
  72   2.0000      -0.309963        -8.4345
  73   2.0000      -0.305116        -8.3026
  74   2.0000      -0.299064        -8.1380
  75   2.0000      -0.291817        -7.9407
  76   2.0000      -0.271783        -7.3956
  77   0.0000      -0.038683        -1.0526
  78   0.0000      -0.004896        -0.1332
  79   0.0000       0.007294         0.1985
  80   0.0000       0.040573         1.1040
  81   0.0000       0.069061         1.8792

MULLIKEN ATOMIC CHARGES
-----------------------
   0 Pd:    0.529282
   1 O :   -0.493874
   2 C :    0.676930
   3 O :   -0.500449
   4 C :   -0.768871
   5 H :    0.252970
   6 H :    0.263310
   7 H :    0.259898
   8 N :   -0.479074
   9 C :   -0.514214
  10 H :    0.279511
  11 H :    0.215607
  12 H :    0.271810
  13 C :   -0.528417
  14 H :    0.287570
  15 H :    0.216598
  16 H :    0.274139
  17 C :    0.052242
  18 C :   -0.257295
  19 C :   -0.197908
  20 C :   -0.226770
  21 C :   -0.219217
  22 C :   -0.237809
  23 H :    0.224735
  24 H :    0.218162
  25 H :    0.271694
  26 H :    0.230309
  27 H :    0.226184
  28 C :   -0.362085
  29 H :    0.232613
  30 H :    0.279331
  31 O :   -0.565285
  32 C :    0.559021
  33 O :   -0.441090
  34 C :   -0.743410
  35 H :    0.228661
  36 H :    0.246376
  37 H :    0.238813
Sum of atomic charges:    0.0000000

LOEWDIN ATOMIC CHARGES
----------------------
   0 Pd:   -0.293357
   1 O :   -0.144826
   2 C :    0.203538
   3 O :   -0.173307
   4 C :   -0.376685
   5 H :    0.153669
   6 H :    0.165600
   7 H :    0.156683
   8 N :   -0.055495
   9 C :   -0.229113
  10 H :    0.157146
  11 H :    0.118218
  12 H :    0.152656
  13 C :   -0.234566
  14 H :    0.159943
  15 H :    0.119467
  16 H :    0.155014
  17 C :   -0.048380
  18 C :   -0.101161
  19 C :   -0.125165
  20 C :   -0.128102
  21 C :   -0.128892
  22 C :   -0.135972
  23 H :    0.138127
  24 H :    0.135526
  25 H :    0.166244
  26 H :    0.142135
  27 H :    0.139888
  28 C :   -0.112264
  29 H :    0.128125
  30 H :    0.158537
  31 O :   -0.210176
  32 C :    0.134658
  33 O :   -0.237850
  34 C :   -0.384210
  35 H :    0.140074
  36 H :    0.152513
  37 H :    0.141760

  Mayer bond orders larger than 0.100000
B(  0-Pd,  1-O ) :   0.5785 B(  0-Pd,  3-O ) :   0.4911 B(  0-Pd,  8-N ) :   0.4072
B(  0-Pd, 31-O ) :   0.6451 B(  0-Pd, 33-O ) :   0.1093 B(  1-O ,  2-C ) :   1.4029
B(  1-O ,  3-O ) :   0.1042 B(  2-C ,  3-O ) :   1.4860 B(  2-C ,  4-C ) :   0.9566
B(  4-C ,  5-H ) :   0.9088 B(  4-C ,  6-H ) :   0.9007 B(  4-C ,  7-H ) :   0.9072
B(  8-N ,  9-C ) :   0.9225 B(  8-N , 13-C ) :   0.9238 B(  8-N , 28-C ) :   0.8933
B(  9-C , 10-H ) :   0.8993 B(  9-C , 11-H ) :   0.9034 B(  9-C , 12-H ) :   0.9012
B( 13-C , 14-H ) :   0.8893 B( 13-C , 15-H ) :   0.9053 B( 13-C , 16-H ) :   0.9014
B( 17-C , 18-C ) :   1.4196 B( 17-C , 22-C ) :   1.3729 B( 17-C , 28-C ) :   0.9518
B( 18-C , 19-C ) :   1.4127 B( 18-C , 25-H ) :   0.8919 B( 19-C , 20-C ) :   1.4403
B( 19-C , 26-H ) :   0.9144 B( 20-C , 21-C ) :   1.4030 B( 20-C , 23-H ) :   0.9175
B( 21-C , 22-C ) :   1.4638 B( 21-C , 24-H ) :   0.9189 B( 22-C , 27-H ) :   0.9169
B( 28-C , 29-H ) :   0.9047 B( 28-C , 30-H ) :   0.8984 B( 31-O , 32-C ) :   1.2292
B( 32-C , 33-O ) :   1.8928 B( 32-C , 34-C ) :   0.9359 B( 34-C , 35-H ) :   0.9168
B( 34-C , 36-H ) :   0.9115 B( 34-C , 37-H ) :   0.9197

Dispersion correction           -0.026057682
FINAL SINGLE POINT ENERGY      -988.553797606791
Dispersion correction            ... done

DIPOLE MOMENT
-------------
                                X             Y             Z
Electronic contribution:     35.31105      33.52276     -28.36759
Nuclear contribution   :    -36.97662     -33.59054      29.17227
                        -----------------------------------------
Total Dipole Moment    :     -1.66557      -0.06778       0.80468
                        -----------------------------------------
Magnitude (a.u.)       :      1.85100
Magnitude (Debye)      :      4.70488

Rotational constants in cm-1:     0.013313     0.008328     0.007100
Rotational constants in MHz :   399.108925   249.659267   212.860599

                             ****ORCA TERMINATED NORMALLY****
TOTAL RUN TIME: 0 days 0 hours 14 minutes 25 seconds 183 msec
