                         Program Version 5.0.3 -  RELEASE  -
|  1> ! EnGrad PBEh-3c
|  2> %output
|  3> xyzfile=True
|  4> end
|  5> %scf
|  6> maxiter 250
|  7> end
|  8> %output
|  9> Print[P_Hirshfeld] = 1
| 10> end
| 11> % maxcore
| 12> 4000
| 13> *xyz -1 1
| 14> C   -2.51655547  -0.23340812   0.81415807
| 15> C   -1.96784455   0.91128148   1.41782807
| 16> C   -3.83137536  -0.55508591   1.15644574
| 17> C   -4.72189091   0.45778394   1.49082297
| 18> C   -4.18986910   1.60295604   2.05820711
| 19> C   -2.81280416   1.72482318   2.17051524
| 20> H   -2.58148138  -1.22971564  -1.03410820
| 21> H   -4.23692267  -1.53732391   0.94817034
| 22> H   -2.43932861   2.62972813   2.63814996
| 23> H   -5.79207897   0.27729136   1.50847902
| 24> H   -4.85781073   2.33033851   2.50392653
| 25> C   -0.60473646   1.43529359   1.07590598
| 26> C    0.53368999   0.55111994   1.56116948
| 27> H   -0.41687282   2.44723553   1.45926781
| 28> H   -0.60962692   1.63996111   0.00136210
| 29> C    1.74167679   0.62916030   0.66502705
| 30> H    0.22247881  -0.49256001   1.65289358
| 31> H    0.80495751   0.83178445   2.58621623
| 32> C    1.80119058  -0.08963843  -0.53882608
| 33> C    2.91062536   0.09559311  -1.36044420
| 34> C    3.87288343   1.05911152  -1.08022882
| 35> C    2.85571317   1.36860367   1.05966440
| 36> C    3.82543593   1.72849716   0.13309559
| 37> H    3.02808832  -0.48998885  -2.26297871
| 38> H    4.65173806   1.28436026  -1.79947665
| 39> H    2.86269344   1.81553858   2.04886390
| 40> H    4.49352063   2.55927851   0.32578205
| 41> Pd   0.43341440  -1.41992530  -0.98517351
| 42> Br  -1.33961344  -3.75282634  -1.21303589
| 43> P    1.30919419  -2.98773304   0.25378185
| 44> H    0.58044949  -3.44669962   1.35836236
| 45> C    0.57914332  -1.10202372  -3.93178067
| 46> O    1.61586140  -1.67528444  -4.18540660
| 47> O   -0.37035620  -1.56362673  -3.22352753
| 48> O    0.10747638  -0.05582364  -4.64878766
| 49> H    2.52920925  -2.75279331   0.91637282
| 50> H    1.69884478  -4.20695129  -0.32469410
| 51> H    0.83088207   0.21167031  -5.21598100
| 52> *
| 53>
| 54>                          ****END OF INPUT****

CARTESIAN COORDINATES (ANGSTROEM)
---------------------------------
  C     -2.516555   -0.233408    0.814158
  C     -1.967845    0.911281    1.417828
  C     -3.831375   -0.555086    1.156446
  C     -4.721891    0.457784    1.490823
  C     -4.189869    1.602956    2.058207
  C     -2.812804    1.724823    2.170515
  H     -2.581481   -1.229716   -1.034108
  H     -4.236923   -1.537324    0.948170
  H     -2.439329    2.629728    2.638150
  H     -5.792079    0.277291    1.508479
  H     -4.857811    2.330339    2.503927
  C     -0.604736    1.435294    1.075906
  C      0.533690    0.551120    1.561169
  H     -0.416873    2.447236    1.459268
  H     -0.609627    1.639961    0.001362
  C      1.741677    0.629160    0.665027
  H      0.222479   -0.492560    1.652894
  H      0.804958    0.831784    2.586216
  C      1.801191   -0.089638   -0.538826
  C      2.910625    0.095593   -1.360444
  C      3.872883    1.059112   -1.080229
  C      2.855713    1.368604    1.059664
  C      3.825436    1.728497    0.133096
  H      3.028088   -0.489989   -2.262979
  H      4.651738    1.284360   -1.799477
  H      2.862693    1.815539    2.048864
  H      4.493521    2.559279    0.325782
  Pd     0.433414   -1.419925   -0.985174
  Br    -1.339613   -3.752826   -1.213036
  P      1.309194   -2.987733    0.253782
  H      0.580449   -3.446700    1.358362
  C      0.579143   -1.102024   -3.931781
  O      1.615861   -1.675284   -4.185407
  O     -0.370356   -1.563627   -3.223528
  O      0.107476   -0.055824   -4.648788
  H      2.529209   -2.752793    0.916373
  H      1.698845   -4.206951   -0.324694
  H      0.830882    0.211670   -5.215981

 Total Charge           Charge          ....   -1
 Multiplicity           Mult            ....    1
 Number of Electrons    NEL             ....  200
 Basis Dimension        Dim             ....  385

ORBITAL ENERGIES
----------------

  NO   OCC          E(Eh)            E(eV)
   0   2.0000    -484.318714    -13178.9822
   1   2.0000     -77.683692     -2113.8807
   2   2.0000     -62.980133     -1713.7765
   3   2.0000     -56.683574     -1542.4385
   4   2.0000     -56.682984     -1542.4224
   5   2.0000     -56.682757     -1542.4162
   6   2.0000     -19.366568      -526.9911
   7   2.0000     -19.287963      -524.8522
   8   2.0000     -19.282588      -524.7059
   9   2.0000     -10.417757      -283.4816
  10   2.0000     -10.380331      -282.4632
  11   2.0000     -10.365310      -282.0544
  12   2.0000     -10.355199      -281.7793
  13   2.0000     -10.354024      -281.7473
  14   2.0000     -10.354011      -281.7470
  15   2.0000     -10.353509      -281.7333
  16   2.0000     -10.352910      -281.7170
  17   2.0000     -10.352256      -281.6992
  18   2.0000     -10.349303      -281.6188
  19   2.0000     -10.348216      -281.5893
  20   2.0000     -10.347498      -281.5697
  21   2.0000     -10.345266      -281.5090
  22   2.0000     -10.344999      -281.5017
  23   2.0000     -10.335643      -281.2471
  24   2.0000      -8.807049      -239.6520
  25   2.0000      -6.757599      -183.8836
  26   2.0000      -6.575896      -178.9392
  27   2.0000      -6.572998      -178.8604
  28   2.0000      -6.570677      -178.7972
  29   2.0000      -4.848723      -131.9405
  30   2.0000      -4.848390      -131.9314
  31   2.0000      -4.847300      -131.9017
  32   2.0000      -3.537178       -96.2515
  33   2.0000      -2.590227       -70.4837
  34   2.0000      -2.589848       -70.4733
  35   2.0000      -2.587878       -70.4198
  36   2.0000      -2.585386       -70.3519
  37   2.0000      -2.585084       -70.3437
  38   2.0000      -2.185207       -59.4625
  39   2.0000      -2.180044       -59.3220
  40   2.0000      -2.152095       -58.5615
  41   2.0000      -1.062072       -28.9004
  42   2.0000      -0.948967       -25.8227
  43   2.0000      -0.897534       -24.4231
  44   2.0000      -0.868156       -23.6237
  45   2.0000      -0.857026       -23.3209
  46   2.0000      -0.797678       -21.7059
  47   2.0000      -0.753379       -20.5005
  48   2.0000      -0.733657       -19.9638
  49   2.0000      -0.728877       -19.8338
  50   2.0000      -0.698368       -19.0036
  51   2.0000      -0.655773       -17.8445
  52   2.0000      -0.625513       -17.0211
  53   2.0000      -0.621031       -16.8991
  54   2.0000      -0.579217       -15.7613
  55   2.0000      -0.574425       -15.6309
  56   2.0000      -0.556669       -15.1477
  57   2.0000      -0.543999       -14.8030
  58   2.0000      -0.512311       -13.9407
  59   2.0000      -0.479443       -13.0463
  60   2.0000      -0.471563       -12.8319
  61   2.0000      -0.440894       -11.9973
  62   2.0000      -0.421489       -11.4693
  63   2.0000      -0.417779       -11.3684
  64   2.0000      -0.406772       -11.0688
  65   2.0000      -0.386942       -10.5292
  66   2.0000      -0.383421       -10.4334
  67   2.0000      -0.382283       -10.4025
  68   2.0000      -0.376502       -10.2452
  69   2.0000      -0.372484       -10.1358
  70   2.0000      -0.368692       -10.0326
  71   2.0000      -0.361970        -9.8497
  72   2.0000      -0.359224        -9.7750
  73   2.0000      -0.356551        -9.7022
  74   2.0000      -0.352747        -9.5987
  75   2.0000      -0.336372        -9.1531
  76   2.0000      -0.332048        -9.0355
  77   2.0000      -0.324855        -8.8398
  78   2.0000      -0.320895        -8.7320
  79   2.0000      -0.302041        -8.2189
  80   2.0000      -0.296679        -8.0730
  81   2.0000      -0.289500        -7.8777
  82   2.0000      -0.280887        -7.6433
  83   2.0000      -0.268167        -7.2972
  84   2.0000      -0.261320        -7.1109
  85   2.0000      -0.239060        -6.5051
  86   2.0000      -0.232299        -6.3212
  87   2.0000      -0.222836        -6.0637
  88   2.0000      -0.210690        -5.7332
  89   2.0000      -0.200931        -5.4676
  90   2.0000      -0.189601        -5.1593
  91   2.0000      -0.183979        -5.0063
  92   2.0000      -0.180132        -4.9016
  93   2.0000      -0.174076        -4.7369
  94   2.0000      -0.164058        -4.4643
  95   2.0000      -0.154179        -4.1954
  96   2.0000      -0.145404        -3.9566
  97   2.0000      -0.142317        -3.8726
  98   2.0000      -0.137168        -3.7325
  99   2.0000      -0.125456        -3.4138
 100   0.0000       0.030285         0.8241
 101   0.0000       0.051809         1.4098
 102   0.0000       0.107112         2.9147
 103   0.0000       0.115195         3.1346
 104   0.0000       0.118557         3.2261

MULLIKEN ATOMIC CHARGES
-----------------------
   0 C :   -0.068662
   1 C :    0.008226
   2 C :   -0.265729
   3 C :   -0.215371
   4 C :   -0.226075
   5 C :   -0.256353
   6 H :    0.207521
   7 H :    0.229694
   8 H :    0.189861
   9 H :    0.198305
  10 H :    0.195533
  11 C :   -0.482728
  12 C :   -0.511617
  13 H :    0.214729
  14 H :    0.284266
  15 C :    0.116277
  16 H :    0.264933
  17 H :    0.212527
  18 C :   -0.172010
  19 C :   -0.264273
  20 C :   -0.228615
  21 C :   -0.281892
  22 C :   -0.232949
  23 H :    0.270831
  24 H :    0.195875
  25 H :    0.181007
  26 H :    0.190354
  27 Pd:    0.196312
  28 Br:   -0.511884
  29 P :   -0.141484
  30 H :    0.132159
  31 C :    0.629955
  32 O :   -0.526531
  33 O :   -0.544467
  34 O :   -0.601865
  35 H :    0.077567
  36 H :    0.142919
  37 H :    0.393654
Sum of atomic charges:   -1.0000000

LOEWDIN ATOMIC CHARGES
----------------------
   0 C :   -0.074593
   1 C :   -0.063873
   2 C :   -0.140297
   3 C :   -0.162311
   4 C :   -0.153754
   5 C :   -0.151591
   6 H :    0.236180
   7 H :    0.134273
   8 H :    0.125484
   9 H :    0.126184
  10 H :    0.123597
  11 C :   -0.211002
  12 C :   -0.210330
  13 H :    0.123743
  14 H :    0.161601
  15 C :   -0.036079
  16 H :    0.153678
  17 H :    0.121823
  18 C :   -0.012179
  19 C :   -0.119440
  20 C :   -0.149427
  21 C :   -0.145609
  22 C :   -0.159197
  23 H :    0.167162
  24 H :    0.126383
  25 H :    0.121338
  26 H :    0.122603
  27 Pd:   -0.691221
  28 Br:   -0.372471
  29 P :    0.426630
  30 H :    0.061481
  31 C :    0.072382
  32 O :   -0.333964
  33 O :   -0.280583
  34 O :   -0.330550
  35 H :    0.023057
  36 H :    0.069372
  37 H :    0.301502

  Mayer bond orders larger than 0.100000
B(  0-C ,  1-C ) :   1.4514 B(  0-C ,  2-C ) :   1.3999 B(  0-C ,  6-H ) :   0.6836
B(  1-C ,  5-C ) :   1.3745 B(  1-C , 11-C ) :   0.9586 B(  2-C ,  3-C ) :   1.4290
B(  2-C ,  7-H ) :   0.9137 B(  3-C ,  4-C ) :   1.4044 B(  3-C ,  9-H ) :   0.9216
B(  4-C ,  5-C ) :   1.4564 B(  4-C , 10-H ) :   0.9245 B(  5-C ,  8-H ) :   0.9224
B( 11-C , 12-C ) :   0.9284 B( 11-C , 13-H ) :   0.9264 B( 11-C , 14-H ) :   0.8883
B( 12-C , 15-C ) :   0.9598 B( 12-C , 16-H ) :   0.8866 B( 12-C , 17-H ) :   0.9270
B( 15-C , 18-C ) :   1.3306 B( 15-C , 21-C ) :   1.4250 B( 18-C , 19-C ) :   1.4127
B( 18-C , 27-Pd) :   0.8437 B( 18-C , 28-Br) :   0.1013 B( 18-C , 29-P ) :   0.1013
B( 19-C , 20-C ) :   1.3975 B( 19-C , 23-H ) :   0.8750 B( 20-C , 22-C ) :   1.4381
B( 20-C , 24-H ) :   0.9252 B( 21-C , 22-C ) :   1.4119 B( 21-C , 25-H ) :   0.9265
B( 22-C , 26-H ) :   0.9276 B( 27-Pd, 28-Br) :   0.3469 B( 27-Pd, 29-P ) :   0.7761
B( 27-Pd, 33-O ) :   0.4144 B( 28-Br, 29-P ) :   0.1572 B( 29-P , 30-H ) :   0.9229
B( 29-P , 35-H ) :   0.8977 B( 29-P , 36-H ) :   0.9253 B( 31-C , 32-O ) :   1.8181
B( 31-C , 33-O ) :   1.4398 B( 31-C , 34-O ) :   1.0501 B( 34-O , 37-H ) :   0.7952

Dispersion correction           -0.031062665
FINAL SINGLE POINT ENERGY     -3847.499112843335
Dispersion correction            ... done

DIPOLE MOMENT
-------------
                                X             Y             Z
Electronic contribution:     21.41204     -69.17067     -40.76302
Nuclear contribution   :    -20.48484      70.75340      43.97266
                        -----------------------------------------
Total Dipole Moment    :      0.92720       1.58272       3.20964
                        -----------------------------------------
Magnitude (a.u.)       :      3.69682
Magnitude (Debye)      :      9.39657

Rotational constants in cm-1:     0.006729     0.005766     0.004079
Rotational constants in MHz :   201.733602   172.855742   122.295170

                             ****ORCA TERMINATED NORMALLY****
TOTAL RUN TIME: 0 days 0 hours 23 minutes 13 seconds 609 msec
