                         Program Version 5.0.3 -  RELEASE  -
|  1> ! EnGrad PBEh-3c
|  2> %output
|  3> xyzfile=True
|  4> end
|  5> %scf
|  6> maxiter 250
|  7> end
|  8> %output
|  9> Print[P_Hirshfeld] = 1
| 10> end
| 11> % maxcore
| 12> 4000
| 13> *xyz -1 1
| 14> C   -2.40034797  -0.14325280   0.50780651
| 15> C   -1.93331671   1.01138201   1.28750314
| 16> C   -3.74020296  -0.47350186   0.65940872
| 17> C   -4.66369084   0.36113255   1.30954176
| 18> C   -4.27192051   1.58995469   1.82254673
| 19> C   -2.90100073   1.87945209   1.83323596
| 20> H   -2.23916659  -1.10772224  -0.93641894
| 21> H   -3.99219838  -1.51431588   0.44672846
| 22> H   -2.58590963   2.85925085   2.22988912
| 23> H   -5.69461443   0.20226700   1.02346113
| 24> H   -5.00478519   2.33868140   2.13950129
| 25> C   -0.45285506   1.47969217   1.58916386
| 26> C    0.69495631   0.42318316   1.86363544
| 27> H   -0.45716905   2.20813640   2.48820056
| 28> H   -0.19259726   2.01177148   0.64376965
| 29> C    1.79661659   0.53398036   0.81382865
| 30> H    0.25770610  -0.58213120   1.84323573
| 31> H    1.13428248   0.61600137   2.86582877
| 32> C    1.65904063  -0.10531891  -0.45829469
| 33> C    2.68119699   0.18224308  -1.37949380
| 34> C    3.68981755   1.12299358  -1.13065052
| 35> C    2.82660858   1.47380395   1.06828368
| 36> C    3.77540771   1.77442793   0.10161087
| 37> H    2.71173637  -0.38921987  -2.30821144
| 38> H    4.43836010   1.33016100  -1.88729014
| 39> H    3.01179203   1.81226447   2.09706037
| 40> H    4.55706480   2.50378674   0.31296085
| 41> Pd   0.09319326  -1.57260890  -0.92983466
| 42> Br  -1.49262933  -3.58748837  -0.69606486
| 43> P    1.41753922  -2.97248254   0.11043457
| 44> H    0.96011885  -3.59398165   1.30357300
| 45> C    0.36572946  -1.32326681  -3.89921317
| 46> O    1.50793885  -1.69445521  -4.24750893
| 47> O   -0.43790354  -1.91084634  -3.05557685
| 48> O   -0.12137780  -0.16362293  -4.38819316
| 49> H    2.78629790  -2.76133165   0.49161315
| 50> H    1.59852669  -4.12582511  -0.69412940
| 51> H    0.61660167   0.29867308  -4.82932337
| 52> *
| 53>
| 54>                          ****END OF INPUT****

CARTESIAN COORDINATES (ANGSTROEM)
---------------------------------
  C     -2.400348   -0.143253    0.507807
  C     -1.933317    1.011382    1.287503
  C     -3.740203   -0.473502    0.659409
  C     -4.663691    0.361133    1.309542
  C     -4.271921    1.589955    1.822547
  C     -2.901001    1.879452    1.833236
  H     -2.239167   -1.107722   -0.936419
  H     -3.992198   -1.514316    0.446728
  H     -2.585910    2.859251    2.229889
  H     -5.694614    0.202267    1.023461
  H     -5.004785    2.338681    2.139501
  C     -0.452855    1.479692    1.589164
  C      0.694956    0.423183    1.863635
  H     -0.457169    2.208136    2.488201
  H     -0.192597    2.011771    0.643770
  C      1.796617    0.533980    0.813829
  H      0.257706   -0.582131    1.843236
  H      1.134282    0.616001    2.865829
  C      1.659041   -0.105319   -0.458295
  C      2.681197    0.182243   -1.379494
  C      3.689818    1.122994   -1.130651
  C      2.826609    1.473804    1.068284
  C      3.775408    1.774428    0.101611
  H      2.711736   -0.389220   -2.308211
  H      4.438360    1.330161   -1.887290
  H      3.011792    1.812264    2.097060
  H      4.557065    2.503787    0.312961
  Pd     0.093193   -1.572609   -0.929835
  Br    -1.492629   -3.587488   -0.696065
  P      1.417539   -2.972483    0.110435
  H      0.960119   -3.593982    1.303573
  C      0.365729   -1.323267   -3.899213
  O      1.507939   -1.694455   -4.247509
  O     -0.437904   -1.910846   -3.055577
  O     -0.121378   -0.163623   -4.388193
  H      2.786298   -2.761332    0.491613
  H      1.598527   -4.125825   -0.694129
  H      0.616602    0.298673   -4.829323

 Total Charge           Charge          ....   -1
 Multiplicity           Mult            ....    1
 Number of Electrons    NEL             ....  200
 Basis Dimension        Dim             ....  385

ORBITAL ENERGIES
----------------

  NO   OCC          E(Eh)            E(eV)
   0   2.0000    -484.336407    -13179.4637
   1   2.0000     -77.686869     -2113.9672
   2   2.0000     -62.998184     -1714.2677
   3   2.0000     -56.701918     -1542.9376
   4   2.0000     -56.700864     -1542.9090
   5   2.0000     -56.700631     -1542.9026
   6   2.0000     -19.375620      -527.2374
   7   2.0000     -19.298675      -525.1436
   8   2.0000     -19.291169      -524.9394
   9   2.0000     -10.433060      -283.8980
  10   2.0000     -10.388696      -282.6908
  11   2.0000     -10.383860      -282.5592
  12   2.0000     -10.364402      -282.0297
  13   2.0000     -10.358864      -281.8790
  14   2.0000     -10.357704      -281.8474
  15   2.0000     -10.354734      -281.7666
  16   2.0000     -10.352387      -281.7028
  17   2.0000     -10.349822      -281.6330
  18   2.0000     -10.349366      -281.6206
  19   2.0000     -10.348765      -281.6042
  20   2.0000     -10.347965      -281.5824
  21   2.0000     -10.347341      -281.5655
  22   2.0000     -10.343806      -281.4693
  23   2.0000     -10.334375      -281.2126
  24   2.0000      -8.825606      -240.1570
  25   2.0000      -6.758915      -183.9194
  26   2.0000      -6.595425      -179.4706
  27   2.0000      -6.590846      -179.3460
  28   2.0000      -6.589097      -179.2984
  29   2.0000      -4.850093      -131.9778
  30   2.0000      -4.849873      -131.9718
  31   2.0000      -4.848624      -131.9378
  32   2.0000      -3.527447       -95.9867
  33   2.0000      -2.609517       -71.0086
  34   2.0000      -2.608660       -70.9852
  35   2.0000      -2.607143       -70.9440
  36   2.0000      -2.603193       -70.8365
  37   2.0000      -2.603063       -70.8330
  38   2.0000      -2.172525       -59.1174
  39   2.0000      -2.171528       -59.0903
  40   2.0000      -2.142197       -58.2922
  41   2.0000      -1.057639       -28.7798
  42   2.0000      -0.936585       -25.4858
  43   2.0000      -0.894873       -24.3507
  44   2.0000      -0.853080       -23.2135
  45   2.0000      -0.842999       -22.9392
  46   2.0000      -0.778300       -21.1786
  47   2.0000      -0.741905       -20.1882
  48   2.0000      -0.731205       -19.8971
  49   2.0000      -0.721242       -19.6260
  50   2.0000      -0.684255       -18.6195
  51   2.0000      -0.659465       -17.9450
  52   2.0000      -0.635829       -17.3018
  53   2.0000      -0.615958       -16.7611
  54   2.0000      -0.567616       -15.4456
  55   2.0000      -0.562211       -15.2985
  56   2.0000      -0.555698       -15.1213
  57   2.0000      -0.535310       -14.5665
  58   2.0000      -0.523185       -14.2366
  59   2.0000      -0.466365       -12.6904
  60   2.0000      -0.460602       -12.5336
  61   2.0000      -0.429447       -11.6858
  62   2.0000      -0.415622       -11.3097
  63   2.0000      -0.406091       -11.0503
  64   2.0000      -0.403435       -10.9780
  65   2.0000      -0.385191       -10.4816
  66   2.0000      -0.376982       -10.2582
  67   2.0000      -0.374661       -10.1951
  68   2.0000      -0.371451       -10.1077
  69   2.0000      -0.370080       -10.0704
  70   2.0000      -0.368159       -10.0181
  71   2.0000      -0.364246        -9.9116
  72   2.0000      -0.354535        -9.6474
  73   2.0000      -0.348549        -9.4845
  74   2.0000      -0.339765        -9.2455
  75   2.0000      -0.332562        -9.0495
  76   2.0000      -0.323715        -8.8087
  77   2.0000      -0.320561        -8.7229
  78   2.0000      -0.302395        -8.2286
  79   2.0000      -0.299396        -8.1470
  80   2.0000      -0.294096        -8.0028
  81   2.0000      -0.286108        -7.7854
  82   2.0000      -0.273979        -7.4554
  83   2.0000      -0.264113        -7.1869
  84   2.0000      -0.259441        -7.0597
  85   2.0000      -0.246868        -6.7176
  86   2.0000      -0.235439        -6.4066
  87   2.0000      -0.225089        -6.1250
  88   2.0000      -0.208494        -5.6734
  89   2.0000      -0.199046        -5.4163
  90   2.0000      -0.186809        -5.0833
  91   2.0000      -0.179564        -4.8862
  92   2.0000      -0.178245        -4.8503
  93   2.0000      -0.176125        -4.7926
  94   2.0000      -0.170202        -4.6314
  95   2.0000      -0.157248        -4.2789
  96   2.0000      -0.153716        -4.1828
  97   2.0000      -0.148742        -4.0475
  98   2.0000      -0.142836        -3.8868
  99   2.0000      -0.130033        -3.5384
 100   0.0000       0.054174         1.4741
 101   0.0000       0.074557         2.0288
 102   0.0000       0.110292         3.0012
 103   0.0000       0.118288         3.2188
 104   0.0000       0.119786         3.2596

MULLIKEN ATOMIC CHARGES
-----------------------
   0 C :   -0.151392
   1 C :    0.011868
   2 C :   -0.235366
   3 C :   -0.227390
   4 C :   -0.221440
   5 C :   -0.245912
   6 H :    0.241744
   7 H :    0.251861
   8 H :    0.197856
   9 H :    0.195017
  10 H :    0.194744
  11 C :   -0.464149
  12 C :   -0.502540
  13 H :    0.191633
  14 H :    0.263992
  15 C :    0.022620
  16 H :    0.270205
  17 H :    0.199683
  18 C :   -0.110325
  19 C :   -0.289991
  20 C :   -0.226095
  21 C :   -0.243975
  22 C :   -0.232092
  23 H :    0.271846
  24 H :    0.191785
  25 H :    0.176912
  26 H :    0.186572
  27 Pd:    0.135999
  28 Br:   -0.433826
  29 P :   -0.123010
  30 H :    0.117497
  31 C :    0.676155
  32 O :   -0.561373
  33 O :   -0.569550
  34 O :   -0.601318
  35 H :    0.088306
  36 H :    0.145932
  37 H :    0.407520
Sum of atomic charges:   -1.0000000

LOEWDIN ATOMIC CHARGES
----------------------
   0 C :   -0.081548
   1 C :   -0.034667
   2 C :   -0.156325
   3 C :   -0.167991
   4 C :   -0.155325
   5 C :   -0.152339
   6 H :    0.273790
   7 H :    0.147730
   8 H :    0.126903
   9 H :    0.129225
  10 H :    0.124318
  11 C :   -0.214207
  12 C :   -0.219024
  13 H :    0.121642
  14 H :    0.156755
  15 C :   -0.051011
  16 H :    0.154537
  17 H :    0.118762
  18 C :   -0.040188
  19 C :   -0.127725
  20 C :   -0.154025
  21 C :   -0.155661
  22 C :   -0.159796
  23 H :    0.163174
  24 H :    0.124327
  25 H :    0.121069
  26 H :    0.120883
  27 Pd:   -0.852102
  28 Br:   -0.216483
  29 P :    0.436762
  30 H :    0.052885
  31 C :    0.132707
  32 O :   -0.380258
  33 O :   -0.284140
  34 O :   -0.325346
  35 H :    0.034105
  36 H :    0.074135
  37 H :    0.314450

  Mayer bond orders larger than 0.100000
B(  0-C ,  1-C ) :   1.4044 B(  0-C ,  2-C ) :   1.4179 B(  0-C ,  6-H ) :   0.7217
B(  0-C , 27-Pd) :   0.1011 B(  1-C ,  5-C ) :   1.4240 B(  1-C , 11-C ) :   0.9436
B(  2-C ,  3-C ) :   1.3752 B(  2-C ,  7-H ) :   0.8990 B(  3-C ,  4-C ) :   1.4554
B(  3-C ,  9-H ) :   0.9251 B(  4-C ,  5-C ) :   1.4022 B(  4-C , 10-H ) :   0.9252
B(  5-C ,  8-H ) :   0.9185 B( 11-C , 12-C ) :   0.9082 B( 11-C , 13-H ) :   0.9385
B( 11-C , 14-H ) :   0.8975 B( 12-C , 15-C ) :   0.9752 B( 12-C , 16-H ) :   0.8894
B( 12-C , 17-H ) :   0.9321 B( 15-C , 18-C ) :   1.3518 B( 15-C , 21-C ) :   1.3842
B( 18-C , 19-C ) :   1.4077 B( 18-C , 27-Pd) :   0.6955 B( 18-C , 28-Br) :   0.1136
B( 19-C , 20-C ) :   1.4064 B( 19-C , 23-H ) :   0.8716 B( 20-C , 22-C ) :   1.4240
B( 20-C , 24-H ) :   0.9266 B( 21-C , 22-C ) :   1.4341 B( 21-C , 25-H ) :   0.9262
B( 22-C , 26-H ) :   0.9270 B( 27-Pd, 28-Br) :   0.5395 B( 27-Pd, 29-P ) :   0.7767
B( 27-Pd, 33-O ) :   0.4245 B( 28-Br, 29-P ) :   0.1208 B( 29-P , 30-H ) :   0.9174
B( 29-P , 35-H ) :   0.9029 B( 29-P , 36-H ) :   0.9233 B( 31-C , 32-O ) :   1.7848
B( 31-C , 33-O ) :   1.4120 B( 31-C , 34-O ) :   1.0556 B( 34-O , 37-H ) :   0.7823

Dispersion correction           -0.031378689
FINAL SINGLE POINT ENERGY     -3847.538986370318
Dispersion correction            ... done

DIPOLE MOMENT
-------------
                                X             Y             Z
Electronic contribution:      3.42243     -77.30493     -37.90022
Nuclear contribution   :     -2.65283      78.58101      40.80881
                        -----------------------------------------
Total Dipole Moment    :      0.76960       1.27608       2.90858
                        -----------------------------------------
Magnitude (a.u.)       :      3.26811
Magnitude (Debye)      :      8.30687

Rotational constants in cm-1:     0.006808     0.006066     0.004296
Rotational constants in MHz :   204.084424   181.868957   128.797689

                             ****ORCA TERMINATED NORMALLY****
TOTAL RUN TIME: 0 days 0 hours 17 minutes 22 seconds 595 msec
