                         Program Version 5.0.3 -  RELEASE  -
|  1> ! EnGrad PBEh-3c
|  2> %output
|  3> xyzfile=True
|  4> end
|  5> %scf
|  6> maxiter 250
|  7> end
|  8> %output
|  9> Print[P_Hirshfeld] = 1
| 10> end
| 11> % maxcore
| 12> 4000
| 13> *xyz -1 1
| 14> C   -2.37972189  -0.13042166   0.47297414
| 15> C   -1.91797460   1.01751753   1.27158223
| 16> C   -3.71656837  -0.47661973   0.66817579
| 17> C   -4.66632942   0.36246347   1.25341950
| 18> C   -4.27377600   1.59416763   1.77555768
| 19> C   -2.90349598   1.87851759   1.79834599
| 20> H   -2.16823834  -1.05771188  -0.85281156
| 21> H   -3.98188129  -1.50142824   0.36646537
| 22> H   -2.59641136   2.85850927   2.20975105
| 23> H   -5.69441537   0.18237928   1.00805731
| 24> H   -5.01027071   2.33156025   2.10234061
| 25> C   -0.44866800   1.49168434   1.61792579
| 26> C    0.69354478   0.42083383   1.88237888
| 27> H   -0.46657030   2.16254529   2.52949221
| 28> H   -0.14088410   2.05328304   0.72814119
| 29> C    1.77450801   0.53810623   0.81589218
| 30> H    0.26306121  -0.59087983   1.86506936
| 31> H    1.15165089   0.59094716   2.87850684
| 32> C    1.64662490  -0.11892875  -0.44679660
| 33> C    2.65620832   0.18357423  -1.37505110
| 34> C    3.66813025   1.12219396  -1.13790558
| 35> C    2.82965764   1.44678580   1.07537530
| 36> C    3.75851186   1.77964214   0.09496341
| 37> H    2.67701788  -0.37139714  -2.31753379
| 38> H    4.41402429   1.33191546  -1.89581794
| 39> H    3.00779391   1.81921948   2.08798736
| 40> H    4.56301011   2.48729816   0.30892569
| 41> Pd   0.10458227  -1.56755454  -0.88464377
| 42> Br  -1.52238388  -3.56827832  -0.65062165
| 43> P    1.43347829  -2.98097042   0.10522909
| 44> H    1.00067687  -3.60093213   1.28842819
| 45> C    0.35281179  -1.34371493  -3.84212657
| 46> O    1.49408443  -1.70433413  -4.26197287
| 47> O   -0.42872351  -1.90888270  -3.09235310
| 48> O   -0.15224292  -0.16358577  -4.36760351
| 49> H    2.79521497  -2.75797178   0.44740683
| 50> H    1.58926106  -4.11026827  -0.72094824
| 51> H    0.59081075   0.29242801  -4.79247591
| 52> *
| 53>
| 54>                          ****END OF INPUT****

CARTESIAN COORDINATES (ANGSTROEM)
---------------------------------
  C     -2.379722   -0.130422    0.472974
  C     -1.917975    1.017518    1.271582
  C     -3.716568   -0.476620    0.668176
  C     -4.666329    0.362463    1.253419
  C     -4.273776    1.594168    1.775558
  C     -2.903496    1.878518    1.798346
  H     -2.168238   -1.057712   -0.852812
  H     -3.981881   -1.501428    0.366465
  H     -2.596411    2.858509    2.209751
  H     -5.694415    0.182379    1.008057
  H     -5.010271    2.331560    2.102341
  C     -0.448668    1.491684    1.617926
  C      0.693545    0.420834    1.882379
  H     -0.466570    2.162545    2.529492
  H     -0.140884    2.053283    0.728141
  C      1.774508    0.538106    0.815892
  H      0.263061   -0.590880    1.865069
  H      1.151651    0.590947    2.878507
  C      1.646625   -0.118929   -0.446797
  C      2.656208    0.183574   -1.375051
  C      3.668130    1.122194   -1.137906
  C      2.829658    1.446786    1.075375
  C      3.758512    1.779642    0.094963
  H      2.677018   -0.371397   -2.317534
  H      4.414024    1.331915   -1.895818
  H      3.007794    1.819219    2.087987
  H      4.563010    2.487298    0.308926
  Pd     0.104582   -1.567555   -0.884644
  Br    -1.522384   -3.568278   -0.650622
  P      1.433478   -2.980970    0.105229
  H      1.000677   -3.600932    1.288428
  C      0.352812   -1.343715   -3.842127
  O      1.494084   -1.704334   -4.261973
  O     -0.428724   -1.908883   -3.092353
  O     -0.152243   -0.163586   -4.367604
  H      2.795215   -2.757972    0.447407
  H      1.589261   -4.110268   -0.720948
  H      0.590811    0.292428   -4.792476

 Total Charge           Charge          ....   -1
 Multiplicity           Mult            ....    1
 Number of Electrons    NEL             ....  200
 Basis Dimension        Dim             ....  385

ORBITAL ENERGIES
----------------

  NO   OCC          E(Eh)            E(eV)
   0   2.0000    -484.337999    -13179.5070
   1   2.0000     -77.689905     -2114.0498
   2   2.0000     -62.999752     -1714.3104
   3   2.0000     -56.703481     -1542.9802
   4   2.0000     -56.702410     -1542.9510
   5   2.0000     -56.702234     -1542.9462
   6   2.0000     -19.352677      -526.6131
   7   2.0000     -19.298823      -525.1477
   8   2.0000     -19.274508      -524.4860
   9   2.0000     -10.418747      -283.5085
  10   2.0000     -10.392605      -282.7972
  11   2.0000     -10.387200      -282.6501
  12   2.0000     -10.363742      -282.0117
  13   2.0000     -10.360649      -281.9276
  14   2.0000     -10.359594      -281.8989
  15   2.0000     -10.357560      -281.8435
  16   2.0000     -10.355462      -281.7864
  17   2.0000     -10.352515      -281.7063
  18   2.0000     -10.352404      -281.7032
  19   2.0000     -10.351879      -281.6890
  20   2.0000     -10.350589      -281.6538
  21   2.0000     -10.349803      -281.6324
  22   2.0000     -10.345671      -281.5200
  23   2.0000     -10.336186      -281.2619
  24   2.0000      -8.827152      -240.1990
  25   2.0000      -6.763265      -184.0378
  26   2.0000      -6.596957      -179.5123
  27   2.0000      -6.592328      -179.3864
  28   2.0000      -6.590740      -179.3432
  29   2.0000      -4.854369      -132.0941
  30   2.0000      -4.854155      -132.0883
  31   2.0000      -4.852990      -132.0566
  32   2.0000      -3.533897       -96.1622
  33   2.0000      -2.611024       -71.0496
  34   2.0000      -2.610133       -71.0253
  35   2.0000      -2.608759       -70.9879
  36   2.0000      -2.604761       -70.8791
  37   2.0000      -2.604646       -70.8760
  38   2.0000      -2.179734       -59.3136
  39   2.0000      -2.177961       -59.2653
  40   2.0000      -2.148788       -58.4715
  41   2.0000      -1.043783       -28.4028
  42   2.0000      -0.940521       -25.5929
  43   2.0000      -0.892007       -24.2728
  44   2.0000      -0.855412       -23.2770
  45   2.0000      -0.845329       -23.0026
  46   2.0000      -0.781882       -21.2761
  47   2.0000      -0.744488       -20.2585
  48   2.0000      -0.733059       -19.9476
  49   2.0000      -0.723418       -19.6852
  50   2.0000      -0.688166       -18.7260
  51   2.0000      -0.663792       -18.0627
  52   2.0000      -0.641690       -17.4613
  53   2.0000      -0.620408       -16.8822
  54   2.0000      -0.568965       -15.4823
  55   2.0000      -0.565044       -15.3756
  56   2.0000      -0.559468       -15.2239
  57   2.0000      -0.538888       -14.6639
  58   2.0000      -0.498372       -13.5614
  59   2.0000      -0.471641       -12.8340
  60   2.0000      -0.463172       -12.6036
  61   2.0000      -0.432782       -11.7766
  62   2.0000      -0.418827       -11.3969
  63   2.0000      -0.408986       -11.1291
  64   2.0000      -0.405918       -11.0456
  65   2.0000      -0.382722       -10.4144
  66   2.0000      -0.379389       -10.3237
  67   2.0000      -0.378085       -10.2882
  68   2.0000      -0.377126       -10.2621
  69   2.0000      -0.373513       -10.1638
  70   2.0000      -0.368799       -10.0355
  71   2.0000      -0.362801        -9.8723
  72   2.0000      -0.353740        -9.6257
  73   2.0000      -0.345512        -9.4019
  74   2.0000      -0.343923        -9.3586
  75   2.0000      -0.335980        -9.1425
  76   2.0000      -0.325765        -8.8645
  77   2.0000      -0.324042        -8.8176
  78   2.0000      -0.309432        -8.4201
  79   2.0000      -0.297101        -8.0845
  80   2.0000      -0.294227        -8.0063
  81   2.0000      -0.289760        -7.8848
  82   2.0000      -0.281530        -7.6608
  83   2.0000      -0.270458        -7.3595
  84   2.0000      -0.264834        -7.2065
  85   2.0000      -0.256273        -6.9735
  86   2.0000      -0.234800        -6.3892
  87   2.0000      -0.226308        -6.1582
  88   2.0000      -0.212226        -5.7750
  89   2.0000      -0.193598        -5.2681
  90   2.0000      -0.187729        -5.1084
  91   2.0000      -0.181429        -4.9369
  92   2.0000      -0.180585        -4.9140
  93   2.0000      -0.176012        -4.7895
  94   2.0000      -0.172093        -4.6829
  95   2.0000      -0.160302        -4.3620
  96   2.0000      -0.155872        -4.2415
  97   2.0000      -0.152637        -4.1535
  98   2.0000      -0.141635        -3.8541
  99   2.0000      -0.132647        -3.6095
 100   0.0000       0.051170         1.3924
 101   0.0000       0.081472         2.2170
 102   0.0000       0.110670         3.0115
 103   0.0000       0.117439         3.1957
 104   0.0000       0.121140         3.2964

MULLIKEN ATOMIC CHARGES
-----------------------
   0 C :   -0.184128
   1 C :    0.016717
   2 C :   -0.227556
   3 C :   -0.220405
   4 C :   -0.224310
   5 C :   -0.243619
   6 H :    0.254220
   7 H :    0.251054
   8 H :    0.197006
   9 H :    0.200226
  10 H :    0.195214
  11 C :   -0.471149
  12 C :   -0.507650
  13 H :    0.200653
  14 H :    0.268425
  15 C :    0.037632
  16 H :    0.268606
  17 H :    0.203138
  18 C :   -0.121115
  19 C :   -0.285602
  20 C :   -0.230365
  21 C :   -0.255042
  22 C :   -0.226125
  23 H :    0.274749
  24 H :    0.194984
  25 H :    0.179434
  26 H :    0.187294
  27 Pd:    0.143282
  28 Br:   -0.443106
  29 P :   -0.114968
  30 H :    0.122129
  31 C :    0.654623
  32 O :   -0.595954
  33 O :   -0.508409
  34 O :   -0.635785
  35 H :    0.094354
  36 H :    0.151804
  37 H :    0.399743
Sum of atomic charges:   -1.0000000

LOEWDIN ATOMIC CHARGES
----------------------
   0 C :   -0.087604
   1 C :   -0.031240
   2 C :   -0.146612
   3 C :   -0.164425
   4 C :   -0.154841
   5 C :   -0.151897
   6 H :    0.269114
   7 H :    0.146581
   8 H :    0.126901
   9 H :    0.129964
  10 H :    0.124679
  11 C :   -0.217043
  12 C :   -0.217982
  13 H :    0.125229
  14 H :    0.155890
  15 C :   -0.049441
  16 H :    0.154387
  17 H :    0.119560
  18 C :   -0.039041
  19 C :   -0.125142
  20 C :   -0.152822
  21 C :   -0.155776
  22 C :   -0.158290
  23 H :    0.165845
  24 H :    0.125664
  25 H :    0.121139
  26 H :    0.121336
  27 Pd:   -0.826114
  28 Br:   -0.230277
  29 P :    0.446059
  30 H :    0.056439
  31 C :    0.103501
  32 O :   -0.417450
  33 O :   -0.220942
  34 O :   -0.367864
  35 H :    0.038500
  36 H :    0.078268
  37 H :    0.305747

  Mayer bond orders larger than 0.100000
B(  0-C ,  1-C ) :   1.4040 B(  0-C ,  2-C ) :   1.4026 B(  0-C ,  6-H ) :   0.7480
B(  1-C ,  5-C ) :   1.4186 B(  1-C , 11-C ) :   0.9486 B(  2-C ,  3-C ) :   1.3943
B(  2-C ,  7-H ) :   0.9001 B(  3-C ,  4-C ) :   1.4443 B(  3-C ,  9-H ) :   0.9244
B(  4-C ,  5-C ) :   1.4110 B(  4-C , 10-H ) :   0.9252 B(  5-C ,  8-H ) :   0.9197
B( 11-C , 12-C ) :   0.9124 B( 11-C , 13-H ) :   0.9351 B( 11-C , 14-H ) :   0.8963
B( 12-C , 15-C ) :   0.9682 B( 12-C , 16-H ) :   0.8900 B( 12-C , 17-H ) :   0.9320
B( 15-C , 18-C ) :   1.3550 B( 15-C , 21-C ) :   1.3861 B( 18-C , 19-C ) :   1.4060
B( 18-C , 27-Pd) :   0.7062 B( 18-C , 28-Br) :   0.1156 B( 19-C , 20-C ) :   1.4075
B( 19-C , 23-H ) :   0.8664 B( 20-C , 22-C ) :   1.4212 B( 20-C , 24-H ) :   0.9259
B( 21-C , 22-C ) :   1.4357 B( 21-C , 25-H ) :   0.9269 B( 22-C , 26-H ) :   0.9268
B( 27-Pd, 28-Br) :   0.5385 B( 27-Pd, 29-P ) :   0.8040 B( 27-Pd, 33-O ) :   0.3603
B( 28-Br, 29-P ) :   0.1191 B( 29-P , 30-H ) :   0.9197 B( 29-P , 35-H ) :   0.9051
B( 29-P , 36-H ) :   0.9248 B( 31-C , 32-O ) :   1.7345 B( 31-C , 33-O ) :   1.5536
B( 31-C , 34-O ) :   0.9995 B( 34-O , 37-H ) :   0.7915

Dispersion correction           -0.031517583
FINAL SINGLE POINT ENERGY     -3847.568639235671
Dispersion correction            ... done

DIPOLE MOMENT
-------------
                                X             Y             Z
Electronic contribution:      4.03854     -77.05282     -34.84345
Nuclear contribution   :     -3.29917      78.27572      38.31986
                        -----------------------------------------
Total Dipole Moment    :      0.73937       1.22289       3.47640
                        -----------------------------------------
Magnitude (a.u.)       :      3.75866
Magnitude (Debye)      :      9.55375

Rotational constants in cm-1:     0.006831     0.006086     0.004328
Rotational constants in MHz :   204.801319   182.440682   129.749656

                             ****ORCA TERMINATED NORMALLY****
TOTAL RUN TIME: 0 days 0 hours 16 minutes 38 seconds 160 msec
