                         Program Version 5.0.3 -  RELEASE  -
|  1> ! EnGrad PBEh-3c
|  2> %output
|  3> xyzfile=True
|  4> end
|  5> %scf
|  6> maxiter 250
|  7> end
|  8> %output
|  9> Print[P_Hirshfeld] = 1
| 10> end
| 11> % maxcore
| 12> 4000
| 13> *xyz -1 1
| 14> C   -2.37180950  -0.13887618   0.47132825
| 15> C   -1.89315735   1.00431847   1.26378474
| 16> C   -3.69762029  -0.50737883   0.73700276
| 17> C   -4.66121821   0.39152261   1.21174420
| 18> C   -4.25716623   1.59477288   1.74154883
| 19> C   -2.89612286   1.85746875   1.80845630
| 20> H   -2.10807881  -0.97908696  -0.69904444
| 21> H   -4.00582428  -1.47034411   0.33687290
| 22> H   -2.58587786   2.80581066   2.25401136
| 23> H   -5.71809705   0.15896796   1.07303512
| 24> H   -4.98887737   2.31940712   2.10555321
| 25> C   -0.47046150   1.47680722   1.56863898
| 26> C    0.66126462   0.43688964   1.84992157
| 27> H   -0.48020704   2.13953842   2.40570366
| 28> H   -0.13417012   2.05793602   0.73952116
| 29> C    1.73711202   0.55302911   0.80051002
| 30> H    0.26270488  -0.58030681   1.86590329
| 31> H    1.11270549   0.59360124   2.84148681
| 32> C    1.65293326  -0.12634961  -0.43706479
| 33> C    2.65953057   0.16319319  -1.37318796
| 34> C    3.66211397   1.11493350  -1.13113262
| 35> C    2.83319075   1.39487889   1.07228301
| 36> C    3.74284096   1.76245429   0.08911745
| 37> H    2.67743527  -0.35998356  -2.32049398
| 38> H    4.41045835   1.32466435  -1.89491031
| 39> H    2.96831854   1.83011887   2.06523121
| 40> H    4.55464103   2.46604063   0.30412214
| 41> Pd   0.17814635  -1.52749675  -0.83395339
| 42> Br  -1.54337235  -3.56186198  -0.67319862
| 43> P    1.44074664  -2.99473197   0.11882944
| 44> H    0.99428183  -3.58783384   1.27952326
| 45> C    0.33682398  -1.28846923  -3.84171863
| 46> O    1.54337240  -1.71750767  -4.26585807
| 47> O   -0.43960338  -1.88361926  -3.09752590
| 48> O   -0.13236372  -0.14629202  -4.37229591
| 49> H    2.76510364  -2.74978098   0.45592499
| 50> H    1.59406820  -4.10399874  -0.69750091
| 51> H    0.58742977   0.27061070  -4.80873467
| 52> *
| 53>
| 54>                          ****END OF INPUT****

CARTESIAN COORDINATES (ANGSTROEM)
---------------------------------
  C     -2.371809   -0.138876    0.471328
  C     -1.893157    1.004318    1.263785
  C     -3.697620   -0.507379    0.737003
  C     -4.661218    0.391523    1.211744
  C     -4.257166    1.594773    1.741549
  C     -2.896123    1.857469    1.808456
  H     -2.108079   -0.979087   -0.699044
  H     -4.005824   -1.470344    0.336873
  H     -2.585878    2.805811    2.254011
  H     -5.718097    0.158968    1.073035
  H     -4.988877    2.319407    2.105553
  C     -0.470461    1.476807    1.568639
  C      0.661265    0.436890    1.849922
  H     -0.480207    2.139538    2.405704
  H     -0.134170    2.057936    0.739521
  C      1.737112    0.553029    0.800510
  H      0.262705   -0.580307    1.865903
  H      1.112705    0.593601    2.841487
  C      1.652933   -0.126350   -0.437065
  C      2.659531    0.163193   -1.373188
  C      3.662114    1.114934   -1.131133
  C      2.833191    1.394879    1.072283
  C      3.742841    1.762454    0.089117
  H      2.677435   -0.359984   -2.320494
  H      4.410458    1.324664   -1.894910
  H      2.968319    1.830119    2.065231
  H      4.554641    2.466041    0.304122
  Pd     0.178146   -1.527497   -0.833953
  Br    -1.543372   -3.561862   -0.673199
  P      1.440747   -2.994732    0.118829
  H      0.994282   -3.587834    1.279523
  C      0.336824   -1.288469   -3.841719
  O      1.543372   -1.717508   -4.265858
  O     -0.439603   -1.883619   -3.097526
  O     -0.132364   -0.146292   -4.372296
  H      2.765104   -2.749781    0.455925
  H      1.594068   -4.103999   -0.697501
  H      0.587430    0.270611   -4.808735

 Total Charge           Charge          ....   -1
 Multiplicity           Mult            ....    1
 Number of Electrons    NEL             ....  200
 Basis Dimension        Dim             ....  385

ORBITAL ENERGIES
----------------

  NO   OCC          E(Eh)            E(eV)
   0   2.0000    -484.329397    -13179.2729
   1   2.0000     -77.685000     -2113.9163
   2   2.0000     -62.991054     -1714.0737
   3   2.0000     -56.694733     -1542.7421
   4   2.0000     -56.693734     -1542.7149
   5   2.0000     -56.693601     -1542.7113
   6   2.0000     -19.366654      -526.9935
   7   2.0000     -19.298000      -525.1253
   8   2.0000     -19.263330      -524.1819
   9   2.0000     -10.421977      -283.5964
  10   2.0000     -10.388664      -282.6899
  11   2.0000     -10.385040      -282.5913
  12   2.0000     -10.359116      -281.8859
  13   2.0000     -10.356794      -281.8227
  14   2.0000     -10.355830      -281.7965
  15   2.0000     -10.355362      -281.7837
  16   2.0000     -10.353762      -281.7402
  17   2.0000     -10.351939      -281.6906
  18   2.0000     -10.350846      -281.6608
  19   2.0000     -10.349824      -281.6330
  20   2.0000     -10.349495      -281.6241
  21   2.0000     -10.349174      -281.6154
  22   2.0000     -10.344953      -281.5005
  23   2.0000     -10.335124      -281.2330
  24   2.0000      -8.818312      -239.9585
  25   2.0000      -6.760924      -183.9741
  26   2.0000      -6.587973      -179.2679
  27   2.0000      -6.583471      -179.1454
  28   2.0000      -6.582073      -179.1073
  29   2.0000      -4.851924      -132.0276
  30   2.0000      -4.851662      -132.0204
  31   2.0000      -4.850594      -131.9914
  32   2.0000      -3.536732       -96.2394
  33   2.0000      -2.602009       -70.8043
  34   2.0000      -2.601130       -70.7804
  35   2.0000      -2.599936       -70.7478
  36   2.0000      -2.596051       -70.6421
  37   2.0000      -2.595953       -70.6395
  38   2.0000      -2.183427       -59.4141
  39   2.0000      -2.180987       -59.3477
  40   2.0000      -2.151575       -58.5473
  41   2.0000      -1.056144       -28.7391
  42   2.0000      -0.946728       -25.7618
  43   2.0000      -0.859687       -23.3933
  44   2.0000      -0.850651       -23.1474
  45   2.0000      -0.849984       -23.1292
  46   2.0000      -0.793157       -21.5829
  47   2.0000      -0.748865       -20.3777
  48   2.0000      -0.736688       -20.0463
  49   2.0000      -0.724852       -19.7242
  50   2.0000      -0.694280       -18.8923
  51   2.0000      -0.665826       -18.1181
  52   2.0000      -0.637152       -17.3378
  53   2.0000      -0.628039       -17.0898
  54   2.0000      -0.573874       -15.6159
  55   2.0000      -0.569147       -15.4873
  56   2.0000      -0.561036       -15.2666
  57   2.0000      -0.542341       -14.7579
  58   2.0000      -0.523514       -14.2455
  59   2.0000      -0.478109       -13.0100
  60   2.0000      -0.467406       -12.7188
  61   2.0000      -0.439699       -11.9648
  62   2.0000      -0.424148       -11.5417
  63   2.0000      -0.413740       -11.2584
  64   2.0000      -0.407776       -11.0962
  65   2.0000      -0.389182       -10.5902
  66   2.0000      -0.384339       -10.4584
  67   2.0000      -0.382879       -10.4187
  68   2.0000      -0.378330       -10.2949
  69   2.0000      -0.377086       -10.2610
  70   2.0000      -0.371209       -10.1011
  71   2.0000      -0.364450        -9.9172
  72   2.0000      -0.356911        -9.7120
  73   2.0000      -0.352711        -9.5978
  74   2.0000      -0.345873        -9.4117
  75   2.0000      -0.339008        -9.2249
  76   2.0000      -0.331774        -9.0280
  77   2.0000      -0.324548        -8.8314
  78   2.0000      -0.316845        -8.6218
  79   2.0000      -0.303409        -8.2562
  80   2.0000      -0.295787        -8.0488
  81   2.0000      -0.290531        -7.9058
  82   2.0000      -0.282439        -7.6855
  83   2.0000      -0.275957        -7.5092
  84   2.0000      -0.267018        -7.2659
  85   2.0000      -0.262324        -7.1382
  86   2.0000      -0.237425        -6.4607
  87   2.0000      -0.229053        -6.2328
  88   2.0000      -0.212707        -5.7881
  89   2.0000      -0.193700        -5.2708
  90   2.0000      -0.188343        -5.1251
  91   2.0000      -0.181107        -4.9282
  92   2.0000      -0.179940        -4.8964
  93   2.0000      -0.172938        -4.7059
  94   2.0000      -0.169322        -4.6075
  95   2.0000      -0.158213        -4.3052
  96   2.0000      -0.154360        -4.2004
  97   2.0000      -0.147625        -4.0171
  98   2.0000      -0.131407        -3.5758
  99   2.0000      -0.119781        -3.2594
 100   0.0000       0.053286         1.4500
 101   0.0000       0.092007         2.5036
 102   0.0000       0.108546         2.9537
 103   0.0000       0.117356         3.1934
 104   0.0000       0.124151         3.3783

MULLIKEN ATOMIC CHARGES
-----------------------
   0 C :   -0.239160
   1 C :    0.047333
   2 C :   -0.214406
   3 C :   -0.228972
   4 C :   -0.206203
   5 C :   -0.255555
   6 H :    0.274376
   7 H :    0.246621
   8 H :    0.195167
   9 H :    0.201135
  10 H :    0.192650
  11 C :   -0.488088
  12 C :   -0.523169
  13 H :    0.219923
  14 H :    0.275066
  15 C :    0.081585
  16 H :    0.271069
  17 H :    0.210269
  18 C :   -0.157219
  19 C :   -0.274931
  20 C :   -0.238475
  21 C :   -0.278349
  22 C :   -0.213419
  23 H :    0.280553
  24 H :    0.195601
  25 H :    0.178399
  26 H :    0.186134
  27 Pd:    0.167171
  28 Br:   -0.476611
  29 P :   -0.111706
  30 H :    0.126337
  31 C :    0.648365
  32 O :   -0.655160
  33 O :   -0.501459
  34 O :   -0.601583
  35 H :    0.096768
  36 H :    0.157359
  37 H :    0.412585
Sum of atomic charges:   -1.0000000

LOEWDIN ATOMIC CHARGES
----------------------
   0 C :   -0.097055
   1 C :   -0.030218
   2 C :   -0.136546
   3 C :   -0.155189
   4 C :   -0.157013
   5 C :   -0.150682
   6 H :    0.253777
   7 H :    0.144892
   8 H :    0.125985
   9 H :    0.127776
  10 H :    0.124393
  11 C :   -0.223846
  12 C :   -0.215375
  13 H :    0.129888
  14 H :    0.154989
  15 C :   -0.047046
  16 H :    0.155375
  17 H :    0.121330
  18 C :   -0.032790
  19 C :   -0.122286
  20 C :   -0.150317
  21 C :   -0.152532
  22 C :   -0.159226
  23 H :    0.169100
  24 H :    0.125538
  25 H :    0.119786
  26 H :    0.121611
  27 Pd:   -0.770530
  28 Br:   -0.284325
  29 P :    0.452939
  30 H :    0.058761
  31 C :    0.125153
  32 O :   -0.501488
  33 O :   -0.231652
  34 O :   -0.324325
  35 H :    0.039828
  36 H :    0.080937
  37 H :    0.310384

  Mayer bond orders larger than 0.100000
B(  0-C ,  1-C ) :   1.3808 B(  0-C ,  2-C ) :   1.4076 B(  0-C ,  6-H ) :   0.7888
B(  1-C ,  5-C ) :   1.4177 B(  1-C , 11-C ) :   0.9671 B(  2-C ,  3-C ) :   1.4010
B(  2-C ,  7-H ) :   0.9046 B(  3-C ,  4-C ) :   1.4416 B(  3-C ,  9-H ) :   0.9236
B(  4-C ,  5-C ) :   1.4167 B(  4-C , 10-H ) :   0.9258 B(  5-C ,  8-H ) :   0.9207
B( 11-C , 12-C ) :   0.9178 B( 11-C , 13-H ) :   0.9265 B( 11-C , 14-H ) :   0.8931
B( 12-C , 15-C ) :   0.9604 B( 12-C , 16-H ) :   0.8893 B( 12-C , 17-H ) :   0.9326
B( 15-C , 18-C ) :   1.3529 B( 15-C , 21-C ) :   1.3972 B( 18-C , 19-C ) :   1.4103
B( 18-C , 27-Pd) :   0.7490 B( 18-C , 28-Br) :   0.1155 B( 18-C , 29-P ) :   0.1039
B( 19-C , 20-C ) :   1.4034 B( 19-C , 23-H ) :   0.8565 B( 20-C , 22-C ) :   1.4273
B( 20-C , 24-H ) :   0.9255 B( 21-C , 22-C ) :   1.4248 B( 21-C , 25-H ) :   0.9279
B( 22-C , 26-H ) :   0.9273 B( 27-Pd, 28-Br) :   0.5013 B( 27-Pd, 29-P ) :   0.8361
B( 27-Pd, 33-O ) :   0.3374 B( 28-Br, 29-P ) :   0.1246 B( 29-P , 30-H ) :   0.9231
B( 29-P , 35-H ) :   0.9069 B( 29-P , 36-H ) :   0.9271 B( 31-C , 32-O ) :   1.6304
B( 31-C , 33-O ) :   1.5788 B( 31-C , 34-O ) :   1.0577 B( 34-O , 37-H ) :   0.7798

Dispersion correction           -0.031455884
FINAL SINGLE POINT ENERGY     -3847.601010083129
Dispersion correction            ... done

DIPOLE MOMENT
-------------
                                X             Y             Z
Electronic contribution:      7.87128     -74.56227     -31.90835
Nuclear contribution   :     -7.18837      76.09579      35.56935
                        -----------------------------------------
Total Dipole Moment    :      0.68291       1.53352       3.66101
                        -----------------------------------------
Magnitude (a.u.)       :      4.02753
Magnitude (Debye)      :     10.23718

Rotational constants in cm-1:     0.006885     0.006084     0.004349
Rotational constants in MHz :   206.400025   182.404924   130.378296

                             ****ORCA TERMINATED NORMALLY****
TOTAL RUN TIME: 0 days 0 hours 13 minutes 53 seconds 582 msec
