                         Program Version 5.0.3 -  RELEASE  -
|  1> ! EnGrad PBEh-3c
|  2> %output
|  3> xyzfile=True
|  4> end
|  5> %scf
|  6> maxiter 250
|  7> end
|  8> %output
|  9> Print[P_Hirshfeld] = 1
| 10> end
| 11> % maxcore
| 12> 4000
| 13> *xyz -1 1
| 14> C   -2.37599288  -0.15735092   0.49364478
| 15> C   -1.89885184   0.99022791   1.26886155
| 16> C   -3.69974090  -0.51515837   0.77426626
| 17> C   -4.66238060   0.39441557   1.21505941
| 18> C   -4.24506013   1.60179859   1.75241507
| 19> C   -2.88043735   1.83705934   1.83375640
| 20> H   -2.10345966  -0.95987096  -0.63843684
| 21> H   -4.02786140  -1.46015910   0.36537767
| 22> H   -2.57113841   2.77103542   2.30287625
| 23> H   -5.72453806   0.15652433   1.13086031
| 24> H   -4.96893405   2.31526016   2.12805835
| 25> C   -0.48474163   1.45247282   1.50971826
| 26> C    0.64050368   0.44683105   1.81688501
| 27> H   -0.48544853   2.16148950   2.30664790
| 28> H   -0.15848611   2.04024243   0.68478553
| 29> C    1.72935504   0.55893734   0.78945199
| 30> H    0.25622858  -0.56836427   1.85185615
| 31> H    1.07316217   0.61374322   2.80815975
| 32> C    1.66483506  -0.12357708  -0.44202019
| 33> C    2.67682472   0.15201853  -1.36865291
| 34> C    3.67052090   1.10468315  -1.13082161
| 35> C    2.82910278   1.38044158   1.06944474
| 36> C    3.74573007   1.74749643   0.09322169
| 37> H    2.69777724  -0.36592402  -2.32017108
| 38> H    4.42013837   1.31788721  -1.88740879
| 39> H    2.94049300   1.83335384   2.05276668
| 40> H    4.54342566   2.45852220   0.30341714
| 41> Pd   0.21627454  -1.50333360  -0.82923875
| 42> Br  -1.54166824  -3.56328584  -0.71928430
| 43> P    1.43275655  -2.99475407   0.12985645
| 44> H    0.96308019  -3.57602942   1.28663537
| 45> C    0.34363610  -1.28949344  -3.84639669
| 46> O    1.55461772  -1.70260980  -4.25204422
| 47> O   -0.42755973  -1.84256143  -3.10575519
| 48> O   -0.11321272  -0.12669895  -4.38874004
| 49> H    2.74433943  -2.74526678   0.49090660
| 50> H    1.60350971  -4.11226531  -0.66710139
| 51> H    0.61309440   0.26613089  -4.85116640
| 52> *
| 53>
| 54>                          ****END OF INPUT****

CARTESIAN COORDINATES (ANGSTROEM)
---------------------------------
  C     -2.375993   -0.157351    0.493645
  C     -1.898852    0.990228    1.268862
  C     -3.699741   -0.515158    0.774266
  C     -4.662381    0.394416    1.215059
  C     -4.245060    1.601799    1.752415
  C     -2.880437    1.837059    1.833756
  H     -2.103460   -0.959871   -0.638437
  H     -4.027861   -1.460159    0.365378
  H     -2.571138    2.771035    2.302876
  H     -5.724538    0.156524    1.130860
  H     -4.968934    2.315260    2.128058
  C     -0.484742    1.452473    1.509718
  C      0.640504    0.446831    1.816885
  H     -0.485449    2.161490    2.306648
  H     -0.158486    2.040242    0.684786
  C      1.729355    0.558937    0.789452
  H      0.256229   -0.568364    1.851856
  H      1.073162    0.613743    2.808160
  C      1.664835   -0.123577   -0.442020
  C      2.676825    0.152019   -1.368653
  C      3.670521    1.104683   -1.130822
  C      2.829103    1.380442    1.069445
  C      3.745730    1.747496    0.093222
  H      2.697777   -0.365924   -2.320171
  H      4.420138    1.317887   -1.887409
  H      2.940493    1.833354    2.052767
  H      4.543426    2.458522    0.303417
  Pd     0.216275   -1.503334   -0.829239
  Br    -1.541668   -3.563286   -0.719284
  P      1.432757   -2.994754    0.129856
  H      0.963080   -3.576029    1.286635
  C      0.343636   -1.289493   -3.846397
  O      1.554618   -1.702610   -4.252044
  O     -0.427560   -1.842561   -3.105755
  O     -0.113213   -0.126699   -4.388740
  H      2.744339   -2.745267    0.490907
  H      1.603510   -4.112265   -0.667101
  H      0.613094    0.266131   -4.851166

 Total Charge           Charge          ....   -1
 Multiplicity           Mult            ....    1
 Number of Electrons    NEL             ....  200
 Basis Dimension        Dim             ....  385

ORBITAL ENERGIES
----------------

  NO   OCC          E(Eh)            E(eV)
   0   2.0000    -484.326863    -13179.2040
   1   2.0000     -77.685179     -2113.9212
   2   2.0000     -62.988473     -1714.0035
   3   2.0000     -56.692119     -1542.6710
   4   2.0000     -56.691176     -1542.6453
   5   2.0000     -56.691042     -1542.6417
   6   2.0000     -19.358234      -526.7643
   7   2.0000     -19.297961      -525.1242
   8   2.0000     -19.260510      -524.1051
   9   2.0000     -10.417352      -283.4706
  10   2.0000     -10.385002      -282.5903
  11   2.0000     -10.381465      -282.4940
  12   2.0000     -10.358298      -281.8636
  13   2.0000     -10.357182      -281.8333
  14   2.0000     -10.356456      -281.8135
  15   2.0000     -10.354989      -281.7736
  16   2.0000     -10.353030      -281.7203
  17   2.0000     -10.350649      -281.6555
  18   2.0000     -10.349267      -281.6179
  19   2.0000     -10.348672      -281.6017
  20   2.0000     -10.347191      -281.5614
  21   2.0000     -10.346699      -281.5480
  22   2.0000     -10.344380      -281.4849
  23   2.0000     -10.334461      -281.2150
  24   2.0000      -8.815675      -239.8867
  25   2.0000      -6.761419      -183.9876
  26   2.0000      -6.585272      -179.1943
  27   2.0000      -6.580842      -179.0738
  28   2.0000      -6.579493      -179.0371
  29   2.0000      -4.852405      -132.0406
  30   2.0000      -4.852126      -132.0331
  31   2.0000      -4.851099      -132.0051
  32   2.0000      -3.539224       -96.3072
  33   2.0000      -2.599303       -70.7306
  34   2.0000      -2.598435       -70.7070
  35   2.0000      -2.597283       -70.6757
  36   2.0000      -2.593468       -70.5718
  37   2.0000      -2.593380       -70.5694
  38   2.0000      -2.186143       -59.4880
  39   2.0000      -2.183671       -59.4207
  40   2.0000      -2.154225       -58.6194
  41   2.0000      -1.049972       -28.5712
  42   2.0000      -0.951394       -25.8888
  43   2.0000      -0.862749       -23.4766
  44   2.0000      -0.853634       -23.2286
  45   2.0000      -0.851367       -23.1669
  46   2.0000      -0.798055       -21.7162
  47   2.0000      -0.752100       -20.4657
  48   2.0000      -0.738399       -20.0929
  49   2.0000      -0.726657       -19.7733
  50   2.0000      -0.697180       -18.9712
  51   2.0000      -0.666760       -18.1435
  52   2.0000      -0.634740       -17.2721
  53   2.0000      -0.630830       -17.1657
  54   2.0000      -0.576139       -15.6775
  55   2.0000      -0.571452       -15.5500
  56   2.0000      -0.563254       -15.3269
  57   2.0000      -0.545058       -14.8318
  58   2.0000      -0.511545       -13.9198
  59   2.0000      -0.480855       -13.0847
  60   2.0000      -0.470132       -12.7929
  61   2.0000      -0.442429       -12.0391
  62   2.0000      -0.426141       -11.5959
  63   2.0000      -0.416645       -11.3375
  64   2.0000      -0.408966       -11.1285
  65   2.0000      -0.390708       -10.6317
  66   2.0000      -0.385594       -10.4926
  67   2.0000      -0.384009       -10.4494
  68   2.0000      -0.381221       -10.3736
  69   2.0000      -0.375244       -10.2109
  70   2.0000      -0.372833       -10.1453
  71   2.0000      -0.362244        -9.8572
  72   2.0000      -0.360672        -9.8144
  73   2.0000      -0.355417        -9.6714
  74   2.0000      -0.344594        -9.3769
  75   2.0000      -0.340167        -9.2564
  76   2.0000      -0.334014        -9.0890
  77   2.0000      -0.326735        -8.8909
  78   2.0000      -0.317348        -8.6355
  79   2.0000      -0.306093        -8.3292
  80   2.0000      -0.294690        -8.0189
  81   2.0000      -0.294153        -8.0043
  82   2.0000      -0.283898        -7.7253
  83   2.0000      -0.276916        -7.5353
  84   2.0000      -0.269566        -7.3353
  85   2.0000      -0.265158        -7.2153
  86   2.0000      -0.237598        -6.4654
  87   2.0000      -0.229908        -6.2561
  88   2.0000      -0.212978        -5.7954
  89   2.0000      -0.194480        -5.2921
  90   2.0000      -0.190735        -5.1902
  91   2.0000      -0.182232        -4.9588
  92   2.0000      -0.181762        -4.9460
  93   2.0000      -0.172993        -4.7074
  94   2.0000      -0.168299        -4.5797
  95   2.0000      -0.158166        -4.3039
  96   2.0000      -0.154450        -4.2028
  97   2.0000      -0.146676        -3.9913
  98   2.0000      -0.132162        -3.5963
  99   2.0000      -0.119447        -3.2503
 100   0.0000       0.052253         1.4219
 101   0.0000       0.092391         2.5141
 102   0.0000       0.109297         2.9741
 103   0.0000       0.117909         3.2085
 104   0.0000       0.124175         3.3790

MULLIKEN ATOMIC CHARGES
-----------------------
   0 C :   -0.251325
   1 C :    0.066178
   2 C :   -0.212637
   3 C :   -0.231221
   4 C :   -0.207814
   5 C :   -0.257948
   6 H :    0.279843
   7 H :    0.242350
   8 H :    0.193984
   9 H :    0.200934
  10 H :    0.194543
  11 C :   -0.496541
  12 C :   -0.527728
  13 H :    0.221493
  14 H :    0.278534
  15 C :    0.095437
  16 H :    0.272581
  17 H :    0.214143
  18 C :   -0.167246
  19 C :   -0.270014
  20 C :   -0.237822
  21 C :   -0.283215
  22 C :   -0.215593
  23 H :    0.282516
  24 H :    0.196728
  25 H :    0.177886
  26 H :    0.187592
  27 Pd:    0.182352
  28 Br:   -0.489712
  29 P :   -0.112834
  30 H :    0.127637
  31 C :    0.643089
  32 O :   -0.657604
  33 O :   -0.480921
  34 O :   -0.618848
  35 H :    0.096153
  36 H :    0.157040
  37 H :    0.408010
Sum of atomic charges:   -1.0000000

LOEWDIN ATOMIC CHARGES
----------------------
   0 C :   -0.100385
   1 C :   -0.032621
   2 C :   -0.134456
   3 C :   -0.153285
   4 C :   -0.155742
   5 C :   -0.150021
   6 H :    0.248318
   7 H :    0.143479
   8 H :    0.125902
   9 H :    0.127112
  10 H :    0.124591
  11 C :   -0.224896
  12 C :   -0.215576
  13 H :    0.129747
  14 H :    0.155270
  15 C :   -0.044813
  16 H :    0.155715
  17 H :    0.122526
  18 C :   -0.029518
  19 C :   -0.119912
  20 C :   -0.149079
  21 C :   -0.151649
  22 C :   -0.158464
  23 H :    0.171020
  24 H :    0.125970
  25 H :    0.119778
  26 H :    0.121905
  27 Pd:   -0.741165
  28 Br:   -0.307347
  29 P :    0.453625
  30 H :    0.059537
  31 C :    0.113185
  32 O :   -0.500955
  33 O :   -0.210042
  34 O :   -0.345018
  35 H :    0.039237
  36 H :    0.080412
  37 H :    0.307613

  Mayer bond orders larger than 0.100000
B(  0-C ,  1-C ) :   1.3698 B(  0-C ,  2-C ) :   1.4093 B(  0-C ,  6-H ) :   0.8025
B(  1-C ,  5-C ) :   1.4188 B(  1-C , 11-C ) :   0.9705 B(  2-C ,  3-C ) :   1.4075
B(  2-C ,  7-H ) :   0.9066 B(  3-C ,  4-C ) :   1.4365 B(  3-C ,  9-H ) :   0.9233
B(  4-C ,  5-C ) :   1.4224 B(  4-C , 10-H ) :   0.9250 B(  5-C ,  8-H ) :   0.9210
B( 11-C , 12-C ) :   0.9162 B( 11-C , 13-H ) :   0.9253 B( 11-C , 14-H ) :   0.8905
B( 12-C , 15-C ) :   0.9608 B( 12-C , 16-H ) :   0.8893 B( 12-C , 17-H ) :   0.9324
B( 15-C , 18-C ) :   1.3491 B( 15-C , 21-C ) :   1.4037 B( 18-C , 19-C ) :   1.4116
B( 18-C , 27-Pd) :   0.7667 B( 18-C , 28-Br) :   0.1159 B( 18-C , 29-P ) :   0.1081
B( 19-C , 20-C ) :   1.4039 B( 19-C , 23-H ) :   0.8545 B( 20-C , 22-C ) :   1.4293
B( 20-C , 24-H ) :   0.9251 B( 21-C , 22-C ) :   1.4228 B( 21-C , 25-H ) :   0.9279
B( 22-C , 26-H ) :   0.9272 B( 27-Pd, 28-Br) :   0.4822 B( 27-Pd, 29-P ) :   0.8438
B( 27-Pd, 33-O ) :   0.3208 B( 28-Br, 29-P ) :   0.1284 B( 29-P , 30-H ) :   0.9239
B( 29-P , 35-H ) :   0.9062 B( 29-P , 36-H ) :   0.9273 B( 31-C , 32-O ) :   1.6270
B( 31-C , 33-O ) :   1.6234 B( 31-C , 34-O ) :   1.0319 B( 34-O , 37-H ) :   0.7841

Dispersion correction           -0.031367602
FINAL SINGLE POINT ENERGY     -3847.615235660362
Dispersion correction            ... done

DIPOLE MOMENT
-------------
                                X             Y             Z
Electronic contribution:      9.90022     -73.29512     -31.54918
Nuclear contribution   :     -9.19650      74.82647      35.32032
                        -----------------------------------------
Total Dipole Moment    :      0.70372       1.53135       3.77114
                        -----------------------------------------
Magnitude (a.u.)       :      4.13059
Magnitude (Debye)      :     10.49912

Rotational constants in cm-1:     0.006913     0.006082     0.004349
Rotational constants in MHz :   207.260817   182.335648   130.390531

                             ****ORCA TERMINATED NORMALLY****
TOTAL RUN TIME: 0 days 0 hours 14 minutes 6 seconds 590 msec
