                         Program Version 5.0.3 -  RELEASE  -
|  1> ! EnGrad PBEh-3c
|  2> %output
|  3> xyzfile=True
|  4> end
|  5> %scf
|  6> maxiter 250
|  7> end
|  8> %output
|  9> Print[P_Hirshfeld] = 1
| 10> end
| 11> % maxcore
| 12> 4000
| 13> *xyz -1 1
| 14> C   -2.37508811  -0.16302277   0.49958219
| 15> C   -1.90596313   0.98725030   1.26912682
| 16> C   -3.70177109  -0.51062992   0.75911063
| 17> C   -4.65930576   0.39055335   1.22538730
| 18> C   -4.24460831   1.59988578   1.75680517
| 19> C   -2.87852743   1.83873899   1.83670381
| 20> H   -2.10165212  -0.97374166  -0.64521735
| 21> H   -4.02451521  -1.46149284   0.37189540
| 22> H   -2.57025528   2.77190218   2.30741254
| 23> H   -5.71924483   0.15772178   1.13030507
| 24> H   -4.96912812   2.31841511   2.12748195
| 25> C   -0.48175528   1.44627234   1.50884849
| 26> C    0.64209095   0.44331786   1.81675387
| 27> H   -0.48567146   2.17370616   2.31836960
| 28> H   -0.15917087   2.04307124   0.66798966
| 29> C    1.73650274   0.55386835   0.79124845
| 30> H    0.25274768  -0.56809876   1.84983032
| 31> H    1.07173815   0.61835326   2.80963161
| 32> C    1.66434914  -0.12079840  -0.44355290
| 33> C    2.67716149   0.15196713  -1.37009723
| 34> C    3.67080415   1.10389129  -1.13107944
| 35> C    2.82535250   1.39040742   1.06806172
| 36> C    3.74835193   1.74282554   0.09449714
| 37> H    2.69747380  -0.36862518  -2.31998941
| 38> H    4.41917655   1.31721245  -1.88728174
| 39> H    2.93892883   1.83312613   2.05410092
| 40> H    4.54206910   2.45767428   0.30426011
| 41> Pd   0.20533554  -1.50335951  -0.83510410
| 42> Br  -1.54291742  -3.55682711  -0.72426067
| 43> P    1.42941867  -2.98950778   0.12591439
| 44> H    0.95913148  -3.57749271   1.29166876
| 45> C    0.37634837  -1.29492236  -3.86854980
| 46> O    1.52690956  -1.69052264  -4.23998170
| 47> O   -0.43459632  -1.85005745  -3.09069582
| 48> O   -0.11369364  -0.12629016  -4.38776517
| 49> H    2.75043635  -2.74486244   0.49455007
| 50> H    1.60419136  -4.11627371  -0.66893081
| 51> H    0.61966598   0.26975429  -4.85635266
| 52> *
| 53>
| 54>                          ****END OF INPUT****

CARTESIAN COORDINATES (ANGSTROEM)
---------------------------------
  C     -2.375088   -0.163023    0.499582
  C     -1.905963    0.987250    1.269127
  C     -3.701771   -0.510630    0.759111
  C     -4.659306    0.390553    1.225387
  C     -4.244608    1.599886    1.756805
  C     -2.878527    1.838739    1.836704
  H     -2.101652   -0.973742   -0.645217
  H     -4.024515   -1.461493    0.371895
  H     -2.570255    2.771902    2.307413
  H     -5.719245    0.157722    1.130305
  H     -4.969128    2.318415    2.127482
  C     -0.481755    1.446272    1.508848
  C      0.642091    0.443318    1.816754
  H     -0.485671    2.173706    2.318370
  H     -0.159171    2.043071    0.667990
  C      1.736503    0.553868    0.791248
  H      0.252748   -0.568099    1.849830
  H      1.071738    0.618353    2.809632
  C      1.664349   -0.120798   -0.443553
  C      2.677161    0.151967   -1.370097
  C      3.670804    1.103891   -1.131079
  C      2.825353    1.390407    1.068062
  C      3.748352    1.742826    0.094497
  H      2.697474   -0.368625   -2.319989
  H      4.419177    1.317212   -1.887282
  H      2.938929    1.833126    2.054101
  H      4.542069    2.457674    0.304260
  Pd     0.205336   -1.503360   -0.835104
  Br    -1.542917   -3.556827   -0.724261
  P      1.429419   -2.989508    0.125914
  H      0.959131   -3.577493    1.291669
  C      0.376348   -1.294922   -3.868550
  O      1.526910   -1.690523   -4.239982
  O     -0.434596   -1.850057   -3.090696
  O     -0.113694   -0.126290   -4.387765
  H      2.750436   -2.744862    0.494550
  H      1.604191   -4.116274   -0.668931
  H      0.619666    0.269754   -4.856353

 Total Charge           Charge          ....   -1
 Multiplicity           Mult            ....    1
 Number of Electrons    NEL             ....  200
 Basis Dimension        Dim             ....  385

ORBITAL ENERGIES
----------------

  NO   OCC          E(Eh)            E(eV)
   0   2.0000    -484.325175    -13179.1580
   1   2.0000     -77.684565     -2113.9045
   2   2.0000     -62.986791     -1713.9577
   3   2.0000     -56.690451     -1542.6256
   4   2.0000     -56.689487     -1542.5994
   5   2.0000     -56.689349     -1542.5956
   6   2.0000     -19.359759      -526.8058
   7   2.0000     -19.289571      -524.8959
   8   2.0000     -19.277231      -524.5601
   9   2.0000     -10.419709      -283.5347
  10   2.0000     -10.382167      -282.5131
  11   2.0000     -10.379616      -282.4437
  12   2.0000     -10.356794      -281.8227
  13   2.0000     -10.355956      -281.7999
  14   2.0000     -10.354137      -281.7504
  15   2.0000     -10.353720      -281.7390
  16   2.0000     -10.351801      -281.6868
  17   2.0000     -10.348957      -281.6094
  18   2.0000     -10.348325      -281.5922
  19   2.0000     -10.348094      -281.5860
  20   2.0000     -10.347704      -281.5753
  21   2.0000     -10.345699      -281.5208
  22   2.0000     -10.344003      -281.4746
  23   2.0000     -10.334619      -281.2193
  24   2.0000      -8.814003      -239.8412
  25   2.0000      -6.759966      -183.9480
  26   2.0000      -6.583631      -179.1497
  27   2.0000      -6.579176      -179.0285
  28   2.0000      -6.577779      -178.9905
  29   2.0000      -4.850985      -132.0020
  30   2.0000      -4.850709      -131.9945
  31   2.0000      -4.849673      -131.9663
  32   2.0000      -3.536372       -96.2296
  33   2.0000      -2.597663       -70.6860
  34   2.0000      -2.596800       -70.6625
  35   2.0000      -2.595604       -70.6300
  36   2.0000      -2.591767       -70.5256
  37   2.0000      -2.591674       -70.5230
  38   2.0000      -2.182974       -59.4017
  39   2.0000      -2.180774       -59.3419
  40   2.0000      -2.151168       -58.5363
  41   2.0000      -1.045700       -28.4549
  42   2.0000      -0.932015       -25.3614
  43   2.0000      -0.887821       -24.1588
  44   2.0000      -0.861112       -23.4321
  45   2.0000      -0.852758       -23.2047
  46   2.0000      -0.795245       -21.6397
  47   2.0000      -0.750345       -20.4179
  48   2.0000      -0.737185       -20.0598
  49   2.0000      -0.726285       -19.7632
  50   2.0000      -0.695433       -18.9237
  51   2.0000      -0.662721       -18.0336
  52   2.0000      -0.632810       -17.2196
  53   2.0000      -0.627762       -17.0823
  54   2.0000      -0.575026       -15.6472
  55   2.0000      -0.570861       -15.5339
  56   2.0000      -0.561498       -15.2792
  57   2.0000      -0.543546       -14.7906
  58   2.0000      -0.505020       -13.7423
  59   2.0000      -0.478590       -13.0231
  60   2.0000      -0.469492       -12.7755
  61   2.0000      -0.440067       -11.9748
  62   2.0000      -0.423926       -11.5356
  63   2.0000      -0.415322       -11.3015
  64   2.0000      -0.408204       -11.1078
  65   2.0000      -0.386600       -10.5199
  66   2.0000      -0.383176       -10.4267
  67   2.0000      -0.381107       -10.3705
  68   2.0000      -0.379008       -10.3133
  69   2.0000      -0.375219       -10.2102
  70   2.0000      -0.371672       -10.1137
  71   2.0000      -0.360754        -9.8166
  72   2.0000      -0.359024        -9.7695
  73   2.0000      -0.353727        -9.6254
  74   2.0000      -0.342941        -9.3319
  75   2.0000      -0.338075        -9.1995
  76   2.0000      -0.331931        -9.0323
  77   2.0000      -0.324784        -8.8378
  78   2.0000      -0.315899        -8.5960
  79   2.0000      -0.304665        -8.2904
  80   2.0000      -0.292890        -7.9699
  81   2.0000      -0.291573        -7.9341
  82   2.0000      -0.290354        -7.9009
  83   2.0000      -0.275121        -7.4864
  84   2.0000      -0.267122        -7.2688
  85   2.0000      -0.261931        -7.1275
  86   2.0000      -0.234281        -6.3751
  87   2.0000      -0.227441        -6.1890
  88   2.0000      -0.211464        -5.7542
  89   2.0000      -0.194378        -5.2893
  90   2.0000      -0.189906        -5.1676
  91   2.0000      -0.182083        -4.9547
  92   2.0000      -0.181699        -4.9443
  93   2.0000      -0.173243        -4.7142
  94   2.0000      -0.169185        -4.6038
  95   2.0000      -0.157824        -4.2946
  96   2.0000      -0.153207        -4.1690
  97   2.0000      -0.145537        -3.9603
  98   2.0000      -0.139970        -3.8088
  99   2.0000      -0.129670        -3.5285
 100   0.0000       0.055166         1.5011
 101   0.0000       0.094385         2.5684
 102   0.0000       0.111635         3.0377
 103   0.0000       0.118658         3.2289
 104   0.0000       0.125222         3.4075

MULLIKEN ATOMIC CHARGES
-----------------------
   0 C :   -0.244580
   1 C :    0.063375
   2 C :   -0.214982
   3 C :   -0.227951
   4 C :   -0.212332
   5 C :   -0.255754
   6 H :    0.279891
   7 H :    0.245109
   8 H :    0.194145
   9 H :    0.199886
  10 H :    0.193461
  11 C :   -0.494618
  12 C :   -0.524786
  13 H :    0.214610
  14 H :    0.274162
  15 C :    0.092297
  16 H :    0.273644
  17 H :    0.212526
  18 C :   -0.159511
  19 C :   -0.271533
  20 C :   -0.237048
  21 C :   -0.280658
  22 C :   -0.216386
  23 H :    0.277348
  24 H :    0.194844
  25 H :    0.178507
  26 H :    0.186856
  27 Pd:    0.178313
  28 Br:   -0.484836
  29 P :   -0.116468
  30 H :    0.125089
  31 C :    0.654792
  32 O :   -0.596286
  33 O :   -0.530781
  34 O :   -0.618268
  35 H :    0.092964
  36 H :    0.153469
  37 H :    0.401488
Sum of atomic charges:   -1.0000000

LOEWDIN ATOMIC CHARGES
----------------------
   0 C :   -0.101913
   1 C :   -0.032983
   2 C :   -0.134852
   3 C :   -0.154963
   4 C :   -0.154725
   5 C :   -0.151149
   6 H :    0.252555
   7 H :    0.143654
   8 H :    0.126046
   9 H :    0.126928
  10 H :    0.124092
  11 C :   -0.221491
  12 C :   -0.216647
  13 H :    0.127165
  14 H :    0.154445
  15 C :   -0.045016
  16 H :    0.155988
  17 H :    0.122095
  18 C :   -0.029003
  19 C :   -0.120723
  20 C :   -0.149767
  21 C :   -0.151448
  22 C :   -0.158910
  23 H :    0.167985
  24 H :    0.125345
  25 H :    0.120147
  26 H :    0.121616
  27 Pd:   -0.754128
  28 Br:   -0.300287
  29 P :    0.449843
  30 H :    0.058193
  31 C :    0.112529
  32 O :   -0.419584
  33 O :   -0.263380
  34 O :   -0.348968
  35 H :    0.037404
  36 H :    0.078526
  37 H :    0.305380

  Mayer bond orders larger than 0.100000
B(  0-C ,  1-C ) :   1.3713 B(  0-C ,  2-C ) :   1.4108 B(  0-C ,  6-H ) :   0.7963
B(  1-C ,  5-C ) :   1.4218 B(  1-C , 11-C ) :   0.9634 B(  2-C ,  3-C ) :   1.4075
B(  2-C ,  7-H ) :   0.9048 B(  3-C ,  4-C ) :   1.4405 B(  3-C ,  9-H ) :   0.9238
B(  4-C ,  5-C ) :   1.4199 B(  4-C , 10-H ) :   0.9252 B(  5-C ,  8-H ) :   0.9208
B( 11-C , 12-C ) :   0.9139 B( 11-C , 13-H ) :   0.9284 B( 11-C , 14-H ) :   0.8921
B( 12-C , 15-C ) :   0.9620 B( 12-C , 16-H ) :   0.8887 B( 12-C , 17-H ) :   0.9326
B( 15-C , 18-C ) :   1.3497 B( 15-C , 21-C ) :   1.4031 B( 18-C , 19-C ) :   1.4112
B( 18-C , 27-Pd) :   0.7636 B( 18-C , 28-Br) :   0.1159 B( 18-C , 29-P ) :   0.1048
B( 19-C , 20-C ) :   1.4050 B( 19-C , 23-H ) :   0.8633 B( 20-C , 22-C ) :   1.4292
B( 20-C , 24-H ) :   0.9255 B( 21-C , 22-C ) :   1.4249 B( 21-C , 25-H ) :   0.9276
B( 22-C , 26-H ) :   0.9273 B( 27-Pd, 28-Br) :   0.4855 B( 27-Pd, 29-P ) :   0.8355
B( 27-Pd, 33-O ) :   0.3605 B( 28-Br, 29-P ) :   0.1277 B( 29-P , 30-H ) :   0.9227
B( 29-P , 35-H ) :   0.9052 B( 29-P , 36-H ) :   0.9264 B( 31-C , 32-O ) :   1.7280
B( 31-C , 33-O ) :   1.5262 B( 31-C , 34-O ) :   1.0274 B( 34-O , 37-H ) :   0.7892

Dispersion correction           -0.031414188
FINAL SINGLE POINT ENERGY     -3847.628839763906
Dispersion correction            ... done

DIPOLE MOMENT
-------------
                                X             Y             Z
Electronic contribution:      9.51437     -73.35571     -32.12924
Nuclear contribution   :     -8.63354      74.83360      35.64573
                        -----------------------------------------
Total Dipole Moment    :      0.88083       1.47789       3.51649
                        -----------------------------------------
Magnitude (a.u.)       :      3.91481
Magnitude (Debye)      :      9.95065

Rotational constants in cm-1:     0.006923     0.006093     0.004353
Rotational constants in MHz :   207.540913   182.663192   130.491907

                             ****ORCA TERMINATED NORMALLY****
TOTAL RUN TIME: 0 days 0 hours 14 minutes 1 seconds 636 msec
