                         Program Version 5.0.3 -  RELEASE  -
|  1> ! EnGrad PBEh-3c
|  2> %output
|  3> xyzfile=True
|  4> end
|  5> %scf
|  6> maxiter 250
|  7> end
|  8> %output
|  9> Print[P_Hirshfeld] = 1
| 10> end
| 11> % maxcore
| 12> 4000
| 13> *xyz -1 1
| 14> C   -2.37217846  -0.18609586   0.53285967
| 15> C   -1.91669266   0.96915699   1.27646256
| 16> C   -3.70473584  -0.50722547   0.76813676
| 17> C   -4.65249837   0.39158825   1.24725541
| 18> C   -4.23428211   1.59800057   1.77080566
| 19> C   -2.86800828   1.82689067   1.86391881
| 20> H   -2.08674448  -1.00548576  -0.62256376
| 21> H   -4.03474057  -1.45964900   0.40175897
| 22> H   -2.55588560   2.74678044   2.35947608
| 23> H   -5.71294087   0.15670186   1.17558955
| 24> H   -4.95374616   2.32184532   2.14261768
| 25> C   -0.48728062   1.43915721   1.46476011
| 26> C    0.63133221   0.44541309   1.79172838
| 27> H   -0.48796427   2.20693518   2.25191021
| 28> H   -0.18149437   2.02949535   0.59867521
| 29> C    1.73934861   0.54997566   0.78618124
| 30> H    0.23947771  -0.56084858   1.83518875
| 31> H    1.03691849   0.64312136   2.78644758
| 32> C    1.67188072  -0.11633974  -0.44956985
| 33> C    2.68884517   0.14193369  -1.37061503
| 34> C    3.67813934   1.09314137  -1.12966656
| 35> C    2.81595825   1.39473320   1.06344579
| 36> C    3.75292591   1.72287344   0.09916152
| 37> H    2.71102691  -0.37810176  -2.31956240
| 38> H    4.42442744   1.31009672  -1.88229497
| 39> H    2.91209709   1.83746442   2.04696287
| 40> H    4.53237248   2.44901675   0.30560614
| 41> Pd   0.21147603  -1.47995680  -0.84047186
| 42> Br  -1.55077642  -3.53874639  -0.77343548
| 43> P    1.41972686  -2.98289495   0.13107112
| 44> H    0.92823985  -3.56765040   1.30153178
| 45> C    0.42518163  -1.31269035  -3.89133596
| 46> O    1.48510776  -1.65908210  -4.21251513
| 47> O   -0.42404581  -1.81833226  -3.08374650
| 48> O   -0.09204108  -0.10920860  -4.40104048
| 49> H    2.74267656  -2.74063058   0.52739731
| 50> H    1.61198471  -4.12777807  -0.64786968
| 51> H    0.64654882   0.26963004  -4.89740282
| 52> *
| 53>
| 54>                          ****END OF INPUT****

CARTESIAN COORDINATES (ANGSTROEM)
---------------------------------
  C     -2.372178   -0.186096    0.532860
  C     -1.916693    0.969157    1.276463
  C     -3.704736   -0.507225    0.768137
  C     -4.652498    0.391588    1.247255
  C     -4.234282    1.598001    1.770806
  C     -2.868008    1.826891    1.863919
  H     -2.086744   -1.005486   -0.622564
  H     -4.034741   -1.459649    0.401759
  H     -2.555886    2.746780    2.359476
  H     -5.712941    0.156702    1.175590
  H     -4.953746    2.321845    2.142618
  C     -0.487281    1.439157    1.464760
  C      0.631332    0.445413    1.791728
  H     -0.487964    2.206935    2.251910
  H     -0.181494    2.029495    0.598675
  C      1.739349    0.549976    0.786181
  H      0.239478   -0.560849    1.835189
  H      1.036918    0.643121    2.786448
  C      1.671881   -0.116340   -0.449570
  C      2.688845    0.141934   -1.370615
  C      3.678139    1.093141   -1.129667
  C      2.815958    1.394733    1.063446
  C      3.752926    1.722873    0.099162
  H      2.711027   -0.378102   -2.319562
  H      4.424427    1.310097   -1.882295
  H      2.912097    1.837464    2.046963
  H      4.532372    2.449017    0.305606
  Pd     0.211476   -1.479957   -0.840472
  Br    -1.550776   -3.538746   -0.773435
  P      1.419727   -2.982895    0.131071
  H      0.928240   -3.567650    1.301532
  C      0.425182   -1.312690   -3.891336
  O      1.485108   -1.659082   -4.212515
  O     -0.424046   -1.818332   -3.083746
  O     -0.092041   -0.109209   -4.401040
  H      2.742677   -2.740631    0.527397
  H      1.611985   -4.127778   -0.647870
  H      0.646549    0.269630   -4.897403

 Total Charge           Charge          ....   -1
 Multiplicity           Mult            ....    1
 Number of Electrons    NEL             ....  200
 Basis Dimension        Dim             ....  385

ORBITAL ENERGIES
----------------

  NO   OCC          E(Eh)            E(eV)
   0   2.0000    -484.322509    -13179.0855
   1   2.0000     -77.684538     -2113.9038
   2   2.0000     -62.984086     -1713.8841
   3   2.0000     -56.687735     -1542.5517
   4   2.0000     -56.686796     -1542.5261
   5   2.0000     -56.686641     -1542.5219
   6   2.0000     -19.344488      -526.3903
   7   2.0000     -19.294808      -525.0384
   8   2.0000     -19.277949      -524.5797
   9   2.0000     -10.412246      -283.3316
  10   2.0000     -10.376463      -282.3579
  11   2.0000     -10.374780      -282.3121
  12   2.0000     -10.354717      -281.7662
  13   2.0000     -10.353952      -281.7453
  14   2.0000     -10.351803      -281.6869
  15   2.0000     -10.350940      -281.6634
  16   2.0000     -10.350415      -281.6491
  17   2.0000     -10.347820      -281.5785
  18   2.0000     -10.347023      -281.5568
  19   2.0000     -10.346296      -281.5370
  20   2.0000     -10.344509      -281.4884
  21   2.0000     -10.343490      -281.4607
  22   2.0000     -10.342793      -281.4417
  23   2.0000     -10.334892      -281.2267
  24   2.0000      -8.811277      -239.7670
  25   2.0000      -6.759168      -183.9263
  26   2.0000      -6.580864      -179.0744
  27   2.0000      -6.576516      -178.9561
  28   2.0000      -6.575020      -178.9154
  29   2.0000      -4.850225      -131.9813
  30   2.0000      -4.849937      -131.9735
  31   2.0000      -4.848881      -131.9448
  32   2.0000      -3.534600       -96.1813
  33   2.0000      -2.594911       -70.6111
  34   2.0000      -2.594094       -70.5889
  35   2.0000      -2.592812       -70.5540
  36   2.0000      -2.589072       -70.4522
  37   2.0000      -2.588970       -70.4495
  38   2.0000      -2.180555       -59.3359
  39   2.0000      -2.179288       -59.3015
  40   2.0000      -2.149422       -58.4887
  41   2.0000      -1.054478       -28.6938
  42   2.0000      -0.946608       -25.7585
  43   2.0000      -0.899019       -24.4635
  44   2.0000      -0.861379       -23.4393
  45   2.0000      -0.854029       -23.2393
  46   2.0000      -0.794619       -21.6227
  47   2.0000      -0.749934       -20.4067
  48   2.0000      -0.736658       -20.0455
  49   2.0000      -0.727397       -19.7935
  50   2.0000      -0.694863       -18.9082
  51   2.0000      -0.659084       -17.9346
  52   2.0000      -0.630036       -17.1442
  53   2.0000      -0.626018       -17.0348
  54   2.0000      -0.575344       -15.6559
  55   2.0000      -0.571828       -15.5602
  56   2.0000      -0.559989       -15.2381
  57   2.0000      -0.543142       -14.7796
  58   2.0000      -0.482633       -13.1331
  59   2.0000      -0.477259       -12.9869
  60   2.0000      -0.470704       -12.8085
  61   2.0000      -0.439420       -11.9572
  62   2.0000      -0.422263       -11.4904
  63   2.0000      -0.415182       -11.2977
  64   2.0000      -0.407743       -11.0953
  65   2.0000      -0.384173       -10.4539
  66   2.0000      -0.383096       -10.4246
  67   2.0000      -0.379472       -10.3260
  68   2.0000      -0.377795       -10.2803
  69   2.0000      -0.377248       -10.2654
  70   2.0000      -0.370584       -10.0841
  71   2.0000      -0.363092        -9.8802
  72   2.0000      -0.358787        -9.7631
  73   2.0000      -0.354537        -9.6474
  74   2.0000      -0.348965        -9.4958
  75   2.0000      -0.337149        -9.1743
  76   2.0000      -0.330889        -9.0039
  77   2.0000      -0.324333        -8.8256
  78   2.0000      -0.314747        -8.5647
  79   2.0000      -0.304369        -8.2823
  80   2.0000      -0.301187        -8.1957
  81   2.0000      -0.290444        -7.9034
  82   2.0000      -0.287500        -7.8233
  83   2.0000      -0.274172        -7.4606
  84   2.0000      -0.265981        -7.2377
  85   2.0000      -0.259961        -7.0739
  86   2.0000      -0.230803        -6.2805
  87   2.0000      -0.224348        -6.1048
  88   2.0000      -0.209943        -5.7128
  89   2.0000      -0.200158        -5.4466
  90   2.0000      -0.189043        -5.1441
  91   2.0000      -0.183857        -5.0030
  92   2.0000      -0.181617        -4.9420
  93   2.0000      -0.176440        -4.8012
  94   2.0000      -0.172178        -4.6852
  95   2.0000      -0.156565        -4.2604
  96   2.0000      -0.151254        -4.1158
  97   2.0000      -0.143947        -3.9170
  98   2.0000      -0.143816        -3.9134
  99   2.0000      -0.128592        -3.4992
 100   0.0000       0.057446         1.5632
 101   0.0000       0.097867         2.6631
 102   0.0000       0.114548         3.1170
 103   0.0000       0.119350         3.2477
 104   0.0000       0.126362         3.4385

MULLIKEN ATOMIC CHARGES
-----------------------
   0 C :   -0.235397
   1 C :    0.063196
   2 C :   -0.219798
   3 C :   -0.222244
   4 C :   -0.216558
   5 C :   -0.255828
   6 H :    0.278193
   7 H :    0.244697
   8 H :    0.193417
   9 H :    0.197998
  10 H :    0.192292
  11 C :   -0.495355
  12 C :   -0.525925
  13 H :    0.209945
  14 H :    0.272853
  15 C :    0.100349
  16 H :    0.274799
  17 H :    0.212628
  18 C :   -0.156257
  19 C :   -0.268180
  20 C :   -0.235732
  21 C :   -0.279851
  22 C :   -0.218399
  23 H :    0.270930
  24 H :    0.193557
  25 H :    0.179214
  26 H :    0.186341
  27 Pd:    0.179176
  28 Br:   -0.485440
  29 P :   -0.122449
  30 H :    0.123545
  31 C :    0.631236
  32 O :   -0.483383
  33 O :   -0.561746
  34 O :   -0.643357
  35 H :    0.089599
  36 H :    0.148139
  37 H :    0.383795
Sum of atomic charges:   -1.0000000

LOEWDIN ATOMIC CHARGES
----------------------
   0 C :   -0.106811
   1 C :   -0.034820
   2 C :   -0.133672
   3 C :   -0.156592
   4 C :   -0.152018
   5 C :   -0.152155
   6 H :    0.256761
   7 H :    0.142810
   8 H :    0.125967
   9 H :    0.126429
  10 H :    0.123314
  11 C :   -0.218400
  12 C :   -0.217416
  13 H :    0.124254
  14 H :    0.153986
  15 C :   -0.044222
  16 H :    0.156483
  17 H :    0.122110
  18 C :   -0.024824
  19 C :   -0.119585
  20 C :   -0.149375
  21 C :   -0.150198
  22 C :   -0.158819
  23 H :    0.164958
  24 H :    0.125027
  25 H :    0.120729
  26 H :    0.121452
  27 Pd:   -0.755351
  28 Br:   -0.304791
  29 P :    0.443330
  30 H :    0.057455
  31 C :    0.068491
  32 O :   -0.280059
  33 O :   -0.294317
  34 O :   -0.385271
  35 H :    0.035363
  36 H :    0.075601
  37 H :    0.294174

  Mayer bond orders larger than 0.100000
B(  0-C ,  1-C ) :   1.3736 B(  0-C ,  2-C ) :   1.4092 B(  0-C ,  6-H ) :   0.7862
B(  1-C ,  5-C ) :   1.4206 B(  1-C , 11-C ) :   0.9587 B(  2-C ,  3-C ) :   1.4119
B(  2-C ,  7-H ) :   0.9039 B(  3-C ,  4-C ) :   1.4410 B(  3-C ,  9-H ) :   0.9243
B(  4-C ,  5-C ) :   1.4231 B(  4-C , 10-H ) :   0.9252 B(  5-C ,  8-H ) :   0.9206
B( 11-C , 12-C ) :   0.9115 B( 11-C , 13-H ) :   0.9299 B( 11-C , 14-H ) :   0.8925
B( 12-C , 15-C ) :   0.9642 B( 12-C , 16-H ) :   0.8880 B( 12-C , 17-H ) :   0.9322
B( 15-C , 18-C ) :   1.3459 B( 15-C , 21-C ) :   1.4061 B( 18-C , 19-C ) :   1.4124
B( 18-C , 27-Pd) :   0.7734 B( 18-C , 28-Br) :   0.1162 B( 18-C , 29-P ) :   0.1023
B( 19-C , 20-C ) :   1.4061 B( 19-C , 23-H ) :   0.8733 B( 20-C , 22-C ) :   1.4305
B( 20-C , 24-H ) :   0.9258 B( 21-C , 22-C ) :   1.4252 B( 21-C , 25-H ) :   0.9270
B( 22-C , 26-H ) :   0.9276 B( 27-Pd, 28-Br) :   0.4748 B( 27-Pd, 29-P ) :   0.8168
B( 27-Pd, 33-O ) :   0.3943 B( 28-Br, 29-P ) :   0.1258 B( 29-P , 30-H ) :   0.9222
B( 29-P , 35-H ) :   0.9043 B( 29-P , 36-H ) :   0.9259 B( 31-C , 32-O ) :   1.8897
B( 31-C , 33-O ) :   1.4634 B( 31-C , 34-O ) :   0.9765 B( 34-O , 37-H ) :   0.8038

Dispersion correction           -0.031546416
FINAL SINGLE POINT ENERGY     -3847.625426873302
Dispersion correction            ... done

DIPOLE MOMENT
-------------
                                X             Y             Z
Electronic contribution:     10.11689     -72.31536     -32.62939
Nuclear contribution   :     -8.95706      73.62462      35.96168
                        -----------------------------------------
Total Dipole Moment    :      1.15984       1.30926       3.33230
                        -----------------------------------------
Magnitude (a.u.)       :      3.76345
Magnitude (Debye)      :      9.56594

Rotational constants in cm-1:     0.006964     0.006111     0.004359
Rotational constants in MHz :   208.780914   183.215577   130.676525

                             ****ORCA TERMINATED NORMALLY****
TOTAL RUN TIME: 0 days 0 hours 17 minutes 23 seconds 326 msec
