                         Program Version 5.0.3 -  RELEASE  -
|  1> ! EnGrad PBEh-3c
|  2> %output
|  3> xyzfile=True
|  4> end
|  5> %scf
|  6> maxiter 250
|  7> end
|  8> %output
|  9> Print[P_Hirshfeld] = 1
| 10> end
| 11> % maxcore
| 12> 4000
| 13> *xyz -1 1
| 14> C   -2.35944864  -0.19623587   0.53331313
| 15> C   -1.91301587   0.96456386   1.27358768
| 16> C   -3.69739150  -0.50330661   0.74912575
| 17> C   -4.64368824   0.38975126   1.24587603
| 18> C   -4.23074431   1.59599220   1.76122620
| 19> C   -2.86870151   1.82640064   1.86331610
| 20> H   -2.04419552  -1.02425222  -0.59011502
| 21> H   -4.02689984  -1.45570346   0.38358800
| 22> H   -2.55467703   2.74014918   2.37223708
| 23> H   -5.70268268   0.14838688   1.17952370
| 24> H   -4.95128434   2.32366462   2.12806017
| 25> C   -0.48366443   1.44589965   1.46640802
| 26> C    0.63170967   0.44126286   1.79355685
| 27> H   -0.49133022   2.20989291   2.26324636
| 28> H   -0.16934095   2.04370381   0.59577370
| 29> C    1.73965481   0.54258228   0.79000659
| 30> H    0.23148884  -0.56332551   1.83838699
| 31> H    1.03250068   0.64572868   2.78831420
| 32> C    1.66656702  -0.11687335  -0.44691821
| 33> C    2.67967306   0.13881701  -1.37404943
| 34> C    3.67043267   1.08854902  -1.12951452
| 35> C    2.80833269   1.39811788   1.06127804
| 36> C    3.75017560   1.71126642   0.09831510
| 37> H    2.69755357  -0.37694369  -2.32249246
| 38> H    4.41336554   1.30713981  -1.88609293
| 39> H    2.89925719   1.84283105   2.04412521
| 40> H    4.53021540   2.43720138   0.30537684
| 41> Pd   0.19828665  -1.46829612  -0.83381190
| 42> Br  -1.57288245  -3.50938531  -0.77640560
| 43> P    1.42171577  -2.97967589   0.12713440
| 44> H    0.93285575  -3.56837231   1.30187388
| 45> C    0.39758588  -1.30245872  -3.88812098
| 46> O    1.50145606  -1.66281538  -4.21561161
| 47> O   -0.42484297  -1.82113186  -3.06772537
| 48> O   -0.08675090  -0.10551757  -4.39534180
| 49> H    2.75119554  -2.73782607   0.52106502
| 50> H    1.61065589  -4.12807352  -0.65615973
| 51> H    0.64548126   0.27082537  -4.89787271
| 52> *
| 53>
| 54>                          ****END OF INPUT****

CARTESIAN COORDINATES (ANGSTROEM)
---------------------------------
  C     -2.359449   -0.196236    0.533313
  C     -1.913016    0.964564    1.273588
  C     -3.697391   -0.503307    0.749126
  C     -4.643688    0.389751    1.245876
  C     -4.230744    1.595992    1.761226
  C     -2.868702    1.826401    1.863316
  H     -2.044196   -1.024252   -0.590115
  H     -4.026900   -1.455703    0.383588
  H     -2.554677    2.740149    2.372237
  H     -5.702683    0.148387    1.179524
  H     -4.951284    2.323665    2.128060
  C     -0.483664    1.445900    1.466408
  C      0.631710    0.441263    1.793557
  H     -0.491330    2.209893    2.263246
  H     -0.169341    2.043704    0.595774
  C      1.739655    0.542582    0.790007
  H      0.231489   -0.563326    1.838387
  H      1.032501    0.645729    2.788314
  C      1.666567   -0.116873   -0.446918
  C      2.679673    0.138817   -1.374049
  C      3.670433    1.088549   -1.129515
  C      2.808333    1.398118    1.061278
  C      3.750176    1.711266    0.098315
  H      2.697554   -0.376944   -2.322492
  H      4.413366    1.307140   -1.886093
  H      2.899257    1.842831    2.044125
  H      4.530215    2.437201    0.305377
  Pd     0.198287   -1.468296   -0.833812
  Br    -1.572882   -3.509385   -0.776406
  P      1.421716   -2.979676    0.127134
  H      0.932856   -3.568372    1.301874
  C      0.397586   -1.302459   -3.888121
  O      1.501456   -1.662815   -4.215612
  O     -0.424843   -1.821132   -3.067725
  O     -0.086751   -0.105518   -4.395342
  H      2.751196   -2.737826    0.521065
  H      1.610656   -4.128074   -0.656160
  H      0.645481    0.270825   -4.897873

 Total Charge           Charge          ....   -1
 Multiplicity           Mult            ....    1
 Number of Electrons    NEL             ....  200
 Basis Dimension        Dim             ....  385

ORBITAL ENERGIES
----------------

  NO   OCC          E(Eh)            E(eV)
   0   2.0000    -484.323242    -13179.1054
   1   2.0000     -77.685715     -2113.9358
   2   2.0000     -62.984820     -1713.9041
   3   2.0000     -56.688471     -1542.5717
   4   2.0000     -56.687532     -1542.5462
   5   2.0000     -56.687371     -1542.5418
   6   2.0000     -19.352594      -526.6109
   7   2.0000     -19.287207      -524.8316
   8   2.0000     -19.283307      -524.7255
   9   2.0000     -10.416467      -283.4465
  10   2.0000     -10.375182      -282.3231
  11   2.0000     -10.374639      -282.3083
  12   2.0000     -10.354803      -281.7685
  13   2.0000     -10.353581      -281.7353
  14   2.0000     -10.351383      -281.6755
  15   2.0000     -10.350396      -281.6486
  16   2.0000     -10.350150      -281.6419
  17   2.0000     -10.349703      -281.6297
  18   2.0000     -10.346570      -281.5445
  19   2.0000     -10.345918      -281.5267
  20   2.0000     -10.343933      -281.4727
  21   2.0000     -10.343041      -281.4484
  22   2.0000     -10.342975      -281.4467
  23   2.0000     -10.334352      -281.2120
  24   2.0000      -8.812028      -239.7875
  25   2.0000      -6.759998      -183.9489
  26   2.0000      -6.581612      -179.0948
  27   2.0000      -6.577292      -178.9772
  28   2.0000      -6.575753      -178.9353
  29   2.0000      -4.851068      -132.0043
  30   2.0000      -4.850775      -131.9963
  31   2.0000      -4.849715      -131.9675
  32   2.0000      -3.534635       -96.1823
  33   2.0000      -2.595670       -70.6318
  34   2.0000      -2.594857       -70.6096
  35   2.0000      -2.593543       -70.5739
  36   2.0000      -2.589832       -70.4729
  37   2.0000      -2.589725       -70.4700
  38   2.0000      -2.180365       -59.3308
  39   2.0000      -2.179520       -59.3077
  40   2.0000      -2.149673       -58.4956
  41   2.0000      -1.046261       -28.4702
  42   2.0000      -0.936597       -25.4861
  43   2.0000      -0.900793       -24.5118
  44   2.0000      -0.861062       -23.4307
  45   2.0000      -0.854344       -23.2479
  46   2.0000      -0.793830       -21.6012
  47   2.0000      -0.749228       -20.3875
  48   2.0000      -0.737307       -20.0631
  49   2.0000      -0.727473       -19.7955
  50   2.0000      -0.694073       -18.8867
  51   2.0000      -0.658158       -17.9094
  52   2.0000      -0.631122       -17.1737
  53   2.0000      -0.625315       -17.0157
  54   2.0000      -0.575365       -15.6565
  55   2.0000      -0.572047       -15.5662
  56   2.0000      -0.559450       -15.2234
  57   2.0000      -0.542528       -14.7629
  58   2.0000      -0.494646       -13.4600
  59   2.0000      -0.477111       -12.9828
  60   2.0000      -0.470759       -12.8100
  61   2.0000      -0.439183       -11.9508
  62   2.0000      -0.421797       -11.4777
  63   2.0000      -0.415019       -11.2932
  64   2.0000      -0.407393       -11.0857
  65   2.0000      -0.383483       -10.4351
  66   2.0000      -0.382843       -10.4177
  67   2.0000      -0.377747       -10.2790
  68   2.0000      -0.376695       -10.2504
  69   2.0000      -0.376054       -10.2330
  70   2.0000      -0.369848       -10.0641
  71   2.0000      -0.361399        -9.8342
  72   2.0000      -0.358136        -9.7454
  73   2.0000      -0.353550        -9.6206
  74   2.0000      -0.345074        -9.3899
  75   2.0000      -0.336553        -9.1581
  76   2.0000      -0.330548        -8.9947
  77   2.0000      -0.324682        -8.8350
  78   2.0000      -0.314522        -8.5586
  79   2.0000      -0.304432        -8.2840
  80   2.0000      -0.298282        -8.1167
  81   2.0000      -0.291836        -7.9413
  82   2.0000      -0.287253        -7.8166
  83   2.0000      -0.274881        -7.4799
  84   2.0000      -0.266146        -7.2422
  85   2.0000      -0.259934        -7.0732
  86   2.0000      -0.231470        -6.2986
  87   2.0000      -0.224495        -6.1088
  88   2.0000      -0.210457        -5.7268
  89   2.0000      -0.197706        -5.3798
  90   2.0000      -0.189894        -5.1673
  91   2.0000      -0.183398        -4.9905
  92   2.0000      -0.181593        -4.9414
  93   2.0000      -0.174621        -4.7517
  94   2.0000      -0.172051        -4.6818
  95   2.0000      -0.156884        -4.2690
  96   2.0000      -0.151677        -4.1274
  97   2.0000      -0.143950        -3.9171
  98   2.0000      -0.142452        -3.8763
  99   2.0000      -0.130093        -3.5400
 100   0.0000       0.056939         1.5494
 101   0.0000       0.099749         2.7143
 102   0.0000       0.114550         3.1171
 103   0.0000       0.119201         3.2436
 104   0.0000       0.126813         3.4508

MULLIKEN ATOMIC CHARGES
-----------------------
   0 C :   -0.233913
   1 C :    0.062251
   2 C :   -0.221567
   3 C :   -0.220685
   4 C :   -0.216058
   5 C :   -0.255350
   6 H :    0.275274
   7 H :    0.245255
   8 H :    0.193224
   9 H :    0.197197
  10 H :    0.191685
  11 C :   -0.494155
  12 C :   -0.526518
  13 H :    0.208160
  14 H :    0.269434
  15 C :    0.104939
  16 H :    0.274669
  17 H :    0.212484
  18 C :   -0.158303
  19 C :   -0.268982
  20 C :   -0.236308
  21 C :   -0.279211
  22 C :   -0.217297
  23 H :    0.275779
  24 H :    0.193641
  25 H :    0.179451
  26 H :    0.185662
  27 Pd:    0.178250
  28 Br:   -0.481489
  29 P :   -0.120450
  30 H :    0.122476
  31 C :    0.648424
  32 O :   -0.534637
  33 O :   -0.552537
  34 O :   -0.632004
  35 H :    0.090442
  36 H :    0.148055
  37 H :    0.392713
Sum of atomic charges:   -1.0000000

LOEWDIN ATOMIC CHARGES
----------------------
   0 C :   -0.109812
   1 C :   -0.033465
   2 C :   -0.132428
   3 C :   -0.157293
   4 C :   -0.150917
   5 C :   -0.152689
   6 H :    0.255792
   7 H :    0.143158
   8 H :    0.125823
   9 H :    0.126356
  10 H :    0.123154
  11 C :   -0.216805
  12 C :   -0.217566
  13 H :    0.123308
  14 H :    0.153087
  15 C :   -0.045024
  16 H :    0.156727
  17 H :    0.122127
  18 C :   -0.023787
  19 C :   -0.118777
  20 C :   -0.149023
  21 C :   -0.150036
  22 C :   -0.158494
  23 H :    0.166967
  24 H :    0.125153
  25 H :    0.120919
  26 H :    0.121359
  27 Pd:   -0.760118
  28 Br:   -0.299981
  29 P :    0.442655
  30 H :    0.057331
  31 C :    0.092085
  32 O :   -0.341540
  33 O :   -0.284110
  34 O :   -0.367218
  35 H :    0.036424
  36 H :    0.076270
  37 H :    0.300390

  Mayer bond orders larger than 0.100000
B(  0-C ,  1-C ) :   1.3706 B(  0-C ,  2-C ) :   1.4110 B(  0-C ,  6-H ) :   0.7782
B(  1-C ,  5-C ) :   1.4185 B(  1-C , 11-C ) :   0.9558 B(  2-C ,  3-C ) :   1.4119
B(  2-C ,  7-H ) :   0.9025 B(  3-C ,  4-C ) :   1.4410 B(  3-C ,  9-H ) :   0.9246
B(  4-C ,  5-C ) :   1.4245 B(  4-C , 10-H ) :   0.9252 B(  5-C ,  8-H ) :   0.9207
B( 11-C , 12-C ) :   0.9105 B( 11-C , 13-H ) :   0.9301 B( 11-C , 14-H ) :   0.8939
B( 12-C , 15-C ) :   0.9647 B( 12-C , 16-H ) :   0.8879 B( 12-C , 17-H ) :   0.9318
B( 15-C , 18-C ) :   1.3442 B( 15-C , 21-C ) :   1.4055 B( 18-C , 19-C ) :   1.4137
B( 18-C , 27-Pd) :   0.7747 B( 18-C , 28-Br) :   0.1178 B( 18-C , 29-P ) :   0.1016
B( 19-C , 20-C ) :   1.4045 B( 19-C , 23-H ) :   0.8676 B( 20-C , 22-C ) :   1.4311
B( 20-C , 24-H ) :   0.9259 B( 21-C , 22-C ) :   1.4249 B( 21-C , 25-H ) :   0.9267
B( 22-C , 26-H ) :   0.9279 B( 27-Pd, 28-Br) :   0.4763 B( 27-Pd, 29-P ) :   0.8029
B( 27-Pd, 33-O ) :   0.3829 B( 28-Br, 29-P ) :   0.1199 B( 29-P , 30-H ) :   0.9226
B( 29-P , 35-H ) :   0.9055 B( 29-P , 36-H ) :   0.9262 B( 31-C , 32-O ) :   1.8181
B( 31-C , 33-O ) :   1.4835 B( 31-C , 34-O ) :   1.0017 B( 34-O , 37-H ) :   0.7960

Dispersion correction           -0.031548901
FINAL SINGLE POINT ENERGY     -3847.636862139266
Dispersion correction            ... done

DIPOLE MOMENT
-------------
                                X             Y             Z
Electronic contribution:      9.30999     -71.63572     -32.25200
Nuclear contribution   :     -8.23876      72.99334      35.60011
                        -----------------------------------------
Total Dipole Moment    :      1.07124       1.35762       3.34811
                        -----------------------------------------
Magnitude (a.u.)       :      3.76836
Magnitude (Debye)      :      9.57840

Rotational constants in cm-1:     0.007005     0.006133     0.004375
Rotational constants in MHz :   210.003292   183.858697   131.163315

                             ****ORCA TERMINATED NORMALLY****
TOTAL RUN TIME: 0 days 0 hours 15 minutes 37 seconds 704 msec
