                         Program Version 5.0.3 -  RELEASE  -
|  1> ! EnGrad PBEh-3c
|  2> %output
|  3> xyzfile=True
|  4> end
|  5> %scf
|  6> maxiter 250
|  7> end
|  8> %output
|  9> Print[P_Hirshfeld] = 1
| 10> end
| 11> % maxcore
| 12> 4000
| 13> *xyz -1 1
| 14> C   -2.32721041  -0.21366605   0.53992918
| 15> C   -1.90086212   0.96151764   1.27694991
| 16> C   -3.68287082  -0.49423714   0.71462530
| 17> C   -4.62619844   0.37997710   1.24601554
| 18> C   -4.22330098   1.59702628   1.75524599
| 19> C   -2.86371589   1.81799593   1.87122399
| 20> H   -1.95657112  -1.10811299  -0.54145162
| 21> H   -4.01234364  -1.45238879   0.35616811
| 22> H   -2.54923136   2.72542231   2.40561999
| 23> H   -5.67545560   0.13402833   1.19366022
| 24> H   -4.94312323   2.32642640   2.10338741
| 25> C   -0.47648939   1.47563771   1.46152141
| 26> C    0.62947426   0.43856530   1.79601299
| 27> H   -0.49231945   2.22075307   2.26850387
| 28> H   -0.15983213   2.05600931   0.58101666
| 29> C    1.73881305   0.52943669   0.79667281
| 30> H    0.21065517  -0.56760001   1.84208744
| 31> H    1.01936970   0.65555946   2.79164249
| 32> C    1.65613948  -0.11841526  -0.44517216
| 33> C    2.66009217   0.13429644  -1.37970835
| 34> C    3.65818255   1.07225921  -1.13170129
| 35> C    2.79116679   1.40361282   1.05809356
| 36> C    3.74650848   1.68992895   0.10008255
| 37> H    2.67205294  -0.38045401  -2.33007560
| 38> H    4.39300910   1.29799016  -1.89315761
| 39> H    2.86857603   1.85700967   2.03840251
| 40> H    4.52485750   2.41236169   0.30519397
| 41> Pd   0.16915062  -1.43921239  -0.82176958
| 42> Br  -1.62811534  -3.43479846  -0.79829672
| 43> P    1.42603017  -2.97391791   0.12294488
| 44> H    0.93615785  -3.56449838   1.29953860
| 45> C    0.38701262  -1.28986500  -3.88518196
| 46> O    1.49799923  -1.65988149  -4.21302000
| 47> O   -0.42534564  -1.81214691  -3.04109820
| 48> O   -0.07358178  -0.09373848  -4.38845672
| 49> H    2.76218706  -2.73296354   0.51449198
| 50> H    1.60857075  -4.12632228  -0.66638192
| 51> H    0.64747245   0.26820701  -4.90520666
| 52> *
| 53>
| 54>                          ****END OF INPUT****

CARTESIAN COORDINATES (ANGSTROEM)
---------------------------------
  C     -2.327210   -0.213666    0.539929
  C     -1.900862    0.961518    1.276950
  C     -3.682871   -0.494237    0.714625
  C     -4.626198    0.379977    1.246016
  C     -4.223301    1.597026    1.755246
  C     -2.863716    1.817996    1.871224
  H     -1.956571   -1.108113   -0.541452
  H     -4.012344   -1.452389    0.356168
  H     -2.549231    2.725422    2.405620
  H     -5.675456    0.134028    1.193660
  H     -4.943123    2.326426    2.103387
  C     -0.476489    1.475638    1.461521
  C      0.629474    0.438565    1.796013
  H     -0.492319    2.220753    2.268504
  H     -0.159832    2.056009    0.581017
  C      1.738813    0.529437    0.796673
  H      0.210655   -0.567600    1.842087
  H      1.019370    0.655559    2.791642
  C      1.656139   -0.118415   -0.445172
  C      2.660092    0.134296   -1.379708
  C      3.658183    1.072259   -1.131701
  C      2.791167    1.403613    1.058094
  C      3.746508    1.689929    0.100083
  H      2.672053   -0.380454   -2.330076
  H      4.393009    1.297990   -1.893158
  H      2.868576    1.857010    2.038403
  H      4.524858    2.412362    0.305194
  Pd     0.169151   -1.439212   -0.821770
  Br    -1.628115   -3.434798   -0.798297
  P      1.426030   -2.973918    0.122945
  H      0.936158   -3.564498    1.299539
  C      0.387013   -1.289865   -3.885182
  O      1.497999   -1.659881   -4.213020
  O     -0.425346   -1.812147   -3.041098
  O     -0.073582   -0.093738   -4.388457
  H      2.762187   -2.732964    0.514492
  H      1.608571   -4.126322   -0.666382
  H      0.647472    0.268207   -4.905207

 Total Charge           Charge          ....   -1
 Multiplicity           Mult            ....    1
 Number of Electrons    NEL             ....  200
 Basis Dimension        Dim             ....  385

ORBITAL ENERGIES
----------------

  NO   OCC          E(Eh)            E(eV)
   0   2.0000    -484.325995    -13179.1803
   1   2.0000     -77.686558     -2113.9587
   2   2.0000     -62.987571     -1713.9789
   3   2.0000     -56.691232     -1542.6468
   4   2.0000     -56.690279     -1542.6209
   5   2.0000     -56.690097     -1542.6160
   6   2.0000     -19.356645      -526.7211
   7   2.0000     -19.286671      -524.8170
   8   2.0000     -19.284608      -524.7609
   9   2.0000     -10.419093      -283.5179
  10   2.0000     -10.372041      -282.2376
  11   2.0000     -10.370377      -282.1923
  12   2.0000     -10.352659      -281.7102
  13   2.0000     -10.350932      -281.6632
  14   2.0000     -10.350768      -281.6587
  15   2.0000     -10.350124      -281.6412
  16   2.0000     -10.348525      -281.5977
  17   2.0000     -10.346380      -281.5393
  18   2.0000     -10.346103      -281.5318
  19   2.0000     -10.345431      -281.5135
  20   2.0000     -10.343012      -281.4477
  21   2.0000     -10.342933      -281.4455
  22   2.0000     -10.340791      -281.3872
  23   2.0000     -10.334194      -281.2077
  24   2.0000      -8.814829      -239.8637
  25   2.0000      -6.760619      -183.9658
  26   2.0000      -6.584427      -179.1714
  27   2.0000      -6.580196      -179.0562
  28   2.0000      -6.578429      -179.0081
  29   2.0000      -4.851699      -132.0215
  30   2.0000      -4.851391      -132.0131
  31   2.0000      -4.850281      -131.9829
  32   2.0000      -3.533854       -96.1610
  33   2.0000      -2.598542       -70.7099
  34   2.0000      -2.597728       -70.6878
  35   2.0000      -2.596246       -70.6475
  36   2.0000      -2.592627       -70.5490
  37   2.0000      -2.592491       -70.5453
  38   2.0000      -2.180614       -59.3375
  39   2.0000      -2.177327       -59.2481
  40   2.0000      -2.149277       -58.4848
  41   2.0000      -1.048256       -28.5245
  42   2.0000      -0.936850       -25.4930
  43   2.0000      -0.896616       -24.3982
  44   2.0000      -0.858581       -23.3632
  45   2.0000      -0.852472       -23.1969
  46   2.0000      -0.790950       -21.5228
  47   2.0000      -0.746858       -20.3230
  48   2.0000      -0.733414       -19.9572
  49   2.0000      -0.727989       -19.8096
  50   2.0000      -0.690918       -18.8008
  51   2.0000      -0.657317       -17.8865
  52   2.0000      -0.634887       -17.2762
  53   2.0000      -0.623304       -16.9610
  54   2.0000      -0.574437       -15.6312
  55   2.0000      -0.569346       -15.4927
  56   2.0000      -0.557374       -15.1669
  57   2.0000      -0.541312       -14.7299
  58   2.0000      -0.502837       -13.6829
  59   2.0000      -0.474390       -12.9088
  60   2.0000      -0.470606       -12.8059
  61   2.0000      -0.437701       -11.9104
  62   2.0000      -0.419318       -11.4102
  63   2.0000      -0.412708       -11.2303
  64   2.0000      -0.405693       -11.0395
  65   2.0000      -0.383469       -10.4347
  66   2.0000      -0.382238       -10.4012
  67   2.0000      -0.377267       -10.2660
  68   2.0000      -0.376093       -10.2340
  69   2.0000      -0.376018       -10.2320
  70   2.0000      -0.367165        -9.9911
  71   2.0000      -0.362612        -9.8672
  72   2.0000      -0.357357        -9.7242
  73   2.0000      -0.351367        -9.5612
  74   2.0000      -0.345373        -9.3981
  75   2.0000      -0.335153        -9.1200
  76   2.0000      -0.328154        -8.9295
  77   2.0000      -0.323741        -8.8094
  78   2.0000      -0.311652        -8.4805
  79   2.0000      -0.303360        -8.2548
  80   2.0000      -0.297882        -8.1058
  81   2.0000      -0.293114        -7.9760
  82   2.0000      -0.283837        -7.7236
  83   2.0000      -0.275869        -7.5068
  84   2.0000      -0.266461        -7.2508
  85   2.0000      -0.258520        -7.0347
  86   2.0000      -0.231355        -6.2955
  87   2.0000      -0.223283        -6.0758
  88   2.0000      -0.209162        -5.6916
  89   2.0000      -0.197781        -5.3819
  90   2.0000      -0.188727        -5.1355
  91   2.0000      -0.183694        -4.9986
  92   2.0000      -0.178827        -4.8661
  93   2.0000      -0.174234        -4.7411
  94   2.0000      -0.173610        -4.7242
  95   2.0000      -0.156682        -4.2635
  96   2.0000      -0.152539        -4.1508
  97   2.0000      -0.144351        -3.9280
  98   2.0000      -0.141106        -3.8397
  99   2.0000      -0.129468        -3.5230
 100   0.0000       0.057298         1.5591
 101   0.0000       0.103835         2.8255
 102   0.0000       0.117384         3.1942
 103   0.0000       0.120318         3.2740
 104   0.0000       0.126761         3.4493

MULLIKEN ATOMIC CHARGES
-----------------------
   0 C :   -0.222001
   1 C :    0.052608
   2 C :   -0.225527
   3 C :   -0.218394
   4 C :   -0.218494
   5 C :   -0.256212
   6 H :    0.264914
   7 H :    0.242883
   8 H :    0.189525
   9 H :    0.195378
  10 H :    0.191815
  11 C :   -0.490491
  12 C :   -0.528844
  13 H :    0.207183
  14 H :    0.268218
  15 C :    0.112179
  16 H :    0.272756
  17 H :    0.210820
  18 C :   -0.154265
  19 C :   -0.268850
  20 C :   -0.237000
  21 C :   -0.276399
  22 C :   -0.219030
  23 H :    0.277462
  24 H :    0.193818
  25 H :    0.179924
  26 H :    0.185377
  27 Pd:    0.171722
  28 Br:   -0.463416
  29 P :   -0.122327
  30 H :    0.120897
  31 C :    0.654307
  32 O :   -0.543634
  33 O :   -0.557012
  34 O :   -0.625118
  35 H :    0.092772
  36 H :    0.145475
  37 H :    0.396982
Sum of atomic charges:   -1.0000000

LOEWDIN ATOMIC CHARGES
----------------------
   0 C :   -0.116895
   1 C :   -0.034522
   2 C :   -0.133197
   3 C :   -0.158857
   4 C :   -0.151057
   5 C :   -0.153386
   6 H :    0.260828
   7 H :    0.142642
   8 H :    0.124086
   9 H :    0.125433
  10 H :    0.122952
  11 C :   -0.214935
  12 C :   -0.216664
  13 H :    0.122688
  14 H :    0.152463
  15 C :   -0.046134
  16 H :    0.157160
  17 H :    0.121433
  18 C :   -0.020015
  19 C :   -0.118655
  20 C :   -0.148446
  21 C :   -0.148958
  22 C :   -0.158539
  23 H :    0.167994
  24 H :    0.125182
  25 H :    0.121293
  26 H :    0.121349
  27 Pd:   -0.776455
  28 Br:   -0.281410
  29 P :    0.435436
  30 H :    0.057094
  31 C :    0.101496
  32 O :   -0.353275
  33 O :   -0.288682
  34 O :   -0.356523
  35 H :    0.038736
  36 H :    0.075762
  37 H :    0.302578

  Mayer bond orders larger than 0.100000
B(  0-C ,  1-C ) :   1.3754 B(  0-C ,  2-C ) :   1.4042 B(  0-C ,  6-H ) :   0.7325
B(  1-C ,  5-C ) :   1.4124 B(  1-C , 11-C ) :   0.9547 B(  2-C ,  3-C ) :   1.4188
B(  2-C ,  7-H ) :   0.9017 B(  3-C ,  4-C ) :   1.4359 B(  3-C ,  9-H ) :   0.9249
B(  4-C ,  5-C ) :   1.4307 B(  4-C , 10-H ) :   0.9249 B(  5-C ,  8-H ) :   0.9217
B( 11-C , 12-C ) :   0.9111 B( 11-C , 13-H ) :   0.9298 B( 11-C , 14-H ) :   0.8953
B( 12-C , 15-C ) :   0.9660 B( 12-C , 16-H ) :   0.8877 B( 12-C , 17-H ) :   0.9310
B( 15-C , 18-C ) :   1.3387 B( 15-C , 21-C ) :   1.4037 B( 18-C , 19-C ) :   1.4151
B( 18-C , 27-Pd) :   0.7800 B( 18-C , 28-Br) :   0.1205 B( 19-C , 20-C ) :   1.4044
B( 19-C , 23-H ) :   0.8650 B( 20-C , 22-C ) :   1.4306 B( 20-C , 24-H ) :   0.9259
B( 21-C , 22-C ) :   1.4258 B( 21-C , 25-H ) :   0.9261 B( 22-C , 26-H ) :   0.9281
B( 27-Pd, 28-Br) :   0.4724 B( 27-Pd, 29-P ) :   0.7599 B( 27-Pd, 33-O ) :   0.3867
B( 28-Br, 29-P ) :   0.1051 B( 29-P , 30-H ) :   0.9240 B( 29-P , 35-H ) :   0.9092
B( 29-P , 36-H ) :   0.9273 B( 31-C , 32-O ) :   1.8041 B( 31-C , 33-O ) :   1.4734
B( 31-C , 34-O ) :   1.0158 B( 34-O , 37-H ) :   0.7919

Dispersion correction           -0.031707461
FINAL SINGLE POINT ENERGY     -3847.634651727863
Dispersion correction            ... done

DIPOLE MOMENT
-------------
                                X             Y             Z
Electronic contribution:      7.80591     -70.19943     -31.70605
Nuclear contribution   :     -6.65819      71.45995      34.96345
                        -----------------------------------------
Total Dipole Moment    :      1.14772       1.26052       3.25741
                        -----------------------------------------
Magnitude (a.u.)       :      3.67653
Magnitude (Debye)      :      9.34499

Rotational constants in cm-1:     0.007097     0.006182     0.004408
Rotational constants in MHz :   212.749247   185.334943   132.144073

                             ****ORCA TERMINATED NORMALLY****
TOTAL RUN TIME: 0 days 0 hours 15 minutes 0 seconds 496 msec
