                         Program Version 5.0.3 -  RELEASE  -
|  1> ! EnGrad PBEh-3c
|  2> %output
|  3> xyzfile=True
|  4> end
|  5> %scf
|  6> maxiter 250
|  7> end
|  8> %output
|  9> Print[P_Hirshfeld] = 1
| 10> end
| 11> % maxcore
| 12> 4000
| 13> *xyz -1 1
| 14> C   -2.29711061  -0.21782435   0.54713195
| 15> C   -1.88838634   0.96671690   1.28433743
| 16> C   -3.66597945  -0.48563716   0.67445408
| 17> C   -4.60561092   0.37059722   1.25364796
| 18> C   -4.21535887   1.59024781   1.76411332
| 19> C   -2.85594474   1.81419626   1.88521317
| 20> H   -1.88987134  -1.23669796  -0.52990418
| 21> H   -3.99677346  -1.45600437   0.34220846
| 22> H   -2.54475328   2.71826264   2.42517162
| 23> H   -5.64968322   0.12488307   1.19740712
| 24> H   -4.94028832   2.33149584   2.08850435
| 25> C   -0.46740253   1.50082729   1.46309688
| 26> C    0.62546683   0.43985951   1.80359321
| 27> H   -0.48468011   2.23955925   2.28278923
| 28> H   -0.16437986   2.05340121   0.56206333
| 29> C    1.73976557   0.51819560   0.80316982
| 30> H    0.19012257  -0.56744767   1.84461801
| 31> H    1.01404283   0.66438895   2.80231847
| 32> C    1.64335693  -0.11888550  -0.44562809
| 33> C    2.64033421   0.13407310  -1.38731811
| 34> C    3.65134901   1.05640526  -1.13279915
| 35> C    2.77729951   1.41394453   1.05641283
| 36> C    3.74392806   1.67473188   0.10177357
| 37> H    2.64895138  -0.38889497  -2.33607289
| 38> H    4.37772331   1.28723574  -1.89998757
| 39> H    2.84538146   1.87125632   2.03725931
| 40> H    4.52295172   2.39485662   0.30607703
| 41> Pd   0.13481428  -1.41906866  -0.81999199
| 42> Br  -1.68634979  -3.35223851  -0.82428093
| 43> P    1.42780086  -2.96431825   0.11816745
| 44> H    0.93784272  -3.56036346   1.29631543
| 45> C    0.35040020  -1.28060163  -3.85038257
| 46> O    1.50693979  -1.66567359  -4.22059115
| 47> O   -0.40615625  -1.78699272  -3.03794395
| 48> O   -0.06299658  -0.08627770  -4.38523761
| 49> H    2.77126342  -2.73150021   0.51073080
| 50> H    1.60600768  -4.12173024  -0.67416173
| 51> H    0.65262288   0.26717735  -4.91397949
| 52> *
| 53>
| 54>                          ****END OF INPUT****

CARTESIAN COORDINATES (ANGSTROEM)
---------------------------------
  C     -2.297111   -0.217824    0.547132
  C     -1.888386    0.966717    1.284337
  C     -3.665979   -0.485637    0.674454
  C     -4.605611    0.370597    1.253648
  C     -4.215359    1.590248    1.764113
  C     -2.855945    1.814196    1.885213
  H     -1.889871   -1.236698   -0.529904
  H     -3.996773   -1.456004    0.342208
  H     -2.544753    2.718263    2.425172
  H     -5.649683    0.124883    1.197407
  H     -4.940288    2.331496    2.088504
  C     -0.467403    1.500827    1.463097
  C      0.625467    0.439860    1.803593
  H     -0.484680    2.239559    2.282789
  H     -0.164380    2.053401    0.562063
  C      1.739766    0.518196    0.803170
  H      0.190123   -0.567448    1.844618
  H      1.014043    0.664389    2.802318
  C      1.643357   -0.118886   -0.445628
  C      2.640334    0.134073   -1.387318
  C      3.651349    1.056405   -1.132799
  C      2.777300    1.413945    1.056413
  C      3.743928    1.674732    0.101774
  H      2.648951   -0.388895   -2.336073
  H      4.377723    1.287236   -1.899988
  H      2.845381    1.871256    2.037259
  H      4.522952    2.394857    0.306077
  Pd     0.134814   -1.419069   -0.819992
  Br    -1.686350   -3.352239   -0.824281
  P      1.427801   -2.964318    0.118167
  H      0.937843   -3.560363    1.296315
  C      0.350400   -1.280602   -3.850383
  O      1.506940   -1.665674   -4.220591
  O     -0.406156   -1.786993   -3.037944
  O     -0.062997   -0.086278   -4.385238
  H      2.771263   -2.731500    0.510731
  H      1.606008   -4.121730   -0.674162
  H      0.652623    0.267177   -4.913979

 Total Charge           Charge          ....   -1
 Multiplicity           Mult            ....    1
 Number of Electrons    NEL             ....  200
 Basis Dimension        Dim             ....  385

ORBITAL ENERGIES
----------------

  NO   OCC          E(Eh)            E(eV)
   0   2.0000    -484.339440    -13179.5462
   1   2.0000     -77.690637     -2114.0697
   2   2.0000     -63.001093     -1714.3469
   3   2.0000     -56.704805     -1543.0162
   4   2.0000     -56.703768     -1542.9880
   5   2.0000     -56.703550     -1542.9820
   6   2.0000     -19.352843      -526.6176
   7   2.0000     -19.294626      -525.0335
   8   2.0000     -19.268205      -524.3145
   9   2.0000     -10.415863      -283.4300
  10   2.0000     -10.367604      -282.1169
  11   2.0000     -10.365067      -282.0478
  12   2.0000     -10.353855      -281.7427
  13   2.0000     -10.351734      -281.6850
  14   2.0000     -10.349155      -281.6148
  15   2.0000     -10.348051      -281.5848
  16   2.0000     -10.347872      -281.5799
  17   2.0000     -10.347308      -281.5646
  18   2.0000     -10.346600      -281.5453
  19   2.0000     -10.344133      -281.4782
  20   2.0000     -10.344051      -281.4759
  21   2.0000     -10.342618      -281.4369
  22   2.0000     -10.338251      -281.3181
  23   2.0000     -10.335145      -281.2336
  24   2.0000      -8.828498      -240.2356
  25   2.0000      -6.764533      -184.0723
  26   2.0000      -6.598256      -179.5477
  27   2.0000      -6.593960      -179.4308
  28   2.0000      -6.591808      -179.3722
  29   2.0000      -4.855607      -132.1278
  30   2.0000      -4.855306      -132.1196
  31   2.0000      -4.854150      -132.0881
  32   2.0000      -3.537327       -96.2555
  33   2.0000      -2.612450       -71.0884
  34   2.0000      -2.611590       -71.0650
  35   2.0000      -2.609816       -71.0167
  36   2.0000      -2.606145       -70.9168
  37   2.0000      -2.605969       -70.9120
  38   2.0000      -2.185480       -59.4699
  39   2.0000      -2.179345       -59.3030
  40   2.0000      -2.153242       -58.5927
  41   2.0000      -1.045789       -28.4574
  42   2.0000      -0.943290       -25.6682
  43   2.0000      -0.884260       -24.0619
  44   2.0000      -0.857578       -23.3359
  45   2.0000      -0.848304       -23.0835
  46   2.0000      -0.788469       -21.4553
  47   2.0000      -0.744240       -20.2518
  48   2.0000      -0.729273       -19.8445
  49   2.0000      -0.727668       -19.8009
  50   2.0000      -0.687950       -18.7201
  51   2.0000      -0.662534       -18.0285
  52   2.0000      -0.647507       -17.6196
  53   2.0000      -0.620455       -16.8834
  54   2.0000      -0.574606       -15.6358
  55   2.0000      -0.565339       -15.3837
  56   2.0000      -0.554785       -15.0965
  57   2.0000      -0.538833       -14.6624
  58   2.0000      -0.506726       -13.7887
  59   2.0000      -0.470514       -12.8033
  60   2.0000      -0.469810       -12.7842
  61   2.0000      -0.436370       -11.8742
  62   2.0000      -0.417323       -11.3559
  63   2.0000      -0.409803       -11.1513
  64   2.0000      -0.403418       -10.9776
  65   2.0000      -0.385761       -10.4971
  66   2.0000      -0.381258       -10.3746
  67   2.0000      -0.379087       -10.3155
  68   2.0000      -0.376933       -10.2569
  69   2.0000      -0.374827       -10.1996
  70   2.0000      -0.364570        -9.9205
  71   2.0000      -0.360952        -9.8220
  72   2.0000      -0.356114        -9.6904
  73   2.0000      -0.349781        -9.5180
  74   2.0000      -0.345255        -9.3949
  75   2.0000      -0.335564        -9.1312
  76   2.0000      -0.328031        -8.9262
  77   2.0000      -0.322819        -8.7844
  78   2.0000      -0.309638        -8.4257
  79   2.0000      -0.302425        -8.2294
  80   2.0000      -0.295948        -8.0532
  81   2.0000      -0.291467        -7.9312
  82   2.0000      -0.281776        -7.6675
  83   2.0000      -0.276303        -7.5186
  84   2.0000      -0.269036        -7.3209
  85   2.0000      -0.259644        -7.0653
  86   2.0000      -0.235676        -6.4131
  87   2.0000      -0.224353        -6.1050
  88   2.0000      -0.209675        -5.7055
  89   2.0000      -0.191966        -5.2237
  90   2.0000      -0.186244        -5.0680
  91   2.0000      -0.183846        -5.0027
  92   2.0000      -0.177797        -4.8381
  93   2.0000      -0.175388        -4.7726
  94   2.0000      -0.172784        -4.7017
  95   2.0000      -0.162238        -4.4147
  96   2.0000      -0.153636        -4.1806
  97   2.0000      -0.152944        -4.1618
  98   2.0000      -0.139401        -3.7933
  99   2.0000      -0.128054        -3.4845
 100   0.0000       0.053455         1.4546
 101   0.0000       0.107763         2.9324
 102   0.0000       0.117023         3.1844
 103   0.0000       0.122128         3.3233
 104   0.0000       0.125643         3.4189

MULLIKEN ATOMIC CHARGES
-----------------------
   0 C :   -0.196353
   1 C :    0.037116
   2 C :   -0.229744
   3 C :   -0.218654
   4 C :   -0.220385
   5 C :   -0.257221
   6 H :    0.238359
   7 H :    0.236399
   8 H :    0.186638
   9 H :    0.191857
  10 H :    0.190562
  11 C :   -0.485913
  12 C :   -0.527149
  13 H :    0.203911
  14 H :    0.267945
  15 C :    0.107962
  16 H :    0.270388
  17 H :    0.208030
  18 C :   -0.143966
  19 C :   -0.270377
  20 C :   -0.236600
  21 C :   -0.268970
  22 C :   -0.221603
  23 H :    0.284752
  24 H :    0.196341
  25 H :    0.181386
  26 H :    0.185691
  27 Pd:    0.162485
  28 Br:   -0.419661
  29 P :   -0.123213
  30 H :    0.119740
  31 C :    0.654464
  32 O :   -0.612352
  33 O :   -0.505936
  34 O :   -0.630927
  35 H :    0.098567
  36 H :    0.143539
  37 H :    0.402892
Sum of atomic charges:   -1.0000000

LOEWDIN ATOMIC CHARGES
----------------------
   0 C :   -0.130250
   1 C :   -0.038425
   2 C :   -0.137763
   3 C :   -0.160594
   4 C :   -0.152857
   5 C :   -0.155084
   6 H :    0.269361
   7 H :    0.140152
   8 H :    0.122380
   9 H :    0.123779
  10 H :    0.122286
  11 C :   -0.212898
  12 C :   -0.216077
  13 H :    0.121833
  14 H :    0.152634
  15 C :   -0.045855
  16 H :    0.157060
  17 H :    0.120556
  18 C :   -0.016536
  19 C :   -0.117345
  20 C :   -0.147981
  21 C :   -0.148504
  22 C :   -0.156896
  23 H :    0.172018
  24 H :    0.126320
  25 H :    0.122146
  26 H :    0.121581
  27 Pd:   -0.793059
  28 Br:   -0.235997
  29 P :    0.430039
  30 H :    0.057075
  31 C :    0.098017
  32 O :   -0.434904
  33 O :   -0.223611
  34 O :   -0.356959
  35 H :    0.043056
  36 H :    0.075200
  37 H :    0.306105

  Mayer bond orders larger than 0.100000
B(  0-C ,  1-C ) :   1.3871 B(  0-C ,  2-C ) :   1.4001 B(  0-C ,  6-H ) :   0.6411
B(  0-C , 27-Pd) :   0.1022 B(  1-C ,  5-C ) :   1.4140 B(  1-C , 11-C ) :   0.9529
B(  2-C ,  3-C ) :   1.4166 B(  2-C ,  7-H ) :   0.9030 B(  3-C ,  4-C ) :   1.4397
B(  3-C ,  9-H ) :   0.9253 B(  4-C ,  5-C ) :   1.4281 B(  4-C , 10-H ) :   0.9252
B(  5-C ,  8-H ) :   0.9217 B(  6-H , 28-Br) :   0.1703 B( 11-C , 12-C ) :   0.9112
B( 11-C , 13-H ) :   0.9315 B( 11-C , 14-H ) :   0.8959 B( 12-C , 15-C ) :   0.9684
B( 12-C , 16-H ) :   0.8883 B( 12-C , 17-H ) :   0.9307 B( 15-C , 18-C ) :   1.3352
B( 15-C , 21-C ) :   1.4007 B( 18-C , 19-C ) :   1.4155 B( 18-C , 27-Pd) :   0.7775
B( 18-C , 28-Br) :   0.1212 B( 19-C , 20-C ) :   1.4038 B( 19-C , 23-H ) :   0.8544
B( 20-C , 22-C ) :   1.4290 B( 20-C , 24-H ) :   0.9254 B( 21-C , 22-C ) :   1.4271
B( 21-C , 25-H ) :   0.9254 B( 22-C , 26-H ) :   0.9282 B( 27-Pd, 28-Br) :   0.4607
B( 27-Pd, 29-P ) :   0.7242 B( 27-Pd, 33-O ) :   0.3450 B( 29-P , 30-H ) :   0.9254
B( 29-P , 35-H ) :   0.9142 B( 29-P , 36-H ) :   0.9282 B( 31-C , 32-O ) :   1.7037
B( 31-C , 33-O ) :   1.5778 B( 31-C , 34-O ) :   1.0151 B( 34-O , 37-H ) :   0.7874

Dispersion correction           -0.031873800
FINAL SINGLE POINT ENERGY     -3847.616941358735
Dispersion correction            ... done

DIPOLE MOMENT
-------------
                                X             Y             Z
Electronic contribution:      5.85753     -69.43806     -31.48997
Nuclear contribution   :     -4.77753      70.43535      34.87082
                        -----------------------------------------
Total Dipole Moment    :      1.08001       0.99729       3.38085
                        -----------------------------------------
Magnitude (a.u.)       :      3.68662
Magnitude (Debye)      :      9.37064

Rotational constants in cm-1:     0.007187     0.006229     0.004434
Rotational constants in MHz :   215.449331   186.742665   132.920072

                             ****ORCA TERMINATED NORMALLY****
TOTAL RUN TIME: 0 days 0 hours 16 minutes 2 seconds 436 msec
