                         Program Version 5.0.3 -  RELEASE  -
|  1> ! EnGrad PBEh-3c
|  2> %output
|  3> xyzfile=True
|  4> end
|  5> %scf
|  6> maxiter 250
|  7> end
|  8> %output
|  9> Print[P_Hirshfeld] = 1
| 10> end
| 11> % maxcore
| 12> 4000
| 13> *xyz -1 1
| 14> C   -2.32106945  -0.21451442   0.54139868
| 15> C   -1.89831681   0.96257839   1.27845711
| 16> C   -3.67942464  -0.49248257   0.70642957
| 17> C   -4.62199817   0.37806342   1.24757271
| 18> C   -4.22168063   1.59564333   1.75705510
| 19> C   -2.86213042   1.81722072   1.87407806
| 20> H   -1.94296303  -1.13434689  -0.53909571
| 21> H   -4.00916701  -1.45312644   0.35332006
| 22> H   -2.54831774   2.72396159   2.40960891
| 23> H   -5.67019752   0.13216252   1.19442466
| 24> H   -4.94254486   2.32746067   2.10035097
| 25> C   -0.47463549   1.48077688   1.46184284
| 26> C    0.62865667   0.43882935   1.79755950
| 27> H   -0.49076087   2.22458991   2.27141837
| 28> H   -0.16075995   2.05547720   0.57714980
| 29> C    1.73900738   0.52714328   0.79799833
| 30> H    0.20646611  -0.56756893   1.84260373
| 31> H    1.01828291   0.65736085   2.79382060
| 32> C    1.65353158  -0.11851120  -0.44526518
| 33> C    2.65606116   0.13425087  -1.38126090
| 34> C    3.65678837   1.06902469  -1.13192528
| 35> C    2.78833759   1.40572069   1.05775066
| 36> C    3.74598203   1.68682845   0.10042755
| 37> H    2.66733976  -0.38217613  -2.33129916
| 38> H    4.38989049   1.29579604  -1.89455106
| 39> H    2.86384388   1.85991627   2.03816928
| 40> H    4.52446868   2.40879030   0.30537413
| 41> Pd   0.16214532  -1.43510267  -0.82140691
| 42> Br  -1.63999632  -3.41795459  -0.80359801
| 43> P    1.42639143  -2.97195939   0.12197019
| 44> H    0.93650160  -3.56365477   1.29888101
| 45> C    0.37954296  -1.28797509  -3.87808220
| 46> O    1.49982329  -1.66106320  -4.21456466
| 47> O   -0.42143063  -1.80701495  -3.04045467
| 48> O   -0.07142219  -0.09221633  -4.38779996
| 49> H    2.76403882  -2.73266499   0.51372462
| 50> H    1.60804783  -4.12538542  -0.66796916
| 51> H    0.64852324   0.26799694  -4.90699649
| 52> *
| 53>
| 54>                          ****END OF INPUT****

CARTESIAN COORDINATES (ANGSTROEM)
---------------------------------
  C     -2.321069   -0.214514    0.541399
  C     -1.898317    0.962578    1.278457
  C     -3.679425   -0.492483    0.706430
  C     -4.621998    0.378063    1.247573
  C     -4.221681    1.595643    1.757055
  C     -2.862130    1.817221    1.874078
  H     -1.942963   -1.134347   -0.539096
  H     -4.009167   -1.453126    0.353320
  H     -2.548318    2.723962    2.409609
  H     -5.670198    0.132163    1.194425
  H     -4.942545    2.327461    2.100351
  C     -0.474635    1.480777    1.461843
  C      0.628657    0.438829    1.797559
  H     -0.490761    2.224590    2.271418
  H     -0.160760    2.055477    0.577150
  C      1.739007    0.527143    0.797998
  H      0.206466   -0.567569    1.842604
  H      1.018283    0.657361    2.793821
  C      1.653532   -0.118511   -0.445265
  C      2.656061    0.134251   -1.381261
  C      3.656788    1.069025   -1.131925
  C      2.788338    1.405721    1.057751
  C      3.745982    1.686828    0.100428
  H      2.667340   -0.382176   -2.331299
  H      4.389890    1.295796   -1.894551
  H      2.863844    1.859916    2.038169
  H      4.524469    2.408790    0.305374
  Pd     0.162145   -1.435103   -0.821407
  Br    -1.639996   -3.417955   -0.803598
  P      1.426391   -2.971959    0.121970
  H      0.936502   -3.563655    1.298881
  C      0.379543   -1.287975   -3.878082
  O      1.499823   -1.661063   -4.214565
  O     -0.421431   -1.807015   -3.040455
  O     -0.071422   -0.092216   -4.387800
  H      2.764039   -2.732665    0.513725
  H      1.608048   -4.125385   -0.667969
  H      0.648523    0.267997   -4.906996

 Total Charge           Charge          ....   -1
 Multiplicity           Mult            ....    1
 Number of Electrons    NEL             ....  200
 Basis Dimension        Dim             ....  385

ORBITAL ENERGIES
----------------

  NO   OCC          E(Eh)            E(eV)
   0   2.0000    -484.328349    -13179.2444
   1   2.0000     -77.687389     -2113.9813
   2   2.0000     -62.989934     -1714.0432
   3   2.0000     -56.693601     -1542.7113
   4   2.0000     -56.692639     -1542.6851
   5   2.0000     -56.692449     -1542.6800
   6   2.0000     -19.355915      -526.7012
   7   2.0000     -19.286538      -524.8134
   8   2.0000     -19.282860      -524.7133
   9   2.0000     -10.418465      -283.5008
  10   2.0000     -10.371351      -282.2188
  11   2.0000     -10.369674      -282.1732
  12   2.0000     -10.352092      -281.6948
  13   2.0000     -10.351316      -281.6736
  14   2.0000     -10.350489      -281.6511
  15   2.0000     -10.350475      -281.6507
  16   2.0000     -10.348474      -281.5963
  17   2.0000     -10.346341      -281.5383
  18   2.0000     -10.345711      -281.5211
  19   2.0000     -10.345662      -281.5198
  20   2.0000     -10.343235      -281.4537
  21   2.0000     -10.343213      -281.4531
  22   2.0000     -10.340380      -281.3760
  23   2.0000     -10.334374      -281.2126
  24   2.0000      -8.817215      -239.9286
  25   2.0000      -6.761413      -183.9874
  26   2.0000      -6.586826      -179.2366
  27   2.0000      -6.582612      -179.1220
  28   2.0000      -6.580764      -179.0717
  29   2.0000      -4.852494      -132.0431
  30   2.0000      -4.852186      -132.0347
  31   2.0000      -4.851066      -132.0042
  32   2.0000      -3.534524       -96.1793
  33   2.0000      -2.600961       -70.7757
  34   2.0000      -2.600144       -70.7535
  35   2.0000      -2.598602       -70.7116
  36   2.0000      -2.595000       -70.6135
  37   2.0000      -2.594855       -70.6096
  38   2.0000      -2.181541       -59.3627
  39   2.0000      -2.177716       -59.2587
  40   2.0000      -2.150046       -58.5057
  41   2.0000      -1.046802       -28.4849
  42   2.0000      -0.933715       -25.4077
  43   2.0000      -0.898961       -24.4620
  44   2.0000      -0.858313       -23.3559
  45   2.0000      -0.851859       -23.1803
  46   2.0000      -0.790515       -21.5110
  47   2.0000      -0.746414       -20.3110
  48   2.0000      -0.732466       -19.9314
  49   2.0000      -0.728192       -19.8151
  50   2.0000      -0.690396       -18.7866
  51   2.0000      -0.658038       -17.9061
  52   2.0000      -0.637308       -17.3420
  53   2.0000      -0.622815       -16.9477
  54   2.0000      -0.574458       -15.6318
  55   2.0000      -0.568700       -15.4751
  56   2.0000      -0.556883       -15.1536
  57   2.0000      -0.540943       -14.7198
  58   2.0000      -0.503637       -13.7047
  59   2.0000      -0.473614       -12.8877
  60   2.0000      -0.470574       -12.8050
  61   2.0000      -0.437482       -11.9045
  62   2.0000      -0.418951       -11.4002
  63   2.0000      -0.412190       -11.2163
  64   2.0000      -0.405338       -11.0298
  65   2.0000      -0.383791       -10.4435
  66   2.0000      -0.382050       -10.3961
  67   2.0000      -0.377079       -10.2608
  68   2.0000      -0.376212       -10.2373
  69   2.0000      -0.374996       -10.2042
  70   2.0000      -0.366750        -9.9798
  71   2.0000      -0.362711        -9.8699
  72   2.0000      -0.357094        -9.7170
  73   2.0000      -0.351026        -9.5519
  74   2.0000      -0.344838        -9.3835
  75   2.0000      -0.335249        -9.1226
  76   2.0000      -0.328115        -8.9285
  77   2.0000      -0.323446        -8.8014
  78   2.0000      -0.311293        -8.4707
  79   2.0000      -0.303212        -8.2508
  80   2.0000      -0.296900        -8.0791
  81   2.0000      -0.293414        -7.9842
  82   2.0000      -0.283426        -7.7124
  83   2.0000      -0.275975        -7.5096
  84   2.0000      -0.267042        -7.2666
  85   2.0000      -0.258710        -7.0399
  86   2.0000      -0.232216        -6.3189
  87   2.0000      -0.223384        -6.0786
  88   2.0000      -0.208865        -5.6835
  89   2.0000      -0.196202        -5.3389
  90   2.0000      -0.188468        -5.1285
  91   2.0000      -0.183746        -5.0000
  92   2.0000      -0.178304        -4.8519
  93   2.0000      -0.174310        -4.7432
  94   2.0000      -0.173415        -4.7189
  95   2.0000      -0.157347        -4.2816
  96   2.0000      -0.153650        -4.1810
  97   2.0000      -0.145926        -3.9709
  98   2.0000      -0.141032        -3.8377
  99   2.0000      -0.130388        -3.5480
 100   0.0000       0.056540         1.5385
 101   0.0000       0.104608         2.8465
 102   0.0000       0.117460         3.1962
 103   0.0000       0.120506         3.2791
 104   0.0000       0.126457         3.4411

MULLIKEN ATOMIC CHARGES
-----------------------
   0 C :   -0.217088
   1 C :    0.049107
   2 C :   -0.226132
   3 C :   -0.218174
   4 C :   -0.219029
   5 C :   -0.256318
   6 H :    0.260125
   7 H :    0.241985
   8 H :    0.189041
   9 H :    0.194742
  10 H :    0.191619
  11 C :   -0.489500
  12 C :   -0.528622
  13 H :    0.206519
  14 H :    0.268213
  15 C :    0.111479
  16 H :    0.272269
  17 H :    0.210296
  18 C :   -0.152387
  19 C :   -0.269234
  20 C :   -0.236924
  21 C :   -0.274972
  22 C :   -0.219504
  23 H :    0.279042
  24 H :    0.194317
  25 H :    0.180201
  26 H :    0.185421
  27 Pd:    0.170340
  28 Br:   -0.455936
  29 P :   -0.122313
  30 H :    0.120674
  31 C :    0.655747
  32 O :   -0.558405
  33 O :   -0.547695
  34 O :   -0.626206
  35 H :    0.093911
  36 H :    0.145136
  37 H :    0.398254
Sum of atomic charges:   -1.0000000

LOEWDIN ATOMIC CHARGES
----------------------
   0 C :   -0.119162
   1 C :   -0.035204
   2 C :   -0.134011
   3 C :   -0.159200
   4 C :   -0.151284
   5 C :   -0.153703
   6 H :    0.262757
   7 H :    0.142263
   8 H :    0.123803
   9 H :    0.125149
  10 H :    0.122846
  11 C :   -0.214493
  12 C :   -0.216535
  13 H :    0.122516
  14 H :    0.152509
  15 C :   -0.046116
  16 H :    0.157130
  17 H :    0.121270
  18 C :   -0.019393
  19 C :   -0.118368
  20 C :   -0.148340
  21 C :   -0.148898
  22 C :   -0.158212
  23 H :    0.168828
  24 H :    0.125407
  25 H :    0.121454
  26 H :    0.121394
  27 Pd:   -0.779770
  28 Br:   -0.273475
  29 P :    0.434531
  30 H :    0.057101
  31 C :    0.101497
  32 O :   -0.370412
  33 O :   -0.276064
  34 O :   -0.356453
  35 H :    0.039595
  36 H :    0.075704
  37 H :    0.303338

  Mayer bond orders larger than 0.100000
B(  0-C ,  1-C ) :   1.3780 B(  0-C ,  2-C ) :   1.4031 B(  0-C ,  6-H ) :   0.7163
B(  1-C ,  5-C ) :   1.4128 B(  1-C , 11-C ) :   0.9543 B(  2-C ,  3-C ) :   1.4185
B(  2-C ,  7-H ) :   0.9018 B(  3-C ,  4-C ) :   1.4367 B(  3-C ,  9-H ) :   0.9250
B(  4-C ,  5-C ) :   1.4302 B(  4-C , 10-H ) :   0.9250 B(  5-C ,  8-H ) :   0.9217
B(  6-H , 28-Br) :   0.1112 B( 11-C , 12-C ) :   0.9111 B( 11-C , 13-H ) :   0.9302
B( 11-C , 14-H ) :   0.8954 B( 12-C , 15-C ) :   0.9664 B( 12-C , 16-H ) :   0.8878
B( 12-C , 17-H ) :   0.9309 B( 15-C , 18-C ) :   1.3381 B( 15-C , 21-C ) :   1.4031
B( 18-C , 19-C ) :   1.4152 B( 18-C , 27-Pd) :   0.7795 B( 18-C , 28-Br) :   0.1208
B( 19-C , 20-C ) :   1.4043 B( 19-C , 23-H ) :   0.8629 B( 20-C , 22-C ) :   1.4303
B( 20-C , 24-H ) :   0.9258 B( 21-C , 22-C ) :   1.4261 B( 21-C , 25-H ) :   0.9260
B( 22-C , 26-H ) :   0.9281 B( 27-Pd, 28-Br) :   0.4707 B( 27-Pd, 29-P ) :   0.7529
B( 27-Pd, 33-O ) :   0.3781 B( 28-Br, 29-P ) :   0.1015 B( 29-P , 30-H ) :   0.9243
B( 29-P , 35-H ) :   0.9102 B( 29-P , 36-H ) :   0.9275 B( 31-C , 32-O ) :   1.7831
B( 31-C , 33-O ) :   1.4939 B( 31-C , 34-O ) :   1.0160 B( 34-O , 37-H ) :   0.7910

Dispersion correction           -0.031764758
FINAL SINGLE POINT ENERGY     -3847.632616805262
Dispersion correction            ... done

DIPOLE MOMENT
-------------
                                X             Y             Z
Electronic contribution:      7.40673     -70.03602     -31.65726
Nuclear contribution   :     -6.27450      71.25091      34.94455
                        -----------------------------------------
Total Dipole Moment    :      1.13223       1.21489       3.28729
                        -----------------------------------------
Magnitude (a.u.)       :      3.68296
Magnitude (Debye)      :      9.36133

Rotational constants in cm-1:     0.007115     0.006192     0.004413
Rotational constants in MHz :   213.302529   185.625752   132.305932

                             ****ORCA TERMINATED NORMALLY****
TOTAL RUN TIME: 0 days 0 hours 14 minutes 58 seconds 58 msec
