                         Program Version 5.0.3 -  RELEASE  -
|  1> ! EnGrad PBEh-3c
|  2> %output
|  3> xyzfile=True
|  4> end
|  5> %scf
|  6> maxiter 250
|  7> end
|  8> %output
|  9> Print[P_Hirshfeld] = 1
| 10> end
| 11> % maxcore
| 12> 4000
| 13> *xyz -1 1
| 14> C   -2.51612415  -0.22854735   0.77388278
| 15> C   -1.94891296   0.91490378   1.39372861
| 16> C   -3.83013888  -0.54241037   1.05455771
| 17> C   -4.69997717   0.43885467   1.48480400
| 18> C   -4.19634571   1.60022014   2.04297610
| 19> C   -2.85136949   1.76900332   2.13174626
| 20> H   -2.54662963  -1.22004503  -1.03530609
| 21> H   -4.19580849  -1.52962097   0.89864700
| 22> H   -2.45950105   2.66277382   2.57557318
| 23> H   -5.77354170   0.27231685   1.43232351
| 24> H   -4.87387988   2.32954159   2.45245212
| 25> C   -0.58347837   1.45273142   1.14909578
| 26> C    0.57690869   0.52456659   1.60287133
| 27> H   -0.42377741   2.41164879   1.60332433
| 28> H   -0.56338202   1.67968354   0.09318135
| 29> C    1.75767197   0.61012912   0.70394443
| 30> H    0.22642678  -0.49700691   1.67772208
| 31> H    0.84834191   0.80410614   2.61849863
| 32> C    1.79291192  -0.07298449  -0.52120401
| 33> C    2.88123078   0.10493636  -1.37028492
| 34> C    3.84686672   1.07610265  -1.07778524
| 35> C    2.84027247   1.39934669   1.05437576
| 36> C    3.82768281   1.72615652   0.12559347
| 37> H    2.98867164  -0.47916521  -2.26521550
| 38> H    4.62399857   1.29052124  -1.81165908
| 39> H    2.88747074   1.81008994   2.05647022
| 40> H    4.49948225   2.55430363   0.32489690
| 41> Pd   0.35307703  -1.44755414  -1.02083385
| 42> Br  -1.35409299  -3.73010163  -1.14097267
| 43> P    1.33229388  -2.99288459   0.24879092
| 44> H    0.63165223  -3.46570922   1.34751232
| 45> C    0.44482386  -1.21549914  -3.93183748
| 46> O    1.66379204  -1.65838398  -4.19446598
| 47> O   -0.35578466  -1.59313352  -3.16683327
| 48> O    0.10486466  -0.03672026  -4.62223809
| 49> H    2.56120999  -2.75608322   0.85881101
| 50> H    1.68487089  -4.19734692  -0.37607441
| 51> H    0.79833918   0.23215631  -5.16755799
| 52> *
| 53>
| 54>                          ****END OF INPUT****

CARTESIAN COORDINATES (ANGSTROEM)
---------------------------------
  C     -2.516124   -0.228547    0.773883
  C     -1.948913    0.914904    1.393729
  C     -3.830139   -0.542410    1.054558
  C     -4.699977    0.438855    1.484804
  C     -4.196346    1.600220    2.042976
  C     -2.851369    1.769003    2.131746
  H     -2.546630   -1.220045   -1.035306
  H     -4.195808   -1.529621    0.898647
  H     -2.459501    2.662774    2.575573
  H     -5.773542    0.272317    1.432324
  H     -4.873880    2.329542    2.452452
  C     -0.583478    1.452731    1.149096
  C      0.576909    0.524567    1.602871
  H     -0.423777    2.411649    1.603324
  H     -0.563382    1.679684    0.093181
  C      1.757672    0.610129    0.703944
  H      0.226427   -0.497007    1.677722
  H      0.848342    0.804106    2.618499
  C      1.792912   -0.072984   -0.521204
  C      2.881231    0.104936   -1.370285
  C      3.846867    1.076103   -1.077785
  C      2.840272    1.399347    1.054376
  C      3.827683    1.726157    0.125593
  H      2.988672   -0.479165   -2.265216
  H      4.623999    1.290521   -1.811659
  H      2.887471    1.810090    2.056470
  H      4.499482    2.554304    0.324897
  Pd     0.353077   -1.447554   -1.020834
  Br    -1.354093   -3.730102   -1.140973
  P      1.332294   -2.992885    0.248791
  H      0.631652   -3.465709    1.347512
  C      0.444824   -1.215499   -3.931837
  O      1.663792   -1.658384   -4.194466
  O     -0.355785   -1.593134   -3.166833
  O      0.104865   -0.036720   -4.622238
  H      2.561210   -2.756083    0.858811
  H      1.684871   -4.197347   -0.376074
  H      0.798339    0.232156   -5.167558

 Total Charge           Charge          ....   -1
 Multiplicity           Mult            ....    1
 Number of Electrons    NEL             ....  200
 Basis Dimension        Dim             ....  385

ORBITAL ENERGIES
----------------

  NO   OCC          E(Eh)            E(eV)
   0   2.0000    -484.324946    -13179.1518
   1   2.0000     -77.685094     -2113.9189
   2   2.0000     -62.986438     -1713.9481
   3   2.0000     -56.689928     -1542.6114
   4   2.0000     -56.689275     -1542.5936
   5   2.0000     -56.689032     -1542.5870
   6   2.0000     -19.345375      -526.4144
   7   2.0000     -19.314293      -525.5686
   8   2.0000     -19.264764      -524.2209
   9   2.0000     -10.422802      -283.6189
  10   2.0000     -10.385329      -282.5992
  11   2.0000     -10.374348      -282.3004
  12   2.0000     -10.357938      -281.8538
  13   2.0000     -10.354671      -281.7649
  14   2.0000     -10.353907      -281.7441
  15   2.0000     -10.353140      -281.7233
  16   2.0000     -10.352139      -281.6960
  17   2.0000     -10.351933      -281.6904
  18   2.0000     -10.347724      -281.5759
  19   2.0000     -10.347056      -281.5577
  20   2.0000     -10.346247      -281.5357
  21   2.0000     -10.345008      -281.5020
  22   2.0000     -10.343610      -281.4639
  23   2.0000     -10.333387      -281.1857
  24   2.0000      -8.813427      -239.8255
  25   2.0000      -6.759545      -183.9366
  26   2.0000      -6.582321      -179.1141
  27   2.0000      -6.579251      -179.0305
  28   2.0000      -6.577176      -178.9741
  29   2.0000      -4.850701      -131.9943
  30   2.0000      -4.850402      -131.9861
  31   2.0000      -4.849085      -131.9503
  32   2.0000      -3.532141       -96.1144
  33   2.0000      -2.596607       -70.6573
  34   2.0000      -2.596160       -70.6451
  35   2.0000      -2.594394       -70.5971
  36   2.0000      -2.591743       -70.5249
  37   2.0000      -2.591507       -70.5185
  38   2.0000      -2.178378       -59.2767
  39   2.0000      -2.175838       -59.2076
  40   2.0000      -2.147723       -58.4425
  41   2.0000      -1.055681       -28.7265
  42   2.0000      -0.964185       -26.2368
  43   2.0000      -0.868749       -23.6399
  44   2.0000      -0.864693       -23.5295
  45   2.0000      -0.857346       -23.3296
  46   2.0000      -0.798945       -21.7404
  47   2.0000      -0.754706       -20.5366
  48   2.0000      -0.743386       -20.2286
  49   2.0000      -0.726267       -19.7627
  50   2.0000      -0.696250       -18.9459
  51   2.0000      -0.660813       -17.9816
  52   2.0000      -0.631372       -17.1805
  53   2.0000      -0.628459       -17.1012
  54   2.0000      -0.583090       -15.8667
  55   2.0000      -0.573766       -15.6130
  56   2.0000      -0.557940       -15.1823
  57   2.0000      -0.544532       -14.8175
  58   2.0000      -0.511513       -13.9190
  59   2.0000      -0.482637       -13.1332
  60   2.0000      -0.470595       -12.8055
  61   2.0000      -0.444933       -12.1072
  62   2.0000      -0.423846       -11.5334
  63   2.0000      -0.420590       -11.4448
  64   2.0000      -0.407596       -11.0913
  65   2.0000      -0.395836       -10.7712
  66   2.0000      -0.387130       -10.5344
  67   2.0000      -0.383365       -10.4319
  68   2.0000      -0.381589       -10.3836
  69   2.0000      -0.375561       -10.2195
  70   2.0000      -0.369536       -10.0556
  71   2.0000      -0.361174        -9.8280
  72   2.0000      -0.359223        -9.7750
  73   2.0000      -0.353107        -9.6085
  74   2.0000      -0.348849        -9.4927
  75   2.0000      -0.337200        -9.1757
  76   2.0000      -0.327844        -8.9211
  77   2.0000      -0.324816        -8.8387
  78   2.0000      -0.321833        -8.7575
  79   2.0000      -0.301952        -8.2165
  80   2.0000      -0.296417        -8.0659
  81   2.0000      -0.295005        -8.0275
  82   2.0000      -0.285084        -7.7575
  83   2.0000      -0.260060        -7.0766
  84   2.0000      -0.256860        -6.9895
  85   2.0000      -0.241105        -6.5608
  86   2.0000      -0.232202        -6.3185
  87   2.0000      -0.223240        -6.0747
  88   2.0000      -0.203685        -5.5426
  89   2.0000      -0.202399        -5.5076
  90   2.0000      -0.188074        -5.1177
  91   2.0000      -0.181619        -4.9421
  92   2.0000      -0.179896        -4.8952
  93   2.0000      -0.174139        -4.7386
  94   2.0000      -0.165831        -4.5125
  95   2.0000      -0.154778        -4.2117
  96   2.0000      -0.145620        -3.9625
  97   2.0000      -0.141659        -3.8547
  98   2.0000      -0.140532        -3.8241
  99   2.0000      -0.126579        -3.4444
 100   0.0000       0.032682         0.8893
 101   0.0000       0.050162         1.3650
 102   0.0000       0.104212         2.8357
 103   0.0000       0.115052         3.1307
 104   0.0000       0.118907         3.2356

MULLIKEN ATOMIC CHARGES
-----------------------
   0 C :   -0.077476
   1 C :   -0.002420
   2 C :   -0.248961
   3 C :   -0.228149
   4 C :   -0.207104
   5 C :   -0.259387
   6 H :    0.193945
   7 H :    0.241055
   8 H :    0.193886
   9 H :    0.198999
  10 H :    0.195516
  11 C :   -0.483532
  12 C :   -0.520756
  13 H :    0.220230
  14 H :    0.285757
  15 C :    0.134574
  16 H :    0.266867
  17 H :    0.212086
  18 C :   -0.173946
  19 C :   -0.257217
  20 C :   -0.239522
  21 C :   -0.297449
  22 C :   -0.215959
  23 H :    0.286112
  24 H :    0.195031
  25 H :    0.181145
  26 H :    0.187544
  27 Pd:    0.181198
  28 Br:   -0.506173
  29 P :   -0.132631
  30 H :    0.133545
  31 C :    0.653281
  32 O :   -0.640473
  33 O :   -0.451257
  34 O :   -0.656948
  35 H :    0.086549
  36 H :    0.146484
  37 H :    0.405557
Sum of atomic charges:   -1.0000000

LOEWDIN ATOMIC CHARGES
----------------------
   0 C :   -0.066457
   1 C :   -0.054378
   2 C :   -0.144776
   3 C :   -0.160181
   4 C :   -0.154823
   5 C :   -0.149305
   6 H :    0.227404
   7 H :    0.138804
   8 H :    0.126069
   9 H :    0.126187
  10 H :    0.125065
  11 C :   -0.215128
  12 C :   -0.210392
  13 H :    0.126156
  14 H :    0.162878
  15 C :   -0.046292
  16 H :    0.152548
  17 H :    0.122174
  18 C :   -0.009480
  19 C :   -0.117255
  20 C :   -0.146095
  21 C :   -0.146772
  22 C :   -0.160333
  23 H :    0.172960
  24 H :    0.126219
  25 H :    0.120970
  26 H :    0.122908
  27 Pd:   -0.714544
  28 Br:   -0.349363
  29 P :    0.427171
  30 H :    0.061604
  31 C :    0.121816
  32 O :   -0.473567
  33 O :   -0.155405
  34 O :   -0.385993
  35 H :    0.029183
  36 H :    0.071825
  37 H :    0.298597

  Mayer bond orders larger than 0.100000
B(  0-C ,  1-C ) :   1.4658 B(  0-C ,  2-C ) :   1.3952 B(  0-C ,  6-H ) :   0.6942
B(  1-C ,  5-C ) :   1.3521 B(  1-C , 11-C ) :   0.9637 B(  2-C ,  3-C ) :   1.4446
B(  2-C ,  7-H ) :   0.9078 B(  3-C ,  4-C ) :   1.3929 B(  3-C ,  9-H ) :   0.9219
B(  4-C ,  5-C ) :   1.4787 B(  4-C , 10-H ) :   0.9244 B(  5-C ,  8-H ) :   0.9204
B( 11-C , 12-C ) :   0.9251 B( 11-C , 13-H ) :   0.9245 B( 11-C , 14-H ) :   0.8879
B( 12-C , 15-C ) :   0.9638 B( 12-C , 16-H ) :   0.8892 B( 12-C , 17-H ) :   0.9277
B( 15-C , 18-C ) :   1.3280 B( 15-C , 21-C ) :   1.4353 B( 18-C , 19-C ) :   1.4367
B( 18-C , 27-Pd) :   0.8011 B( 18-C , 28-Br) :   0.1034 B( 19-C , 20-C ) :   1.3773
B( 19-C , 23-H ) :   0.8608 B( 20-C , 22-C ) :   1.4544 B( 20-C , 24-H ) :   0.9256
B( 21-C , 22-C ) :   1.3956 B( 21-C , 25-H ) :   0.9263 B( 22-C , 26-H ) :   0.9286
B( 27-Pd, 28-Br) :   0.3847 B( 27-Pd, 29-P ) :   0.7580 B( 27-Pd, 33-O ) :   0.3373
B( 28-Br, 29-P ) :   0.1434 B( 29-P , 30-H ) :   0.9249 B( 29-P , 35-H ) :   0.9011
B( 29-P , 36-H ) :   0.9281 B( 31-C , 32-O ) :   1.6480 B( 31-C , 33-O ) :   1.6447
B( 31-C , 34-O ) :   0.9828 B( 34-O , 37-H ) :   0.7886

Dispersion correction           -0.031054488
FINAL SINGLE POINT ENERGY     -3847.504453228512
Dispersion correction            ... done

DIPOLE MOMENT
-------------
                                X             Y             Z
Electronic contribution:     16.64602     -70.81979     -42.32669
Nuclear contribution   :    -16.14029      72.21920      45.92335
                        -----------------------------------------
Total Dipole Moment    :      0.50573       1.39942       3.59666
                        -----------------------------------------
Magnitude (a.u.)       :      3.89232
Magnitude (Debye)      :      9.89348

Rotational constants in cm-1:     0.006738     0.005804     0.004105
Rotational constants in MHz :   202.012139   173.993923   123.079180

                             ****ORCA TERMINATED NORMALLY****
TOTAL RUN TIME: 0 days 0 hours 24 minutes 34 seconds 856 msec
