                         Program Version 5.0.3 -  RELEASE  -
|  1> ! EnGrad PBEh-3c
|  2> %output
|  3> xyzfile=True
|  4> end
|  5> %scf
|  6> maxiter 250
|  7> end
|  8> %output
|  9> Print[P_Hirshfeld] = 1
| 10> end
| 11> % maxcore
| 12> 4000
| 13> *xyz -1 1
| 14> C   -2.49475733  -0.20819461   0.70165715
| 15> C   -1.94434056   0.92896546   1.36346925
| 16> C   -3.82404738  -0.51423200   0.89094008
| 17> C   -4.67292228   0.40759261   1.46471241
| 18> C   -4.22188961   1.59478128   2.00620514
| 19> C   -2.88369908   1.82155792   2.04856656
| 20> H   -2.48263480  -1.20204313  -1.03764713
| 21> H   -4.12803433  -1.52468205   0.80139995
| 22> H   -2.49532987   2.72887943   2.46810493
| 23> H   -5.73923985   0.26201161   1.29891051
| 24> H   -4.90670451   2.32990938   2.36173761
| 25> C   -0.53927725   1.46484882   1.27984032
| 26> C    0.63814603   0.48641152   1.67790843
| 27> H   -0.43311854   2.35962015   1.86622537
| 28> H   -0.47607843   1.75747631   0.25198351
| 29> C    1.78551756   0.57854374   0.76264234
| 30> H    0.23367710  -0.51083352   1.72291445
| 31> H    0.92852291   0.75372378   2.68158064
| 32> C    1.76698519  -0.05773919  -0.49932192
| 33> C    2.82817021   0.12915793  -1.37678803
| 34> C    3.80300665   1.09645820  -1.09023221
| 35> C    2.82302310   1.44951692   1.04857108
| 36> C    3.82521760   1.73053928   0.12373333
| 37> H    2.91608957  -0.46103659  -2.27464807
| 38> H    4.57169593   1.30177805  -1.83116361
| 39> H    2.93103570   1.80225179   2.07052160
| 40> H    4.51052509   2.54421298   0.32225399
| 41> Pd   0.23219542  -1.49159785  -1.05502069
| 42> Br  -1.38242032  -3.69028922  -1.01294919
| 43> P    1.36627329  -2.99440585   0.22337795
| 44> H    0.72193188  -3.50158066   1.33290318
| 45> C    0.39575432  -1.35778103  -4.01121000
| 46> O    1.65459386  -1.61728048  -4.19424402
| 47> O   -0.40832593  -1.68497995  -3.03212833
| 48> O    0.04824704  -0.03745338  -4.54049425
| 49> H    2.62357540  -2.76071115   0.75692061
| 50> H    1.66044663  -4.18074293  -0.46821275
| 51> H    0.76866228   0.26872847  -5.09377607
| 52> *
| 53>
| 54>                          ****END OF INPUT****

CARTESIAN COORDINATES (ANGSTROEM)
---------------------------------
  C     -2.494757   -0.208195    0.701657
  C     -1.944341    0.928965    1.363469
  C     -3.824047   -0.514232    0.890940
  C     -4.672922    0.407593    1.464712
  C     -4.221890    1.594781    2.006205
  C     -2.883699    1.821558    2.048567
  H     -2.482635   -1.202043   -1.037647
  H     -4.128034   -1.524682    0.801400
  H     -2.495330    2.728879    2.468105
  H     -5.739240    0.262012    1.298911
  H     -4.906705    2.329909    2.361738
  C     -0.539277    1.464849    1.279840
  C      0.638146    0.486412    1.677908
  H     -0.433119    2.359620    1.866225
  H     -0.476078    1.757476    0.251984
  C      1.785518    0.578544    0.762642
  H      0.233677   -0.510834    1.722914
  H      0.928523    0.753724    2.681581
  C      1.766985   -0.057739   -0.499322
  C      2.828170    0.129158   -1.376788
  C      3.803007    1.096458   -1.090232
  C      2.823023    1.449517    1.048571
  C      3.825218    1.730539    0.123733
  H      2.916090   -0.461037   -2.274648
  H      4.571696    1.301778   -1.831164
  H      2.931036    1.802252    2.070522
  H      4.510525    2.544213    0.322254
  Pd     0.232195   -1.491598   -1.055021
  Br    -1.382420   -3.690289   -1.012949
  P      1.366273   -2.994406    0.223378
  H      0.721932   -3.501581    1.332903
  C      0.395754   -1.357781   -4.011210
  O      1.654594   -1.617280   -4.194244
  O     -0.408326   -1.684980   -3.032128
  O      0.048247   -0.037453   -4.540494
  H      2.623575   -2.760711    0.756921
  H      1.660447   -4.180743   -0.468213
  H      0.768662    0.268728   -5.093776

 Total Charge           Charge          ....   -1
 Multiplicity           Mult            ....    1
 Number of Electrons    NEL             ....  200
 Basis Dimension        Dim             ....  385

ORBITAL ENERGIES
----------------

  NO   OCC          E(Eh)            E(eV)
   0   2.0000    -484.324591    -13179.1421
   1   2.0000     -77.677985     -2113.7254
   2   2.0000     -62.986217     -1713.9421
   3   2.0000     -56.689768     -1542.6070
   4   2.0000     -56.689029     -1542.5869
   5   2.0000     -56.688757     -1542.5795
   6   2.0000     -19.357679      -526.7492
   7   2.0000     -19.324507      -525.8466
   8   2.0000     -19.309279      -525.4322
   9   2.0000     -10.456719      -284.5418
  10   2.0000     -10.381388      -282.4919
  11   2.0000     -10.375121      -282.3214
  12   2.0000     -10.356824      -281.8235
  13   2.0000     -10.349945      -281.6363
  14   2.0000     -10.348321      -281.5921
  15   2.0000     -10.347841      -281.5791
  16   2.0000     -10.346375      -281.5392
  17   2.0000     -10.345412      -281.5130
  18   2.0000     -10.344156      -281.4788
  19   2.0000     -10.342676      -281.4385
  20   2.0000     -10.341598      -281.4092
  21   2.0000     -10.340096      -281.3683
  22   2.0000     -10.339314      -281.3470
  23   2.0000     -10.329921      -281.0914
  24   2.0000      -8.813354      -239.8236
  25   2.0000      -6.752450      -183.7435
  26   2.0000      -6.582412      -179.1165
  27   2.0000      -6.579057      -179.0252
  28   2.0000      -6.577104      -178.9721
  29   2.0000      -4.843677      -131.8032
  30   2.0000      -4.843365      -131.7947
  31   2.0000      -4.841796      -131.7520
  32   2.0000      -3.518320       -95.7384
  33   2.0000      -2.596667       -70.6589
  34   2.0000      -2.596127       -70.6442
  35   2.0000      -2.594466       -70.5990
  36   2.0000      -2.591556       -70.5198
  37   2.0000      -2.591367       -70.5147
  38   2.0000      -2.162923       -58.8561
  39   2.0000      -2.162024       -58.8317
  40   2.0000      -2.133883       -58.0659
  41   2.0000      -1.023882       -27.8612
  42   2.0000      -0.929522       -25.2936
  43   2.0000      -0.899831       -24.4856
  44   2.0000      -0.861427       -23.4406
  45   2.0000      -0.851363       -23.1668
  46   2.0000      -0.791253       -21.5311
  47   2.0000      -0.749561       -20.3966
  48   2.0000      -0.741485       -20.1768
  49   2.0000      -0.720770       -19.6131
  50   2.0000      -0.688258       -18.7285
  51   2.0000      -0.656768       -17.8716
  52   2.0000      -0.629125       -17.1194
  53   2.0000      -0.627773       -17.0826
  54   2.0000      -0.579248       -15.7621
  55   2.0000      -0.566741       -15.4218
  56   2.0000      -0.554242       -15.0817
  57   2.0000      -0.539606       -14.6834
  58   2.0000      -0.504147       -13.7185
  59   2.0000      -0.475782       -12.9467
  60   2.0000      -0.465179       -12.6582
  61   2.0000      -0.440060       -11.9746
  62   2.0000      -0.418938       -11.3999
  63   2.0000      -0.416082       -11.3222
  64   2.0000      -0.403802       -10.9880
  65   2.0000      -0.396213       -10.7815
  66   2.0000      -0.380500       -10.3539
  67   2.0000      -0.377702       -10.2778
  68   2.0000      -0.377458       -10.2712
  69   2.0000      -0.371956       -10.1214
  70   2.0000      -0.367524       -10.0008
  71   2.0000      -0.366762        -9.9801
  72   2.0000      -0.350976        -9.5505
  73   2.0000      -0.346717        -9.4347
  74   2.0000      -0.338958        -9.2235
  75   2.0000      -0.335716        -9.1353
  76   2.0000      -0.323462        -8.8019
  77   2.0000      -0.312098        -8.4926
  78   2.0000      -0.309775        -8.4294
  79   2.0000      -0.305380        -8.3098
  80   2.0000      -0.297371        -8.0919
  81   2.0000      -0.290421        -7.9028
  82   2.0000      -0.280502        -7.6328
  83   2.0000      -0.247620        -6.7381
  84   2.0000      -0.245799        -6.6885
  85   2.0000      -0.236860        -6.4453
  86   2.0000      -0.229362        -6.2413
  87   2.0000      -0.220684        -6.0051
  88   2.0000      -0.201313        -5.4780
  89   2.0000      -0.195672        -5.3245
  90   2.0000      -0.183387        -4.9902
  91   2.0000      -0.180914        -4.9229
  92   2.0000      -0.175943        -4.7877
  93   2.0000      -0.170034        -4.6269
  94   2.0000      -0.165704        -4.5090
  95   2.0000      -0.159523        -4.3408
  96   2.0000      -0.149372        -4.0646
  97   2.0000      -0.145329        -3.9546
  98   2.0000      -0.140292        -3.8175
  99   2.0000      -0.131746        -3.5850
 100   0.0000       0.044258         1.2043
 101   0.0000       0.059061         1.6071
 102   0.0000       0.106086         2.8867
 103   0.0000       0.118379         3.2213
 104   0.0000       0.123181         3.3519

MULLIKEN ATOMIC CHARGES
-----------------------
   0 C :   -0.088517
   1 C :   -0.004421
   2 C :   -0.238498
   3 C :   -0.241713
   4 C :   -0.195423
   5 C :   -0.265644
   6 H :    0.200207
   7 H :    0.247876
   8 H :    0.195876
   9 H :    0.192758
  10 H :    0.195499
  11 C :   -0.478227
  12 C :   -0.523318
  13 H :    0.212565
  14 H :    0.285439
  15 C :    0.098485
  16 H :    0.270512
  17 H :    0.207949
  18 C :   -0.137347
  19 C :   -0.264571
  20 C :   -0.237436
  21 C :   -0.277998
  22 C :   -0.222103
  23 H :    0.278726
  24 H :    0.190565
  25 H :    0.176943
  26 H :    0.183938
  27 Pd:    0.166010
  28 Br:   -0.488698
  29 P :   -0.142134
  30 H :    0.129369
  31 C :    0.709473
  32 O :   -0.560310
  33 O :   -0.551888
  34 O :   -0.656155
  35 H :    0.088550
  36 H :    0.141722
  37 H :    0.401935
Sum of atomic charges:   -1.0000000

LOEWDIN ATOMIC CHARGES
----------------------
   0 C :   -0.063533
   1 C :   -0.047867
   2 C :   -0.155644
   3 C :   -0.161928
   4 C :   -0.158330
   5 C :   -0.147180
   6 H :    0.240296
   7 H :    0.143934
   8 H :    0.125366
   9 H :    0.125132
  10 H :    0.125298
  11 C :   -0.216529
  12 C :   -0.213889
  13 H :    0.124105
  14 H :    0.163470
  15 C :   -0.055948
  16 H :    0.152574
  17 H :    0.121319
  18 C :   -0.014525
  19 C :   -0.123380
  20 C :   -0.146878
  21 C :   -0.148388
  22 C :   -0.164529
  23 H :    0.167363
  24 H :    0.123546
  25 H :    0.119995
  26 H :    0.121869
  27 Pd:   -0.783506
  28 Br:   -0.304571
  29 P :    0.410851
  30 H :    0.057944
  31 C :    0.229763
  32 O :   -0.390461
  33 O :   -0.248535
  34 O :   -0.407931
  35 H :    0.030699
  36 H :    0.069406
  37 H :    0.300621

  Mayer bond orders larger than 0.100000
B(  0-C ,  1-C ) :   1.4681 B(  0-C ,  2-C ) :   1.3944 B(  0-C ,  6-H ) :   0.6978
B(  1-C ,  5-C ) :   1.3560 B(  1-C , 11-C ) :   0.9625 B(  2-C ,  3-C ) :   1.4298
B(  2-C ,  7-H ) :   0.9036 B(  3-C ,  4-C ) :   1.4034 B(  3-C ,  9-H ) :   0.9248
B(  4-C ,  5-C ) :   1.4729 B(  4-C , 10-H ) :   0.9244 B(  5-C ,  8-H ) :   0.9181
B( 11-C , 12-C ) :   0.9193 B( 11-C , 13-H ) :   0.9279 B( 11-C , 14-H ) :   0.8879
B( 12-C , 15-C ) :   0.9810 B( 12-C , 16-H ) :   0.8895 B( 12-C , 17-H ) :   0.9279
B( 15-C , 18-C ) :   1.3300 B( 15-C , 21-C ) :   1.4265 B( 18-C , 19-C ) :   1.4442
B( 18-C , 27-Pd) :   0.7520 B( 18-C , 28-Br) :   0.1030 B( 19-C , 20-C ) :   1.3778
B( 19-C , 23-H ) :   0.8702 B( 20-C , 22-C ) :   1.4556 B( 20-C , 24-H ) :   0.9262
B( 21-C , 22-C ) :   1.3964 B( 21-C , 25-H ) :   0.9259 B( 22-C , 26-H ) :   0.9289
B( 27-Pd, 28-Br) :   0.4383 B( 27-Pd, 29-P ) :   0.7000 B( 27-Pd, 33-O ) :   0.4194
B( 28-Br, 29-P ) :   0.1293 B( 29-P , 30-H ) :   0.9244 B( 29-P , 35-H ) :   0.9032
B( 29-P , 36-H ) :   0.9298 B( 31-C , 32-O ) :   1.7357 B( 31-C , 33-O ) :   1.4305
B( 31-C , 34-O ) :   0.9583 B( 34-O , 37-H ) :   0.7888

Dispersion correction           -0.031068986
FINAL SINGLE POINT ENERGY     -3847.483157483492
Dispersion correction            ... done

DIPOLE MOMENT
-------------
                                X             Y             Z
Electronic contribution:     10.45880     -73.43701     -44.93243
Nuclear contribution   :     -9.75014      74.52269      47.83358
                        -----------------------------------------
Total Dipole Moment    :      0.70866       1.08568       2.90115
                        -----------------------------------------
Magnitude (a.u.)       :      3.17766
Magnitude (Debye)      :      8.07698

Rotational constants in cm-1:     0.006749     0.005883     0.004155
Rotational constants in MHz :   202.315099   176.381371   124.549426

                             ****ORCA TERMINATED NORMALLY****
TOTAL RUN TIME: 0 days 0 hours 12 minutes 45 seconds 488 msec
