                         Program Version 5.0.3 -  RELEASE  -
|  1> ! EnGrad PBEh-3c
|  2> %output
|  3> xyzfile=True
|  4> end
|  5> %scf
|  6> maxiter 250
|  7> end
|  8> %output
|  9> Print[P_Hirshfeld] = 1
| 10> end
| 11> % maxcore
| 12> 4000
| 13> *xyz -1 1
| 14> C   -2.50949827  -0.22223594   0.75148551
| 15> C   -1.94749506   0.91926433   1.38434514
| 16> C   -3.82824990  -0.53367222   1.00381966
| 17> C   -4.69158741   0.42916026   1.47857357
| 18> C   -4.20426691   1.59853354   2.03157338
| 19> C   -2.86139494   1.78530057   2.10595212
| 20> H   -2.52678474  -1.21446262  -1.03603205
| 21> H   -4.17479163  -1.52808941   0.86849056
| 22> H   -2.47061161   2.68327326   2.54224713
| 23> H   -5.76290465   0.26912119   1.39095196
| 24> H   -4.88405885   2.32965564   2.42432143
| 25> C   -0.56977154   1.45648904   1.18963984
| 26> C    0.59589847   0.51273465   1.62614044
| 27> H   -0.42667411   2.39551464   1.68485030
| 28> H   -0.53630906   1.70380719   0.14242611
| 29> C    1.76630692   0.60033445   0.72214673
| 30> H    0.22867512  -0.50129456   1.69173629
| 31> H    0.87320615   0.78848250   2.63806045
| 32> C    1.78487201  -0.06825690  -0.51441834
| 33> C    2.86477663   0.11244750  -1.37230155
| 34> C    3.83326566   1.08241494  -1.08164506
| 35> C    2.83492341   1.41490455   1.05257572
| 36> C    3.82691835   1.72751562   0.12501664
| 37> H    2.96616384  -0.47354350  -2.26814055
| 38> H    4.60777945   1.29401199  -1.81770746
| 39> H    2.90098029   1.80765932   2.06082757
| 40> H    4.50290665   2.55117451   0.32407733
| 41> Pd   0.31559148  -1.46121216  -1.03143523
| 42> Br  -1.36287734  -3.71775575  -1.10127242
| 43> P    1.34283094  -2.99335634   0.24091033
| 44> H    0.65964807  -3.47683300   1.34298201
| 45> C    0.42960733  -1.25962095  -3.95645101
| 46> O    1.66093967  -1.64563773  -4.19439715
| 47> O   -0.37207778  -1.62161523  -3.12506109
| 48> O    0.08730746  -0.03694760  -4.59688922
| 49> H    2.58054959  -2.75751835   0.82721466
| 50> H    1.67729689  -4.19219800  -0.40464663
| 51> H    0.78913633   0.24349739  -5.14467812
| 52> *
| 53>
| 54>                          ****END OF INPUT****

CARTESIAN COORDINATES (ANGSTROEM)
---------------------------------
  C     -2.509498   -0.222236    0.751486
  C     -1.947495    0.919264    1.384345
  C     -3.828250   -0.533672    1.003820
  C     -4.691587    0.429160    1.478574
  C     -4.204267    1.598534    2.031573
  C     -2.861395    1.785301    2.105952
  H     -2.526785   -1.214463   -1.036032
  H     -4.174792   -1.528089    0.868491
  H     -2.470612    2.683273    2.542247
  H     -5.762905    0.269121    1.390952
  H     -4.884059    2.329656    2.424321
  C     -0.569772    1.456489    1.189640
  C      0.595898    0.512735    1.626140
  H     -0.426674    2.395515    1.684850
  H     -0.536309    1.703807    0.142426
  C      1.766307    0.600334    0.722147
  H      0.228675   -0.501295    1.691736
  H      0.873206    0.788482    2.638060
  C      1.784872   -0.068257   -0.514418
  C      2.864777    0.112447   -1.372302
  C      3.833266    1.082415   -1.081645
  C      2.834923    1.414905    1.052576
  C      3.826918    1.727516    0.125017
  H      2.966164   -0.473544   -2.268141
  H      4.607779    1.294012   -1.817707
  H      2.900980    1.807659    2.060828
  H      4.502907    2.551175    0.324077
  Pd     0.315591   -1.461212   -1.031435
  Br    -1.362877   -3.717756   -1.101272
  P      1.342831   -2.993356    0.240910
  H      0.659648   -3.476833    1.342982
  C      0.429607   -1.259621   -3.956451
  O      1.660940   -1.645638   -4.194397
  O     -0.372078   -1.621615   -3.125061
  O      0.087307   -0.036948   -4.596889
  H      2.580550   -2.757518    0.827215
  H      1.677297   -4.192198   -0.404647
  H      0.789136    0.243497   -5.144678

 Total Charge           Charge          ....   -1
 Multiplicity           Mult            ....    1
 Number of Electrons    NEL             ....  200
 Basis Dimension        Dim             ....  385

ORBITAL ENERGIES
----------------

  NO   OCC          E(Eh)            E(eV)
   0   2.0000    -484.324801    -13179.1478
   1   2.0000     -77.682890     -2113.8589
   2   2.0000     -62.986330     -1713.9452
   3   2.0000     -56.689841     -1542.6090
   4   2.0000     -56.689160     -1542.5905
   5   2.0000     -56.688908     -1542.5836
   6   2.0000     -19.349622      -526.5300
   7   2.0000     -19.317013      -525.6427
   8   2.0000     -19.278009      -524.5813
   9   2.0000     -10.432884      -283.8932
  10   2.0000     -10.383937      -282.5613
  11   2.0000     -10.374271      -282.2983
  12   2.0000     -10.357340      -281.8375
  13   2.0000     -10.352930      -281.7176
  14   2.0000     -10.351724      -281.6847
  15   2.0000     -10.351559      -281.6802
  16   2.0000     -10.349921      -281.6357
  17   2.0000     -10.349756      -281.6312
  18   2.0000     -10.345907      -281.5264
  19   2.0000     -10.345461      -281.5143
  20   2.0000     -10.344622      -281.4915
  21   2.0000     -10.342983      -281.4469
  22   2.0000     -10.342412      -281.4313
  23   2.0000     -10.332166      -281.1525
  24   2.0000      -8.813354      -239.8235
  25   2.0000      -6.757366      -183.8773
  26   2.0000      -6.582290      -179.1132
  27   2.0000      -6.579145      -179.0276
  28   2.0000      -6.577108      -178.9722
  29   2.0000      -4.848544      -131.9356
  30   2.0000      -4.848246      -131.9275
  31   2.0000      -4.846841      -131.8893
  32   2.0000      -3.527483       -95.9877
  33   2.0000      -2.596568       -70.6562
  34   2.0000      -2.596096       -70.6434
  35   2.0000      -2.594361       -70.5962
  36   2.0000      -2.591640       -70.5221
  37   2.0000      -2.591420       -70.5161
  38   2.0000      -2.173094       -59.1329
  39   2.0000      -2.171201       -59.0814
  40   2.0000      -2.143019       -58.3145
  41   2.0000      -1.043413       -28.3927
  42   2.0000      -0.954562       -25.9750
  43   2.0000      -0.878143       -23.8955
  44   2.0000      -0.866606       -23.5815
  45   2.0000      -0.855487       -23.2790
  46   2.0000      -0.796683       -21.6789
  47   2.0000      -0.753258       -20.4972
  48   2.0000      -0.742902       -20.2154
  49   2.0000      -0.724484       -19.7142
  50   2.0000      -0.693807       -18.8794
  51   2.0000      -0.659607       -17.9488
  52   2.0000      -0.630429       -17.1548
  53   2.0000      -0.628667       -17.1069
  54   2.0000      -0.582037       -15.8380
  55   2.0000      -0.571583       -15.5536
  56   2.0000      -0.556875       -15.1533
  57   2.0000      -0.542986       -14.7754
  58   2.0000      -0.508815       -13.8455
  59   2.0000      -0.480763       -13.0822
  60   2.0000      -0.468888       -12.7591
  61   2.0000      -0.443667       -12.0728
  62   2.0000      -0.422243       -11.4898
  63   2.0000      -0.419323       -11.4104
  64   2.0000      -0.406433       -11.0596
  65   2.0000      -0.396007       -10.7759
  66   2.0000      -0.384794       -10.4708
  67   2.0000      -0.381989       -10.3944
  68   2.0000      -0.380261       -10.3474
  69   2.0000      -0.374440       -10.1890
  70   2.0000      -0.369024       -10.0417
  71   2.0000      -0.360253        -9.8030
  72   2.0000      -0.356828        -9.7098
  73   2.0000      -0.352137        -9.5821
  74   2.0000      -0.346439        -9.4271
  75   2.0000      -0.336824        -9.1654
  76   2.0000      -0.325167        -8.8482
  77   2.0000      -0.321932        -8.7602
  78   2.0000      -0.318064        -8.6550
  79   2.0000      -0.300383        -8.1738
  80   2.0000      -0.297773        -8.1028
  81   2.0000      -0.294649        -8.0178
  82   2.0000      -0.283658        -7.7187
  83   2.0000      -0.255442        -6.9509
  84   2.0000      -0.251735        -6.8501
  85   2.0000      -0.240777        -6.5519
  86   2.0000      -0.230870        -6.2823
  87   2.0000      -0.221820        -6.0360
  88   2.0000      -0.203671        -5.5422
  89   2.0000      -0.199214        -5.4209
  90   2.0000      -0.186290        -5.0692
  91   2.0000      -0.180756        -4.9186
  92   2.0000      -0.178745        -4.8639
  93   2.0000      -0.172640        -4.6978
  94   2.0000      -0.165395        -4.5006
  95   2.0000      -0.154377        -4.2008
  96   2.0000      -0.146836        -3.9956
  97   2.0000      -0.144411        -3.9296
  98   2.0000      -0.140291        -3.8175
  99   2.0000      -0.135473        -3.6864
 100   0.0000       0.036454         0.9920
 101   0.0000       0.053335         1.4513
 102   0.0000       0.105634         2.8744
 103   0.0000       0.116343         3.1659
 104   0.0000       0.120627         3.2824

MULLIKEN ATOMIC CHARGES
-----------------------
   0 C :   -0.082252
   1 C :   -0.002346
   2 C :   -0.244591
   3 C :   -0.232654
   4 C :   -0.202434
   5 C :   -0.262569
   6 H :    0.195752
   7 H :    0.243646
   8 H :    0.194320
   9 H :    0.197637
  10 H :    0.195113
  11 C :   -0.482109
  12 C :   -0.522321
  13 H :    0.218194
  14 H :    0.285727
  15 C :    0.127532
  16 H :    0.267984
  17 H :    0.210649
  18 C :   -0.163236
  19 C :   -0.259269
  20 C :   -0.240245
  21 C :   -0.294440
  22 C :   -0.215780
  23 H :    0.283998
  24 H :    0.193488
  25 H :    0.180300
  26 H :    0.185980
  27 Pd:    0.174676
  28 Br:   -0.501249
  29 P :   -0.134595
  30 H :    0.132302
  31 C :    0.677930
  32 O :   -0.616721
  33 O :   -0.488337
  34 O :   -0.657589
  35 H :    0.087262
  36 H :    0.145038
  37 H :    0.405209
Sum of atomic charges:   -1.0000000

LOEWDIN ATOMIC CHARGES
----------------------
   0 C :   -0.065530
   1 C :   -0.052371
   2 C :   -0.147641
   3 C :   -0.160637
   4 C :   -0.155818
   5 C :   -0.148792
   6 H :    0.231367
   7 H :    0.140190
   8 H :    0.125806
   9 H :    0.125801
  10 H :    0.125095
  11 C :   -0.215598
  12 C :   -0.211342
  13 H :    0.125519
  14 H :    0.163065
  15 C :   -0.049417
  16 H :    0.152457
  17 H :    0.121813
  18 C :   -0.010377
  19 C :   -0.119149
  20 C :   -0.146326
  21 C :   -0.147369
  22 C :   -0.161700
  23 H :    0.171279
  24 H :    0.125379
  25 H :    0.120740
  26 H :    0.122545
  27 Pd:   -0.735399
  28 Br:   -0.336000
  29 P :    0.423306
  30 H :    0.060476
  31 C :    0.156594
  32 O :   -0.447655
  33 O :   -0.188749
  34 O :   -0.392218
  35 H :    0.029734
  36 H :    0.071031
  37 H :    0.299892

  Mayer bond orders larger than 0.100000
B(  0-C ,  1-C ) :   1.4657 B(  0-C ,  2-C ) :   1.3958 B(  0-C ,  6-H ) :   0.6958
B(  1-C ,  5-C ) :   1.3541 B(  1-C , 11-C ) :   0.9639 B(  2-C ,  3-C ) :   1.4415
B(  2-C ,  7-H ) :   0.9064 B(  3-C ,  4-C ) :   1.3972 B(  3-C ,  9-H ) :   0.9227
B(  4-C ,  5-C ) :   1.4764 B(  4-C , 10-H ) :   0.9245 B(  5-C ,  8-H ) :   0.9198
B( 11-C , 12-C ) :   0.9234 B( 11-C , 13-H ) :   0.9254 B( 11-C , 14-H ) :   0.8879
B( 12-C , 15-C ) :   0.9679 B( 12-C , 16-H ) :   0.8895 B( 12-C , 17-H ) :   0.9280
B( 15-C , 18-C ) :   1.3295 B( 15-C , 21-C ) :   1.4334 B( 18-C , 19-C ) :   1.4394
B( 18-C , 27-Pd) :   0.7861 B( 18-C , 28-Br) :   0.1033 B( 19-C , 20-C ) :   1.3772
B( 19-C , 23-H ) :   0.8639 B( 20-C , 22-C ) :   1.4548 B( 20-C , 24-H ) :   0.9259
B( 21-C , 22-C ) :   1.3957 B( 21-C , 25-H ) :   0.9263 B( 22-C , 26-H ) :   0.9288
B( 27-Pd, 28-Br) :   0.4006 B( 27-Pd, 29-P ) :   0.7435 B( 27-Pd, 33-O ) :   0.3629
B( 28-Br, 29-P ) :   0.1391 B( 29-P , 30-H ) :   0.9248 B( 29-P , 35-H ) :   0.9017
B( 29-P , 36-H ) :   0.9286 B( 31-C , 32-O ) :   1.6786 B( 31-C , 33-O ) :   1.5765
B( 31-C , 34-O ) :   0.9772 B( 34-O , 37-H ) :   0.7881

Dispersion correction           -0.031056283
FINAL SINGLE POINT ENERGY     -3847.511374075232
Dispersion correction            ... done

DIPOLE MOMENT
-------------
                                X             Y             Z
Electronic contribution:     14.72454     -71.63191     -43.13431
Nuclear contribution   :    -14.15870      72.93352      46.51571
                        -----------------------------------------
Total Dipole Moment    :      0.56584       1.30161       3.38140
                        -----------------------------------------
Magnitude (a.u.)       :      3.66719
Magnitude (Debye)      :      9.32125

Rotational constants in cm-1:     0.006743     0.005830     0.004121
Rotational constants in MHz :   202.162799   174.772249   123.554258

                             ****ORCA TERMINATED NORMALLY****
TOTAL RUN TIME: 0 days 0 hours 20 minutes 32 seconds 911 msec
