                         Program Version 5.0.3 -  RELEASE  -
|  1> ! EnGrad PBEh-3c
|  2> %output
|  3> xyzfile=True
|  4> end
|  5> %scf
|  6> maxiter 250
|  7> end
|  8> %output
|  9> Print[P_Hirshfeld] = 1
| 10> end
| 11> % maxcore
| 12> 4000
| 13> *xyz -1 1
| 14> C   -2.46447433  -0.18661635   0.64408312
| 15> C   -1.95804571   0.95082222   1.34696418
| 16> C   -3.80807222  -0.48967293   0.78780655
| 17> C   -4.66860917   0.38768881   1.43750891
| 18> C   -4.24412680   1.58930157   1.96428568
| 19> C   -2.88399258   1.83879899   1.97538948
| 20> H   -2.42584734  -1.18468595  -1.03176455
| 21> H   -4.08243519  -1.52895003   0.71234220
| 22> H   -2.52212988   2.78336697   2.39027376
| 23> H   -5.71420496   0.25085979   1.20172272
| 24> H   -4.93844284   2.33437649   2.29429764
| 25> C   -0.50371457   1.45728432   1.37997732
| 26> C    0.66579830   0.46544590   1.73688256
| 27> H   -0.43835940   2.32793805   2.07350411
| 28> H   -0.40045243   1.82632716   0.36755450
| 29> C    1.80470235   0.55684360   0.78979971
| 30> H    0.23954068  -0.52882694   1.75835965
| 31> H    0.99339441   0.71403256   2.73752545
| 32> C    1.73357671  -0.06272021  -0.48892860
| 33> C    2.78731794   0.15253880  -1.37554859
| 34> C    3.77058216   1.10495045  -1.10872567
| 35> C    2.82028725   1.47962527   1.05073982
| 36> C    3.81607372   1.74091872   0.12568613
| 37> H    2.85699933  -0.44540682  -2.28482613
| 38> H    4.53023647   1.31087255  -1.84591317
| 39> H    2.96254194   1.79983472   2.08139122
| 40> H    4.52147978   2.53517311   0.31991147
| 41> Pd   0.16482334  -1.52351833  -1.04865648
| 42> Br  -1.40867332  -3.66043549  -0.91390498
| 43> P    1.38312312  -2.98626871   0.18746727
| 44> H    0.79125089  -3.53186752   1.32699199
| 45> C    0.38044032  -1.42472867  -4.00189879
| 46> O    1.58808970  -1.60099625  -4.19764276
| 47> O   -0.40184480  -1.74146762  -3.01662170
| 48> O   -0.00710949  -0.07118853  -4.47471953
| 49> H    2.67773689  -2.76269125   0.67924038
| 50> H    1.64185767  -4.16768226  -0.53945406
| 51> H    0.74116329   0.29028860  -5.02902501
| 52> *
| 53>
| 54>                          ****END OF INPUT****

CARTESIAN COORDINATES (ANGSTROEM)
---------------------------------
  C     -2.464474   -0.186616    0.644083
  C     -1.958046    0.950822    1.346964
  C     -3.808072   -0.489673    0.787807
  C     -4.668609    0.387689    1.437509
  C     -4.244127    1.589302    1.964286
  C     -2.883993    1.838799    1.975389
  H     -2.425847   -1.184686   -1.031765
  H     -4.082435   -1.528950    0.712342
  H     -2.522130    2.783367    2.390274
  H     -5.714205    0.250860    1.201723
  H     -4.938443    2.334376    2.294298
  C     -0.503715    1.457284    1.379977
  C      0.665798    0.465446    1.736883
  H     -0.438359    2.327938    2.073504
  H     -0.400452    1.826327    0.367554
  C      1.804702    0.556844    0.789800
  H      0.239541   -0.528827    1.758360
  H      0.993394    0.714033    2.737525
  C      1.733577   -0.062720   -0.488929
  C      2.787318    0.152539   -1.375549
  C      3.770582    1.104950   -1.108726
  C      2.820287    1.479625    1.050740
  C      3.816074    1.740919    0.125686
  H      2.856999   -0.445407   -2.284826
  H      4.530236    1.310873   -1.845913
  H      2.962542    1.799835    2.081391
  H      4.521480    2.535173    0.319911
  Pd     0.164823   -1.523518   -1.048656
  Br    -1.408673   -3.660435   -0.913905
  P      1.383123   -2.986269    0.187467
  H      0.791251   -3.531868    1.326992
  C      0.380440   -1.424729   -4.001899
  O      1.588090   -1.600996   -4.197643
  O     -0.401845   -1.741468   -3.016622
  O     -0.007109   -0.071189   -4.474720
  H      2.677737   -2.762691    0.679240
  H      1.641858   -4.167682   -0.539454
  H      0.741163    0.290289   -5.029025

 Total Charge           Charge          ....   -1
 Multiplicity           Mult            ....    1
 Number of Electrons    NEL             ....  200
 Basis Dimension        Dim             ....  385

ORBITAL ENERGIES
----------------

  NO   OCC          E(Eh)            E(eV)
   0   2.0000    -484.330542    -13179.3041
   1   2.0000     -77.680686     -2113.7989
   2   2.0000     -62.992243     -1714.1061
   3   2.0000     -56.695850     -1542.7725
   4   2.0000     -56.695013     -1542.7497
   5   2.0000     -56.694742     -1542.7424
   6   2.0000     -19.345310      -526.4126
   7   2.0000     -19.320455      -525.7363
   8   2.0000     -19.314954      -525.5866
   9   2.0000     -10.449425      -284.3433
  10   2.0000     -10.381973      -282.5079
  11   2.0000     -10.374919      -282.3159
  12   2.0000     -10.357900      -281.8528
  13   2.0000     -10.351963      -281.6912
  14   2.0000     -10.349183      -281.6156
  15   2.0000     -10.348902      -281.6079
  16   2.0000     -10.347767      -281.5771
  17   2.0000     -10.346484      -281.5421
  18   2.0000     -10.345889      -281.5259
  19   2.0000     -10.342690      -281.4389
  20   2.0000     -10.342075      -281.4222
  21   2.0000     -10.340036      -281.3667
  22   2.0000     -10.339676      -281.3569
  23   2.0000     -10.330643      -281.1111
  24   2.0000      -8.819509      -239.9910
  25   2.0000      -6.754008      -183.7859
  26   2.0000      -6.588804      -179.2905
  27   2.0000      -6.585080      -179.1891
  28   2.0000      -6.583163      -179.1370
  29   2.0000      -4.845245      -131.8458
  30   2.0000      -4.844977      -131.8385
  31   2.0000      -4.843427      -131.7963
  32   2.0000      -3.519261       -95.7640
  33   2.0000      -2.603012       -70.8316
  34   2.0000      -2.602379       -70.8143
  35   2.0000      -2.600749       -70.7700
  36   2.0000      -2.597520       -70.6821
  37   2.0000      -2.597349       -70.6775
  38   2.0000      -2.163767       -58.8791
  39   2.0000      -2.162782       -58.8523
  40   2.0000      -2.134959       -58.0952
  41   2.0000      -1.031838       -28.0777
  42   2.0000      -0.923173       -25.1208
  43   2.0000      -0.914550       -24.8862
  44   2.0000      -0.858585       -23.3633
  45   2.0000      -0.847567       -23.0635
  46   2.0000      -0.785784       -21.3823
  47   2.0000      -0.746452       -20.3120
  48   2.0000      -0.736224       -20.0337
  49   2.0000      -0.720583       -19.6080
  50   2.0000      -0.686254       -18.6739
  51   2.0000      -0.657152       -17.8820
  52   2.0000      -0.632992       -17.2246
  53   2.0000      -0.622084       -16.9278
  54   2.0000      -0.574917       -15.6443
  55   2.0000      -0.563257       -15.3270
  56   2.0000      -0.554722       -15.0947
  57   2.0000      -0.537459       -14.6250
  58   2.0000      -0.488034       -13.2801
  59   2.0000      -0.470020       -12.7899
  60   2.0000      -0.462751       -12.5921
  61   2.0000      -0.435088       -11.8393
  62   2.0000      -0.416899       -11.3444
  63   2.0000      -0.410590       -11.1727
  64   2.0000      -0.402899       -10.9634
  65   2.0000      -0.396037       -10.7767
  66   2.0000      -0.376898       -10.2559
  67   2.0000      -0.374232       -10.1834
  68   2.0000      -0.373672       -10.1681
  69   2.0000      -0.372019       -10.1232
  70   2.0000      -0.367967       -10.0129
  71   2.0000      -0.365706        -9.9514
  72   2.0000      -0.350716        -9.5435
  73   2.0000      -0.345488        -9.4012
  74   2.0000      -0.342668        -9.3245
  75   2.0000      -0.334205        -9.0942
  76   2.0000      -0.323086        -8.7916
  77   2.0000      -0.312682        -8.5085
  78   2.0000      -0.307291        -8.3618
  79   2.0000      -0.302576        -8.2335
  80   2.0000      -0.294590        -8.0162
  81   2.0000      -0.285461        -7.7678
  82   2.0000      -0.275023        -7.4838
  83   2.0000      -0.250659        -6.8208
  84   2.0000      -0.249055        -6.7771
  85   2.0000      -0.236177        -6.4267
  86   2.0000      -0.228807        -6.2262
  87   2.0000      -0.223427        -6.0798
  88   2.0000      -0.202124        -5.5001
  89   2.0000      -0.193335        -5.2609
  90   2.0000      -0.184493        -5.0203
  91   2.0000      -0.180818        -4.9203
  92   2.0000      -0.177458        -4.8289
  93   2.0000      -0.171947        -4.6789
  94   2.0000      -0.166456        -4.5295
  95   2.0000      -0.161818        -4.4033
  96   2.0000      -0.152541        -4.1508
  97   2.0000      -0.147154        -4.0043
  98   2.0000      -0.143576        -3.9069
  99   2.0000      -0.130291        -3.5454
 100   0.0000       0.046512         1.2656
 101   0.0000       0.059638         1.6228
 102   0.0000       0.106662         2.9024
 103   0.0000       0.117325         3.1926
 104   0.0000       0.122813         3.3419

MULLIKEN ATOMIC CHARGES
-----------------------
   0 C :   -0.094363
   1 C :    0.005231
   2 C :   -0.247699
   3 C :   -0.237615
   4 C :   -0.207073
   5 C :   -0.260680
   6 H :    0.213234
   7 H :    0.246967
   8 H :    0.196078
   9 H :    0.193415
  10 H :    0.196750
  11 C :   -0.471410
  12 C :   -0.515953
  13 H :    0.198863
  14 H :    0.280384
  15 C :    0.051069
  16 H :    0.270355
  17 H :    0.205315
  18 C :   -0.112172
  19 C :   -0.273315
  20 C :   -0.228274
  21 C :   -0.250222
  22 C :   -0.235837
  23 H :    0.273723
  24 H :    0.192045
  25 H :    0.175883
  26 H :    0.184765
  27 Pd:    0.159407
  28 Br:   -0.466526
  29 P :   -0.141296
  30 H :    0.125300
  31 C :    0.692330
  32 O :   -0.509318
  33 O :   -0.555809
  34 O :   -0.667486
  35 H :    0.088604
  36 H :    0.140071
  37 H :    0.385258
Sum of atomic charges:   -1.0000000

LOEWDIN ATOMIC CHARGES
----------------------
   0 C :   -0.065788
   1 C :   -0.046930
   2 C :   -0.161904
   3 C :   -0.166262
   4 C :   -0.157346
   5 C :   -0.146654
   6 H :    0.256411
   7 H :    0.146266
   8 H :    0.125840
   9 H :    0.126662
  10 H :    0.125062
  11 C :   -0.213867
  12 C :   -0.218273
  13 H :    0.120396
  14 H :    0.161715
  15 C :   -0.055852
  16 H :    0.152653
  17 H :    0.120611
  18 C :   -0.023076
  19 C :   -0.124092
  20 C :   -0.149965
  21 C :   -0.151573
  22 C :   -0.162629
  23 H :    0.164914
  24 H :    0.123919
  25 H :    0.120677
  26 H :    0.121170
  27 Pd:   -0.814442
  28 Br:   -0.266209
  29 P :    0.411418
  30 H :    0.055657
  31 C :    0.193163
  32 O :   -0.324713
  33 O :   -0.241736
  34 O :   -0.431197
  35 H :    0.031484
  36 H :    0.068793
  37 H :    0.295697

  Mayer bond orders larger than 0.100000
B(  0-C ,  1-C ) :   1.4415 B(  0-C ,  2-C ) :   1.4087 B(  0-C ,  6-H ) :   0.6981
B(  0-C , 27-Pd) :   0.1051 B(  1-C ,  5-C ) :   1.3928 B(  1-C , 11-C ) :   0.9531
B(  2-C ,  3-C ) :   1.3973 B(  2-C ,  7-H ) :   0.9030 B(  3-C ,  4-C ) :   1.4366
B(  3-C ,  9-H ) :   0.9245 B(  4-C ,  5-C ) :   1.4349 B(  4-C , 10-H ) :   0.9243
B(  5-C ,  8-H ) :   0.9178 B( 11-C , 12-C ) :   0.9138 B( 11-C , 13-H ) :   0.9344
B( 11-C , 14-H ) :   0.8900 B( 12-C , 15-C ) :   0.9881 B( 12-C , 16-H ) :   0.8902
B( 12-C , 17-H ) :   0.9289 B( 15-C , 18-C ) :   1.3421 B( 15-C , 21-C ) :   1.4031
B( 18-C , 19-C ) :   1.4247 B( 18-C , 27-Pd) :   0.7230 B( 18-C , 28-Br) :   0.1058
B( 19-C , 20-C ) :   1.3981 B( 19-C , 23-H ) :   0.8747 B( 20-C , 22-C ) :   1.4356
B( 20-C , 24-H ) :   0.9259 B( 21-C , 22-C ) :   1.4189 B( 21-C , 25-H ) :   0.9251
B( 22-C , 26-H ) :   0.9280 B( 27-Pd, 28-Br) :   0.4788 B( 27-Pd, 29-P ) :   0.6977
B( 27-Pd, 33-O ) :   0.4264 B( 28-Br, 29-P ) :   0.1241 B( 29-P , 30-H ) :   0.9222
B( 29-P , 35-H ) :   0.9033 B( 29-P , 36-H ) :   0.9281 B( 31-C , 32-O ) :   1.8166
B( 31-C , 33-O ) :   1.4236 B( 31-C , 34-O ) :   0.9210 B( 34-O , 37-H ) :   0.8015

Dispersion correction           -0.031133913
FINAL SINGLE POINT ENERGY     -3847.479213618498
Dispersion correction            ... done

DIPOLE MOMENT
-------------
                                X             Y             Z
Electronic contribution:      7.04983     -75.33292     -44.67089
Nuclear contribution   :     -6.24853      76.17879      47.44913
                        -----------------------------------------
Total Dipole Moment    :      0.80129       0.84587       2.77824
                        -----------------------------------------
Magnitude (a.u.)       :      3.01267
Magnitude (Debye)      :      7.65760

Rotational constants in cm-1:     0.006764     0.005953     0.004197
Rotational constants in MHz :   202.788491   178.457272   125.836487

                             ****ORCA TERMINATED NORMALLY****
TOTAL RUN TIME: 0 days 0 hours 12 minutes 20 seconds 509 msec
