                         Program Version 5.0.3 -  RELEASE  -
|  1> ! EnGrad PBEh-3c
|  2> %output
|  3> xyzfile=True
|  4> end
|  5> %scf
|  6> maxiter 250
|  7> end
|  8> %output
|  9> Print[P_Hirshfeld] = 1
| 10> end
| 11> % maxcore
| 12> 4000
| 13> *xyz -1 1
| 14> C   -2.49475231  -0.21057003   0.71630975
| 15> C   -1.95095054   0.92959997   1.37210236
| 16> C   -3.82164143  -0.51926185   0.93307239
| 17> C   -4.68406172   0.41557779   1.46512433
| 18> C   -4.21732157   1.59550994   2.00953573
| 19> C   -2.86879598   1.80282204   2.06319106
| 20> H   -2.49372635  -1.20471035  -1.03463438
| 21> H   -4.14454363  -1.52837127   0.81734982
| 22> H   -2.48748456   2.71605533   2.49247376
| 23> H   -5.74695483   0.26314033   1.32897678
| 24> H   -4.90187035   2.33120178   2.38173685
| 25> C   -0.54813698   1.45674950   1.25197798
| 26> C    0.61879163   0.49724693   1.66241001
| 27> H   -0.43050120   2.37338238   1.81213977
| 28> H   -0.49181414   1.74393416   0.21615876
| 29> C    1.77888196   0.58609060   0.74430401
| 30> H    0.23223374  -0.51031179   1.71355636
| 31> H    0.91256946   0.76409912   2.67063661
| 32> C    1.76807209  -0.06644356  -0.50607010
| 33> C    2.83940784   0.12557795  -1.37336500
| 34> C    3.81273595   1.08979563  -1.09051433
| 35> C    2.83012987   1.43610147   1.05197444
| 36> C    3.82336658   1.73190532   0.12523591
| 37> H    2.93041096  -0.46432835  -2.27360531
| 38> H    4.58238306   1.29953405  -1.82694522
| 39> H    2.92114258   1.80509665   2.06756245
| 40> H    4.50898960   2.54593383   0.32271295
| 41> Pd   0.26621284  -1.48161829  -1.03707543
| 42> Br  -1.37787615  -3.69898258  -1.03990700
| 43> P    1.35602719  -2.99103504   0.22340699
| 44> H    0.70274981  -3.49485757   1.33774506
| 45> C    0.41350446  -1.31369600  -3.97133578
| 46> O    1.63708030  -1.63101703  -4.19546013
| 47> O   -0.38182689  -1.66086854  -3.08954569
| 48> O    0.05638461  -0.04816198  -4.55687696
| 49> H    2.61237977  -2.75921255   0.77875104
| 50> H    1.66569006  -4.18416876  -0.44879792
| 51> H    0.77342450   0.25882215  -5.10680013
| 52> *
| 53>
| 54>                          ****END OF INPUT****

CARTESIAN COORDINATES (ANGSTROEM)
---------------------------------
  C     -2.494752   -0.210570    0.716310
  C     -1.950951    0.929600    1.372102
  C     -3.821641   -0.519262    0.933072
  C     -4.684062    0.415578    1.465124
  C     -4.217322    1.595510    2.009536
  C     -2.868796    1.802822    2.063191
  H     -2.493726   -1.204710   -1.034634
  H     -4.144544   -1.528371    0.817350
  H     -2.487485    2.716055    2.492474
  H     -5.746955    0.263140    1.328977
  H     -4.901870    2.331202    2.381737
  C     -0.548137    1.456749    1.251978
  C      0.618792    0.497247    1.662410
  H     -0.430501    2.373382    1.812140
  H     -0.491814    1.743934    0.216159
  C      1.778882    0.586091    0.744304
  H      0.232234   -0.510312    1.713556
  H      0.912569    0.764099    2.670637
  C      1.768072   -0.066444   -0.506070
  C      2.839408    0.125578   -1.373365
  C      3.812736    1.089796   -1.090514
  C      2.830130    1.436101    1.051974
  C      3.823367    1.731905    0.125236
  H      2.930411   -0.464328   -2.273605
  H      4.582383    1.299534   -1.826945
  H      2.921143    1.805097    2.067562
  H      4.508990    2.545934    0.322713
  Pd     0.266213   -1.481618   -1.037075
  Br    -1.377876   -3.698983   -1.039907
  P      1.356027   -2.991035    0.223407
  H      0.702750   -3.494858    1.337745
  C      0.413504   -1.313696   -3.971336
  O      1.637080   -1.631017   -4.195460
  O     -0.381827   -1.660869   -3.089546
  O      0.056385   -0.048162   -4.556877
  H      2.612380   -2.759213    0.778751
  H      1.665690   -4.184169   -0.448798
  H      0.773424    0.258822   -5.106800

 Total Charge           Charge          ....   -1
 Multiplicity           Mult            ....    1
 Number of Electrons    NEL             ....  200
 Basis Dimension        Dim             ....  385

ORBITAL ENERGIES
----------------

  NO   OCC          E(Eh)            E(eV)
   0   2.0000    -484.326674    -13179.1988
   1   2.0000     -77.682027     -2113.8354
   2   2.0000     -62.988253     -1713.9975
   3   2.0000     -56.691798     -1542.6622
   4   2.0000     -56.691067     -1542.6424
   5   2.0000     -56.690805     -1542.6352
   6   2.0000     -19.348651      -526.5036
   7   2.0000     -19.317397      -525.6531
   8   2.0000     -19.289596      -524.8966
   9   2.0000     -10.437755      -284.0258
  10   2.0000     -10.382891      -282.5328
  11   2.0000     -10.373883      -282.2877
  12   2.0000     -10.357113      -281.8314
  13   2.0000     -10.352191      -281.6974
  14   2.0000     -10.350438      -281.6497
  15   2.0000     -10.349445      -281.6227
  16   2.0000     -10.348743      -281.6036
  17   2.0000     -10.348057      -281.5849
  18   2.0000     -10.345295      -281.5098
  19   2.0000     -10.344409      -281.4857
  20   2.0000     -10.343539      -281.4620
  21   2.0000     -10.341451      -281.4052
  22   2.0000     -10.341431      -281.4046
  23   2.0000     -10.331435      -281.1326
  24   2.0000      -8.815340      -239.8776
  25   2.0000      -6.756183      -183.8451
  26   2.0000      -6.584380      -179.1701
  27   2.0000      -6.581070      -179.0800
  28   2.0000      -6.579067      -179.0255
  29   2.0000      -4.847385      -131.9040
  30   2.0000      -4.847098      -131.8962
  31   2.0000      -4.845634      -131.8564
  32   2.0000      -3.524352       -95.9025
  33   2.0000      -2.598637       -70.7125
  34   2.0000      -2.598123       -70.6985
  35   2.0000      -2.596415       -70.6520
  36   2.0000      -2.593547       -70.5740
  37   2.0000      -2.593345       -70.5685
  38   2.0000      -2.169367       -59.0315
  39   2.0000      -2.168189       -58.9994
  40   2.0000      -2.139834       -58.2278
  41   2.0000      -1.036445       -28.2031
  42   2.0000      -0.942491       -25.6465
  43   2.0000      -0.896263       -24.3885
  44   2.0000      -0.864237       -23.5171
  45   2.0000      -0.852889       -23.2083
  46   2.0000      -0.793414       -21.5899
  47   2.0000      -0.751322       -20.4445
  48   2.0000      -0.740800       -20.1582
  49   2.0000      -0.723081       -19.6760
  50   2.0000      -0.691482       -18.8162
  51   2.0000      -0.658596       -17.9213
  52   2.0000      -0.630447       -17.1553
  53   2.0000      -0.628096       -17.0914
  54   2.0000      -0.579972       -15.7818
  55   2.0000      -0.568868       -15.4797
  56   2.0000      -0.556295       -15.1376
  57   2.0000      -0.541182       -14.7263
  58   2.0000      -0.500866       -13.6292
  59   2.0000      -0.477533       -12.9943
  60   2.0000      -0.466888       -12.7047
  61   2.0000      -0.441344       -12.0096
  62   2.0000      -0.420286       -11.4365
  63   2.0000      -0.416926       -11.3451
  64   2.0000      -0.405278       -11.0282
  65   2.0000      -0.396389       -10.7863
  66   2.0000      -0.381597       -10.3838
  67   2.0000      -0.379889       -10.3373
  68   2.0000      -0.378233       -10.2923
  69   2.0000      -0.372935       -10.1481
  70   2.0000      -0.368499       -10.0274
  71   2.0000      -0.362507        -9.8643
  72   2.0000      -0.353628        -9.6227
  73   2.0000      -0.350173        -9.5287
  74   2.0000      -0.344754        -9.3812
  75   2.0000      -0.336640        -9.1604
  76   2.0000      -0.324196        -8.8218
  77   2.0000      -0.318752        -8.6737
  78   2.0000      -0.313094        -8.5197
  79   2.0000      -0.301138        -8.1944
  80   2.0000      -0.298621        -8.1259
  81   2.0000      -0.291604        -7.9349
  82   2.0000      -0.280760        -7.6399
  83   2.0000      -0.252500        -6.8709
  84   2.0000      -0.249356        -6.7853
  85   2.0000      -0.240245        -6.5374
  86   2.0000      -0.229582        -6.2472
  87   2.0000      -0.221829        -6.0363
  88   2.0000      -0.203245        -5.5306
  89   2.0000      -0.195907        -5.3309
  90   2.0000      -0.184877        -5.0308
  91   2.0000      -0.181234        -4.9316
  92   2.0000      -0.178687        -4.8623
  93   2.0000      -0.171478        -4.6661
  94   2.0000      -0.166985        -4.5439
  95   2.0000      -0.156409        -4.2561
  96   2.0000      -0.149168        -4.0591
  97   2.0000      -0.146692        -3.9917
  98   2.0000      -0.143039        -3.8923
  99   2.0000      -0.137339        -3.7372
 100   0.0000       0.040140         1.0923
 101   0.0000       0.055803         1.5185
 102   0.0000       0.107309         2.9200
 103   0.0000       0.116839         3.1793
 104   0.0000       0.121991         3.3195

MULLIKEN ATOMIC CHARGES
-----------------------
   0 C :   -0.087760
   1 C :    0.002145
   2 C :   -0.243940
   3 C :   -0.234707
   4 C :   -0.202371
   5 C :   -0.264367
   6 H :    0.201257
   7 H :    0.245057
   8 H :    0.194821
   9 H :    0.196477
  10 H :    0.195169
  11 C :   -0.479573
  12 C :   -0.521466
  13 H :    0.212672
  14 H :    0.284384
  15 C :    0.104140
  16 H :    0.268787
  17 H :    0.208647
  18 C :   -0.144606
  19 C :   -0.264964
  20 C :   -0.236587
  21 C :   -0.280865
  22 C :   -0.221811
  23 H :    0.280883
  24 H :    0.192819
  25 H :    0.179296
  26 H :    0.184992
  27 Pd:    0.167130
  28 Br:   -0.490413
  29 P :   -0.136029
  30 H :    0.130152
  31 C :    0.687970
  32 O :   -0.583380
  33 O :   -0.513408
  34 O :   -0.662195
  35 H :    0.087830
  36 H :    0.143494
  37 H :    0.400322
Sum of atomic charges:   -1.0000000

LOEWDIN ATOMIC CHARGES
----------------------
   0 C :   -0.065743
   1 C :   -0.050637
   2 C :   -0.151512
   3 C :   -0.162197
   4 C :   -0.156174
   5 C :   -0.148456
   6 H :    0.239653
   7 H :    0.141839
   8 H :    0.125727
   9 H :    0.125929
  10 H :    0.124982
  11 C :   -0.215260
  12 C :   -0.213395
  13 H :    0.124004
  14 H :    0.162723
  15 C :   -0.051584
  16 H :    0.152342
  17 H :    0.121255
  18 C :   -0.014128
  19 C :   -0.120809
  20 C :   -0.147494
  21 C :   -0.148902
  22 C :   -0.162094
  23 H :    0.169205
  24 H :    0.124860
  25 H :    0.120809
  26 H :    0.122026
  27 Pd:   -0.761372
  28 Br:   -0.313818
  29 P :    0.420804
  30 H :    0.058903
  31 C :    0.168079
  32 O :   -0.407137
  33 O :   -0.208460
  34 O :   -0.404409
  35 H :    0.030385
  36 H :    0.070236
  37 H :    0.299818

  Mayer bond orders larger than 0.100000
B(  0-C ,  1-C ) :   1.4561 B(  0-C ,  2-C ) :   1.4014 B(  0-C ,  6-H ) :   0.6978
B(  1-C ,  5-C ) :   1.3688 B(  1-C , 11-C ) :   0.9611 B(  2-C ,  3-C ) :   1.4273
B(  2-C ,  7-H ) :   0.9053 B(  3-C ,  4-C ) :   1.4114 B(  3-C ,  9-H ) :   0.9237
B(  4-C ,  5-C ) :   1.4623 B(  4-C , 10-H ) :   0.9246 B(  5-C ,  8-H ) :   0.9190
B( 11-C , 12-C ) :   0.9203 B( 11-C , 13-H ) :   0.9281 B( 11-C , 14-H ) :   0.8884
B( 12-C , 15-C ) :   0.9740 B( 12-C , 16-H ) :   0.8899 B( 12-C , 17-H ) :   0.9286
B( 15-C , 18-C ) :   1.3352 B( 15-C , 21-C ) :   1.4246 B( 18-C , 19-C ) :   1.4351
B( 18-C , 27-Pd) :   0.7657 B( 18-C , 28-Br) :   0.1041 B( 19-C , 20-C ) :   1.3840
B( 19-C , 23-H ) :   0.8677 B( 20-C , 22-C ) :   1.4488 B( 20-C , 24-H ) :   0.9260
B( 21-C , 22-C ) :   1.4031 B( 21-C , 25-H ) :   0.9260 B( 22-C , 26-H ) :   0.9287
B( 27-Pd, 28-Br) :   0.4248 B( 27-Pd, 29-P ) :   0.7335 B( 27-Pd, 33-O ) :   0.3848
B( 28-Br, 29-P ) :   0.1344 B( 29-P , 30-H ) :   0.9240 B( 29-P , 35-H ) :   0.9021
B( 29-P , 36-H ) :   0.9285 B( 31-C , 32-O ) :   1.7257 B( 31-C , 33-O ) :   1.5252
B( 31-C , 34-O ) :   0.9612 B( 34-O , 37-H ) :   0.7912

Dispersion correction           -0.031090192
FINAL SINGLE POINT ENERGY     -3847.513579820605
Dispersion correction            ... done

DIPOLE MOMENT
-------------
                                X             Y             Z
Electronic contribution:     12.20540     -72.84629     -43.63982
Nuclear contribution   :    -11.56801      73.99639      46.82142
                        -----------------------------------------
Total Dipole Moment    :      0.63739       1.15010       3.18161
                        -----------------------------------------
Magnitude (a.u.)       :      3.44262
Magnitude (Debye)      :      8.75043

Rotational constants in cm-1:     0.006753     0.005872     0.004147
Rotational constants in MHz :   202.456850   176.052582   124.334355

                             ****ORCA TERMINATED NORMALLY****
TOTAL RUN TIME: 0 days 0 hours 24 minutes 24 seconds 648 msec
