                         Program Version 5.0.3 -  RELEASE  -
|  1> ! EnGrad PBEh-3c
|  2> %output
|  3> xyzfile=True
|  4> end
|  5> %scf
|  6> maxiter 250
|  7> end
|  8> %output
|  9> Print[P_Hirshfeld] = 1
| 10> end
| 11> % maxcore
| 12> 4000
| 13> *xyz -1 1
| 14> C   -2.44700263  -0.17646154   0.59386858
| 15> C   -1.93656371   0.98622532   1.32378712
| 16> C   -3.76639920  -0.48734784   0.74207507
| 17> C   -4.67479443   0.38233339   1.38526040
| 18> C   -4.23679067   1.58681861   1.89955372
| 19> C   -2.90284823   1.85369480   1.92501849
| 20> H   -2.35347379  -1.16101745  -1.00697696
| 21> H   -4.04654392  -1.52361156   0.60380244
| 22> H   -2.54813230   2.81290778   2.32539620
| 23> H   -5.70993705   0.23034054   1.13025720
| 24> H   -4.97236262   2.34244700   2.23615464
| 25> C   -0.48877934   1.46570951   1.46861545
| 26> C    0.66858213   0.44919481   1.78880973
| 27> H   -0.44445556   2.28071131   2.24418561
| 28> H   -0.31492378   1.90506760   0.47077616
| 29> C    1.80194065   0.54635814   0.78455036
| 30> H    0.24751526  -0.55363099   1.79169613
| 31> H    1.05303377   0.67574623   2.79583038
| 32> C    1.69582750  -0.08446387  -0.47223882
| 33> C    2.74673970   0.16018794  -1.38688815
| 34> C    3.73821413   1.11831077  -1.10229822
| 35> C    2.82667128   1.47489581   1.06396507
| 36> C    3.79856069   1.75120905   0.10192015
| 37> H    2.79789660  -0.41945676  -2.28906986
| 38> H    4.49723170   1.31948961  -1.86621259
| 39> H    2.98328474   1.80606604   2.09021459
| 40> H    4.53842497   2.52571699   0.31821352
| 41> Pd   0.14654302  -1.54348814  -0.98498011
| 42> Br  -1.44396190  -3.63332352  -0.82768062
| 43> P    1.39008351  -2.97421362   0.14821733
| 44> H    0.85832279  -3.55857371   1.32093839
| 45> C    0.31659776  -1.35786402  -3.86558083
| 46> O    1.54681075  -1.66011674  -4.22587559
| 47> O   -0.35274303  -1.79404101  -3.12506064
| 48> O   -0.01273093  -0.11520737  -4.47464465
| 49> H    2.72569576  -2.76229282   0.60511020
| 50> H    1.62485911  -4.15195253  -0.60178798
| 51> H    0.64973274   0.27915581  -4.91801964
| 52> *
| 53>
| 54>                          ****END OF INPUT****

CARTESIAN COORDINATES (ANGSTROEM)
---------------------------------
  C     -2.447003   -0.176462    0.593869
  C     -1.936564    0.986225    1.323787
  C     -3.766399   -0.487348    0.742075
  C     -4.674794    0.382333    1.385260
  C     -4.236791    1.586819    1.899554
  C     -2.902848    1.853695    1.925018
  H     -2.353474   -1.161017   -1.006977
  H     -4.046544   -1.523612    0.603802
  H     -2.548132    2.812908    2.325396
  H     -5.709937    0.230341    1.130257
  H     -4.972363    2.342447    2.236155
  C     -0.488779    1.465710    1.468615
  C      0.668582    0.449195    1.788810
  H     -0.444456    2.280711    2.244186
  H     -0.314924    1.905068    0.470776
  C      1.801941    0.546358    0.784550
  H      0.247515   -0.553631    1.791696
  H      1.053034    0.675746    2.795830
  C      1.695827   -0.084464   -0.472239
  C      2.746740    0.160188   -1.386888
  C      3.738214    1.118311   -1.102298
  C      2.826671    1.474896    1.063965
  C      3.798561    1.751209    0.101920
  H      2.797897   -0.419457   -2.289070
  H      4.497232    1.319490   -1.866213
  H      2.983285    1.806066    2.090215
  H      4.538425    2.525717    0.318214
  Pd     0.146543   -1.543488   -0.984980
  Br    -1.443962   -3.633324   -0.827681
  P      1.390084   -2.974214    0.148217
  H      0.858323   -3.558574    1.320938
  C      0.316598   -1.357864   -3.865581
  O      1.546811   -1.660117   -4.225876
  O     -0.352743   -1.794041   -3.125061
  O     -0.012731   -0.115207   -4.474645
  H      2.725696   -2.762293    0.605110
  H      1.624859   -4.151953   -0.601788
  H      0.649733    0.279156   -4.918020

 Total Charge           Charge          ....   -1
 Multiplicity           Mult            ....    1
 Number of Electrons    NEL             ....  200
 Basis Dimension        Dim             ....  385

ORBITAL ENERGIES
----------------

  NO   OCC          E(Eh)            E(eV)
   0   2.0000    -484.342810    -13179.6379
   1   2.0000     -77.693523     -2114.1482
   2   2.0000     -63.004522     -1714.4402
   3   2.0000     -56.708180     -1543.1080
   4   2.0000     -56.707266     -1543.0832
   5   2.0000     -56.706985     -1543.0755
   6   2.0000     -19.323156      -525.8098
   7   2.0000     -19.318109      -525.6725
   8   2.0000     -19.242594      -523.6176
   9   2.0000     -10.409151      -283.2474
  10   2.0000     -10.392621      -282.7976
  11   2.0000     -10.386782      -282.6387
  12   2.0000     -10.361673      -281.9555
  13   2.0000     -10.360153      -281.9141
  14   2.0000     -10.359395      -281.8935
  15   2.0000     -10.356378      -281.8114
  16   2.0000     -10.355565      -281.7893
  17   2.0000     -10.354081      -281.7489
  18   2.0000     -10.353154      -281.7236
  19   2.0000     -10.350435      -281.6496
  20   2.0000     -10.349365      -281.6205
  21   2.0000     -10.347317      -281.5648
  22   2.0000     -10.343506      -281.4611
  23   2.0000     -10.335628      -281.2467
  24   2.0000      -8.831842      -240.3266
  25   2.0000      -6.765793      -184.1066
  26   2.0000      -6.601383      -179.6328
  27   2.0000      -6.597255      -179.5204
  28   2.0000      -6.595409      -179.4702
  29   2.0000      -4.856985      -132.1653
  30   2.0000      -4.856784      -132.1598
  31   2.0000      -4.855477      -132.1242
  32   2.0000      -3.533610       -96.1544
  33   2.0000      -2.615518       -71.1719
  34   2.0000      -2.614803       -71.1524
  35   2.0000      -2.613218       -71.1093
  36   2.0000      -2.609643       -71.0120
  37   2.0000      -2.609497       -71.0080
  38   2.0000      -2.179197       -59.2990
  39   2.0000      -2.177564       -59.2545
  40   2.0000      -2.149475       -58.4902
  41   2.0000      -1.093213       -29.7478
  42   2.0000      -0.968840       -26.3635
  43   2.0000      -0.863636       -23.5007
  44   2.0000      -0.850868       -23.1533
  45   2.0000      -0.849901       -23.1270
  46   2.0000      -0.789002       -21.4698
  47   2.0000      -0.750000       -20.4085
  48   2.0000      -0.742958       -20.2169
  49   2.0000      -0.722775       -19.6677
  50   2.0000      -0.690921       -18.8009
  51   2.0000      -0.666125       -18.1262
  52   2.0000      -0.642050       -17.4711
  53   2.0000      -0.626299       -17.0425
  54   2.0000      -0.575393       -15.6572
  55   2.0000      -0.569627       -15.5003
  56   2.0000      -0.558515       -15.1980
  57   2.0000      -0.538534       -14.6542
  58   2.0000      -0.511813       -13.9271
  59   2.0000      -0.473480       -12.8840
  60   2.0000      -0.465199       -12.6587
  61   2.0000      -0.439908       -11.9705
  62   2.0000      -0.422856       -11.5065
  63   2.0000      -0.420296       -11.4368
  64   2.0000      -0.413975       -11.2648
  65   2.0000      -0.406445       -11.0599
  66   2.0000      -0.381693       -10.3864
  67   2.0000      -0.380850       -10.3635
  68   2.0000      -0.378247       -10.2926
  69   2.0000      -0.375329       -10.2132
  70   2.0000      -0.374150       -10.1811
  71   2.0000      -0.366051        -9.9608
  72   2.0000      -0.350579        -9.5397
  73   2.0000      -0.347014        -9.4427
  74   2.0000      -0.341504        -9.2928
  75   2.0000      -0.339651        -9.2424
  76   2.0000      -0.328196        -8.9307
  77   2.0000      -0.327870        -8.9218
  78   2.0000      -0.308152        -8.3852
  79   2.0000      -0.300796        -8.1851
  80   2.0000      -0.295947        -8.0531
  81   2.0000      -0.294580        -8.0159
  82   2.0000      -0.279166        -7.5965
  83   2.0000      -0.265659        -7.2290
  84   2.0000      -0.261506        -7.1159
  85   2.0000      -0.249401        -6.7866
  86   2.0000      -0.233763        -6.3610
  87   2.0000      -0.222308        -6.0493
  88   2.0000      -0.209896        -5.7116
  89   2.0000      -0.197020        -5.3612
  90   2.0000      -0.186343        -5.0706
  91   2.0000      -0.181641        -4.9427
  92   2.0000      -0.179329        -4.8798
  93   2.0000      -0.178506        -4.8574
  94   2.0000      -0.174547        -4.7497
  95   2.0000      -0.161282        -4.3887
  96   2.0000      -0.157159        -4.2765
  97   2.0000      -0.151063        -4.1106
  98   2.0000      -0.128760        -3.5037
  99   2.0000      -0.108758        -2.9594
 100   0.0000       0.040782         1.1097
 101   0.0000       0.054921         1.4945
 102   0.0000       0.101128         2.7518
 103   0.0000       0.113681         3.0934
 104   0.0000       0.114077         3.1042

MULLIKEN ATOMIC CHARGES
-----------------------
   0 C :   -0.110849
   1 C :    0.010698
   2 C :   -0.240272
   3 C :   -0.236306
   4 C :   -0.208783
   5 C :   -0.248033
   6 H :    0.207973
   7 H :    0.249815
   8 H :    0.199081
   9 H :    0.199743
  10 H :    0.192795
  11 C :   -0.472498
  12 C :   -0.510583
  13 H :    0.201304
  14 H :    0.274130
  15 C :    0.042177
  16 H :    0.268771
  17 H :    0.203768
  18 C :   -0.123376
  19 C :   -0.279232
  20 C :   -0.224536
  21 C :   -0.253164
  22 C :   -0.225610
  23 H :    0.291686
  24 H :    0.193960
  25 H :    0.180879
  26 H :    0.185801
  27 Pd:    0.137440
  28 Br:   -0.448447
  29 P :   -0.120521
  30 H :    0.125064
  31 C :    0.609573
  32 O :   -0.663477
  33 O :   -0.365883
  34 O :   -0.688038
  35 H :    0.092524
  36 H :    0.148709
  37 H :    0.403718
Sum of atomic charges:   -1.0000000

LOEWDIN ATOMIC CHARGES
----------------------
   0 C :   -0.068897
   1 C :   -0.035663
   2 C :   -0.157425
   3 C :   -0.167034
   4 C :   -0.151855
   5 C :   -0.151471
   6 H :    0.251936
   7 H :    0.146596
   8 H :    0.127845
   9 H :    0.129963
  10 H :    0.124473
  11 C :   -0.216496
  12 C :   -0.216327
  13 H :    0.123603
  14 H :    0.161836
  15 C :   -0.052235
  16 H :    0.152398
  17 H :    0.119997
  18 C :   -0.031606
  19 C :   -0.116029
  20 C :   -0.150134
  21 C :   -0.154938
  22 C :   -0.156875
  23 H :    0.171971
  24 H :    0.126237
  25 H :    0.122561
  26 H :    0.121682
  27 Pd:   -0.810712
  28 Br:   -0.243737
  29 P :    0.439038
  30 H :    0.056991
  31 C :    0.063774
  32 O :   -0.493531
  33 O :   -0.053762
  34 O :   -0.412626
  35 H :    0.035436
  36 H :    0.074670
  37 H :    0.290344

  Mayer bond orders larger than 0.100000
B(  0-C ,  1-C ) :   1.4068 B(  0-C ,  2-C ) :   1.4354 B(  0-C ,  6-H ) :   0.7103
B(  0-C , 27-Pd) :   0.1103 B(  1-C ,  3-C ) :   0.1038 B(  1-C ,  5-C ) :   1.4074
B(  1-C , 11-C ) :   0.9513 B(  2-C ,  3-C ) :   1.3745 B(  2-C ,  7-H ) :   0.8999
B(  3-C ,  4-C ) :   1.4458 B(  3-C ,  9-H ) :   0.9233 B(  4-C ,  5-C ) :   1.4225
B(  4-C , 10-H ) :   0.9255 B(  5-C ,  8-H ) :   0.9171 B( 11-C , 12-C ) :   0.9088
B( 11-C , 13-H ) :   0.9352 B( 11-C , 14-H ) :   0.8915 B( 12-C , 15-C ) :   0.9778
B( 12-C , 16-H ) :   0.8919 B( 12-C , 17-H ) :   0.9318 B( 15-C , 18-C ) :   1.3476
B( 15-C , 21-C ) :   1.3995 B( 18-C , 19-C ) :   1.4184 B( 18-C , 27-Pd) :   0.7098
B( 18-C , 28-Br) :   0.1126 B( 19-C , 20-C ) :   1.3907 B( 19-C , 23-H ) :   0.8542
B( 20-C , 22-C ) :   1.4415 B( 20-C , 24-H ) :   0.9263 B( 21-C , 22-C ) :   1.4136
B( 21-C , 25-H ) :   0.9247 B( 22-C , 26-H ) :   0.9278 B( 27-Pd, 28-Br) :   0.5013
B( 27-Pd, 29-P ) :   0.7747 B( 27-Pd, 33-O ) :   0.3013 B( 28-Br, 29-P ) :   0.1255
B( 29-P , 30-H ) :   0.9201 B( 29-P , 35-H ) :   0.9021 B( 29-P , 36-H ) :   0.9247
B( 31-C , 32-O ) :   1.6219 B( 31-C , 33-O ) :   1.7873 B( 31-C , 34-O ) :   0.9340
B( 34-O , 37-H ) :   0.7899

Dispersion correction           -0.031286418
FINAL SINGLE POINT ENERGY     -3847.465432967590
Dispersion correction            ... done

DIPOLE MOMENT
-------------
                                X             Y             Z
Electronic contribution:      5.63290     -76.11918     -40.06542
Nuclear contribution   :     -5.31135      77.16475      43.81629
                        -----------------------------------------
Total Dipole Moment    :      0.32155       1.04558       3.75086
                        -----------------------------------------
Magnitude (a.u.)       :      3.90712
Magnitude (Debye)      :      9.93111

Rotational constants in cm-1:     0.006786     0.006001     0.004238
Rotational constants in MHz :   203.438649   179.901875   127.044743

                             ****ORCA TERMINATED NORMALLY****
TOTAL RUN TIME: 0 days 0 hours 16 minutes 11 seconds 151 msec
