                         Program Version 5.0.3 -  RELEASE  -
|  1> ! EnGrad PBEh-3c
|  2> %output
|  3> xyzfile=True
|  4> end
|  5> %scf
|  6> maxiter 250
|  7> end
|  8> %output
|  9> Print[P_Hirshfeld] = 1
| 10> end
| 11> % maxcore
| 12> 4000
| 13> *xyz -1 1
| 14> C   -2.48049784  -0.20038779   0.67975800
| 15> C   -1.94665571   0.94650406   1.35767905
| 16> C   -3.80515024  -0.50973472   0.87605491
| 17> C   -4.68129520   0.40565351   1.44128295
| 18> C   -4.22313359   1.59291536   1.97670335
| 19> C   -2.87896143   1.81800883   2.02194309
| 20> H   -2.45185745  -1.19166693  -1.02637795
| 21> H   -4.11528826  -1.52695038   0.75360058
| 22> H   -2.50558942   2.74496821   2.44259693
| 23> H   -5.73590410   0.25334877   1.26965401
| 24> H   -4.92291406   2.33455876   2.33827692
| 25> C   -0.53041724   1.45942429   1.31664969
| 26> C    0.63365534   0.48290217   1.70014349
| 27> H   -0.43466693   2.34571774   1.94111627
| 28> H   -0.43900794   1.79203653   0.29216842
| 29> C    1.78576555   0.57422946   0.75631856
| 30> H    0.23679565  -0.52324366   1.73688304
| 31> H    0.95450157   0.73772358   2.70801008
| 32> C    1.74650527  -0.07182307  -0.49597062
| 33> C    2.81174408   0.13590990  -1.37740200
| 34> C    3.79048932   1.09830811  -1.09403212
| 35> C    2.82909739   1.44768255   1.05555394
| 36> C    3.81596140   1.73766797   0.11827557
| 37> H    2.89085211  -0.45093306  -2.27822186
| 38> H    4.55696325   1.30549129  -1.83866751
| 39> H    2.93969357   1.80538604   2.07432468
| 40> H    4.51777680   2.53989860   0.32136976
| 41> Pd   0.23048840  -1.50008798  -1.02152367
| 42> Br  -1.39760440  -3.67938170  -0.97655212
| 43> P    1.36619385  -2.98601343   0.20096100
| 44> H    0.74919224  -3.51387843   1.33272785
| 45> C    0.38457538  -1.32688126  -3.93976528
| 46> O    1.61013258  -1.63970402  -4.20453991
| 47> O   -0.37314463  -1.70062385  -3.10014779
| 48> O    0.03575189  -0.06817670  -4.53232856
| 49> H    2.64620743  -2.76013209   0.72691491
| 50> H    1.65350100  -4.17455141  -0.49446928
| 51> H    0.73649941   0.26489226  -5.05044443
| 52> *
| 53>
| 54>                          ****END OF INPUT****

CARTESIAN COORDINATES (ANGSTROEM)
---------------------------------
  C     -2.480498   -0.200388    0.679758
  C     -1.946656    0.946504    1.357679
  C     -3.805150   -0.509735    0.876055
  C     -4.681295    0.405654    1.441283
  C     -4.223134    1.592915    1.976703
  C     -2.878961    1.818009    2.021943
  H     -2.451857   -1.191667   -1.026378
  H     -4.115288   -1.526950    0.753601
  H     -2.505589    2.744968    2.442597
  H     -5.735904    0.253349    1.269654
  H     -4.922914    2.334559    2.338277
  C     -0.530417    1.459424    1.316650
  C      0.633655    0.482902    1.700143
  H     -0.434667    2.345718    1.941116
  H     -0.439008    1.792037    0.292168
  C      1.785766    0.574229    0.756319
  H      0.236796   -0.523244    1.736883
  H      0.954502    0.737724    2.708010
  C      1.746505   -0.071823   -0.495971
  C      2.811744    0.135910   -1.377402
  C      3.790489    1.098308   -1.094032
  C      2.829097    1.447683    1.055554
  C      3.815961    1.737668    0.118276
  H      2.890852   -0.450933   -2.278222
  H      4.556963    1.305491   -1.838668
  H      2.939694    1.805386    2.074325
  H      4.517777    2.539899    0.321370
  Pd     0.230488   -1.500088   -1.021524
  Br    -1.397604   -3.679382   -0.976552
  P      1.366194   -2.986013    0.200961
  H      0.749192   -3.513878    1.332728
  C      0.384575   -1.326881   -3.939765
  O      1.610133   -1.639704   -4.204540
  O     -0.373145   -1.700624   -3.100148
  O      0.035752   -0.068177   -4.532329
  H      2.646207   -2.760132    0.726915
  H      1.653501   -4.174551   -0.494469
  H      0.736499    0.264892   -5.050444

 Total Charge           Charge          ....   -1
 Multiplicity           Mult            ....    1
 Number of Electrons    NEL             ....  200
 Basis Dimension        Dim             ....  385

ORBITAL ENERGIES
----------------

  NO   OCC          E(Eh)            E(eV)
   0   2.0000    -484.331680    -13179.3350
   1   2.0000     -77.685271     -2113.9237
   2   2.0000     -62.993296     -1714.1347
   3   2.0000     -56.696878     -1542.8005
   4   2.0000     -56.696089     -1542.7790
   5   2.0000     -56.695820     -1542.7717
   6   2.0000     -19.338878      -526.2376
   7   2.0000     -19.318636      -525.6868
   8   2.0000     -19.275773      -524.5205
   9   2.0000     -10.428809      -283.7823
  10   2.0000     -10.385450      -282.6025
  11   2.0000     -10.377073      -282.3745
  12   2.0000     -10.358110      -281.8585
  13   2.0000     -10.353986      -281.7463
  14   2.0000     -10.351960      -281.6911
  15   2.0000     -10.350530      -281.6522
  16   2.0000     -10.350495      -281.6513
  17   2.0000     -10.349234      -281.6170
  18   2.0000     -10.348085      -281.5857
  19   2.0000     -10.345686      -281.5204
  20   2.0000     -10.344536      -281.4891
  21   2.0000     -10.343708      -281.4666
  22   2.0000     -10.341955      -281.4189
  23   2.0000     -10.332544      -281.1628
  24   2.0000      -8.820444      -240.0165
  25   2.0000      -6.758923      -183.9196
  26   2.0000      -6.589638      -179.3132
  27   2.0000      -6.586077      -179.2163
  28   2.0000      -6.584120      -179.1630
  29   2.0000      -4.850122      -131.9785
  30   2.0000      -4.849862      -131.9714
  31   2.0000      -4.848441      -131.9328
  32   2.0000      -3.527048       -95.9759
  33   2.0000      -2.603853       -70.8545
  34   2.0000      -2.603284       -70.8390
  35   2.0000      -2.601611       -70.7934
  36   2.0000      -2.598524       -70.7094
  37   2.0000      -2.598342       -70.7045
  38   2.0000      -2.172043       -59.1043
  39   2.0000      -2.171115       -59.0790
  40   2.0000      -2.142623       -58.3037
  41   2.0000      -1.047882       -28.5143
  42   2.0000      -0.954066       -25.9615
  43   2.0000      -0.884100       -24.0576
  44   2.0000      -0.864200       -23.5161
  45   2.0000      -0.852054       -23.1856
  46   2.0000      -0.792675       -21.5698
  47   2.0000      -0.751040       -20.4368
  48   2.0000      -0.741486       -20.1768
  49   2.0000      -0.723034       -19.6747
  50   2.0000      -0.691419       -18.8145
  51   2.0000      -0.660512       -17.9735
  52   2.0000      -0.634632       -17.2692
  53   2.0000      -0.628021       -17.0893
  54   2.0000      -0.578725       -15.7479
  55   2.0000      -0.569191       -15.4885
  56   2.0000      -0.557052       -15.1582
  57   2.0000      -0.540458       -14.7066
  58   2.0000      -0.503472       -13.7002
  59   2.0000      -0.476319       -12.9613
  60   2.0000      -0.466528       -12.6949
  61   2.0000      -0.441534       -12.0148
  62   2.0000      -0.420902       -11.4533
  63   2.0000      -0.416300       -11.3281
  64   2.0000      -0.405804       -11.0425
  65   2.0000      -0.402765       -10.9598
  66   2.0000      -0.381651       -10.3852
  67   2.0000      -0.379571       -10.3287
  68   2.0000      -0.378270       -10.2932
  69   2.0000      -0.373527       -10.1642
  70   2.0000      -0.368019       -10.0143
  71   2.0000      -0.359801        -9.7907
  72   2.0000      -0.352855        -9.6017
  73   2.0000      -0.350211        -9.5297
  74   2.0000      -0.346421        -9.4266
  75   2.0000      -0.337673        -9.1885
  76   2.0000      -0.325478        -8.8567
  77   2.0000      -0.322028        -8.7628
  78   2.0000      -0.311456        -8.4752
  79   2.0000      -0.299478        -8.1492
  80   2.0000      -0.297982        -8.1085
  81   2.0000      -0.293057        -7.9745
  82   2.0000      -0.280058        -7.6208
  83   2.0000      -0.255865        -6.9624
  84   2.0000      -0.253377        -6.8947
  85   2.0000      -0.242092        -6.5877
  86   2.0000      -0.230200        -6.2641
  87   2.0000      -0.223020        -6.0687
  88   2.0000      -0.206050        -5.6069
  89   2.0000      -0.195930        -5.3315
  90   2.0000      -0.184333        -5.0160
  91   2.0000      -0.181702        -4.9444
  92   2.0000      -0.178737        -4.8637
  93   2.0000      -0.173015        -4.7080
  94   2.0000      -0.169185        -4.6038
  95   2.0000      -0.155733        -4.2377
  96   2.0000      -0.150202        -4.0872
  97   2.0000      -0.146812        -3.9950
  98   2.0000      -0.143012        -3.8916
  99   2.0000      -0.135404        -3.6845
 100   0.0000       0.041637         1.1330
 101   0.0000       0.054656         1.4873
 102   0.0000       0.106180         2.8893
 103   0.0000       0.115878         3.1532
 104   0.0000       0.119727         3.2579

MULLIKEN ATOMIC CHARGES
-----------------------
   0 C :   -0.095462
   1 C :    0.006190
   2 C :   -0.242687
   3 C :   -0.235239
   4 C :   -0.204124
   5 C :   -0.260583
   6 H :    0.203716
   7 H :    0.246573
   8 H :    0.195718
   9 H :    0.197615
  10 H :    0.194273
  11 C :   -0.478625
  12 C :   -0.519476
  13 H :    0.210347
  14 H :    0.282028
  15 C :    0.085021
  16 H :    0.268927
  17 H :    0.207193
  18 C :   -0.137097
  19 C :   -0.270037
  20 C :   -0.232772
  21 C :   -0.271985
  22 C :   -0.223055
  23 H :    0.284349
  24 H :    0.193027
  25 H :    0.179935
  26 H :    0.185062
  27 Pd:    0.160387
  28 Br:   -0.477498
  29 P :   -0.131505
  30 H :    0.128735
  31 C :    0.669490
  32 O :   -0.607155
  33 O :   -0.475943
  34 O :   -0.672287
  35 H :    0.089217
  36 H :    0.145056
  37 H :    0.402669
Sum of atomic charges:   -1.0000000

LOEWDIN ATOMIC CHARGES
----------------------
   0 C :   -0.066977
   1 C :   -0.046409
   2 C :   -0.153301
   3 C :   -0.163423
   4 C :   -0.154971
   5 C :   -0.149500
   6 H :    0.244030
   7 H :    0.143104
   8 H :    0.126218
   9 H :    0.127079
  10 H :    0.124806
  11 C :   -0.216275
  12 C :   -0.214101
  13 H :    0.124121
  14 H :    0.162518
  15 C :   -0.051642
  16 H :    0.152304
  17 H :    0.120778
  18 C :   -0.019504
  19 C :   -0.119322
  20 C :   -0.148307
  21 C :   -0.150711
  22 C :   -0.160426
  23 H :    0.170062
  24 H :    0.125232
  25 H :    0.121367
  26 H :    0.121860
  27 Pd:   -0.774306
  28 Br:   -0.292557
  29 P :    0.426999
  30 H :    0.058202
  31 C :    0.139049
  32 O :   -0.432189
  33 O :   -0.166121
  34 O :   -0.408297
  35 H :    0.031836
  36 H :    0.071399
  37 H :    0.297373

  Mayer bond orders larger than 0.100000
B(  0-C ,  1-C ) :   1.4401 B(  0-C ,  2-C ) :   1.4127 B(  0-C ,  6-H ) :   0.7026
B(  0-C , 27-Pd) :   0.1017 B(  1-C ,  5-C ) :   1.3827 B(  1-C , 11-C ) :   0.9595
B(  2-C ,  3-C ) :   1.4114 B(  2-C ,  7-H ) :   0.9038 B(  3-C ,  4-C ) :   1.4229
B(  3-C ,  9-H ) :   0.9237 B(  4-C ,  5-C ) :   1.4495 B(  4-C , 10-H ) :   0.9249
B(  5-C ,  8-H ) :   0.9183 B( 11-C , 12-C ) :   0.9163 B( 11-C , 13-H ) :   0.9298
B( 11-C , 14-H ) :   0.8890 B( 12-C , 15-C ) :   0.9753 B( 12-C , 16-H ) :   0.8908
B( 12-C , 17-H ) :   0.9299 B( 15-C , 18-C ) :   1.3397 B( 15-C , 21-C ) :   1.4175
B( 18-C , 19-C ) :   1.4308 B( 18-C , 27-Pd) :   0.7487 B( 18-C , 28-Br) :   0.1071
B( 19-C , 20-C ) :   1.3861 B( 19-C , 23-H ) :   0.8639 B( 20-C , 22-C ) :   1.4468
B( 20-C , 24-H ) :   0.9262 B( 21-C , 22-C ) :   1.4065 B( 21-C , 25-H ) :   0.9257
B( 22-C , 26-H ) :   0.9284 B( 27-Pd, 28-Br) :   0.4471 B( 27-Pd, 29-P ) :   0.7496
B( 27-Pd, 33-O ) :   0.3581 B( 28-Br, 29-P ) :   0.1323 B( 29-P , 30-H ) :   0.9229
B( 29-P , 35-H ) :   0.9022 B( 29-P , 36-H ) :   0.9273 B( 31-C , 32-O ) :   1.6966
B( 31-C , 33-O ) :   1.6009 B( 31-C , 34-O ) :   0.9529 B( 34-O , 37-H ) :   0.7898

Dispersion correction           -0.031160084
FINAL SINGLE POINT ENERGY     -3847.513478382673
Dispersion correction            ... done

DIPOLE MOMENT
-------------
                                X             Y             Z
Electronic contribution:     10.24343     -73.82935     -42.57469
Nuclear contribution   :     -9.70024      74.94222      45.92431
                        -----------------------------------------
Total Dipole Moment    :      0.54319       1.11287       3.34963
                        -----------------------------------------
Magnitude (a.u.)       :      3.57121
Magnitude (Debye)      :      9.07730

Rotational constants in cm-1:     0.006765     0.005914     0.004175
Rotational constants in MHz :   202.813325   177.291619   125.174798

                             ****ORCA TERMINATED NORMALLY****
TOTAL RUN TIME: 0 days 0 hours 22 minutes 30 seconds 848 msec
