                         Program Version 5.0.3 -  RELEASE  -
|  1> ! EnGrad PBEh-3c
|  2> %output
|  3> xyzfile=True
|  4> end
|  5> %scf
|  6> maxiter 250
|  7> end
|  8> %output
|  9> Print[P_Hirshfeld] = 1
| 10> end
| 11> % maxcore
| 12> 4000
| 13> *xyz -1 1
| 14> C   -2.41245496  -0.15232097   0.53304276
| 15> C   -1.93649954   1.00626930   1.29607206
| 16> C   -3.74957106  -0.47748139   0.67021288
| 17> C   -4.66271782   0.36644777   1.33695838
| 18> C   -4.26659288   1.58679679   1.84398265
| 19> C   -2.90108882   1.87820898   1.85753182
| 20> H   -2.27320489  -1.13034129  -0.96973418
| 21> H   -4.00260571  -1.51799041   0.48999363
| 22> H   -2.57752374   2.85063749   2.25103188
| 23> H   -5.69895150   0.21066204   1.04394867
| 24> H   -4.99858133   2.34188537   2.16356667
| 25> C   -0.45965575   1.47343176   1.56372302
| 26> C    0.68998896   0.42762510   1.84697007
| 27> H   -0.45296103   2.23188801   2.44069276
| 28> H   -0.22322638   1.98649763   0.59381853
| 29> C    1.80273219   0.53408342   0.80820711
| 30> H    0.25457834  -0.57567195   1.82954118
| 31> H    1.11736628   0.63196710   2.85239631
| 32> C    1.66820219  -0.09937876  -0.46225007
| 33> C    2.69725786   0.17682795  -1.38356038
| 34> C    3.70251471   1.12347834  -1.12247261
| 35> C    2.82599965   1.48098487   1.06493705
| 36> C    3.78250700   1.76862457   0.10228211
| 37> H    2.73306769  -0.39796905  -2.30279851
| 38> H    4.45362297   1.32803698  -1.88242258
| 39> H    3.00797081   1.80992208   2.09896977
| 40> H    4.55324518   2.51106328   0.31504272
| 41> Pd   0.09861762  -1.56841618  -0.94645747
| 42> Br  -1.47839639  -3.59821620  -0.72866998
| 43> P    1.40916319  -2.96983164   0.11591552
| 44> H    0.93384733  -3.58667193   1.31039718
| 45> C    0.41693055  -1.32201267  -3.93509711
| 46> O    1.47889408  -1.67721982  -4.22857128
| 47> O   -0.44119058  -1.90183358  -3.04548476
| 48> O   -0.10130122  -0.15705158  -4.40491197
| 49> H    2.77531275  -2.76204539   0.52035916
| 50> H    1.60477299  -4.13397412  -0.67331158
| 51> H    0.62953636   0.29539075  -4.85208257
| 52> *
| 53>
| 54>                          ****END OF INPUT****

CARTESIAN COORDINATES (ANGSTROEM)
---------------------------------
  C     -2.412455   -0.152321    0.533043
  C     -1.936500    1.006269    1.296072
  C     -3.749571   -0.477481    0.670213
  C     -4.662718    0.366448    1.336958
  C     -4.266593    1.586797    1.843983
  C     -2.901089    1.878209    1.857532
  H     -2.273205   -1.130341   -0.969734
  H     -4.002606   -1.517990    0.489994
  H     -2.577524    2.850637    2.251032
  H     -5.698951    0.210662    1.043949
  H     -4.998581    2.341885    2.163567
  C     -0.459656    1.473432    1.563723
  C      0.689989    0.427625    1.846970
  H     -0.452961    2.231888    2.440693
  H     -0.223226    1.986498    0.593819
  C      1.802732    0.534083    0.808207
  H      0.254578   -0.575672    1.829541
  H      1.117366    0.631967    2.852396
  C      1.668202   -0.099379   -0.462250
  C      2.697258    0.176828   -1.383560
  C      3.702515    1.123478   -1.122473
  C      2.826000    1.480985    1.064937
  C      3.782507    1.768625    0.102282
  H      2.733068   -0.397969   -2.302799
  H      4.453623    1.328037   -1.882423
  H      3.007971    1.809922    2.098970
  H      4.553245    2.511063    0.315043
  Pd     0.098618   -1.568416   -0.946457
  Br    -1.478396   -3.598216   -0.728670
  P      1.409163   -2.969832    0.115916
  H      0.933847   -3.586672    1.310397
  C      0.416931   -1.322013   -3.935097
  O      1.478894   -1.677220   -4.228571
  O     -0.441191   -1.901834   -3.045485
  O     -0.101301   -0.157052   -4.404912
  H      2.775313   -2.762045    0.520359
  H      1.604773   -4.133974   -0.673312
  H      0.629536    0.295391   -4.852083

 Total Charge           Charge          ....   -1
 Multiplicity           Mult            ....    1
 Number of Electrons    NEL             ....  200
 Basis Dimension        Dim             ....  385

ORBITAL ENERGIES
----------------

  NO   OCC          E(Eh)            E(eV)
   0   2.0000    -484.333360    -13179.3808
   1   2.0000     -77.683898     -2113.8863
   2   2.0000     -62.995123     -1714.1845
   3   2.0000     -56.698854     -1542.8543
   4   2.0000     -56.697817     -1542.8260
   5   2.0000     -56.697558     -1542.8190
   6   2.0000     -19.374075      -527.1954
   7   2.0000     -19.312956      -525.5323
   8   2.0000     -19.289075      -524.8824
   9   2.0000     -10.432768      -283.8901
  10   2.0000     -10.384243      -282.5696
  11   2.0000     -10.380774      -282.4752
  12   2.0000     -10.362157      -281.9686
  13   2.0000     -10.356403      -281.8120
  14   2.0000     -10.354878      -281.7706
  15   2.0000     -10.352726      -281.7120
  16   2.0000     -10.350325      -281.6467
  17   2.0000     -10.347522      -281.5704
  18   2.0000     -10.346937      -281.5545
  19   2.0000     -10.346859      -281.5523
  20   2.0000     -10.345952      -281.5277
  21   2.0000     -10.345828      -281.5243
  22   2.0000     -10.343226      -281.4535
  23   2.0000     -10.334661      -281.2204
  24   2.0000      -8.822528      -240.0732
  25   2.0000      -6.755598      -183.8292
  26   2.0000      -6.592317      -179.3861
  27   2.0000      -6.587820      -179.2637
  28   2.0000      -6.585981      -179.2137
  29   2.0000      -4.846800      -131.8881
  30   2.0000      -4.846570      -131.8819
  31   2.0000      -4.845282      -131.8468
  32   2.0000      -3.523423       -95.8772
  33   2.0000      -2.606423       -70.9244
  34   2.0000      -2.605603       -70.9021
  35   2.0000      -2.604013       -70.8588
  36   2.0000      -2.600130       -70.7531
  37   2.0000      -2.599989       -70.7493
  38   2.0000      -2.168098       -58.9969
  39   2.0000      -2.167428       -58.9787
  40   2.0000      -2.137971       -58.1771
  41   2.0000      -1.076470       -29.2922
  42   2.0000      -0.974791       -26.5254
  43   2.0000      -0.877608       -23.8809
  44   2.0000      -0.851511       -23.1708
  45   2.0000      -0.842666       -22.9301
  46   2.0000      -0.777418       -21.1546
  47   2.0000      -0.740217       -20.1423
  48   2.0000      -0.730215       -19.8702
  49   2.0000      -0.720308       -19.6006
  50   2.0000      -0.682681       -18.5767
  51   2.0000      -0.656065       -17.8524
  52   2.0000      -0.631860       -17.1938
  53   2.0000      -0.614254       -16.7147
  54   2.0000      -0.566675       -15.4200
  55   2.0000      -0.562128       -15.2963
  56   2.0000      -0.552703       -15.0398
  57   2.0000      -0.533132       -14.5073
  58   2.0000      -0.520034       -14.1509
  59   2.0000      -0.463848       -12.6219
  60   2.0000      -0.459826       -12.5125
  61   2.0000      -0.428153       -11.6506
  62   2.0000      -0.414065       -11.2673
  63   2.0000      -0.405022       -11.0212
  64   2.0000      -0.402418       -10.9504
  65   2.0000      -0.396757       -10.7963
  66   2.0000      -0.382653       -10.4125
  67   2.0000      -0.373528       -10.1642
  68   2.0000      -0.372216       -10.1285
  69   2.0000      -0.367765       -10.0074
  70   2.0000      -0.364928        -9.9302
  71   2.0000      -0.363935        -9.9032
  72   2.0000      -0.359676        -9.7873
  73   2.0000      -0.347165        -9.4469
  74   2.0000      -0.337774        -9.1913
  75   2.0000      -0.331729        -9.0268
  76   2.0000      -0.322272        -8.7695
  77   2.0000      -0.318997        -8.6804
  78   2.0000      -0.309269        -8.4156
  79   2.0000      -0.298338        -8.1182
  80   2.0000      -0.293124        -7.9763
  81   2.0000      -0.284587        -7.7440
  82   2.0000      -0.272109        -7.4045
  83   2.0000      -0.259022        -7.0484
  84   2.0000      -0.255291        -6.9468
  85   2.0000      -0.242816        -6.6074
  86   2.0000      -0.233388        -6.3508
  87   2.0000      -0.224958        -6.1214
  88   2.0000      -0.218457        -5.9445
  89   2.0000      -0.202143        -5.5006
  90   2.0000      -0.185354        -5.0437
  91   2.0000      -0.184921        -5.0320
  92   2.0000      -0.176872        -4.8129
  93   2.0000      -0.175375        -4.7722
  94   2.0000      -0.168192        -4.5767
  95   2.0000      -0.154256        -4.1975
  96   2.0000      -0.151948        -4.1347
  97   2.0000      -0.145234        -3.9520
  98   2.0000      -0.140427        -3.8212
  99   2.0000      -0.122305        -3.3281
 100   0.0000       0.057199         1.5565
 101   0.0000       0.073107         1.9893
 102   0.0000       0.110607         3.0098
 103   0.0000       0.118111         3.2140
 104   0.0000       0.121361         3.3024

MULLIKEN ATOMIC CHARGES
-----------------------
   0 C :   -0.136129
   1 C :    0.010860
   2 C :   -0.239865
   3 C :   -0.231258
   4 C :   -0.217014
   5 C :   -0.248244
   6 H :    0.237107
   7 H :    0.251843
   8 H :    0.197765
   9 H :    0.192305
  10 H :    0.192620
  11 C :   -0.463171
  12 C :   -0.501987
  13 H :    0.189747
  14 H :    0.262960
  15 C :    0.022173
  16 H :    0.271492
  17 H :    0.198142
  18 C :   -0.107488
  19 C :   -0.288087
  20 C :   -0.225004
  21 C :   -0.242827
  22 C :   -0.231647
  23 H :    0.264185
  24 H :    0.188717
  25 H :    0.176531
  26 H :    0.185357
  27 Pd:    0.130130
  28 Br:   -0.433311
  29 P :   -0.129673
  30 H :    0.115545
  31 C :    0.650311
  32 O :   -0.453742
  33 O :   -0.608377
  34 O :   -0.604146
  35 H :    0.084064
  36 H :    0.141376
  37 H :    0.398740
Sum of atomic charges:   -1.0000000

LOEWDIN ATOMIC CHARGES
----------------------
   0 C :   -0.079453
   1 C :   -0.036220
   2 C :   -0.159550
   3 C :   -0.168784
   4 C :   -0.155871
   5 C :   -0.153026
   6 H :    0.274811
   7 H :    0.147715
   8 H :    0.126577
   9 H :    0.128364
  10 H :    0.123577
  11 C :   -0.213480
  12 C :   -0.218922
  13 H :    0.120418
  14 H :    0.157433
  15 C :   -0.051400
  16 H :    0.154817
  17 H :    0.118260
  18 C :   -0.039267
  19 C :   -0.128439
  20 C :   -0.154211
  21 C :   -0.154523
  22 C :   -0.161057
  23 H :    0.158793
  24 H :    0.123129
  25 H :    0.121151
  26 H :    0.120656
  27 Pd:   -0.862406
  28 Br:   -0.217106
  29 P :    0.430214
  30 H :    0.051124
  31 C :    0.105928
  32 O :   -0.254189
  33 O :   -0.332177
  34 O :   -0.331872
  35 H :    0.030917
  36 H :    0.070815
  37 H :    0.307252

  Mayer bond orders larger than 0.100000
B(  0-C ,  1-C ) :   1.4042 B(  0-C ,  2-C ) :   1.4286 B(  0-C ,  6-H ) :   0.7084
B(  0-C , 27-Pd) :   0.1034 B(  1-C ,  5-C ) :   1.4248 B(  1-C , 11-C ) :   0.9433
B(  2-C ,  3-C ) :   1.3651 B(  2-C ,  7-H ) :   0.8990 B(  3-C ,  4-C ) :   1.4600
B(  3-C ,  9-H ) :   0.9256 B(  4-C ,  5-C ) :   1.4006 B(  4-C , 10-H ) :   0.9258
B(  5-C ,  8-H ) :   0.9180 B( 11-C , 12-C ) :   0.9071 B( 11-C , 13-H ) :   0.9392
B( 11-C , 14-H ) :   0.8974 B( 12-C , 15-C ) :   0.9773 B( 12-C , 16-H ) :   0.8886
B( 12-C , 17-H ) :   0.9324 B( 15-C , 18-C ) :   1.3500 B( 15-C , 21-C ) :   1.3863
B( 18-C , 19-C ) :   1.4109 B( 18-C , 27-Pd) :   0.6971 B( 18-C , 28-Br) :   0.1115
B( 19-C , 20-C ) :   1.4040 B( 19-C , 23-H ) :   0.8813 B( 20-C , 22-C ) :   1.4294
B( 20-C , 24-H ) :   0.9271 B( 21-C , 22-C ) :   1.4288 B( 21-C , 25-H ) :   0.9257
B( 22-C , 26-H ) :   0.9274 B( 27-Pd, 28-Br) :   0.5331 B( 27-Pd, 29-P ) :   0.7647
B( 27-Pd, 33-O ) :   0.4800 B( 28-Br, 29-P ) :   0.1224 B( 29-P , 30-H ) :   0.9163
B( 29-P , 35-H ) :   0.9016 B( 29-P , 36-H ) :   0.9226 B( 31-C , 32-O ) :   1.9339
B( 31-C , 33-O ) :   1.3084 B( 31-C , 34-O ) :   1.0429 B( 34-O , 37-H ) :   0.7888

Dispersion correction           -0.031332631
FINAL SINGLE POINT ENERGY     -3847.516497130439
Dispersion correction            ... done

DIPOLE MOMENT
-------------
                                X             Y             Z
Electronic contribution:      3.94451     -77.18917     -39.18850
Nuclear contribution   :     -2.93518      78.38771      41.73463
                        -----------------------------------------
Total Dipole Moment    :      1.00933       1.19854       2.54613
                        -----------------------------------------
Magnitude (a.u.)       :      2.98965
Magnitude (Debye)      :      7.59909

Rotational constants in cm-1:     0.006800     0.006057     0.004282
Rotational constants in MHz :   203.858413   181.594800   128.375675

                             ****ORCA TERMINATED NORMALLY****
TOTAL RUN TIME: 0 days 0 hours 15 minutes 45 seconds 644 msec
