                         Program Version 5.0.3 -  RELEASE  -
|  1> ! EnGrad PBEh-3c
|  2> %output
|  3> xyzfile=True
|  4> end
|  5> %scf
|  6> maxiter 250
|  7> end
|  8> %output
|  9> Print[P_Hirshfeld] = 1
| 10> end
| 11> % maxcore
| 12> 4000
| 13> *xyz -1 1
| 14> C   -2.37842204  -0.12683021   0.46210329
| 15> C   -1.92755255   1.02064121   1.27198470
| 16> C   -3.72323718  -0.46629487   0.63984221
| 17> C   -4.66545300   0.35150660   1.25988984
| 18> C   -4.28156892   1.59567370   1.78372597
| 19> C   -2.90084120   1.88170339   1.78923579
| 20> H   -2.17752272  -1.06675878  -0.87608454
| 21> H   -3.97335054  -1.50766124   0.36837457
| 22> H   -2.60109660   2.87484977   2.19159927
| 23> H   -5.68675993   0.18706345   0.98635788
| 24> H   -5.01602048   2.33287895   2.09591851
| 25> C   -0.44053890   1.49102987   1.63523761
| 26> C    0.70395226   0.41513874   1.89381670
| 27> H   -0.46478984   2.16512187   2.57423792
| 28> H   -0.13712744   2.05754282   0.73423190
| 29> C    1.78554116   0.53379371   0.82400935
| 30> H    0.26337051  -0.59382900   1.86803677
| 31> H    1.16491799   0.58708718   2.89015516
| 32> C    1.64244890  -0.11607661  -0.45113144
| 33> C    2.65211050   0.19204997  -1.37212915
| 34> C    3.66682281   1.12211566  -1.14546082
| 35> C    2.82771135   1.46079919   1.07434448
| 36> C    3.76255080   1.78493792   0.10039523
| 37> H    2.67310500  -0.37337497  -2.31801435
| 38> H    4.41071881   1.33400764  -1.89610536
| 39> H    3.01871232   1.81650656   2.09360243
| 40> H    4.56398219   2.49060882   0.30919054
| 41> Pd   0.08336967  -1.58020197  -0.89973049
| 42> Br  -1.51840540  -3.56806009  -0.63701648
| 43> P    1.43270835  -2.97728337   0.10050850
| 44> H    1.00769697  -3.60721964   1.29121430
| 45> C    0.27300351  -1.32553809  -3.83422682
| 46> O    1.56053936  -1.72566875  -4.28180528
| 47> O   -0.43195067  -1.92716859  -3.07385379
| 48> O   -0.15773679  -0.17552374  -4.35791514
| 49> H    2.80619216  -2.76003905   0.43955366
| 50> H    1.58721454  -4.11106713  -0.73183079
| 51> H    0.59317675   0.30461742  -4.78810611
| 52> *
| 53>
| 54>                          ****END OF INPUT****

CARTESIAN COORDINATES (ANGSTROEM)
---------------------------------
  C     -2.378422   -0.126830    0.462103
  C     -1.927553    1.020641    1.271985
  C     -3.723237   -0.466295    0.639842
  C     -4.665453    0.351507    1.259890
  C     -4.281569    1.595674    1.783726
  C     -2.900841    1.881703    1.789236
  H     -2.177523   -1.066759   -0.876085
  H     -3.973351   -1.507661    0.368375
  H     -2.601097    2.874850    2.191599
  H     -5.686760    0.187063    0.986358
  H     -5.016020    2.332879    2.095919
  C     -0.440539    1.491030    1.635238
  C      0.703952    0.415139    1.893817
  H     -0.464790    2.165122    2.574238
  H     -0.137127    2.057543    0.734232
  C      1.785541    0.533794    0.824009
  H      0.263371   -0.593829    1.868037
  H      1.164918    0.587087    2.890155
  C      1.642449   -0.116077   -0.451131
  C      2.652111    0.192050   -1.372129
  C      3.666823    1.122116   -1.145461
  C      2.827711    1.460799    1.074344
  C      3.762551    1.784938    0.100395
  H      2.673105   -0.373375   -2.318014
  H      4.410719    1.334008   -1.896105
  H      3.018712    1.816507    2.093602
  H      4.563982    2.490609    0.309191
  Pd     0.083370   -1.580202   -0.899730
  Br    -1.518405   -3.568060   -0.637016
  P      1.432708   -2.977283    0.100509
  H      1.007697   -3.607220    1.291214
  C      0.273004   -1.325538   -3.834227
  O      1.560539   -1.725669   -4.281805
  O     -0.431951   -1.927169   -3.073854
  O     -0.157737   -0.175524   -4.357915
  H      2.806192   -2.760039    0.439554
  H      1.587215   -4.111067   -0.731831
  H      0.593177    0.304617   -4.788106

 Total Charge           Charge          ....   -1
 Multiplicity           Mult            ....    1
 Number of Electrons    NEL             ....  200
 Basis Dimension        Dim             ....  385

ORBITAL ENERGIES
----------------

  NO   OCC          E(Eh)            E(eV)
   0   2.0000    -484.341730    -13179.6085
   1   2.0000     -77.691793     -2114.1012
   2   2.0000     -63.003522     -1714.4130
   3   2.0000     -56.707255     -1543.0829
   4   2.0000     -56.706181     -1543.0536
   5   2.0000     -56.705987     -1543.0484
   6   2.0000     -19.376531      -527.2622
   7   2.0000     -19.317468      -525.6550
   8   2.0000     -19.253906      -523.9254
   9   2.0000     -10.429066      -283.7893
  10   2.0000     -10.395857      -282.8857
  11   2.0000     -10.389360      -282.7089
  12   2.0000     -10.368971      -282.1540
  13   2.0000     -10.363118      -281.9948
  14   2.0000     -10.362508      -281.9782
  15   2.0000     -10.358089      -281.8579
  16   2.0000     -10.355754      -281.7944
  17   2.0000     -10.354032      -281.7475
  18   2.0000     -10.353552      -281.7345
  19   2.0000     -10.353378      -281.7297
  20   2.0000     -10.350346      -281.6472
  21   2.0000     -10.349206      -281.6162
  22   2.0000     -10.344627      -281.4916
  23   2.0000     -10.333556      -281.1904
  24   2.0000      -8.830974      -240.3030
  25   2.0000      -6.764445      -184.0699
  26   2.0000      -6.600824      -179.6175
  27   2.0000      -6.596131      -179.4899
  28   2.0000      -6.594542      -179.4466
  29   2.0000      -4.855576      -132.1269
  30   2.0000      -4.855373      -132.1214
  31   2.0000      -4.854197      -132.0894
  32   2.0000      -3.534352       -96.1746
  33   2.0000      -2.614901       -71.1551
  34   2.0000      -2.613977       -71.1299
  35   2.0000      -2.612595       -71.0923
  36   2.0000      -2.608551       -70.9823
  37   2.0000      -2.608438       -70.9792
  38   2.0000      -2.180247       -59.3275
  39   2.0000      -2.178393       -59.2771
  40   2.0000      -2.149565       -58.4926
  41   2.0000      -1.060328       -28.8530
  42   2.0000      -0.968325       -26.3495
  43   2.0000      -0.855534       -23.2803
  44   2.0000      -0.843228       -22.9454
  45   2.0000      -0.816672       -22.2228
  46   2.0000      -0.779332       -21.2067
  47   2.0000      -0.744585       -20.2612
  48   2.0000      -0.732655       -19.9366
  49   2.0000      -0.722531       -19.6611
  50   2.0000      -0.686595       -18.6832
  51   2.0000      -0.665205       -18.1011
  52   2.0000      -0.642576       -17.4854
  53   2.0000      -0.618519       -16.8308
  54   2.0000      -0.569526       -15.4976
  55   2.0000      -0.562433       -15.3046
  56   2.0000      -0.560006       -15.2385
  57   2.0000      -0.538252       -14.6466
  58   2.0000      -0.528635       -14.3849
  59   2.0000      -0.470992       -12.8164
  60   2.0000      -0.461353       -12.5540
  61   2.0000      -0.431236       -11.7345
  62   2.0000      -0.418088       -11.3768
  63   2.0000      -0.408586       -11.1182
  64   2.0000      -0.405776       -11.0417
  65   2.0000      -0.392743       -10.6871
  66   2.0000      -0.379137       -10.3168
  67   2.0000      -0.377349       -10.2682
  68   2.0000      -0.375757       -10.2249
  69   2.0000      -0.373640       -10.1673
  70   2.0000      -0.371120       -10.0987
  71   2.0000      -0.368047       -10.0151
  72   2.0000      -0.356462        -9.6998
  73   2.0000      -0.352267        -9.5857
  74   2.0000      -0.343514        -9.3475
  75   2.0000      -0.334818        -9.1109
  76   2.0000      -0.325909        -8.8684
  77   2.0000      -0.322851        -8.7852
  78   2.0000      -0.307962        -8.3801
  79   2.0000      -0.295199        -8.0328
  80   2.0000      -0.288442        -7.8489
  81   2.0000      -0.284134        -7.7317
  82   2.0000      -0.280792        -7.6407
  83   2.0000      -0.268555        -7.3077
  84   2.0000      -0.266202        -7.2437
  85   2.0000      -0.256116        -6.9693
  86   2.0000      -0.243643        -6.6298
  87   2.0000      -0.228954        -6.2301
  88   2.0000      -0.211545        -5.7564
  89   2.0000      -0.193741        -5.2719
  90   2.0000      -0.185856        -5.0574
  91   2.0000      -0.181874        -4.9491
  92   2.0000      -0.181291        -4.9332
  93   2.0000      -0.175192        -4.7672
  94   2.0000      -0.170428        -4.6376
  95   2.0000      -0.160830        -4.3764
  96   2.0000      -0.154698        -4.2096
  97   2.0000      -0.152327        -4.1450
  98   2.0000      -0.120485        -3.2786
  99   2.0000      -0.109725        -2.9858
 100   0.0000       0.048149         1.3102
 101   0.0000       0.076834         2.0908
 102   0.0000       0.108897         2.9632
 103   0.0000       0.116939         3.1821
 104   0.0000       0.119692         3.2570

MULLIKEN ATOMIC CHARGES
-----------------------
   0 C :   -0.176413
   1 C :    0.014120
   2 C :   -0.229793
   3 C :   -0.221206
   4 C :   -0.228806
   5 C :   -0.240767
   6 H :    0.250183
   7 H :    0.251016
   8 H :    0.197878
   9 H :    0.199820
  10 H :    0.198374
  11 C :   -0.465046
  12 C :   -0.503109
  13 H :    0.193939
  14 H :    0.265207
  15 C :    0.023678
  16 H :    0.267802
  17 H :    0.202183
  18 C :   -0.114669
  19 C :   -0.292214
  20 C :   -0.227640
  21 C :   -0.246210
  22 C :   -0.233107
  23 H :    0.281053
  24 H :    0.197005
  25 H :    0.177679
  26 H :    0.188340
  27 Pd:    0.134724
  28 Br:   -0.434997
  29 P :   -0.110839
  30 H :    0.120534
  31 C :    0.650935
  32 O :   -0.693250
  33 O :   -0.467185
  34 O :   -0.598949
  35 H :    0.095696
  36 H :    0.153538
  37 H :    0.420496
Sum of atomic charges:   -1.0000000

LOEWDIN ATOMIC CHARGES
----------------------
   0 C :   -0.084814
   1 C :   -0.031622
   2 C :   -0.150555
   3 C :   -0.166773
   4 C :   -0.154396
   5 C :   -0.151111
   6 H :    0.269851
   7 H :    0.147632
   8 H :    0.127435
   9 H :    0.130567
  10 H :    0.125513
  11 C :   -0.214922
  12 C :   -0.219312
  13 H :    0.123421
  14 H :    0.155535
  15 C :   -0.050315
  16 H :    0.154013
  17 H :    0.119611
  18 C :   -0.042076
  19 C :   -0.127556
  20 C :   -0.153500
  21 C :   -0.157787
  22 C :   -0.157871
  23 H :    0.169648
  24 H :    0.126251
  25 H :    0.120944
  26 H :    0.121203
  27 Pd:   -0.842850
  28 Br:   -0.216022
  29 P :    0.447354
  30 H :    0.055785
  31 C :    0.138767
  32 O :   -0.563646
  33 O :   -0.176320
  34 O :   -0.317373
  35 H :    0.039615
  36 H :    0.079819
  37 H :    0.325856

  Mayer bond orders larger than 0.100000
B(  0-C ,  1-C ) :   1.4020 B(  0-C ,  2-C ) :   1.4009 B(  0-C ,  6-H ) :   0.7426
B(  1-C ,  5-C ) :   1.4220 B(  1-C , 11-C ) :   0.9435 B(  2-C ,  3-C ) :   1.3917
B(  2-C ,  7-H ) :   0.8993 B(  3-C ,  4-C ) :   1.4466 B(  3-C ,  9-H ) :   0.9242
B(  4-C ,  5-C ) :   1.4047 B(  4-C , 10-H ) :   0.9242 B(  5-C ,  8-H ) :   0.9195
B( 11-C , 12-C ) :   0.9106 B( 11-C , 13-H ) :   0.9372 B( 11-C , 14-H ) :   0.8976
B( 12-C , 15-C ) :   0.9714 B( 12-C , 16-H ) :   0.8905 B( 12-C , 17-H ) :   0.9316
B( 15-C , 18-C ) :   1.3547 B( 15-C , 21-C ) :   1.3803 B( 18-C , 19-C ) :   1.4020
B( 18-C , 27-Pd) :   0.6924 B( 18-C , 28-Br) :   0.1167 B( 19-C , 20-C ) :   1.4107
B( 19-C , 23-H ) :   0.8524 B( 20-C , 22-C ) :   1.4145 B( 20-C , 24-H ) :   0.9256
B( 21-C , 22-C ) :   1.4426 B( 21-C , 25-H ) :   0.9269 B( 22-C , 26-H ) :   0.9264
B( 27-Pd, 28-Br) :   0.5509 B( 27-Pd, 29-P ) :   0.7944 B( 27-Pd, 33-O ) :   0.3357
B( 28-Br, 29-P ) :   0.1168 B( 29-P , 30-H ) :   0.9191 B( 29-P , 35-H ) :   0.9051
B( 29-P , 36-H ) :   0.9245 B( 31-C , 32-O ) :   1.5545 B( 31-C , 33-O ) :   1.6199
B( 31-C , 34-O ) :   1.0659 B( 34-O , 37-H ) :   0.7707

Dispersion correction           -0.031442996
FINAL SINGLE POINT ENERGY     -3847.520234200309
Dispersion correction            ... done

DIPOLE MOMENT
-------------
                                X             Y             Z
Electronic contribution:      2.49783     -77.55393     -35.63310
Nuclear contribution   :     -2.14148      78.93107      39.13213
                        -----------------------------------------
Total Dipole Moment    :      0.35635       1.37715       3.49903
                        -----------------------------------------
Magnitude (a.u.)       :      3.77713
Magnitude (Debye)      :      9.60071

Rotational constants in cm-1:     0.006821     0.006080     0.004321
Rotational constants in MHz :   204.484918   182.265810   129.531612

                             ****ORCA TERMINATED NORMALLY****
TOTAL RUN TIME: 0 days 0 hours 15 minutes 5 seconds 294 msec
