                         Program Version 5.0.3 -  RELEASE  -
|  1> ! EnGrad PBEh-3c
|  2> %output
|  3> xyzfile=True
|  4> end
|  5> %scf
|  6> maxiter 250
|  7> end
|  8> %output
|  9> Print[P_Hirshfeld] = 1
| 10> end
| 11> % maxcore
| 12> 4000
| 13> *xyz -1 1
| 14> Pd  -2.06925045  -1.56199876   0.60383884
| 15> Cl  -3.23106306  -3.32699580  -0.41063745
| 16> Cl  -0.15192814  -5.05742617   0.92257663
| 17> Cl  -4.08603500  -0.93284069   1.49001215
| 18> N   -1.02389201   0.06207089   1.38755910
| 19> C   -1.36932852   0.63772310   2.52632792
| 20> C   -0.83832671   1.85817067   2.95069319
| 21> C    0.09583103   2.47685444   2.15557255
| 22> C   -0.09204985   0.63220340   0.59486281
| 23> C    0.48760718   1.86605014   0.95634746
| 24> H    0.52559141   3.42439497   2.46008142
| 25> H   -2.05778691   0.08095259   3.14863134
| 26> H   -1.15708791   2.29577898   3.88581099
| 27> C    0.31168184  -0.06198498  -0.58995905
| 28> C    1.45198434   2.45455901   0.07908429
| 29> C    1.80642695   1.83124772  -1.06900746
| 30> C    1.26194088   0.55743233  -1.43074137
| 31> H    1.89145789   3.40915859   0.34155286
| 32> H    2.53412245   2.30108847  -1.72101302
| 33> C   -0.22420066  -1.33031976  -0.89533453
| 34> C    1.67198833  -0.09838704  -2.59963589
| 35> C    0.17658232  -1.92049525  -2.08358093
| 36> C    1.15290923  -1.33885062  -2.89778618
| 37> H    2.39700575   0.36158571  -3.26116777
| 38> H    1.48510049  -1.83480264  -3.80063256
| 39> H   -0.66156638  -3.95223309  -0.31782675
| 40> H   -0.28771768  -2.83293621  -2.42563179
| 41> *
| 42>
| 43>                          ****END OF INPUT****

CARTESIAN COORDINATES (ANGSTROEM)
---------------------------------
  Pd    -2.069250   -1.561999    0.603839
  Cl    -3.231063   -3.326996   -0.410637
  Cl    -0.151928   -5.057426    0.922577
  Cl    -4.086035   -0.932841    1.490012
  N     -1.023892    0.062071    1.387559
  C     -1.369329    0.637723    2.526328
  C     -0.838327    1.858171    2.950693
  C      0.095831    2.476854    2.155573
  C     -0.092050    0.632203    0.594863
  C      0.487607    1.866050    0.956347
  H      0.525591    3.424395    2.460081
  H     -2.057787    0.080953    3.148631
  H     -1.157088    2.295779    3.885811
  C      0.311682   -0.061985   -0.589959
  C      1.451984    2.454559    0.079084
  C      1.806427    1.831248   -1.069007
  C      1.261941    0.557432   -1.430741
  H      1.891458    3.409159    0.341553
  H      2.534122    2.301088   -1.721013
  C     -0.224201   -1.330320   -0.895335
  C      1.671988   -0.098387   -2.599636
  C      0.176582   -1.920495   -2.083581
  C      1.152909   -1.338851   -2.897786
  H      2.397006    0.361586   -3.261168
  H      1.485100   -1.834803   -3.800633
  H     -0.661566   -3.952233   -0.317827
  H     -0.287718   -2.832936   -2.425632

 Total Charge           Charge          ....   -1
 Multiplicity           Mult            ....    1
 Number of Electrons    NEL             ....  164
 Basis Dimension        Dim             ....  313

ORBITAL ENERGIES
----------------

  NO   OCC          E(Eh)            E(eV)
   0   2.0000    -102.150839     -2779.6657
   1   2.0000    -102.086678     -2777.9197
   2   2.0000    -102.081643     -2777.7827
   3   2.0000     -14.595835      -397.1729
   4   2.0000     -10.409073      -283.2453
   5   2.0000     -10.405521      -283.1486
   6   2.0000     -10.393014      -282.8083
   7   2.0000     -10.385254      -282.5971
   8   2.0000     -10.378182      -282.4047
   9   2.0000     -10.373503      -282.2774
  10   2.0000     -10.372578      -282.2522
  11   2.0000     -10.366898      -282.0976
  12   2.0000     -10.355107      -281.7768
  13   2.0000     -10.352461      -281.7048
  14   2.0000     -10.350832      -281.6604
  15   2.0000     -10.336754      -281.2774
  16   2.0000     -10.334410      -281.2136
  17   2.0000      -9.612923      -261.5809
  18   2.0000      -9.550184      -259.8737
  19   2.0000      -9.546081      -259.7621
  20   2.0000      -7.300957      -198.6691
  21   2.0000      -7.292730      -198.4453
  22   2.0000      -7.292647      -198.4430
  23   2.0000      -7.235934      -196.8998
  24   2.0000      -7.231729      -196.7854
  25   2.0000      -7.231384      -196.7760
  26   2.0000      -7.230968      -196.7646
  27   2.0000      -7.227239      -196.6632
  28   2.0000      -7.226928      -196.6547
  29   2.0000      -3.510861       -95.5354
  30   2.0000      -2.158563       -58.7375
  31   2.0000      -2.151523       -58.5459
  32   2.0000      -2.122256       -57.7495
  33   2.0000      -0.988977       -26.9114
  34   2.0000      -0.881505       -23.9870
  35   2.0000      -0.845036       -22.9946
  36   2.0000      -0.812416       -22.1070
  37   2.0000      -0.776563       -21.1314
  38   2.0000      -0.739838       -20.1320
  39   2.0000      -0.725346       -19.7377
  40   2.0000      -0.715759       -19.4768
  41   2.0000      -0.680012       -18.5041
  42   2.0000      -0.668026       -18.1779
  43   2.0000      -0.645182       -17.5563
  44   2.0000      -0.639567       -17.4035
  45   2.0000      -0.607919       -16.5423
  46   2.0000      -0.570503       -15.5242
  47   2.0000      -0.526513       -14.3272
  48   2.0000      -0.514250       -13.9935
  49   2.0000      -0.493433       -13.4270
  50   2.0000      -0.458795       -12.4844
  51   2.0000      -0.456952       -12.4343
  52   2.0000      -0.428891       -11.6707
  53   2.0000      -0.410436       -11.1685
  54   2.0000      -0.405636       -11.0379
  55   2.0000      -0.402335       -10.9481
  56   2.0000      -0.383327       -10.4309
  57   2.0000      -0.374650       -10.1948
  58   2.0000      -0.353290        -9.6135
  59   2.0000      -0.340109        -9.2548
  60   2.0000      -0.334616        -9.1054
  61   2.0000      -0.313237        -8.5236
  62   2.0000      -0.304986        -8.2991
  63   2.0000      -0.301052        -8.1920
  64   2.0000      -0.291586        -7.9345
  65   2.0000      -0.262759        -7.1500
  66   2.0000      -0.255320        -6.9476
  67   2.0000      -0.248589        -6.7645
  68   2.0000      -0.231111        -6.2888
  69   2.0000      -0.222157        -6.0452
  70   2.0000      -0.218057        -5.9336
  71   2.0000      -0.215752        -5.8709
  72   2.0000      -0.214750        -5.8437
  73   2.0000      -0.208067        -5.6618
  74   2.0000      -0.182482        -4.9656
  75   2.0000      -0.171288        -4.6610
  76   2.0000      -0.166869        -4.5407
  77   2.0000      -0.154436        -4.2024
  78   2.0000      -0.150230        -4.0880
  79   2.0000      -0.145387        -3.9562
  80   2.0000      -0.142219        -3.8700
  81   2.0000      -0.124716        -3.3937
  82   0.0000       0.046711         1.2711
  83   0.0000       0.069271         1.8849
  84   0.0000       0.085869         2.3366
  85   0.0000       0.088788         2.4160
  86   0.0000       0.110259         3.0003

MULLIKEN ATOMIC CHARGES
-----------------------
   0 Pd:    0.180142
   1 Cl:   -0.375085
   2 Cl:   -0.350656
   3 Cl:   -0.411252
   4 N :   -0.575314
   5 C :    0.040817
   6 C :   -0.327962
   7 C :   -0.158424
   8 C :    0.412038
   9 C :    0.028103
  10 H :    0.210123
  11 H :    0.281291
  12 H :    0.219730
  13 C :   -0.005932
  14 C :   -0.304517
  15 C :   -0.289471
  16 C :    0.128586
  17 H :    0.192895
  18 H :    0.194101
  19 C :   -0.097218
  20 C :   -0.324594
  21 C :   -0.361207
  22 C :   -0.189789
  23 H :    0.185465
  24 H :    0.191760
  25 H :    0.288836
  26 H :    0.217534
Sum of atomic charges:   -1.0000000

LOEWDIN ATOMIC CHARGES
----------------------
   0 Pd:   -0.805415
   1 Cl:   -0.116899
   2 Cl:   -0.288901
   3 Cl:   -0.134419
   4 N :    0.039163
   5 C :    0.005830
   6 C :   -0.170960
   7 C :   -0.089694
   8 C :    0.090797
   9 C :   -0.056281
  10 H :    0.134688
  11 H :    0.168098
  12 H :    0.140111
  13 C :   -0.041216
  14 C :   -0.144664
  15 C :   -0.116444
  16 C :   -0.034635
  17 H :    0.129032
  18 H :    0.129831
  19 C :   -0.061260
  20 C :   -0.158995
  21 C :   -0.150951
  22 C :   -0.127575
  23 H :    0.123299
  24 H :    0.124701
  25 H :    0.277169
  26 H :    0.135589

  Mayer bond orders larger than 0.100000
B(  0-Pd,  1-Cl) :   0.8227 B(  0-Pd,  3-Cl) :   0.7989 B(  0-Pd,  4-N ) :   0.4071
B(  0-Pd, 19-C ) :   0.5637 B(  2-Cl, 25-H ) :   0.7975 B(  4-N ,  5-C ) :   1.4683
B(  4-N ,  8-C ) :   1.1468 B(  5-C ,  6-C ) :   1.3187 B(  5-C , 11-H ) :   0.8818
B(  6-C ,  7-C ) :   1.4566 B(  6-C , 12-H ) :   0.9195 B(  7-C ,  9-C ) :   1.2797
B(  7-C , 10-H ) :   0.9291 B(  8-C ,  9-C ) :   1.2216 B(  8-C , 13-C ) :   1.1318
B(  9-C , 14-C ) :   1.1642 B( 13-C , 16-C ) :   1.2658 B( 13-C , 19-C ) :   1.2973
B( 14-C , 15-C ) :   1.6529 B( 14-C , 17-H ) :   0.9303 B( 15-C , 16-C ) :   1.1515
B( 15-C , 18-H ) :   0.9288 B( 16-C , 20-C ) :   1.2851 B( 19-C , 21-C ) :   1.4728
B( 20-C , 22-C ) :   1.4903 B( 20-C , 23-H ) :   0.9319 B( 21-C , 22-C ) :   1.3573
B( 21-C , 26-H ) :   0.9138 B( 22-C , 24-H ) :   0.9233

Dispersion correction           -0.023848122
FINAL SINGLE POINT ENERGY     -2061.431307707338
Dispersion correction            ... done

DIPOLE MOMENT
-------------
                                X             Y             Z
Electronic contribution:    -81.80427     -52.27490      24.68083
Nuclear contribution   :     84.81207      55.80307     -24.55706
                        -----------------------------------------
Total Dipole Moment    :      3.00780       3.52818       0.12377
                        -----------------------------------------
Magnitude (a.u.)       :      4.63791
Magnitude (Debye)      :     11.78863

Rotational constants in cm-1:     0.010810     0.007296     0.005304
Rotational constants in MHz :   324.075416   218.732239   159.022696

                             ****ORCA TERMINATED NORMALLY****
TOTAL RUN TIME: 0 days 0 hours 7 minutes 9 seconds 728 msec
