                         Program Version 5.0.3 -  RELEASE  -
|  1> ! EnGrad PBEh-3c
|  2> %output
|  3> xyzfile=True
|  4> end
|  5> %scf
|  6> maxiter 250
|  7> end
|  8> %output
|  9> Print[P_Hirshfeld] = 1
| 10> end
| 11> % maxcore
| 12> 4000
| 13> *xyz -1 1
| 14> Pd  -1.99500232  -1.55548901   0.50082398
| 15> Cl  -3.19773129  -3.31489809  -0.39875332
| 16> Cl  -0.24251862  -4.90588155   0.80924898
| 17> Cl  -4.09784682  -0.88173055   1.48158663
| 18> N   -1.04363051   0.03881357   1.39224862
| 19> C   -1.35647819   0.61601504   2.53868123
| 20> C   -0.82761615   1.84167277   2.94746014
| 21> C    0.08580799   2.46242717   2.15564486
| 22> C   -0.08744650   0.62692514   0.60553404
| 23> C    0.49394617   1.87385387   0.95309412
| 24> H    0.52597362   3.41786074   2.45428872
| 25> H   -2.05995520   0.07800260   3.14400548
| 26> H   -1.15362335   2.28048508   3.89149152
| 27> C    0.32569149  -0.07422116  -0.59900683
| 28> C    1.44485909   2.44682977   0.07095632
| 29> C    1.79742124   1.83867302  -1.06407688
| 30> C    1.27077077   0.57053293  -1.43924581
| 31> H    1.88115982   3.40995301   0.34196768
| 32> H    2.52367184   2.30240233  -1.72857017
| 33> C   -0.30843586  -1.35561849  -0.83389313
| 34> C    1.67288122  -0.10678447  -2.59830439
| 35> C    0.18240351  -1.92089831  -2.07131074
| 36> C    1.15921661  -1.31909714  -2.91118071
| 37> H    2.39480448   0.37126400  -3.26109103
| 38> H    1.49009626  -1.83578338  -3.80875360
| 39> H   -0.60197676  -4.05109092  -0.14684378
| 40> H   -0.27402030  -2.85314761  -2.42438302
| 41> *
| 42>
| 43>                          ****END OF INPUT****

CARTESIAN COORDINATES (ANGSTROEM)
---------------------------------
  Pd    -1.995002   -1.555489    0.500824
  Cl    -3.197731   -3.314898   -0.398753
  Cl    -0.242519   -4.905882    0.809249
  Cl    -4.097847   -0.881731    1.481587
  N     -1.043631    0.038814    1.392249
  C     -1.356478    0.616015    2.538681
  C     -0.827616    1.841673    2.947460
  C      0.085808    2.462427    2.155645
  C     -0.087446    0.626925    0.605534
  C      0.493946    1.873854    0.953094
  H      0.525974    3.417861    2.454289
  H     -2.059955    0.078003    3.144005
  H     -1.153623    2.280485    3.891492
  C      0.325691   -0.074221   -0.599007
  C      1.444859    2.446830    0.070956
  C      1.797421    1.838673   -1.064077
  C      1.270771    0.570533   -1.439246
  H      1.881160    3.409953    0.341968
  H      2.523672    2.302402   -1.728570
  C     -0.308436   -1.355618   -0.833893
  C      1.672881   -0.106784   -2.598304
  C      0.182404   -1.920898   -2.071311
  C      1.159217   -1.319097   -2.911181
  H      2.394804    0.371264   -3.261091
  H      1.490096   -1.835783   -3.808754
  H     -0.601977   -4.051091   -0.146844
  H     -0.274020   -2.853148   -2.424383

 Total Charge           Charge          ....   -1
 Multiplicity           Mult            ....    1
 Number of Electrons    NEL             ....  164
 Basis Dimension        Dim             ....  313

ORBITAL ENERGIES
----------------

  NO   OCC          E(Eh)            E(eV)
   0   2.0000    -102.160777     -2779.9361
   1   2.0000    -102.077847     -2777.6794
   2   2.0000    -102.066235     -2777.3635
   3   2.0000     -14.595876      -397.1740
   4   2.0000     -10.407840      -283.2117
   5   2.0000     -10.402578      -283.0685
   6   2.0000     -10.390021      -282.7268
   7   2.0000     -10.381947      -282.5071
   8   2.0000     -10.375800      -282.3399
   9   2.0000     -10.370631      -282.1992
  10   2.0000     -10.369695      -282.1738
  11   2.0000     -10.366226      -282.0794
  12   2.0000     -10.358467      -281.8682
  13   2.0000     -10.352751      -281.7127
  14   2.0000     -10.348954      -281.6094
  15   2.0000     -10.347034      -281.5571
  16   2.0000     -10.343815      -281.4695
  17   2.0000      -9.628564      -262.0065
  18   2.0000      -9.541916      -259.6487
  19   2.0000      -9.529760      -259.3180
  20   2.0000      -7.316009      -199.0787
  21   2.0000      -7.308181      -198.8657
  22   2.0000      -7.308053      -198.8622
  23   2.0000      -7.227791      -196.6782
  24   2.0000      -7.222925      -196.5458
  25   2.0000      -7.222713      -196.5400
  26   2.0000      -7.215114      -196.3332
  27   2.0000      -7.211216      -196.2272
  28   2.0000      -7.210909      -196.2188
  29   2.0000      -3.512669       -95.5846
  30   2.0000      -2.160085       -58.7789
  31   2.0000      -2.152926       -58.5841
  32   2.0000      -2.123948       -57.7956
  33   2.0000      -0.982901       -26.7461
  34   2.0000      -0.879700       -23.9379
  35   2.0000      -0.843053       -22.9406
  36   2.0000      -0.809711       -22.0333
  37   2.0000      -0.779066       -21.1995
  38   2.0000      -0.774188       -21.0667
  39   2.0000      -0.736106       -20.0305
  40   2.0000      -0.710886       -19.3442
  41   2.0000      -0.670487       -18.2449
  42   2.0000      -0.653498       -17.7826
  43   2.0000      -0.642607       -17.4862
  44   2.0000      -0.634761       -17.2727
  45   2.0000      -0.603809       -16.4305
  46   2.0000      -0.566666       -15.4198
  47   2.0000      -0.525668       -14.3042
  48   2.0000      -0.510866       -13.9014
  49   2.0000      -0.491091       -13.3633
  50   2.0000      -0.457022       -12.4362
  51   2.0000      -0.452109       -12.3025
  52   2.0000      -0.425723       -11.5845
  53   2.0000      -0.408194       -11.1075
  54   2.0000      -0.402281       -10.9466
  55   2.0000      -0.398621       -10.8470
  56   2.0000      -0.380661       -10.3583
  57   2.0000      -0.376444       -10.2436
  58   2.0000      -0.369691       -10.0598
  59   2.0000      -0.345713        -9.4073
  60   2.0000      -0.338803        -9.2193
  61   2.0000      -0.332003        -9.0343
  62   2.0000      -0.311992        -8.4897
  63   2.0000      -0.300159        -8.1677
  64   2.0000      -0.282652        -7.6914
  65   2.0000      -0.261769        -7.1231
  66   2.0000      -0.254530        -6.9261
  67   2.0000      -0.244907        -6.6643
  68   2.0000      -0.240388        -6.5413
  69   2.0000      -0.239256        -6.5105
  70   2.0000      -0.233191        -6.3454
  71   2.0000      -0.216150        -5.8817
  72   2.0000      -0.209602        -5.7036
  73   2.0000      -0.206991        -5.6325
  74   2.0000      -0.179651        -4.8886
  75   2.0000      -0.175752        -4.7824
  76   2.0000      -0.166132        -4.5207
  77   2.0000      -0.150916        -4.1066
  78   2.0000      -0.146444        -3.9849
  79   2.0000      -0.138253        -3.7621
  80   2.0000      -0.134792        -3.6679
  81   2.0000      -0.123629        -3.3641
  82   0.0000       0.049453         1.3457
  83   0.0000       0.071782         1.9533
  84   0.0000       0.096249         2.6191
  85   0.0000       0.109991         2.9930
  86   0.0000       0.146987         3.9997

MULLIKEN ATOMIC CHARGES
-----------------------
   0 Pd:    0.187679
   1 Cl:   -0.384206
   2 Cl:   -0.337151
   3 Cl:   -0.455443
   4 N :   -0.573829
   5 C :    0.042852
   6 C :   -0.331523
   7 C :   -0.157755
   8 C :    0.366221
   9 C :    0.063645
  10 H :    0.205788
  11 H :    0.282304
  12 H :    0.218594
  13 C :   -0.026590
  14 C :   -0.301339
  15 C :   -0.278090
  16 C :    0.170642
  17 H :    0.189948
  18 H :    0.193351
  19 C :   -0.114361
  20 C :   -0.332766
  21 C :   -0.379741
  22 C :   -0.167547
  23 H :    0.181267
  24 H :    0.194173
  25 H :    0.328227
  26 H :    0.215650
Sum of atomic charges:   -1.0000000

LOEWDIN ATOMIC CHARGES
----------------------
   0 Pd:   -0.790128
   1 Cl:   -0.118969
   2 Cl:   -0.201398
   3 Cl:   -0.223220
   4 N :    0.038795
   5 C :    0.006652
   6 C :   -0.172590
   7 C :   -0.088895
   8 C :    0.096343
   9 C :   -0.060780
  10 H :    0.132899
  11 H :    0.166859
  12 H :    0.140871
  13 C :   -0.029586
  14 C :   -0.144282
  15 C :   -0.117141
  16 C :   -0.040864
  17 H :    0.128478
  18 H :    0.130407
  19 C :   -0.034301
  20 C :   -0.155529
  21 C :   -0.141651
  22 C :   -0.136919
  23 H :    0.120841
  24 H :    0.127726
  25 H :    0.230865
  26 H :    0.135516

  Mayer bond orders larger than 0.100000
B(  0-Pd,  1-Cl) :   0.8552 B(  0-Pd,  3-Cl) :   0.7260 B(  0-Pd,  4-N ) :   0.4146
B(  0-Pd, 19-C ) :   0.6813 B(  2-Cl, 25-H ) :   0.8325 B(  4-N ,  5-C ) :   1.4867
B(  4-N ,  8-C ) :   1.1237 B(  5-C ,  6-C ) :   1.3061 B(  5-C , 11-H ) :   0.8785
B(  6-C ,  7-C ) :   1.4636 B(  6-C , 12-H ) :   0.9206 B(  7-C ,  9-C ) :   1.2697
B(  7-C , 10-H ) :   0.9304 B(  8-C ,  9-C ) :   1.2413 B(  8-C , 13-C ) :   1.1538
B(  9-C , 14-C ) :   1.1638 B( 13-C , 16-C ) :   1.2438 B( 13-C , 19-C ) :   1.2092
B( 14-C , 15-C ) :   1.6421 B( 14-C , 17-H ) :   0.9307 B( 15-C , 16-C ) :   1.1577
B( 15-C , 18-H ) :   0.9282 B( 16-C , 20-C ) :   1.2775 B( 19-C , 21-C ) :   1.4462
B( 20-C , 22-C ) :   1.4963 B( 20-C , 23-H ) :   0.9308 B( 21-C , 22-C ) :   1.3370
B( 21-C , 26-H ) :   0.9154 B( 22-C , 24-H ) :   0.9248

Dispersion correction           -0.023724207
FINAL SINGLE POINT ENERGY     -2061.490218725186
Dispersion correction            ... done

DIPOLE MOMENT
-------------
                                X             Y             Z
Electronic contribution:    -77.37654     -53.06262      19.81180
Nuclear contribution   :     80.77772      56.07723     -19.62977
                        -----------------------------------------
Total Dipole Moment    :      3.40118       3.01461       0.18203
                        -----------------------------------------
Magnitude (a.u.)       :      4.54852
Magnitude (Debye)      :     11.56142

Rotational constants in cm-1:     0.011121     0.007518     0.005401
Rotational constants in MHz :   333.386270   225.374824   161.928548

                             ****ORCA TERMINATED NORMALLY****
TOTAL RUN TIME: 0 days 0 hours 7 minutes 47 seconds 240 msec
