                         Program Version 5.0.3 -  RELEASE  -
|  1> ! EnGrad PBEh-3c
|  2> %output
|  3> xyzfile=True
|  4> end
|  5> %scf
|  6> maxiter 250
|  7> end
|  8> %output
|  9> Print[P_Hirshfeld] = 1
| 10> end
| 11> % maxcore
| 12> 4000
| 13> *xyz -1 1
| 14> Pd  -1.97864553  -1.54669385   0.46925100
| 15> Cl  -3.18480540  -3.31139855  -0.39802601
| 16> Cl  -0.27152899  -4.85703324   0.77846564
| 17> Cl  -4.09303607  -0.86221735   1.47347637
| 18> N   -1.03561231   0.03791704   1.38647184
| 19> C   -1.35417700   0.60502911   2.53854747
| 20> C   -0.82869038   1.83262539   2.95544369
| 21> C    0.09144631   2.46703432   2.15266807
| 22> C   -0.08501367   0.62257817   0.60478566
| 23> C    0.48781696   1.86421029   0.95400874
| 24> H    0.52343498   3.41198505   2.45167454
| 25> H   -2.06358334   0.07461372   3.14512664
| 26> H   -1.15035235   2.27188472   3.89007477
| 27> C    0.31651966  -0.07959377  -0.58690307
| 28> C    1.44308309   2.45710992   0.07821817
| 29> C    1.79960330   1.83723779  -1.07516277
| 30> C    1.26683464   0.56226611  -1.43890892
| 31> H    1.87560099   3.40743596   0.34065994
| 32> H    2.51794511   2.30315597  -1.73015511
| 33> C   -0.31270470  -1.35772530  -0.84150633
| 34> C    1.68270554  -0.09254157  -2.60097221
| 35> C    0.17200857  -1.92282343  -2.05415645
| 36> C    1.14846429  -1.32806830  -2.90685903
| 37> H    2.39260010   0.37391438  -3.26016639
| 38> H    1.49115383  -1.83478968  -3.81051181
| 39> H   -0.58340931  -4.07818094  -0.09110365
| 40> H   -0.26435696  -2.85613548  -2.42228642
| 41> *
| 42>
| 43>                          ****END OF INPUT****

CARTESIAN COORDINATES (ANGSTROEM)
---------------------------------
  Pd    -1.978646   -1.546694    0.469251
  Cl    -3.184805   -3.311399   -0.398026
  Cl    -0.271529   -4.857033    0.778466
  Cl    -4.093036   -0.862217    1.473476
  N     -1.035612    0.037917    1.386472
  C     -1.354177    0.605029    2.538547
  C     -0.828690    1.832625    2.955444
  C      0.091446    2.467034    2.152668
  C     -0.085014    0.622578    0.604786
  C      0.487817    1.864210    0.954009
  H      0.523435    3.411985    2.451675
  H     -2.063583    0.074614    3.145127
  H     -1.150352    2.271885    3.890075
  C      0.316520   -0.079594   -0.586903
  C      1.443083    2.457110    0.078218
  C      1.799603    1.837238   -1.075163
  C      1.266835    0.562266   -1.438909
  H      1.875601    3.407436    0.340660
  H      2.517945    2.303156   -1.730155
  C     -0.312705   -1.357725   -0.841506
  C      1.682706   -0.092542   -2.600972
  C      0.172009   -1.922823   -2.054156
  C      1.148464   -1.328068   -2.906859
  H      2.392600    0.373914   -3.260166
  H      1.491154   -1.834790   -3.810512
  H     -0.583409   -4.078181   -0.091104
  H     -0.264357   -2.856135   -2.422286

 Total Charge           Charge          ....   -1
 Multiplicity           Mult            ....    1
 Number of Electrons    NEL             ....  164
 Basis Dimension        Dim             ....  313

ORBITAL ENERGIES
----------------

  NO   OCC          E(Eh)            E(eV)
   0   2.0000    -102.156401     -2779.8170
   1   2.0000    -102.075779     -2777.6232
   2   2.0000    -102.062314     -2777.2568
   3   2.0000     -14.593890      -397.1199
   4   2.0000     -10.405700      -283.1535
   5   2.0000     -10.401995      -283.0527
   6   2.0000     -10.389633      -282.7163
   7   2.0000     -10.381405      -282.4924
   8   2.0000     -10.375591      -282.3342
   9   2.0000     -10.371228      -282.2155
  10   2.0000     -10.370350      -282.1916
  11   2.0000     -10.367228      -282.1066
  12   2.0000     -10.358185      -281.8605
  13   2.0000     -10.356159      -281.8054
  14   2.0000     -10.349701      -281.6297
  15   2.0000     -10.345391      -281.5124
  16   2.0000     -10.342532      -281.4346
  17   2.0000      -9.628099      -261.9939
  18   2.0000      -9.539951      -259.5953
  19   2.0000      -9.525735      -259.2084
  20   2.0000      -7.315283      -199.0590
  21   2.0000      -7.307497      -198.8471
  22   2.0000      -7.307345      -198.8430
  23   2.0000      -7.225825      -196.6247
  24   2.0000      -7.220972      -196.4926
  25   2.0000      -7.220728      -196.4860
  26   2.0000      -7.211008      -196.2215
  27   2.0000      -7.207256      -196.1194
  28   2.0000      -7.206947      -196.1110
  29   2.0000      -3.511516       -95.5532
  30   2.0000      -2.158786       -58.7435
  31   2.0000      -2.151938       -58.5572
  32   2.0000      -2.122902       -57.7671
  33   2.0000      -0.983235       -26.7552
  34   2.0000      -0.876819       -23.8595
  35   2.0000      -0.841066       -22.8866
  36   2.0000      -0.806267       -21.9396
  37   2.0000      -0.801983       -21.8231
  38   2.0000      -0.774200       -21.0671
  39   2.0000      -0.733144       -19.9499
  40   2.0000      -0.712959       -19.4006
  41   2.0000      -0.668744       -18.1974
  42   2.0000      -0.649779       -17.6814
  43   2.0000      -0.642431       -17.4814
  44   2.0000      -0.633751       -17.2452
  45   2.0000      -0.604669       -16.4539
  46   2.0000      -0.568306       -15.4644
  47   2.0000      -0.525280       -14.2936
  48   2.0000      -0.510409       -13.8889
  49   2.0000      -0.490645       -13.3511
  50   2.0000      -0.456696       -12.4273
  51   2.0000      -0.453501       -12.3404
  52   2.0000      -0.425055       -11.5663
  53   2.0000      -0.408504       -11.1160
  54   2.0000      -0.402388       -10.9495
  55   2.0000      -0.399161       -10.8617
  56   2.0000      -0.395240       -10.7550
  57   2.0000      -0.379614       -10.3298
  58   2.0000      -0.369349       -10.0505
  59   2.0000      -0.349189        -9.5019
  60   2.0000      -0.336931        -9.1684
  61   2.0000      -0.333563        -9.0767
  62   2.0000      -0.311126        -8.4662
  63   2.0000      -0.298433        -8.1208
  64   2.0000      -0.286287        -7.7903
  65   2.0000      -0.258802        -7.0424
  66   2.0000      -0.253625        -6.9015
  67   2.0000      -0.246385        -6.7045
  68   2.0000      -0.243762        -6.6331
  69   2.0000      -0.242777        -6.6063
  70   2.0000      -0.233968        -6.3666
  71   2.0000      -0.215057        -5.8520
  72   2.0000      -0.207745        -5.6530
  73   2.0000      -0.204884        -5.5752
  74   2.0000      -0.176998        -4.8164
  75   2.0000      -0.173766        -4.7284
  76   2.0000      -0.164966        -4.4890
  77   2.0000      -0.150272        -4.0891
  78   2.0000      -0.144291        -3.9264
  79   2.0000      -0.136552        -3.7158
  80   2.0000      -0.132303        -3.6002
  81   2.0000      -0.121765        -3.3134
  82   0.0000       0.048758         1.3268
  83   0.0000       0.071335         1.9411
  84   0.0000       0.098712         2.6861
  85   0.0000       0.110922         3.0184
  86   0.0000       0.145380         3.9560

MULLIKEN ATOMIC CHARGES
-----------------------
   0 Pd:    0.183011
   1 Cl:   -0.386186
   2 Cl:   -0.332885
   3 Cl:   -0.465345
   4 N :   -0.575602
   5 C :    0.043706
   6 C :   -0.335846
   7 C :   -0.159509
   8 C :    0.395897
   9 C :    0.049458
  10 H :    0.208443
  11 H :    0.282586
  12 H :    0.218802
  13 C :   -0.012987
  14 C :   -0.304394
  15 C :   -0.286771
  16 C :    0.152804
  17 H :    0.192326
  18 H :    0.194225
  19 C :   -0.107219
  20 C :   -0.330247
  21 C :   -0.371225
  22 C :   -0.182985
  23 H :    0.186533
  24 H :    0.193536
  25 H :    0.333493
  26 H :    0.216381
Sum of atomic charges:   -1.0000000

LOEWDIN ATOMIC CHARGES
----------------------
   0 Pd:   -0.786493
   1 Cl:   -0.118570
   2 Cl:   -0.170207
   3 Cl:   -0.240277
   4 N :    0.039566
   5 C :    0.006262
   6 C :   -0.172514
   7 C :   -0.089400
   8 C :    0.092051
   9 C :   -0.059125
  10 H :    0.133672
  11 H :    0.166893
  12 H :    0.139952
  13 C :   -0.027936
  14 C :   -0.145203
  15 C :   -0.118242
  16 C :   -0.037465
  17 H :    0.128853
  18 H :    0.130029
  19 C :   -0.028895
  20 C :   -0.159694
  21 C :   -0.140962
  22 C :   -0.132668
  23 H :    0.122903
  24 H :    0.126548
  25 H :    0.204101
  26 H :    0.136821

  Mayer bond orders larger than 0.100000
B(  0-Pd,  1-Cl) :   0.8597 B(  0-Pd,  3-Cl) :   0.7092 B(  0-Pd,  4-N ) :   0.4146
B(  0-Pd, 19-C ) :   0.7067 B(  2-Cl, 25-H ) :   0.8326 B(  4-N ,  5-C ) :   1.4818
B(  4-N ,  8-C ) :   1.1239 B(  5-C ,  6-C ) :   1.3114 B(  5-C , 11-H ) :   0.8777
B(  6-C ,  7-C ) :   1.4589 B(  6-C , 12-H ) :   0.9206 B(  7-C ,  9-C ) :   1.2746
B(  7-C , 10-H ) :   0.9295 B(  8-C ,  9-C ) :   1.2274 B(  8-C , 13-C ) :   1.1529
B(  9-C , 14-C ) :   1.1682 B( 13-C , 16-C ) :   1.2465 B( 13-C , 19-C ) :   1.2003
B( 14-C , 15-C ) :   1.6435 B( 14-C , 17-H ) :   0.9301 B( 15-C , 16-C ) :   1.1607
B( 15-C , 18-H ) :   0.9282 B( 16-C , 20-C ) :   1.2861 B( 19-C , 21-C ) :   1.4465
B( 20-C , 22-C ) :   1.4896 B( 20-C , 23-H ) :   0.9296 B( 21-C , 22-C ) :   1.3442
B( 21-C , 26-H ) :   0.9156 B( 22-C , 24-H ) :   0.9249

Dispersion correction           -0.023800081
FINAL SINGLE POINT ENERGY     -2061.492523407559
Dispersion correction            ... done

DIPOLE MOMENT
-------------
                                X             Y             Z
Electronic contribution:    -76.39756     -52.90743      18.30429
Nuclear contribution   :     79.90264      55.83237     -18.13611
                        -----------------------------------------
Total Dipole Moment    :      3.50508       2.92494       0.16819
                        -----------------------------------------
Magnitude (a.u.)       :      4.56828
Magnitude (Debye)      :     11.61164

Rotational constants in cm-1:     0.011225     0.007591     0.005437
Rotational constants in MHz :   336.506227   227.576889   163.010796

                             ****ORCA TERMINATED NORMALLY****
TOTAL RUN TIME: 0 days 0 hours 7 minutes 2 seconds 62 msec
