                         Program Version 5.0.3 -  RELEASE  -
|  1> ! EnGrad PBEh-3c
|  2> %output
|  3> xyzfile=True
|  4> end
|  5> %scf
|  6> maxiter 250
|  7> end
|  8> %output
|  9> Print[P_Hirshfeld] = 1
| 10> end
| 11> % maxcore
| 12> 4000
| 13> *xyz -1 1
| 14> Pd  -1.98320737  -1.53988151   0.46720827
| 15> Cl  -3.18077620  -3.31149064  -0.40171188
| 16> Cl  -0.26452938  -4.87370674   0.80202177
| 17> Cl  -4.08508679  -0.85912055   1.46992685
| 18> N   -1.02662025   0.04152728   1.38238560
| 19> C   -1.35481610   0.60281746   2.53562259
| 20> C   -0.82697203   1.83046371   2.95602357
| 21> C    0.09118203   2.46607488   2.15354435
| 22> C   -0.08497787   0.62034190   0.60301493
| 23> C    0.48588069   1.86063224   0.95484324
| 24> H    0.52279849   3.41168920   2.45123387
| 25> H   -2.06647250   0.07234628   3.14621745
| 26> H   -1.14951120   2.26913666   3.88981155
| 27> C    0.30989874  -0.08091123  -0.58133077
| 28> C    1.44273583   2.45659017   0.07652766
| 29> C    1.79789027   1.83668246  -1.07388499
| 30> C    1.26248058   0.55592453  -1.43442106
| 31> H    1.87497756   3.40894593   0.34098022
| 32> H    2.51779133   2.30417183  -1.73181046
| 33> C   -0.29991630  -1.35097492  -0.85584110
| 34> C    1.68105962  -0.09333673  -2.60221921
| 35> C    0.16571736  -1.92517693  -2.04987129
| 36> C    1.14272103  -1.33059795  -2.89811216
| 37> H    2.39421952   0.37576888  -3.26165493
| 38> H    1.48922814  -1.83428421  -3.80848997
| 39> H   -0.59116531  -4.05703374  -0.10815949
| 40> H   -0.26100576  -2.85442371  -2.41967117
| 41> *
| 42>
| 43>                          ****END OF INPUT****

CARTESIAN COORDINATES (ANGSTROEM)
---------------------------------
  Pd    -1.983207   -1.539882    0.467208
  Cl    -3.180776   -3.311491   -0.401712
  Cl    -0.264529   -4.873707    0.802022
  Cl    -4.085087   -0.859121    1.469927
  N     -1.026620    0.041527    1.382386
  C     -1.354816    0.602817    2.535623
  C     -0.826972    1.830464    2.956024
  C      0.091182    2.466075    2.153544
  C     -0.084978    0.620342    0.603015
  C      0.485881    1.860632    0.954843
  H      0.522798    3.411689    2.451234
  H     -2.066473    0.072346    3.146217
  H     -1.149511    2.269137    3.889812
  C      0.309899   -0.080911   -0.581331
  C      1.442736    2.456590    0.076528
  C      1.797890    1.836682   -1.073885
  C      1.262481    0.555925   -1.434421
  H      1.874978    3.408946    0.340980
  H      2.517791    2.304172   -1.731810
  C     -0.299916   -1.350975   -0.855841
  C      1.681060   -0.093337   -2.602219
  C      0.165717   -1.925177   -2.049871
  C      1.142721   -1.330598   -2.898112
  H      2.394220    0.375769   -3.261655
  H      1.489228   -1.834284   -3.808490
  H     -0.591165   -4.057034   -0.108159
  H     -0.261006   -2.854424   -2.419671

 Total Charge           Charge          ....   -1
 Multiplicity           Mult            ....    1
 Number of Electrons    NEL             ....  164
 Basis Dimension        Dim             ....  313

ORBITAL ENERGIES
----------------

  NO   OCC          E(Eh)            E(eV)
   0   2.0000    -102.158237     -2779.8669
   1   2.0000    -102.075831     -2777.6246
   2   2.0000    -102.063182     -2777.2804
   3   2.0000     -14.593072      -397.0977
   4   2.0000     -10.404982      -283.1339
   5   2.0000     -10.402741      -283.0730
   6   2.0000     -10.389760      -282.7197
   7   2.0000     -10.381840      -282.5042
   8   2.0000     -10.375752      -282.3386
   9   2.0000     -10.371660      -282.2272
  10   2.0000     -10.370802      -282.2039
  11   2.0000     -10.367854      -282.1237
  12   2.0000     -10.357003      -281.8284
  13   2.0000     -10.356488      -281.8144
  14   2.0000     -10.350618      -281.6546
  15   2.0000     -10.341941      -281.4185
  16   2.0000     -10.340492      -281.3791
  17   2.0000      -9.627937      -261.9895
  18   2.0000      -9.539968      -259.5957
  19   2.0000      -9.526671      -259.2339
  20   2.0000      -7.315214      -199.0571
  21   2.0000      -7.307476      -198.8465
  22   2.0000      -7.307333      -198.8426
  23   2.0000      -7.225825      -196.6247
  24   2.0000      -7.220994      -196.4932
  25   2.0000      -7.220767      -196.4871
  26   2.0000      -7.211952      -196.2472
  27   2.0000      -7.208177      -196.1445
  28   2.0000      -7.207871      -196.1361
  29   2.0000      -3.509982       -95.5115
  30   2.0000      -2.157317       -58.7036
  31   2.0000      -2.150326       -58.5133
  32   2.0000      -2.121451       -57.7276
  33   2.0000      -0.985487       -26.8165
  34   2.0000      -0.877148       -23.8684
  35   2.0000      -0.841792       -22.9063
  36   2.0000      -0.807453       -21.9719
  37   2.0000      -0.790144       -21.5009
  38   2.0000      -0.775036       -21.0898
  39   2.0000      -0.733645       -19.9635
  40   2.0000      -0.714988       -19.4558
  41   2.0000      -0.668726       -18.1969
  42   2.0000      -0.650912       -17.7122
  43   2.0000      -0.642735       -17.4897
  44   2.0000      -0.634577       -17.2677
  45   2.0000      -0.605747       -16.4832
  46   2.0000      -0.568467       -15.4688
  47   2.0000      -0.525108       -14.2889
  48   2.0000      -0.511254       -13.9119
  49   2.0000      -0.491129       -13.3643
  50   2.0000      -0.456512       -12.4223
  51   2.0000      -0.454349       -12.3635
  52   2.0000      -0.425624       -11.5818
  53   2.0000      -0.409110       -11.1324
  54   2.0000      -0.403016       -10.9666
  55   2.0000      -0.398692       -10.8490
  56   2.0000      -0.386846       -10.5266
  57   2.0000      -0.379316       -10.3217
  58   2.0000      -0.371253       -10.1023
  59   2.0000      -0.349669        -9.5150
  60   2.0000      -0.337054        -9.1717
  61   2.0000      -0.333937        -9.0869
  62   2.0000      -0.311018        -8.4632
  63   2.0000      -0.299119        -8.1394
  64   2.0000      -0.288211        -7.8426
  65   2.0000      -0.259596        -7.0640
  66   2.0000      -0.250990        -6.8298
  67   2.0000      -0.244629        -6.6567
  68   2.0000      -0.241587        -6.5739
  69   2.0000      -0.241116        -6.5611
  70   2.0000      -0.233369        -6.3503
  71   2.0000      -0.214690        -5.8420
  72   2.0000      -0.207553        -5.6478
  73   2.0000      -0.204383        -5.5615
  74   2.0000      -0.177427        -4.8280
  75   2.0000      -0.172914        -4.7052
  76   2.0000      -0.165160        -4.4942
  77   2.0000      -0.150472        -4.0945
  78   2.0000      -0.144044        -3.9196
  79   2.0000      -0.136755        -3.7213
  80   2.0000      -0.132602        -3.6083
  81   2.0000      -0.121675        -3.3109
  82   0.0000       0.049002         1.3334
  83   0.0000       0.071566         1.9474
  84   0.0000       0.098881         2.6907
  85   0.0000       0.110862         3.0167
  86   0.0000       0.145982         3.9724

MULLIKEN ATOMIC CHARGES
-----------------------
   0 Pd:    0.180400
   1 Cl:   -0.386903
   2 Cl:   -0.336097
   3 Cl:   -0.462269
   4 N :   -0.576142
   5 C :    0.042439
   6 C :   -0.336730
   7 C :   -0.156881
   8 C :    0.410460
   9 C :    0.039963
  10 H :    0.208883
  11 H :    0.283130
  12 H :    0.218789
  13 C :   -0.000475
  14 C :   -0.303649
  15 C :   -0.287168
  16 C :    0.135224
  17 H :    0.192239
  18 H :    0.193852
  19 C :   -0.105905
  20 C :   -0.324494
  21 C :   -0.367307
  22 C :   -0.190650
  23 H :    0.187616
  24 H :    0.191647
  25 H :    0.332016
  26 H :    0.218013
Sum of atomic charges:   -1.0000000

LOEWDIN ATOMIC CHARGES
----------------------
   0 Pd:   -0.791020
   1 Cl:   -0.119353
   2 Cl:   -0.186159
   3 Cl:   -0.232839
   4 N :    0.040902
   5 C :    0.006823
   6 C :   -0.171858
   7 C :   -0.090265
   8 C :    0.089392
   9 C :   -0.057606
  10 H :    0.133918
  11 H :    0.167582
  12 H :    0.139697
  13 C :   -0.029196
  14 C :   -0.144673
  15 C :   -0.118827
  16 C :   -0.034565
  17 H :    0.128720
  18 H :    0.129803
  19 C :   -0.032222
  20 C :   -0.160828
  21 C :   -0.141977
  22 C :   -0.129679
  23 H :    0.123549
  24 H :    0.125411
  25 H :    0.217486
  26 H :    0.137784

  Mayer bond orders larger than 0.100000
B(  0-Pd,  1-Cl) :   0.8570 B(  0-Pd,  3-Cl) :   0.7138 B(  0-Pd,  4-N ) :   0.4135
B(  0-Pd, 19-C ) :   0.6960 B(  2-Cl, 25-H ) :   0.8321 B(  4-N ,  5-C ) :   1.4782
B(  4-N ,  8-C ) :   1.1294 B(  5-C ,  6-C ) :   1.3126 B(  5-C , 11-H ) :   0.8774
B(  6-C ,  7-C ) :   1.4568 B(  6-C , 12-H ) :   0.9205 B(  7-C ,  9-C ) :   1.2780
B(  7-C , 10-H ) :   0.9293 B(  8-C ,  9-C ) :   1.2222 B(  8-C , 13-C ) :   1.1458
B(  9-C , 14-C ) :   1.1677 B( 13-C , 16-C ) :   1.2568 B( 13-C , 19-C ) :   1.2084
B( 14-C , 15-C ) :   1.6464 B( 14-C , 17-H ) :   0.9301 B( 15-C , 16-C ) :   1.1585
B( 15-C , 18-H ) :   0.9283 B( 16-C , 20-C ) :   1.2859 B( 19-C , 21-C ) :   1.4569
B( 20-C , 22-C ) :   1.4918 B( 20-C , 23-H ) :   0.9296 B( 21-C , 22-C ) :   1.3441
B( 21-C , 26-H ) :   0.9149 B( 22-C , 24-H ) :   0.9251

Dispersion correction           -0.023803237
FINAL SINGLE POINT ENERGY     -2061.498407105732
Dispersion correction            ... done

DIPOLE MOMENT
-------------
                                X             Y             Z
Electronic contribution:    -76.70625     -52.45465      18.13577
Nuclear contribution   :     80.19232      55.43311     -17.98164
                        -----------------------------------------
Total Dipole Moment    :      3.48607       2.97845       0.15413
                        -----------------------------------------
Magnitude (a.u.)       :      4.58777
Magnitude (Debye)      :     11.66118

Rotational constants in cm-1:     0.011210     0.007581     0.005444
Rotational constants in MHz :   336.065377   227.282054   163.221275

                             ****ORCA TERMINATED NORMALLY****
TOTAL RUN TIME: 0 days 0 hours 7 minutes 3 seconds 289 msec
