                         Program Version 5.0.3 -  RELEASE  -
|  1> ! EnGrad PBEh-3c
|  2> %output
|  3> xyzfile=True
|  4> end
|  5> %scf
|  6> maxiter 250
|  7> end
|  8> %output
|  9> Print[P_Hirshfeld] = 1
| 10> end
| 11> % maxcore
| 12> 4000
| 13> *xyz -1 1
| 14> Pd  -1.96789126  -1.51467858   0.41913132
| 15> Cl  -3.15534062  -3.30672730  -0.40875243
| 16> Cl  -0.28997609  -4.84013513   0.80879474
| 17> Cl  -4.06266011  -0.82451574   1.45062989
| 18> N   -1.01111830   0.03935516   1.37532730
| 19> C   -1.35042317   0.58715950   2.53197299
| 20> C   -0.81901574   1.81352231   2.95795884
| 21> C    0.08818770   2.45676944   2.15469888
| 22> C   -0.08094292   0.61394277   0.60287108
| 23> C    0.48392158   1.85329242   0.95496681
| 24> H    0.52030691   3.40703430   2.44730191
| 25> H   -2.07496914   0.06289568   3.14643209
| 26> H   -1.14476899   2.25254173   3.89162901
| 27> C    0.30086479  -0.08818227  -0.57424498
| 28> C    1.43643907   2.45441884   0.07277701
| 29> C    1.78951857   1.83453624  -1.07314581
| 30> C    1.25328959   0.54364528  -1.42379825
| 31> H    1.86717988   3.41280806   0.34146826
| 32> H    2.51036256   2.30721502  -1.73937403
| 33> C   -0.30008653  -1.34215799  -0.86855970
| 34> C    1.67492409  -0.09760968  -2.60297559
| 35> C    0.15450625  -1.93138470  -2.03715902
| 36> C    1.12961644  -1.33320074  -2.88132968
| 37> H    2.39642122   0.38497796  -3.26546540
| 38> H    1.48370655  -1.83170671  -3.80205137
| 39> H   -0.58192193  -4.04950548  -0.06548393
| 40> H   -0.24489366  -2.86031648  -2.41075128
| 41> *
| 42>
| 43>                          ****END OF INPUT****

CARTESIAN COORDINATES (ANGSTROEM)
---------------------------------
  Pd    -1.967891   -1.514679    0.419131
  Cl    -3.155341   -3.306727   -0.408752
  Cl    -0.289976   -4.840135    0.808795
  Cl    -4.062660   -0.824516    1.450630
  N     -1.011118    0.039355    1.375327
  C     -1.350423    0.587159    2.531973
  C     -0.819016    1.813522    2.957959
  C      0.088188    2.456769    2.154699
  C     -0.080943    0.613943    0.602871
  C      0.483922    1.853292    0.954967
  H      0.520307    3.407034    2.447302
  H     -2.074969    0.062896    3.146432
  H     -1.144769    2.252542    3.891629
  C      0.300865   -0.088182   -0.574245
  C      1.436439    2.454419    0.072777
  C      1.789519    1.834536   -1.073146
  C      1.253290    0.543645   -1.423798
  H      1.867180    3.412808    0.341468
  H      2.510363    2.307215   -1.739374
  C     -0.300087   -1.342158   -0.868560
  C      1.674924   -0.097610   -2.602976
  C      0.154506   -1.931385   -2.037159
  C      1.129616   -1.333201   -2.881330
  H      2.396421    0.384978   -3.265465
  H      1.483707   -1.831707   -3.802051
  H     -0.581922   -4.049505   -0.065484
  H     -0.244894   -2.860316   -2.410751

 Total Charge           Charge          ....   -1
 Multiplicity           Mult            ....    1
 Number of Electrons    NEL             ....  164
 Basis Dimension        Dim             ....  313

ORBITAL ENERGIES
----------------

  NO   OCC          E(Eh)            E(eV)
   0   2.0000    -102.155299     -2779.7870
   1   2.0000    -102.074187     -2777.5798
   2   2.0000    -102.060398     -2777.2046
   3   2.0000     -14.591070      -397.0432
   4   2.0000     -10.403204      -283.0856
   5   2.0000     -10.402928      -283.0781
   6   2.0000     -10.389251      -282.7059
   7   2.0000     -10.381196      -282.4867
   8   2.0000     -10.375226      -282.3243
   9   2.0000     -10.372108      -282.2394
  10   2.0000     -10.371075      -282.2113
  11   2.0000     -10.368219      -282.1336
  12   2.0000     -10.356444      -281.8132
  13   2.0000     -10.354968      -281.7730
  14   2.0000     -10.352013      -281.6926
  15   2.0000     -10.338774      -281.3323
  16   2.0000     -10.337928      -281.3093
  17   2.0000      -9.626797      -261.9585
  18   2.0000      -9.538388      -259.5527
  19   2.0000      -9.523891      -259.1582
  20   2.0000      -7.313977      -199.0234
  21   2.0000      -7.306221      -198.8124
  22   2.0000      -7.306064      -198.8081
  23   2.0000      -7.224213      -196.5808
  24   2.0000      -7.219435      -196.4508
  25   2.0000      -7.219200      -196.4444
  26   2.0000      -7.209074      -196.1689
  27   2.0000      -7.205459      -196.0705
  28   2.0000      -7.205152      -196.0622
  29   2.0000      -3.508628       -95.4746
  30   2.0000      -2.155719       -58.6601
  31   2.0000      -2.149386       -58.4878
  32   2.0000      -2.120238       -57.6946
  33   2.0000      -0.988738       -26.9049
  34   2.0000      -0.877911       -23.8892
  35   2.0000      -0.842959       -22.9381
  36   2.0000      -0.808876       -22.0106
  37   2.0000      -0.799502       -21.7556
  38   2.0000      -0.775772       -21.1098
  39   2.0000      -0.734344       -19.9825
  40   2.0000      -0.717153       -19.5147
  41   2.0000      -0.667370       -18.1601
  42   2.0000      -0.649135       -17.6639
  43   2.0000      -0.642419       -17.4811
  44   2.0000      -0.634887       -17.2762
  45   2.0000      -0.607059       -16.5189
  46   2.0000      -0.568301       -15.4643
  47   2.0000      -0.524647       -14.2764
  48   2.0000      -0.511711       -13.9244
  49   2.0000      -0.491375       -13.3710
  50   2.0000      -0.456769       -12.4293
  51   2.0000      -0.453370       -12.3368
  52   2.0000      -0.425602       -11.5812
  53   2.0000      -0.409583       -11.1453
  54   2.0000      -0.404743       -11.0136
  55   2.0000      -0.398990       -10.8571
  56   2.0000      -0.393563       -10.7094
  57   2.0000      -0.378887       -10.3100
  58   2.0000      -0.373266       -10.1571
  59   2.0000      -0.350622        -9.5409
  60   2.0000      -0.337491        -9.1836
  61   2.0000      -0.334505        -9.1023
  62   2.0000      -0.310541        -8.4502
  63   2.0000      -0.300325        -8.1723
  64   2.0000      -0.289202        -7.8696
  65   2.0000      -0.260646        -7.0925
  66   2.0000      -0.251142        -6.8339
  67   2.0000      -0.245125        -6.6702
  68   2.0000      -0.242425        -6.5967
  69   2.0000      -0.242094        -6.5877
  70   2.0000      -0.233893        -6.3646
  71   2.0000      -0.214538        -5.8379
  72   2.0000      -0.205774        -5.5994
  73   2.0000      -0.201506        -5.4833
  74   2.0000      -0.177960        -4.8425
  75   2.0000      -0.172153        -4.6845
  76   2.0000      -0.164568        -4.4781
  77   2.0000      -0.149725        -4.0742
  78   2.0000      -0.142014        -3.8644
  79   2.0000      -0.135470        -3.6863
  80   2.0000      -0.130751        -3.5579
  81   2.0000      -0.120390        -3.2760
  82   0.0000       0.050112         1.3636
  83   0.0000       0.072617         1.9760
  84   0.0000       0.102005         2.7757
  85   0.0000       0.111489         3.0338
  86   0.0000       0.147287         4.0079

MULLIKEN ATOMIC CHARGES
-----------------------
   0 Pd:    0.175584
   1 Cl:   -0.390161
   2 Cl:   -0.334753
   3 Cl:   -0.469317
   4 N :   -0.575101
   5 C :    0.039852
   6 C :   -0.339204
   7 C :   -0.153653
   8 C :    0.425547
   9 C :    0.035553
  10 H :    0.208657
  11 H :    0.284048
  12 H :    0.218431
  13 C :    0.028246
  14 C :   -0.304398
  15 C :   -0.287230
  16 C :    0.108351
  17 H :    0.191608
  18 H :    0.193251
  19 C :   -0.109969
  20 C :   -0.316609
  21 C :   -0.357387
  22 C :   -0.202287
  23 H :    0.188258
  24 H :    0.188721
  25 H :    0.333559
  26 H :    0.220402
Sum of atomic charges:   -1.0000000

LOEWDIN ATOMIC CHARGES
----------------------
   0 Pd:   -0.793874
   1 Cl:   -0.120062
   2 Cl:   -0.173758
   3 Cl:   -0.242377
   4 N :    0.043161
   5 C :    0.007240
   6 C :   -0.171165
   7 C :   -0.091114
   8 C :    0.086238
   9 C :   -0.056634
  10 H :    0.133922
  11 H :    0.168681
  12 H :    0.139346
  13 C :   -0.028772
  14 C :   -0.143742
  15 C :   -0.119499
  16 C :   -0.030987
  17 H :    0.128329
  18 H :    0.129635
  19 C :   -0.028363
  20 C :   -0.162211
  21 C :   -0.140835
  22 C :   -0.126465
  23 H :    0.124111
  24 H :    0.123841
  25 H :    0.205434
  26 H :    0.139921

  Mayer bond orders larger than 0.100000
B(  0-Pd,  1-Cl) :   0.8562 B(  0-Pd,  3-Cl) :   0.6998 B(  0-Pd,  4-N ) :   0.4129
B(  0-Pd, 19-C ) :   0.7240 B(  2-Cl, 25-H ) :   0.8312 B(  4-N ,  5-C ) :   1.4766
B(  4-N ,  8-C ) :   1.1350 B(  5-C ,  6-C ) :   1.3111 B(  5-C , 11-H ) :   0.8756
B(  6-C ,  7-C ) :   1.4547 B(  6-C , 12-H ) :   0.9206 B(  7-C ,  9-C ) :   1.2818
B(  7-C , 10-H ) :   0.9292 B(  8-C ,  9-C ) :   1.2162 B(  8-C , 13-C ) :   1.1355
B(  9-C , 14-C ) :   1.1667 B( 13-C , 16-C ) :   1.2714 B( 13-C , 19-C ) :   1.1984
B( 14-C , 15-C ) :   1.6488 B( 14-C , 17-H ) :   0.9301 B( 15-C , 16-C ) :   1.1555
B( 15-C , 18-H ) :   0.9285 B( 16-C , 20-C ) :   1.2820 B( 19-C , 21-C ) :   1.4640
B( 20-C , 22-C ) :   1.4965 B( 20-C , 23-H ) :   0.9296 B( 21-C , 22-C ) :   1.3418
B( 21-C , 26-H ) :   0.9146 B( 22-C , 24-H ) :   0.9256

Dispersion correction           -0.023887563
FINAL SINGLE POINT ENERGY     -2061.497225406126
Dispersion correction            ... done

DIPOLE MOMENT
-------------
                                X             Y             Z
Electronic contribution:    -75.92715     -51.37429      15.73669
Nuclear contribution   :     79.46442      54.31891     -15.58944
                        -----------------------------------------
Total Dipole Moment    :      3.53727       2.94461       0.14725
                        -----------------------------------------
Magnitude (a.u.)       :      4.60486
Magnitude (Debye)      :     11.70461

Rotational constants in cm-1:     0.011319     0.007667     0.005511
Rotational constants in MHz :   339.329243   229.855829   165.225018

                             ****ORCA TERMINATED NORMALLY****
TOTAL RUN TIME: 0 days 0 hours 7 minutes 50 seconds 2 msec
