                         Program Version 5.0.3 -  RELEASE  -
|  1> ! EnGrad PBEh-3c
|  2> %output
|  3> xyzfile=True
|  4> end
|  5> %scf
|  6> maxiter 250
|  7> end
|  8> %output
|  9> Print[P_Hirshfeld] = 1
| 10> end
| 11> % maxcore
| 12> 4000
| 13> *xyz -1 1
| 14> Pd  -1.97215732  -1.49719076   0.40458869
| 15> Cl  -3.14509259  -3.30534911  -0.41661717
| 16> Cl  -0.29060769  -4.85330490   0.85763272
| 17> Cl  -4.04173743  -0.79959474   1.42910889
| 18> N   -1.00600940   0.03378361   1.37643916
| 19> C   -1.34851588   0.57911259   2.53015272
| 20> C   -0.81536080   1.79999546   2.95960812
| 21> C    0.08809492   2.44846564   2.15490176
| 22> C   -0.07561590   0.61369103   0.60246130
| 23> C    0.48561186   1.85076872   0.95431028
| 24> H    0.51749320   3.40328352   2.44526453
| 25> H   -2.07690524   0.05461304   3.14387266
| 26> H   -1.14093099   2.23977383   3.89355320
| 27> C    0.30364291  -0.08711277  -0.57933312
| 28> C    1.43041208   2.45369475   0.07281491
| 29> C    1.78332928   1.82916680  -1.07510091
| 30> C    1.24980466   0.53921760  -1.41813483
| 31> H    1.86043374   3.41449206   0.34093249
| 32> H    2.50204898   2.30780932  -1.74311747
| 33> C   -0.29670976  -1.33620884  -0.87376295
| 34> C    1.66572688  -0.10088922  -2.59957155
| 35> C    0.15775240  -1.93439755  -2.04239590
| 36> C    1.12740038  -1.33730294  -2.87686626
| 37> H    2.39372496   0.38852577  -3.26601942
| 38> H    1.47622727  -1.82832925  -3.79078324
| 39> H   -0.58981569  -4.00355452  -0.07694198
| 40> H   -0.23616906  -2.86787908  -2.40414290
| 41> *
| 42>
| 43>                          ****END OF INPUT****

CARTESIAN COORDINATES (ANGSTROEM)
---------------------------------
  Pd    -1.972157   -1.497191    0.404589
  Cl    -3.145093   -3.305349   -0.416617
  Cl    -0.290608   -4.853305    0.857633
  Cl    -4.041737   -0.799595    1.429109
  N     -1.006009    0.033784    1.376439
  C     -1.348516    0.579113    2.530153
  C     -0.815361    1.799995    2.959608
  C      0.088095    2.448466    2.154902
  C     -0.075616    0.613691    0.602461
  C      0.485612    1.850769    0.954310
  H      0.517493    3.403284    2.445265
  H     -2.076905    0.054613    3.143873
  H     -1.140931    2.239774    3.893553
  C      0.303643   -0.087113   -0.579333
  C      1.430412    2.453695    0.072815
  C      1.783329    1.829167   -1.075101
  C      1.249805    0.539218   -1.418135
  H      1.860434    3.414492    0.340932
  H      2.502049    2.307809   -1.743117
  C     -0.296710   -1.336209   -0.873763
  C      1.665727   -0.100889   -2.599572
  C      0.157752   -1.934398   -2.042396
  C      1.127400   -1.337303   -2.876866
  H      2.393725    0.388526   -3.266019
  H      1.476227   -1.828329   -3.790783
  H     -0.589816   -4.003555   -0.076942
  H     -0.236169   -2.867879   -2.404143

 Total Charge           Charge          ....   -1
 Multiplicity           Mult            ....    1
 Number of Electrons    NEL             ....  164
 Basis Dimension        Dim             ....  313

ORBITAL ENERGIES
----------------

  NO   OCC          E(Eh)            E(eV)
   0   2.0000    -102.157411     -2779.8445
   1   2.0000    -102.074710     -2777.5941
   2   2.0000    -102.062502     -2777.2619
   3   2.0000     -14.591140      -397.0451
   4   2.0000     -10.403058      -283.0816
   5   2.0000     -10.402960      -283.0789
   6   2.0000     -10.389476      -282.7120
   7   2.0000     -10.380522      -282.4684
   8   2.0000     -10.375112      -282.3212
   9   2.0000     -10.372536      -282.2511
  10   2.0000     -10.371395      -282.2200
  11   2.0000     -10.366651      -282.0909
  12   2.0000     -10.354058      -281.7482
  13   2.0000     -10.353632      -281.7366
  14   2.0000     -10.352106      -281.6951
  15   2.0000     -10.338337      -281.3205
  16   2.0000     -10.337270      -281.2914
  17   2.0000      -9.626169      -261.9414
  18   2.0000      -9.538865      -259.5657
  19   2.0000      -9.526155      -259.2198
  20   2.0000      -7.313504      -199.0106
  21   2.0000      -7.305770      -198.8001
  22   2.0000      -7.305622      -198.7961
  23   2.0000      -7.224659      -196.5930
  24   2.0000      -7.219922      -196.4641
  25   2.0000      -7.219710      -196.4583
  26   2.0000      -7.211342      -196.2306
  27   2.0000      -7.207704      -196.1316
  28   2.0000      -7.207388      -196.1230
  29   2.0000      -3.508975       -95.4841
  30   2.0000      -2.155955       -58.6665
  31   2.0000      -2.149958       -58.5033
  32   2.0000      -2.120567       -57.7036
  33   2.0000      -0.989081       -26.9143
  34   2.0000      -0.879989       -23.9457
  35   2.0000      -0.843977       -22.9658
  36   2.0000      -0.809633       -22.0312
  37   2.0000      -0.782659       -21.2972
  38   2.0000      -0.775823       -21.1112
  39   2.0000      -0.736698       -20.0466
  40   2.0000      -0.716489       -19.4967
  41   2.0000      -0.667902       -18.1745
  42   2.0000      -0.651716       -17.7341
  43   2.0000      -0.642773       -17.4907
  44   2.0000      -0.635912       -17.3041
  45   2.0000      -0.607785       -16.5387
  46   2.0000      -0.569233       -15.4896
  47   2.0000      -0.525029       -14.2868
  48   2.0000      -0.512107       -13.9351
  49   2.0000      -0.491705       -13.3800
  50   2.0000      -0.456475       -12.4213
  51   2.0000      -0.454035       -12.3549
  52   2.0000      -0.425641       -11.5823
  53   2.0000      -0.409613       -11.1461
  54   2.0000      -0.405551       -11.0356
  55   2.0000      -0.399399       -10.8682
  56   2.0000      -0.380937       -10.3658
  57   2.0000      -0.379074       -10.3151
  58   2.0000      -0.373287       -10.1576
  59   2.0000      -0.350467        -9.5367
  60   2.0000      -0.338806        -9.2194
  61   2.0000      -0.335294        -9.1238
  62   2.0000      -0.310797        -8.4572
  63   2.0000      -0.300835        -8.1861
  64   2.0000      -0.289165        -7.8686
  65   2.0000      -0.261129        -7.1057
  66   2.0000      -0.252797        -6.8789
  67   2.0000      -0.244381        -6.6499
  68   2.0000      -0.240031        -6.5316
  69   2.0000      -0.238968        -6.5027
  70   2.0000      -0.233793        -6.3618
  71   2.0000      -0.215409        -5.8616
  72   2.0000      -0.206962        -5.6317
  73   2.0000      -0.200842        -5.4652
  74   2.0000      -0.179795        -4.8925
  75   2.0000      -0.173168        -4.7121
  76   2.0000      -0.164936        -4.4882
  77   2.0000      -0.149748        -4.0748
  78   2.0000      -0.142469        -3.8768
  79   2.0000      -0.136268        -3.7080
  80   2.0000      -0.131725        -3.5844
  81   2.0000      -0.121351        -3.3021
  82   0.0000       0.050081         1.3628
  83   0.0000       0.072567         1.9746
  84   0.0000       0.102648         2.7932
  85   0.0000       0.112273         3.0551
  86   0.0000       0.147028         4.0008

MULLIKEN ATOMIC CHARGES
-----------------------
   0 Pd:    0.177122
   1 Cl:   -0.391228
   2 Cl:   -0.339040
   3 Cl:   -0.462926
   4 N :   -0.575477
   5 C :    0.040686
   6 C :   -0.338924
   7 C :   -0.155763
   8 C :    0.419187
   9 C :    0.044442
  10 H :    0.208317
  11 H :    0.283677
  12 H :    0.218295
  13 C :    0.038375
  14 C :   -0.307833
  15 C :   -0.291273
  16 C :    0.114316
  17 H :    0.191787
  18 H :    0.193343
  19 C :   -0.116754
  20 C :   -0.322722
  21 C :   -0.355776
  22 C :   -0.198948
  23 H :    0.186483
  24 H :    0.189792
  25 H :    0.330432
  26 H :    0.220409
Sum of atomic charges:   -1.0000000

LOEWDIN ATOMIC CHARGES
----------------------
   0 Pd:   -0.802940
   1 Cl:   -0.121426
   2 Cl:   -0.196591
   3 Cl:   -0.228659
   4 N :    0.043441
   5 C :    0.006308
   6 C :   -0.170948
   7 C :   -0.090276
   8 C :    0.088730
   9 C :   -0.058042
  10 H :    0.133798
  11 H :    0.168749
  12 H :    0.139387
  13 C :   -0.029937
  14 C :   -0.143574
  15 C :   -0.117993
  16 C :   -0.032530
  17 H :    0.128371
  18 H :    0.129776
  19 C :   -0.028715
  20 C :   -0.160401
  21 C :   -0.141009
  22 C :   -0.127421
  23 H :    0.123523
  24 H :    0.124142
  25 H :    0.224297
  26 H :    0.139940

  Mayer bond orders larger than 0.100000
B(  0-Pd,  1-Cl) :   0.8503 B(  0-Pd,  3-Cl) :   0.7081 B(  0-Pd,  4-N ) :   0.4149
B(  0-Pd, 19-C ) :   0.7216 B(  2-Cl, 25-H ) :   0.8299 B(  4-N ,  5-C ) :   1.4775
B(  4-N ,  8-C ) :   1.1329 B(  5-C ,  6-C ) :   1.3095 B(  5-C , 11-H ) :   0.8758
B(  6-C ,  7-C ) :   1.4563 B(  6-C , 12-H ) :   0.9207 B(  7-C ,  9-C ) :   1.2799
B(  7-C , 10-H ) :   0.9294 B(  8-C ,  9-C ) :   1.2193 B(  8-C , 13-C ) :   1.1343
B(  9-C , 14-C ) :   1.1657 B( 13-C , 16-C ) :   1.2718 B( 13-C , 19-C ) :   1.2028
B( 14-C , 15-C ) :   1.6495 B( 14-C , 17-H ) :   0.9302 B( 15-C , 16-C ) :   1.1528
B( 15-C , 18-H ) :   0.9290 B( 16-C , 20-C ) :   1.2790 B( 19-C , 21-C ) :   1.4606
B( 20-C , 22-C ) :   1.4960 B( 20-C , 23-H ) :   0.9307 B( 21-C , 22-C ) :   1.3481
B( 21-C , 26-H ) :   0.9147 B( 22-C , 24-H ) :   0.9251

Dispersion correction           -0.023909951
FINAL SINGLE POINT ENERGY     -2061.501760926463
Dispersion correction            ... done

DIPOLE MOMENT
-------------
                                X             Y             Z
Electronic contribution:    -76.30207     -50.42686      14.93981
Nuclear contribution   :     79.77990      53.43179     -14.79333
                        -----------------------------------------
Total Dipole Moment    :      3.47783       3.00493       0.14648
                        -----------------------------------------
Magnitude (a.u.)       :      4.59852
Magnitude (Debye)      :     11.68851

Rotational constants in cm-1:     0.011313     0.007669     0.005542
Rotational constants in MHz :   339.162073   229.899592   166.132273

                             ****ORCA TERMINATED NORMALLY****
TOTAL RUN TIME: 0 days 0 hours 7 minutes 35 seconds 327 msec
