                         Program Version 5.0.3 -  RELEASE  -
|  1> ! EnGrad PBEh-3c
|  2> %output
|  3> xyzfile=True
|  4> end
|  5> %scf
|  6> maxiter 250
|  7> end
|  8> %output
|  9> Print[P_Hirshfeld] = 1
| 10> end
| 11> % maxcore
| 12> 4000
| 13> *xyz -1 1
| 14> Pd  -1.96677198  -1.47014063   0.36704784
| 15> Cl  -3.12267353  -3.30090809  -0.43023610
| 16> Cl  -0.30897983  -4.83632758   0.89726799
| 17> Cl  -4.01152491  -0.75565961   1.39743694
| 18> N   -1.00184852   0.02235056   1.37562359
| 19> C   -1.34613938   0.56214793   2.53251781
| 20> C   -0.80816396   1.77981061   2.96240353
| 21> C    0.08793177   2.43580087   2.15652168
| 22> C   -0.06826802   0.61025828   0.60339050
| 23> C    0.48861045   1.84865965   0.95455998
| 24> H    0.51207195   3.39482709   2.44116573
| 25> H   -2.07892243   0.04272579   3.13635672
| 26> H   -1.13447474   2.21726396   3.89674250
| 27> C    0.30815389  -0.08531540  -0.58309933
| 28> C    1.42385767   2.45307027   0.06841452
| 29> C    1.77448546   1.82618007  -1.07504825
| 30> C    1.25225291   0.53785651  -1.41960672
| 31> H    1.84789089   3.41539106   0.33930643
| 32> H    2.48589918   2.30643568  -1.74846086
| 33> C   -0.30868385  -1.33545363  -0.87197513
| 34> C    1.65754931  -0.10145073  -2.59571112
| 35> C    0.16140526  -1.93732011  -2.04363498
| 36> C    1.12728511  -1.33860741  -2.87474397
| 37> H    2.38321752   0.39049602  -3.26154609
| 38> H    1.46554112  -1.82614850  -3.77697701
| 39> H   -0.58828833  -3.96378357  -0.05113195
| 40> H   -0.22358153  -2.88472450  -2.39357355
| 41> *
| 42>
| 43>                          ****END OF INPUT****

CARTESIAN COORDINATES (ANGSTROEM)
---------------------------------
  Pd    -1.966772   -1.470141    0.367048
  Cl    -3.122674   -3.300908   -0.430236
  Cl    -0.308980   -4.836328    0.897268
  Cl    -4.011525   -0.755660    1.397437
  N     -1.001849    0.022351    1.375624
  C     -1.346139    0.562148    2.532518
  C     -0.808164    1.779811    2.962404
  C      0.087932    2.435801    2.156522
  C     -0.068268    0.610258    0.603390
  C      0.488610    1.848660    0.954560
  H      0.512072    3.394827    2.441166
  H     -2.078922    0.042726    3.136357
  H     -1.134475    2.217264    3.896742
  C      0.308154   -0.085315   -0.583099
  C      1.423858    2.453070    0.068415
  C      1.774485    1.826180   -1.075048
  C      1.252253    0.537857   -1.419607
  H      1.847891    3.415391    0.339306
  H      2.485899    2.306436   -1.748461
  C     -0.308684   -1.335454   -0.871975
  C      1.657549   -0.101451   -2.595711
  C      0.161405   -1.937320   -2.043635
  C      1.127285   -1.338607   -2.874744
  H      2.383218    0.390496   -3.261546
  H      1.465541   -1.826148   -3.776977
  H     -0.588288   -3.963784   -0.051132
  H     -0.223582   -2.884724   -2.393574

 Total Charge           Charge          ....   -1
 Multiplicity           Mult            ....    1
 Number of Electrons    NEL             ....  164
 Basis Dimension        Dim             ....  313

ORBITAL ENERGIES
----------------

  NO   OCC          E(Eh)            E(eV)
   0   2.0000    -102.156815     -2779.8283
   1   2.0000    -102.074484     -2777.5879
   2   2.0000    -102.063163     -2777.2799
   3   2.0000     -14.590992      -397.0411
   4   2.0000     -10.402618      -283.0696
   5   2.0000     -10.402370      -283.0629
   6   2.0000     -10.388765      -282.6927
   7   2.0000     -10.379379      -282.4373
   8   2.0000     -10.374502      -282.3046
   9   2.0000     -10.371621      -282.2262
  10   2.0000     -10.370640      -282.1995
  11   2.0000     -10.364855      -282.0420
  12   2.0000     -10.353036      -281.7204
  13   2.0000     -10.351985      -281.6918
  14   2.0000     -10.350610      -281.6544
  15   2.0000     -10.339854      -281.3617
  16   2.0000     -10.337914      -281.3090
  17   2.0000      -9.625023      -261.9102
  18   2.0000      -9.538637      -259.5595
  19   2.0000      -9.526975      -259.2422
  20   2.0000      -7.312396      -198.9804
  21   2.0000      -7.304657      -198.7698
  22   2.0000      -7.304506      -198.7657
  23   2.0000      -7.224394      -196.5857
  24   2.0000      -7.219713      -196.4584
  25   2.0000      -7.219510      -196.4529
  26   2.0000      -7.212111      -196.2515
  27   2.0000      -7.208545      -196.1545
  28   2.0000      -7.208212      -196.1454
  29   2.0000      -3.510427       -95.5236
  30   2.0000      -2.157092       -58.6974
  31   2.0000      -2.152012       -58.5592
  32   2.0000      -2.122021       -57.7431
  33   2.0000      -0.987778       -26.8788
  34   2.0000      -0.881216       -23.9791
  35   2.0000      -0.844263       -22.9736
  36   2.0000      -0.809755       -22.0346
  37   2.0000      -0.778231       -21.1767
  38   2.0000      -0.776114       -21.1191
  39   2.0000      -0.737411       -20.0660
  40   2.0000      -0.716233       -19.4897
  41   2.0000      -0.667907       -18.1747
  42   2.0000      -0.653349       -17.7785
  43   2.0000      -0.642977       -17.4963
  44   2.0000      -0.636074       -17.3084
  45   2.0000      -0.607761       -16.5380
  46   2.0000      -0.570139       -15.5143
  47   2.0000      -0.525491       -14.2993
  48   2.0000      -0.512555       -13.9473
  49   2.0000      -0.491771       -13.3818
  50   2.0000      -0.455885       -12.4053
  51   2.0000      -0.454928       -12.3792
  52   2.0000      -0.425691       -11.5836
  53   2.0000      -0.409801       -11.1513
  54   2.0000      -0.405499       -11.0342
  55   2.0000      -0.399795       -10.8790
  56   2.0000      -0.380635       -10.3576
  57   2.0000      -0.376566       -10.2469
  58   2.0000      -0.373098       -10.1525
  59   2.0000      -0.350372        -9.5341
  60   2.0000      -0.339652        -9.2424
  61   2.0000      -0.335324        -9.1246
  62   2.0000      -0.311727        -8.4825
  63   2.0000      -0.301221        -8.1966
  64   2.0000      -0.289233        -7.8704
  65   2.0000      -0.261439        -7.1141
  66   2.0000      -0.257525        -7.0076
  67   2.0000      -0.245652        -6.6845
  68   2.0000      -0.238913        -6.5012
  69   2.0000      -0.238300        -6.4845
  70   2.0000      -0.234363        -6.3773
  71   2.0000      -0.216865        -5.9012
  72   2.0000      -0.207994        -5.6598
  73   2.0000      -0.198808        -5.4098
  74   2.0000      -0.180277        -4.9056
  75   2.0000      -0.175091        -4.7645
  76   2.0000      -0.165265        -4.4971
  77   2.0000      -0.149774        -4.0755
  78   2.0000      -0.142432        -3.8758
  79   2.0000      -0.136512        -3.7147
  80   2.0000      -0.131916        -3.5896
  81   2.0000      -0.122264        -3.3270
  82   0.0000       0.050227         1.3668
  83   0.0000       0.072639         1.9766
  84   0.0000       0.104839         2.8528
  85   0.0000       0.113628         3.0920
  86   0.0000       0.147102         4.0028

MULLIKEN ATOMIC CHARGES
-----------------------
   0 Pd:    0.180264
   1 Cl:   -0.394337
   2 Cl:   -0.340855
   3 Cl:   -0.460938
   4 N :   -0.577792
   5 C :    0.042492
   6 C :   -0.341077
   7 C :   -0.156513
   8 C :    0.414816
   9 C :    0.051133
  10 H :    0.207483
  11 H :    0.284145
  12 H :    0.217580
  13 C :    0.027618
  14 C :   -0.305018
  15 C :   -0.295655
  16 C :    0.135600
  17 H :    0.191622
  18 H :    0.192579
  19 C :   -0.119193
  20 C :   -0.330294
  21 C :   -0.356363
  22 C :   -0.193023
  23 H :    0.184935
  24 H :    0.192170
  25 H :    0.329130
  26 H :    0.219493
Sum of atomic charges:   -1.0000000

LOEWDIN ATOMIC CHARGES
----------------------
   0 Pd:   -0.810589
   1 Cl:   -0.123527
   2 Cl:   -0.203149
   3 Cl:   -0.222064
   4 N :    0.042878
   5 C :    0.006183
   6 C :   -0.170950
   7 C :   -0.090114
   8 C :    0.090687
   9 C :   -0.059067
  10 H :    0.133466
  11 H :    0.168340
  12 H :    0.139226
  13 C :   -0.028546
  14 C :   -0.143270
  15 C :   -0.116726
  16 C :   -0.034690
  17 H :    0.128466
  18 H :    0.129571
  19 C :   -0.024802
  20 C :   -0.159273
  21 C :   -0.139882
  22 C :   -0.128670
  23 H :    0.122960
  24 H :    0.125082
  25 H :    0.228513
  26 H :    0.139947

  Mayer bond orders larger than 0.100000
B(  0-Pd,  1-Cl) :   0.8435 B(  0-Pd,  3-Cl) :   0.7080 B(  0-Pd,  4-N ) :   0.4191
B(  0-Pd, 19-C ) :   0.7442 B(  2-Cl, 25-H ) :   0.8282 B(  4-N ,  5-C ) :   1.4761
B(  4-N ,  8-C ) :   1.1273 B(  5-C ,  6-C ) :   1.3098 B(  5-C , 11-H ) :   0.8751
B(  6-C ,  7-C ) :   1.4563 B(  6-C , 12-H ) :   0.9211 B(  7-C ,  9-C ) :   1.2806
B(  7-C , 10-H ) :   0.9295 B(  8-C ,  9-C ) :   1.2239 B(  8-C , 13-C ) :   1.1392
B(  9-C , 14-C ) :   1.1650 B( 13-C , 16-C ) :   1.2705 B( 13-C , 19-C ) :   1.1971
B( 14-C , 15-C ) :   1.6502 B( 14-C , 17-H ) :   0.9301 B( 15-C , 16-C ) :   1.1516
B( 15-C , 18-H ) :   0.9293 B( 16-C , 20-C ) :   1.2799 B( 19-C , 21-C ) :   1.4503
B( 20-C , 22-C ) :   1.4924 B( 20-C , 23-H ) :   0.9312 B( 21-C , 22-C ) :   1.3539
B( 21-C , 26-H ) :   0.9149 B( 22-C , 24-H ) :   0.9246

Dispersion correction           -0.023982818
FINAL SINGLE POINT ENERGY     -2061.502999790188
Dispersion correction            ... done

DIPOLE MOMENT
-------------
                                X             Y             Z
Electronic contribution:    -76.17439     -49.20074      13.05799
Nuclear contribution   :     79.61779      52.20690     -12.90498
                        -----------------------------------------
Total Dipole Moment    :      3.44341       3.00616       0.15301
                        -----------------------------------------
Magnitude (a.u.)       :      4.57356
Magnitude (Debye)      :     11.62506

Rotational constants in cm-1:     0.011365     0.007716     0.005601
Rotational constants in MHz :   340.718077   231.326188   167.916539

                             ****ORCA TERMINATED NORMALLY****
TOTAL RUN TIME: 0 days 0 hours 7 minutes 38 seconds 876 msec
