                         Program Version 5.0.3 -  RELEASE  -
|  1> ! EnGrad PBEh-3c
|  2> %output
|  3> xyzfile=True
|  4> end
|  5> %scf
|  6> maxiter 250
|  7> end
|  8> %output
|  9> Print[P_Hirshfeld] = 1
| 10> end
| 11> % maxcore
| 12> 4000
| 13> *xyz -1 1
| 14> Pd  -1.96791033  -1.44282649   0.33135035
| 15> Cl  -3.09964985  -3.29471565  -0.45141005
| 16> Cl  -0.33262650  -4.80732098   0.94474171
| 17> Cl  -3.97497831  -0.69718512   1.35279342
| 18> N   -0.99698384   0.01053054   1.37367874
| 19> C   -1.33930548   0.54232447   2.53252480
| 20> C   -0.79973779   1.75528571   2.96624329
| 21> C    0.08893579   2.41954065   2.16070191
| 22> C   -0.06181398   0.60421748   0.60698093
| 23> C    0.49241090   1.84462662   0.95549280
| 24> H    0.50371924   3.38286055   2.43770432
| 25> H   -2.08073444   0.02428762   3.12628060
| 26> H   -1.12570229   2.18713994   3.90245173
| 27> C    0.31294372  -0.08659323  -0.58823484
| 28> C    1.41562289   2.45310994   0.06412165
| 29> C    1.76736094   1.82706081  -1.07726395
| 30> C    1.25617952   0.54190415  -1.42296420
| 31> H    1.83099907   3.41612549   0.33519984
| 32> H    2.46290897   2.30338919  -1.75449425
| 33> C   -0.31544051  -1.33515003  -0.87351047
| 34> C    1.65200575  -0.10223162  -2.59701823
| 35> C    0.16503548  -1.94331999  -2.04274479
| 36> C    1.12905456  -1.33319151  -2.86838261
| 37> H    2.36466758   0.38945026  -3.25332475
| 38> H    1.45576839  -1.83004447  -3.76910407
| 39> H   -0.58454147  -3.91347490  -0.00946171
| 40> H   -0.20825858  -2.90603722  -2.37934504
| 41> *
| 42>
| 43>                          ****END OF INPUT****

CARTESIAN COORDINATES (ANGSTROEM)
---------------------------------
  Pd    -1.967910   -1.442826    0.331350
  Cl    -3.099650   -3.294716   -0.451410
  Cl    -0.332626   -4.807321    0.944742
  Cl    -3.974978   -0.697185    1.352793
  N     -0.996984    0.010531    1.373679
  C     -1.339305    0.542324    2.532525
  C     -0.799738    1.755286    2.966243
  C      0.088936    2.419541    2.160702
  C     -0.061814    0.604217    0.606981
  C      0.492411    1.844627    0.955493
  H      0.503719    3.382861    2.437704
  H     -2.080734    0.024288    3.126281
  H     -1.125702    2.187140    3.902452
  C      0.312944   -0.086593   -0.588235
  C      1.415623    2.453110    0.064122
  C      1.767361    1.827061   -1.077264
  C      1.256180    0.541904   -1.422964
  H      1.830999    3.416125    0.335200
  H      2.462909    2.303389   -1.754494
  C     -0.315441   -1.335150   -0.873510
  C      1.652006   -0.102232   -2.597018
  C      0.165035   -1.943320   -2.042745
  C      1.129055   -1.333192   -2.868383
  H      2.364668    0.389450   -3.253325
  H      1.455768   -1.830044   -3.769104
  H     -0.584541   -3.913475   -0.009462
  H     -0.208259   -2.906037   -2.379345

 Total Charge           Charge          ....   -1
 Multiplicity           Mult            ....    1
 Number of Electrons    NEL             ....  164
 Basis Dimension        Dim             ....  313

ORBITAL ENERGIES
----------------

  NO   OCC          E(Eh)            E(eV)
   0   2.0000    -102.155743     -2779.7991
   1   2.0000    -102.074151     -2777.5788
   2   2.0000    -102.064798     -2777.3243
   3   2.0000     -14.590189      -397.0192
   4   2.0000     -10.401943      -283.0513
   5   2.0000     -10.401489      -283.0389
   6   2.0000     -10.387832      -282.6673
   7   2.0000     -10.378251      -282.4066
   8   2.0000     -10.373612      -282.2803
   9   2.0000     -10.370241      -282.1886
  10   2.0000     -10.369302      -282.1630
  11   2.0000     -10.363299      -281.9997
  12   2.0000     -10.352618      -281.7091
  13   2.0000     -10.350251      -281.6447
  14   2.0000     -10.347531      -281.5706
  15   2.0000     -10.339633      -281.3557
  16   2.0000     -10.338007      -281.3115
  17   2.0000      -9.623630      -261.8723
  18   2.0000      -9.538305      -259.5505
  19   2.0000      -9.528869      -259.2937
  20   2.0000      -7.311017      -198.9429
  21   2.0000      -7.303291      -198.7327
  22   2.0000      -7.303135      -198.7284
  23   2.0000      -7.224030      -196.5758
  24   2.0000      -7.219395      -196.4497
  25   2.0000      -7.219207      -196.4446
  26   2.0000      -7.213961      -196.3018
  27   2.0000      -7.210441      -196.2061
  28   2.0000      -7.210092      -196.1966
  29   2.0000      -3.511167       -95.5437
  30   2.0000      -2.157605       -58.7114
  31   2.0000      -2.153330       -58.5951
  32   2.0000      -2.122796       -57.7642
  33   2.0000      -0.987926       -26.8828
  34   2.0000      -0.881765       -23.9940
  35   2.0000      -0.844512       -22.9803
  36   2.0000      -0.809894       -22.0383
  37   2.0000      -0.776913       -21.1409
  38   2.0000      -0.774622       -21.0785
  39   2.0000      -0.737081       -20.0570
  40   2.0000      -0.716653       -19.5011
  41   2.0000      -0.668044       -18.1784
  42   2.0000      -0.656203       -17.8562
  43   2.0000      -0.643169       -17.5015
  44   2.0000      -0.635840       -17.3021
  45   2.0000      -0.608269       -16.5519
  46   2.0000      -0.570237       -15.5169
  47   2.0000      -0.525999       -14.3132
  48   2.0000      -0.513018       -13.9599
  49   2.0000      -0.492100       -13.3907
  50   2.0000      -0.455676       -12.3996
  51   2.0000      -0.455486       -12.3944
  52   2.0000      -0.426417       -11.6034
  53   2.0000      -0.409457       -11.1419
  54   2.0000      -0.405149       -11.0247
  55   2.0000      -0.399675       -10.8757
  56   2.0000      -0.380837       -10.3631
  57   2.0000      -0.374843       -10.2000
  58   2.0000      -0.372283       -10.1303
  59   2.0000      -0.350821        -9.5463
  60   2.0000      -0.340246        -9.2586
  61   2.0000      -0.335543        -9.1306
  62   2.0000      -0.312292        -8.4979
  63   2.0000      -0.301397        -8.2014
  64   2.0000      -0.288458        -7.8494
  65   2.0000      -0.262938        -7.1549
  66   2.0000      -0.260345        -7.0843
  67   2.0000      -0.246861        -6.7174
  68   2.0000      -0.238897        -6.5007
  69   2.0000      -0.237304        -6.4574
  70   2.0000      -0.233806        -6.3622
  71   2.0000      -0.218267        -5.9393
  72   2.0000      -0.209344        -5.6965
  73   2.0000      -0.196765        -5.3542
  74   2.0000      -0.180258        -4.9051
  75   2.0000      -0.176773        -4.8102
  76   2.0000      -0.165665        -4.5080
  77   2.0000      -0.149809        -4.0765
  78   2.0000      -0.142181        -3.8689
  79   2.0000      -0.137164        -3.7324
  80   2.0000      -0.132054        -3.5934
  81   2.0000      -0.122665        -3.3379
  82   0.0000       0.050433         1.3724
  83   0.0000       0.073670         2.0047
  84   0.0000       0.106486         2.8976
  85   0.0000       0.115219         3.1353
  86   0.0000       0.148050         4.0287

MULLIKEN ATOMIC CHARGES
-----------------------
   0 Pd:    0.181632
   1 Cl:   -0.397920
   2 Cl:   -0.342961
   3 Cl:   -0.455778
   4 N :   -0.576154
   5 C :    0.041823
   6 C :   -0.341356
   7 C :   -0.157389
   8 C :    0.406747
   9 C :    0.058846
  10 H :    0.206652
  11 H :    0.283762
  12 H :    0.216900
  13 C :    0.017023
  14 C :   -0.304058
  15 C :   -0.294588
  16 C :    0.143432
  17 H :    0.191148
  18 H :    0.192796
  19 C :   -0.122796
  20 C :   -0.325629
  21 C :   -0.353937
  22 C :   -0.192269
  23 H :    0.184785
  24 H :    0.190993
  25 H :    0.328571
  26 H :    0.219724
Sum of atomic charges:   -1.0000000

LOEWDIN ATOMIC CHARGES
----------------------
   0 Pd:   -0.823080
   1 Cl:   -0.125473
   2 Cl:   -0.208095
   3 Cl:   -0.207282
   4 N :    0.043059
   5 C :    0.005087
   6 C :   -0.171040
   7 C :   -0.089618
   8 C :    0.091808
   9 C :   -0.059970
  10 H :    0.133073
  11 H :    0.167961
  12 H :    0.139161
  13 C :   -0.026201
  14 C :   -0.142610
  15 C :   -0.116967
  16 C :   -0.035496
  17 H :    0.128474
  18 H :    0.129569
  19 C :   -0.024726
  20 C :   -0.159991
  21 C :   -0.139012
  22 C :   -0.128458
  23 H :    0.123062
  24 H :    0.124875
  25 H :    0.231496
  26 H :    0.140393

  Mayer bond orders larger than 0.100000
B(  0-Pd,  1-Cl) :   0.8375 B(  0-Pd,  3-Cl) :   0.7138 B(  0-Pd,  4-N ) :   0.4204
B(  0-Pd, 19-C ) :   0.7569 B(  2-Cl, 25-H ) :   0.8258 B(  3-Cl, 19-C ) :   0.1005
B(  4-N ,  5-C ) :   1.4775 B(  4-N ,  8-C ) :   1.1274 B(  5-C ,  6-C ) :   1.3093
B(  5-C , 11-H ) :   0.8747 B(  6-C ,  7-C ) :   1.4570 B(  6-C , 12-H ) :   0.9216
B(  7-C ,  9-C ) :   1.2817 B(  7-C , 10-H ) :   0.9297 B(  8-C ,  9-C ) :   1.2273
B(  8-C , 13-C ) :   1.1431 B(  9-C , 14-C ) :   1.1663 B( 13-C , 16-C ) :   1.2711
B( 13-C , 19-C ) :   1.1930 B( 14-C , 15-C ) :   1.6471 B( 14-C , 17-H ) :   0.9302
B( 15-C , 16-C ) :   1.1567 B( 15-C , 18-H ) :   0.9289 B( 16-C , 20-C ) :   1.2801
B( 19-C , 21-C ) :   1.4487 B( 20-C , 22-C ) :   1.4961 B( 20-C , 23-H ) :   0.9306
B( 21-C , 22-C ) :   1.3514 B( 21-C , 26-H ) :   0.9145 B( 22-C , 24-H ) :   0.9252

Dispersion correction           -0.024068211
FINAL SINGLE POINT ENERGY     -2061.502812786423
Dispersion correction            ... done

DIPOLE MOMENT
-------------
                                X             Y             Z
Electronic contribution:    -76.41651     -48.04847      11.33866
Nuclear contribution   :     79.80749      51.05370     -11.15408
                        -----------------------------------------
Total Dipole Moment    :      3.39098       3.00523       0.18458
                        -----------------------------------------
Magnitude (a.u.)       :      4.53478
Magnitude (Debye)      :     11.52649

Rotational constants in cm-1:     0.011424     0.007767     0.005671
Rotational constants in MHz :   342.494398   232.856542   170.008474

                             ****ORCA TERMINATED NORMALLY****
TOTAL RUN TIME: 0 days 0 hours 8 minutes 4 seconds 285 msec
