                         Program Version 5.0.3 -  RELEASE  -
|  1> ! EnGrad PBEh-3c
|  2> %output
|  3> xyzfile=True
|  4> end
|  5> %scf
|  6> maxiter 250
|  7> end
|  8> %output
|  9> Print[P_Hirshfeld] = 1
| 10> end
| 11> % maxcore
| 12> 4000
| 13> %pal nprocs 4
| 14> end
| 15> *xyz -1 1
| 16> C   -2.83860000  -0.33444000   0.83366000
| 17> C   -2.18519000   0.87771000   1.05464000
| 18> C   -4.00482000  -0.64320000   1.51734000
| 19> C   -4.54291000   0.25328000   2.43114000
| 20> C   -3.90471000   1.46388000   2.65415000
| 21> C   -2.73558000   1.76832000   1.97091000
| 22> H   -2.43278000  -1.03772000   0.11269000
| 23> H   -4.49697000  -1.58872000   1.32812000
| 24> H   -2.24170000   2.71717000   2.14915000
| 25> H   -5.45513000   0.01061000   2.96169000
| 26> H   -4.31820000   2.17396000   3.35984000
| 27> C   -0.88340000   1.17139000   0.36713000
| 28> C    0.29308000   0.55551000   1.14002000
| 29> H   -0.72742000   2.25024000   0.28467000
| 30> H   -0.89942000   0.78427000  -0.65276000
| 31> C    1.60731000   0.63149000   0.40868000
| 32> H    0.04409000  -0.48449000   1.37125000
| 33> H    0.37460000   1.05957000   2.10853000
| 34> C    1.90897000  -0.21973000  -0.66512000
| 35> C    3.14512000  -0.08200000  -1.29567000
| 36> C    4.06557000   0.87244000  -0.88155000
| 37> C    2.53604000   1.59262000   0.80614000
| 38> C    3.76217000   1.71850000   0.17337000
| 39> H    3.38622000  -0.71899000  -2.13789000
| 40> H    5.01872000   0.95534000  -1.39088000
| 41> H    2.29155000   2.25252000   1.63295000
| 42> H    4.47129000   2.46866000   0.50185000
| 43> Pd   0.60687000  -1.56558000  -1.35155000
| 44> Br  -1.19186000  -3.31182000  -1.91934000
| 45> P    0.98771000  -2.88746000   0.37932000
| 46> H   -0.06776000  -3.22452000   1.24259000
| 47> C    0.98774000  -0.67769000  -3.99442000
| 48> O    1.86654000  -1.52303000  -4.09651000
| 49> O    0.29493000  -0.36277000  -2.98149000
| 50> O    0.66216000   0.07339000  -5.08519000
| 51> H    1.94478000  -2.55293000   1.36117000
| 52> H    1.44544000  -4.18323000   0.09421000
| 53> H    1.22558000  -0.25254000  -5.79281000
| 54> *
| 55>
| 56>                          ****END OF INPUT****

CARTESIAN COORDINATES (ANGSTROEM)
---------------------------------
  C     -2.838600   -0.334440    0.833660
  C     -2.185190    0.877710    1.054640
  C     -4.004820   -0.643200    1.517340
  C     -4.542910    0.253280    2.431140
  C     -3.904710    1.463880    2.654150
  C     -2.735580    1.768320    1.970910
  H     -2.432780   -1.037720    0.112690
  H     -4.496970   -1.588720    1.328120
  H     -2.241700    2.717170    2.149150
  H     -5.455130    0.010610    2.961690
  H     -4.318200    2.173960    3.359840
  C     -0.883400    1.171390    0.367130
  C      0.293080    0.555510    1.140020
  H     -0.727420    2.250240    0.284670
  H     -0.899420    0.784270   -0.652760
  C      1.607310    0.631490    0.408680
  H      0.044090   -0.484490    1.371250
  H      0.374600    1.059570    2.108530
  C      1.908970   -0.219730   -0.665120
  C      3.145120   -0.082000   -1.295670
  C      4.065570    0.872440   -0.881550
  C      2.536040    1.592620    0.806140
  C      3.762170    1.718500    0.173370
  H      3.386220   -0.718990   -2.137890
  H      5.018720    0.955340   -1.390880
  H      2.291550    2.252520    1.632950
  H      4.471290    2.468660    0.501850
  Pd     0.606870   -1.565580   -1.351550
  Br    -1.191860   -3.311820   -1.919340
  P      0.987710   -2.887460    0.379320
  H     -0.067760   -3.224520    1.242590
  C      0.987740   -0.677690   -3.994420
  O      1.866540   -1.523030   -4.096510
  O      0.294930   -0.362770   -2.981490
  O      0.662160    0.073390   -5.085190
  H      1.944780   -2.552930    1.361170
  H      1.445440   -4.183230    0.094210
  H      1.225580   -0.252540   -5.792810

 Total Charge           Charge          ....   -1
 Multiplicity           Mult            ....    1
 Number of Electrons    NEL             ....  200
 Basis Dimension        Dim             ....  385

ORBITAL ENERGIES
----------------

  NO   OCC          E(Eh)            E(eV)
   0   2.0000    -484.317994    -13178.9626
   1   2.0000     -77.674592     -2113.6331
   2   2.0000     -62.979679     -1713.7642
   3   2.0000     -56.683302     -1542.4311
   4   2.0000     -56.682386     -1542.4061
   5   2.0000     -56.682283     -1542.4033
   6   2.0000     -19.377289      -527.2829
   7   2.0000     -19.332139      -526.0542
   8   2.0000     -19.301783      -525.2282
   9   2.0000     -10.442467      -284.1540
  10   2.0000     -10.361288      -281.9450
  11   2.0000     -10.359940      -281.9083
  12   2.0000     -10.358811      -281.8776
  13   2.0000     -10.356104      -281.8039
  14   2.0000     -10.355694      -281.7928
  15   2.0000     -10.346527      -281.5433
  16   2.0000     -10.338870      -281.3349
  17   2.0000     -10.336778      -281.2780
  18   2.0000     -10.335146      -281.2336
  19   2.0000     -10.334292      -281.2104
  20   2.0000     -10.333115      -281.1784
  21   2.0000     -10.331492      -281.1342
  22   2.0000     -10.330141      -281.0974
  23   2.0000     -10.319449      -280.8065
  24   2.0000      -8.807010      -239.6509
  25   2.0000      -6.749402      -183.6606
  26   2.0000      -6.576132      -178.9457
  27   2.0000      -6.571832      -178.8286
  28   2.0000      -6.571807      -178.8280
  29   2.0000      -4.840466      -131.7158
  30   2.0000      -4.840224      -131.7092
  31   2.0000      -4.838648      -131.6663
  32   2.0000      -3.520877       -95.8079
  33   2.0000      -2.590335       -70.4866
  34   2.0000      -2.589044       -70.4515
  35   2.0000      -2.588989       -70.4500
  36   2.0000      -2.585255       -70.3484
  37   2.0000      -2.585221       -70.3474
  38   2.0000      -2.167268       -58.9744
  39   2.0000      -2.163796       -58.8799
  40   2.0000      -2.134628       -58.0862
  41   2.0000      -1.075433       -29.2640
  42   2.0000      -0.964153       -26.2359
  43   2.0000      -0.932012       -25.3613
  44   2.0000      -0.869397       -23.6575
  45   2.0000      -0.840948       -22.8834
  46   2.0000      -0.790936       -21.5225
  47   2.0000      -0.746726       -20.3194
  48   2.0000      -0.745512       -20.2864
  49   2.0000      -0.713103       -19.4045
  50   2.0000      -0.689719       -18.7682
  51   2.0000      -0.652363       -17.7517
  52   2.0000      -0.628306       -17.0971
  53   2.0000      -0.617822       -16.8118
  54   2.0000      -0.592246       -16.1158
  55   2.0000      -0.562122       -15.2961
  56   2.0000      -0.559299       -15.2193
  57   2.0000      -0.534852       -14.5540
  58   2.0000      -0.531988       -14.4761
  59   2.0000      -0.489684       -13.3250
  60   2.0000      -0.458741       -12.4830
  61   2.0000      -0.441130       -12.0038
  62   2.0000      -0.427855       -11.6425
  63   2.0000      -0.413312       -11.2468
  64   2.0000      -0.405260       -11.0277
  65   2.0000      -0.399826       -10.8798
  66   2.0000      -0.392716       -10.6863
  67   2.0000      -0.389859       -10.6086
  68   2.0000      -0.379693       -10.3320
  69   2.0000      -0.376616       -10.2482
  70   2.0000      -0.371976       -10.1220
  71   2.0000      -0.369068       -10.0429
  72   2.0000      -0.362017        -9.8510
  73   2.0000      -0.358497        -9.7552
  74   2.0000      -0.345787        -9.4094
  75   2.0000      -0.338277        -9.2050
  76   2.0000      -0.333969        -9.0878
  77   2.0000      -0.323149        -8.7933
  78   2.0000      -0.309420        -8.4197
  79   2.0000      -0.305350        -8.3090
  80   2.0000      -0.300326        -8.1723
  81   2.0000      -0.295488        -8.0406
  82   2.0000      -0.284331        -7.7370
  83   2.0000      -0.272746        -7.4218
  84   2.0000      -0.263653        -7.1744
  85   2.0000      -0.259967        -7.0741
  86   2.0000      -0.235420        -6.4061
  87   2.0000      -0.222797        -6.0626
  88   2.0000      -0.215615        -5.8672
  89   2.0000      -0.203471        -5.5367
  90   2.0000      -0.200873        -5.4660
  91   2.0000      -0.194095        -5.2816
  92   2.0000      -0.185597        -5.0504
  93   2.0000      -0.182680        -4.9710
  94   2.0000      -0.170828        -4.6485
  95   2.0000      -0.160455        -4.3662
  96   2.0000      -0.155235        -4.2242
  97   2.0000      -0.148511        -4.0412
  98   2.0000      -0.140680        -3.8281
  99   2.0000      -0.138988        -3.7821
 100   0.0000       0.107707         2.9309
 101   0.0000       0.109658         2.9839
 102   0.0000       0.115505         3.1430
 103   0.0000       0.134659         3.6643
 104   0.0000       0.140047         3.8109

MULLIKEN ATOMIC CHARGES
-----------------------
   0 C :   -0.304990
   1 C :    0.153006
   2 C :   -0.212554
   3 C :   -0.239171
   4 C :   -0.205404
   5 C :   -0.285092
   6 H :    0.294968
   7 H :    0.212972
   8 H :    0.193418
   9 H :    0.193129
  10 H :    0.191202
  11 C :   -0.517083
  12 C :   -0.502903
  13 H :    0.216888
  14 H :    0.319486
  15 C :    0.141884
  16 H :    0.236404
  17 H :    0.210839
  18 C :   -0.138417
  19 C :   -0.260714
  20 C :   -0.235940
  21 C :   -0.288346
  22 C :   -0.222485
  23 H :    0.257474
  24 H :    0.183125
  25 H :    0.173271
  26 H :    0.176951
  27 Pd:    0.105794
  28 Br:   -0.496169
  29 P :   -0.120149
  30 H :    0.122089
  31 C :    0.715679
  32 O :   -0.533295
  33 O :   -0.534454
  34 O :   -0.622095
  35 H :    0.092601
  36 H :    0.119238
  37 H :    0.408845
Sum of atomic charges:   -1.0000000

LOEWDIN ATOMIC CHARGES
----------------------
   0 C :   -0.122549
   1 C :   -0.035466
   2 C :   -0.135485
   3 C :   -0.156837
   4 C :   -0.146612
   5 C :   -0.144147
   6 H :    0.170056
   7 H :    0.133197
   8 H :    0.126606
   9 H :    0.123893
  10 H :    0.123675
  11 C :   -0.211403
  12 C :   -0.202828
  13 H :    0.127865
  14 H :    0.177677
  15 C :   -0.048525
  16 H :    0.135913
  17 H :    0.119800
  18 C :   -0.018661
  19 C :   -0.118421
  20 C :   -0.149600
  21 C :   -0.146890
  22 C :   -0.166678
  23 H :    0.161934
  24 H :    0.120958
  25 H :    0.118227
  26 H :    0.117844
  27 Pd:   -0.842914
  28 Br:   -0.271226
  29 P :    0.426284
  30 H :    0.053849
  31 C :    0.135780
  32 O :   -0.325620
  33 O :   -0.197058
  34 O :   -0.334675
  35 H :    0.033015
  36 H :    0.056004
  37 H :    0.313019

  Mayer bond orders larger than 0.100000
B(  0-C ,  1-C ) :   1.3838 B(  0-C ,  2-C ) :   1.4328 B(  0-C ,  6-H ) :   0.8701
B(  1-C ,  5-C ) :   1.4075 B(  1-C , 11-C ) :   0.9452 B(  2-C ,  3-C ) :   1.4145
B(  2-C ,  7-H ) :   0.9223 B(  3-C ,  4-C ) :   1.4314 B(  3-C ,  9-H ) :   0.9275
B(  4-C ,  5-C ) :   1.4247 B(  4-C , 10-H ) :   0.9279 B(  5-C ,  8-H ) :   0.9280
B( 11-C , 12-C ) :   0.9354 B( 11-C , 13-H ) :   0.9246 B( 11-C , 14-H ) :   0.8684
B( 12-C , 15-C ) :   0.9670 B( 12-C , 16-H ) :   0.8953 B( 12-C , 17-H ) :   0.9255
B( 15-C , 18-C ) :   1.3494 B( 15-C , 21-C ) :   1.4036 B( 18-C , 19-C ) :   1.4245
B( 18-C , 27-Pd) :   0.7921 B( 18-C , 28-Br) :   0.1079 B( 19-C , 20-C ) :   1.4059
B( 19-C , 23-H ) :   0.8858 B( 20-C , 22-C ) :   1.4257 B( 20-C , 24-H ) :   0.9279
B( 21-C , 22-C ) :   1.4298 B( 21-C , 25-H ) :   0.9279 B( 22-C , 26-H ) :   0.9302
B( 27-Pd, 28-Br) :   0.6061 B( 27-Pd, 29-P ) :   0.7511 B( 27-Pd, 33-O ) :   0.5121
B( 29-P , 30-H ) :   0.9261 B( 29-P , 35-H ) :   0.9105 B( 29-P , 36-H ) :   0.9339
B( 31-C , 32-O ) :   1.7907 B( 31-C , 33-O ) :   1.3603 B( 31-C , 34-O ) :   1.0661
B( 34-O , 37-H ) :   0.7877

Dispersion correction           -0.030963686
FINAL SINGLE POINT ENERGY     -3847.791013807228
Dispersion correction            ... done

DIPOLE MOMENT
-------------
                                X             Y             Z
Electronic contribution:     29.29951     -79.68135     -60.61044
Nuclear contribution   :    -29.03316      80.03701      63.58029
                        -----------------------------------------
Total Dipole Moment    :      0.26635       0.35566       2.96985
                        -----------------------------------------
Magnitude (a.u.)       :      3.00290
Magnitude (Debye)      :      7.63277

Rotational constants in cm-1:     0.007546     0.005427     0.004021
Rotational constants in MHz :   226.218397   162.701262   120.544967

                             ****ORCA TERMINATED NORMALLY****
TOTAL RUN TIME: 0 days 0 hours 6 minutes 35 seconds 473 msec
