                         Program Version 5.0.3 -  RELEASE  -
|  1> ! EnGrad PBEh-3c
|  2> %output
|  3> xyzfile=True
|  4> end
|  5> %scf
|  6> maxiter 250
|  7> end
|  8> %output
|  9> Print[P_Hirshfeld] = 1
| 10> end
| 11> % maxcore
| 12> 4000
| 13> *xyz 1 1
| 14> Ir   0.52832407  -0.78698090   0.61739189
| 15> C    0.02250197  -2.87244994   1.09412467
| 16> C    0.17342889  -2.15578063   2.33174124
| 17> C    2.15339080  -2.02898047   1.13572431
| 18> C    1.23833521  -2.80643571   0.37487688
| 19> C    1.49664311  -1.71101860   2.36754517
| 20> N   -1.09682782  -0.11764294  -0.49177861
| 21> C   -2.47960128  -0.13252865   0.01156713
| 22> C   -2.81031984   1.11220292   0.81165745
| 23> H   -3.82543682   1.08539350   1.20679401
| 24> H   -2.71533306   2.00248607   0.19070276
| 25> H   -2.17932348   1.19419018   1.69269357
| 26> C   -3.56438195  -0.37836565  -1.02285028
| 27> H   -2.53570835  -0.97019539   0.70799180
| 28> H   -4.52434814  -0.54335614  -0.53976656
| 29> H   -3.70678103   0.47364318  -1.69047470
| 30> H   -3.35328868  -1.26906596  -1.61745676
| 31> C   -0.87130059   0.21586318  -1.70840261
| 32> C    0.42827106   0.20736843  -2.29123843
| 33> H   -1.67842045   0.51720525  -2.36877331
| 34> C    1.54272376  -0.17150984  -1.59230941
| 35> C    2.70041063  -0.20855017  -2.40048288
| 36> S    0.77168882   0.32288859  -3.97009779
| 37> C    2.42287354   0.05465865  -3.71296955
| 38> H    2.25070891   1.26912496  -0.83466356
| 39> H    3.71887371  -0.37854958  -2.07980390
| 40> H    3.10530474   0.00328342  -4.54776629
| 41> H   -0.73474363  -3.62029506   0.91776000
| 42> H   -0.53262711  -2.12708469   3.14568480
| 43> H    1.98403854  -1.28304550   3.22724573
| 44> O    2.06482215   2.11354172   0.26547979
| 45> O    0.42978179   1.19876260   1.38603845
| 46> C    1.10551333   2.19012267   1.10673515
| 47> C    0.96920173   3.48557932   1.82094856
| 48> H    0.89808378   4.29603577   1.09674586
| 49> H    1.84759066   3.68313359   2.43661132
| 50> H    0.09101837   3.48049981   2.45831237
| 51> H    3.21072698  -1.94065755   0.96142486
| 52> H    1.45418012  -3.40346489  -0.49695951
| 53> *
| 54>
| 55>                          ****END OF INPUT****

CARTESIAN COORDINATES (ANGSTROEM)
---------------------------------
  Ir     0.528324   -0.786981    0.617392
  C      0.022502   -2.872450    1.094125
  C      0.173429   -2.155781    2.331741
  C      2.153391   -2.028980    1.135724
  C      1.238335   -2.806436    0.374877
  C      1.496643   -1.711019    2.367545
  N     -1.096828   -0.117643   -0.491779
  C     -2.479601   -0.132529    0.011567
  C     -2.810320    1.112203    0.811657
  H     -3.825437    1.085393    1.206794
  H     -2.715333    2.002486    0.190703
  H     -2.179323    1.194190    1.692694
  C     -3.564382   -0.378366   -1.022850
  H     -2.535708   -0.970195    0.707992
  H     -4.524348   -0.543356   -0.539767
  H     -3.706781    0.473643   -1.690475
  H     -3.353289   -1.269066   -1.617457
  C     -0.871301    0.215863   -1.708403
  C      0.428271    0.207368   -2.291238
  H     -1.678420    0.517205   -2.368773
  C      1.542724   -0.171510   -1.592309
  C      2.700411   -0.208550   -2.400483
  S      0.771689    0.322889   -3.970098
  C      2.422874    0.054659   -3.712970
  H      2.250709    1.269125   -0.834664
  H      3.718874   -0.378550   -2.079804
  H      3.105305    0.003283   -4.547766
  H     -0.734744   -3.620295    0.917760
  H     -0.532627   -2.127085    3.145685
  H      1.984039   -1.283046    3.227246
  O      2.064822    2.113542    0.265480
  O      0.429782    1.198763    1.386038
  C      1.105513    2.190123    1.106735
  C      0.969202    3.485579    1.820949
  H      0.898084    4.296036    1.096746
  H      1.847591    3.683134    2.436611
  H      0.091018    3.480500    2.458312
  H      3.210727   -1.940658    0.961425
  H      1.454180   -3.403465   -0.496960

 Total Charge           Charge          ....    1
 Multiplicity           Mult            ....    1
 Number of Electrons    NEL             ....  164
 Basis Dimension        Dim             ....  358

ORBITAL ENERGIES
----------------

  NO   OCC          E(Eh)            E(eV)
   0   2.0000     -89.753947     -2442.3291
   1   2.0000     -19.635494      -534.3089
   2   2.0000     -19.627971      -534.1042
   3   2.0000     -14.822917      -403.3521
   4   2.0000     -10.704425      -291.2822
   5   2.0000     -10.645471      -289.6780
   6   2.0000     -10.623317      -289.0752
   7   2.0000     -10.618361      -288.9403
   8   2.0000     -10.613826      -288.8169
   9   2.0000     -10.611525      -288.7543
  10   2.0000     -10.610427      -288.7244
  11   2.0000     -10.607312      -288.6396
  12   2.0000     -10.607168      -288.6357
  13   2.0000     -10.603661      -288.5403
  14   2.0000     -10.592775      -288.2441
  15   2.0000     -10.586186      -288.0648
  16   2.0000     -10.550611      -287.0967
  17   2.0000     -10.543464      -286.9022
  18   2.0000     -10.535120      -286.6752
  19   2.0000      -8.393533      -228.3997
  20   2.0000      -6.283225      -170.9752
  21   2.0000      -6.279916      -170.8852
  22   2.0000      -6.278655      -170.8509
  23   2.0000      -4.015388      -109.2643
  24   2.0000      -2.332981       -63.4836
  25   2.0000      -2.301388       -62.6239
  26   2.0000      -2.295933       -62.4755
  27   2.0000      -1.329609       -36.1805
  28   2.0000      -1.221636       -33.2424
  29   2.0000      -1.194428       -32.5020
  30   2.0000      -1.159516       -31.5520
  31   2.0000      -1.123255       -30.5653
  32   2.0000      -1.013803       -27.5870
  33   2.0000      -0.970626       -26.4121
  34   2.0000      -0.964049       -26.2331
  35   2.0000      -0.960673       -26.1412
  36   2.0000      -0.951294       -25.8860
  37   2.0000      -0.947007       -25.7694
  38   2.0000      -0.889230       -24.1972
  39   2.0000      -0.861702       -23.4481
  40   2.0000      -0.790196       -21.5023
  41   2.0000      -0.773480       -21.0475
  42   2.0000      -0.772170       -21.0118
  43   2.0000      -0.771719       -20.9995
  44   2.0000      -0.765014       -20.8171
  45   2.0000      -0.760138       -20.6844
  46   2.0000      -0.726268       -19.7628
  47   2.0000      -0.713636       -19.4190
  48   2.0000      -0.688082       -18.7237
  49   2.0000      -0.675365       -18.3776
  50   2.0000      -0.662313       -18.0225
  51   2.0000      -0.654245       -17.8029
  52   2.0000      -0.652517       -17.7559
  53   2.0000      -0.635111       -17.2823
  54   2.0000      -0.634281       -17.2597
  55   2.0000      -0.627990       -17.0885
  56   2.0000      -0.616671       -16.7805
  57   2.0000      -0.601125       -16.3574
  58   2.0000      -0.595243       -16.1974
  59   2.0000      -0.592626       -16.1262
  60   2.0000      -0.589464       -16.0401
  61   2.0000      -0.582195       -15.8423
  62   2.0000      -0.572741       -15.5851
  63   2.0000      -0.566884       -15.4257
  64   2.0000      -0.557983       -15.1835
  65   2.0000      -0.553362       -15.0577
  66   2.0000      -0.540071       -14.6961
  67   2.0000      -0.537787       -14.6339
  68   2.0000      -0.533138       -14.5074
  69   2.0000      -0.524925       -14.2839
  70   2.0000      -0.507749       -13.8166
  71   2.0000      -0.505325       -13.7506
  72   2.0000      -0.500419       -13.6171
  73   2.0000      -0.492746       -13.4083
  74   2.0000      -0.485435       -13.2094
  75   2.0000      -0.463844       -12.6218
  76   2.0000      -0.460397       -12.5280
  77   2.0000      -0.445401       -12.1200
  78   2.0000      -0.440797       -11.9947
  79   2.0000      -0.419763       -11.4223
  80   2.0000      -0.405706       -11.0398
  81   2.0000      -0.389985       -10.6120
  82   0.0000      -0.194375        -5.2892
  83   0.0000      -0.158298        -4.3075
  84   0.0000      -0.150518        -4.0958
  85   0.0000      -0.091944        -2.5019
  86   0.0000      -0.079194        -2.1550

MULLIKEN ATOMIC CHARGES
-----------------------
   0 Ir:    0.601080
   1 C :   -0.264677
   2 C :   -0.255609
   3 C :   -0.272998
   4 C :   -0.211233
   5 C :   -0.158380
   6 N :   -0.475041
   7 C :   -0.109652
   8 C :   -0.636180
   9 H :    0.247705
  10 H :    0.222461
  11 H :    0.262953
  12 C :   -0.687572
  13 H :    0.250997
  14 H :    0.269741
  15 H :    0.225775
  16 H :    0.244208
  17 C :    0.094783
  18 C :   -0.152744
  19 H :    0.273534
  20 C :   -0.323394
  21 C :   -0.225618
  22 S :    0.329938
  23 C :   -0.403952
  24 H :    0.455189
  25 H :    0.270562
  26 H :    0.299746
  27 H :    0.279166
  28 H :    0.281006
  29 H :    0.282929
  30 O :   -0.541706
  31 O :   -0.467362
  32 C :    0.659299
  33 C :   -0.743078
  34 H :    0.275264
  35 H :    0.284496
  36 H :    0.263369
  37 H :    0.274195
  38 H :    0.280802
Sum of atomic charges:    1.0000000

LOEWDIN ATOMIC CHARGES
----------------------
   0 Ir:   -0.249706
   1 C :   -0.041174
   2 C :   -0.088336
   3 C :   -0.072513
   4 C :   -0.053359
   5 C :   -0.026631
   6 N :   -0.022468
   7 C :   -0.066060
   8 C :   -0.350916
   9 H :    0.144917
  10 H :    0.134626
  11 H :    0.147425
  12 C :   -0.364308
  13 H :    0.141517
  14 H :    0.155415
  15 H :    0.132597
  16 H :    0.138284
  17 C :    0.033637
  18 C :   -0.238734
  19 H :    0.153563
  20 C :   -0.178988
  21 C :   -0.183354
  22 S :    0.484356
  23 C :   -0.258392
  24 H :    0.417089
  25 H :    0.159782
  26 H :    0.170349
  27 H :    0.181001
  28 H :    0.180592
  29 H :    0.181766
  30 O :   -0.290372
  31 O :   -0.140612
  32 C :    0.170655
  33 C :   -0.367761
  34 H :    0.169936
  35 H :    0.176493
  36 H :    0.156867
  37 H :    0.180887
  38 H :    0.181930

  Mayer bond orders larger than 0.100000
B(  0-Ir,  1-C ) :   0.4257 B(  0-Ir,  2-C ) :   0.4351 B(  0-Ir,  3-C ) :   0.4876
B(  0-Ir,  4-C ) :   0.4767 B(  0-Ir,  5-C ) :   0.4087 B(  0-Ir,  6-N ) :   0.4760
B(  0-Ir, 20-C ) :   0.5054 B(  0-Ir, 31-O ) :   0.4655 B(  1-C ,  2-C ) :   1.1705
B(  1-C ,  4-C ) :   1.2115 B(  1-C , 27-H ) :   0.9222 B(  2-C ,  5-C ) :   1.1664
B(  2-C , 28-H ) :   0.9141 B(  3-C ,  4-C ) :   1.0999 B(  3-C ,  5-C ) :   1.1981
B(  3-C , 37-H ) :   0.9226 B(  4-C , 38-H ) :   0.9167 B(  5-C , 29-H ) :   0.9137
B(  6-N ,  7-C ) :   0.9043 B(  6-N , 17-C ) :   1.6225 B(  7-C ,  8-C ) :   0.9789
B(  7-C , 12-C ) :   0.9932 B(  7-C , 13-H ) :   0.8901 B(  8-C ,  9-H ) :   0.9073
B(  8-C , 10-H ) :   0.9195 B(  8-C , 11-H ) :   0.9035 B( 12-C , 14-H ) :   0.9043
B( 12-C , 15-H ) :   0.9131 B( 12-C , 16-H ) :   0.9156 B( 17-C , 18-C ) :   1.1206
B( 17-C , 19-H ) :   0.8785 B( 18-C , 20-C ) :   1.2878 B( 18-C , 22-S ) :   1.1757
B( 20-C , 21-C ) :   1.3360 B( 20-C , 24-H ) :   0.2045 B( 21-C , 23-C ) :   1.4609
B( 21-C , 25-H ) :   0.8985 B( 22-S , 23-C ) :   1.2879 B( 23-C , 26-H ) :   0.8876
B( 24-H , 30-O ) :   0.4404 B( 30-O , 32-C ) :   1.3920 B( 31-O , 32-C ) :   1.5107
B( 32-C , 33-C ) :   0.9508 B( 33-C , 34-H ) :   0.8956 B( 33-C , 35-H ) :   0.8901
B( 33-C , 36-H ) :   0.9051

Dispersion correction           -0.030117999
FINAL SINGLE POINT ENERGY     -1288.313696013887
Dispersion correction            ... done

DIPOLE MOMENT
-------------
                                X             Y             Z
Electronic contribution:     30.02980     -78.40991      89.77558
Nuclear contribution   :    -30.23707      78.00050     -89.90774
                        -----------------------------------------
Total Dipole Moment    :     -0.20727      -0.40941      -0.13215
                        -----------------------------------------
Magnitude (a.u.)       :      0.47754
Magnitude (Debye)      :      1.21380

Rotational constants in cm-1:     0.010446     0.008013     0.007599
Rotational constants in MHz :   313.159057   240.237876   227.815380

                             ****ORCA TERMINATED NORMALLY****
TOTAL RUN TIME: 0 days 0 hours 23 minutes 2 seconds 752 msec
