                         Program Version 5.0.3 -  RELEASE  -
|  1> ! EnGrad PBEh-3c
|  2> %output
|  3> xyzfile=True
|  4> end
|  5> %scf
|  6> maxiter 250
|  7> end
|  8> %output
|  9> Print[P_Hirshfeld] = 1
| 10> end
| 11> % maxcore
| 12> 4000
| 13> *xyz 1 1
| 14> Ir   0.56873819  -0.75634945   0.56276846
| 15> C    0.02998464  -2.88232007   1.13505370
| 16> C    0.16160254  -2.16991772   2.32208978
| 17> C    2.15958277  -2.05521242   1.17200347
| 18> C    1.20314605  -2.82499969   0.36941128
| 19> C    1.56507155  -1.70673394   2.34403123
| 20> N   -1.10023023  -0.12529538  -0.50263506
| 21> C   -2.50293623  -0.13667532   0.03308993
| 22> C   -2.80592688   1.13380550   0.81065395
| 23> H   -3.83443399   1.09270081   1.18018578
| 24> H   -2.71837956   2.01271767   0.17211101
| 25> H   -2.17956006   1.22433352   1.67527730
| 26> C   -3.54999465  -0.38811485  -1.04128998
| 27> H   -2.52572740  -0.96054005   0.71510969
| 28> H   -4.51768053  -0.54911501  -0.53343159
| 29> H   -3.70373709   0.45663628  -1.70076538
| 30> H   -3.34459000  -1.27867357  -1.61169746
| 31> C   -0.88143117   0.23104989  -1.72711856
| 32> C    0.43907549   0.18646967  -2.30238489
| 33> H   -1.68245091   0.51806395  -2.36056724
| 34> C    1.54363061  -0.14156371  -1.48233015
| 35> C    2.71924222  -0.20247825  -2.40028678
| 36> S    0.75953903   0.33187262  -3.98263261
| 37> C    2.41117820   0.04255681  -3.73218735
| 38> H    2.18352339   1.29625106  -0.71592096
| 39> H    3.72223097  -0.37064022  -2.08308610
| 40> H    3.10179243   0.00511338  -4.55733351
| 41> H   -0.76459798  -3.59537300   0.93077615
| 42> H   -0.50781816  -2.11526683   3.16418648
| 43> H    2.01629315  -1.27122184   3.20585585
| 44> O    2.09720023   2.09703939   0.17987288
| 45> O    0.36965455   1.15877403   1.42244782
| 46> C    1.17292808   2.14214521   1.07035799
| 47> C    0.95043780   3.49103593   1.83502725
| 48> H    0.89548168   4.29275692   1.10717927
| 49> H    1.84124101   3.67603284   2.44658168
| 50> H    0.08198650   3.48435616   2.46849025
| 51> H    3.20707423  -1.94755368   0.92272947
| 52> H    1.41802574  -3.39670226  -0.51018003
| 53> *
| 54>
| 55>                          ****END OF INPUT****

CARTESIAN COORDINATES (ANGSTROEM)
---------------------------------
  Ir     0.568738   -0.756349    0.562768
  C      0.029985   -2.882320    1.135054
  C      0.161603   -2.169918    2.322090
  C      2.159583   -2.055212    1.172003
  C      1.203146   -2.825000    0.369411
  C      1.565072   -1.706734    2.344031
  N     -1.100230   -0.125295   -0.502635
  C     -2.502936   -0.136675    0.033090
  C     -2.805927    1.133806    0.810654
  H     -3.834434    1.092701    1.180186
  H     -2.718380    2.012718    0.172111
  H     -2.179560    1.224334    1.675277
  C     -3.549995   -0.388115   -1.041290
  H     -2.525727   -0.960540    0.715110
  H     -4.517681   -0.549115   -0.533432
  H     -3.703737    0.456636   -1.700765
  H     -3.344590   -1.278674   -1.611697
  C     -0.881431    0.231050   -1.727119
  C      0.439075    0.186470   -2.302385
  H     -1.682451    0.518064   -2.360567
  C      1.543631   -0.141564   -1.482330
  C      2.719242   -0.202478   -2.400287
  S      0.759539    0.331873   -3.982633
  C      2.411178    0.042557   -3.732187
  H      2.183523    1.296251   -0.715921
  H      3.722231   -0.370640   -2.083086
  H      3.101792    0.005113   -4.557334
  H     -0.764598   -3.595373    0.930776
  H     -0.507818   -2.115267    3.164186
  H      2.016293   -1.271222    3.205856
  O      2.097200    2.097039    0.179873
  O      0.369655    1.158774    1.422448
  C      1.172928    2.142145    1.070358
  C      0.950438    3.491036    1.835027
  H      0.895482    4.292757    1.107179
  H      1.841241    3.676033    2.446582
  H      0.081987    3.484356    2.468490
  H      3.207074   -1.947554    0.922729
  H      1.418026   -3.396702   -0.510180

 Total Charge           Charge          ....    1
 Multiplicity           Mult            ....    1
 Number of Electrons    NEL             ....  164
 Basis Dimension        Dim             ....  358

ORBITAL ENERGIES
----------------

  NO   OCC          E(Eh)            E(eV)
   0   2.0000     -89.750461     -2442.2342
   1   2.0000     -19.673893      -535.3538
   2   2.0000     -19.654315      -534.8211
   3   2.0000     -14.820955      -403.2987
   4   2.0000     -10.739300      -292.2312
   5   2.0000     -10.640583      -289.5450
   6   2.0000     -10.618683      -288.9491
   7   2.0000     -10.615723      -288.8685
   8   2.0000     -10.608718      -288.6779
   9   2.0000     -10.607476      -288.6441
  10   2.0000     -10.605535      -288.5913
  11   2.0000     -10.604744      -288.5698
  12   2.0000     -10.604669      -288.5677
  13   2.0000     -10.603817      -288.5445
  14   2.0000     -10.598322      -288.3950
  15   2.0000     -10.586669      -288.0779
  16   2.0000     -10.566513      -287.5294
  17   2.0000     -10.543683      -286.9082
  18   2.0000     -10.535520      -286.6861
  19   2.0000      -8.389861      -228.2997
  20   2.0000      -6.279737      -170.8803
  21   2.0000      -6.276328      -170.7876
  22   2.0000      -6.274783      -170.7455
  23   2.0000      -4.009099      -109.0931
  24   2.0000      -2.324196       -63.2446
  25   2.0000      -2.295274       -62.4576
  26   2.0000      -2.290869       -62.3377
  27   2.0000      -1.330586       -36.2071
  28   2.0000      -1.239294       -33.7229
  29   2.0000      -1.182580       -32.1796
  30   2.0000      -1.153047       -31.3760
  31   2.0000      -1.104237       -30.0478
  32   2.0000      -1.009082       -27.4585
  33   2.0000      -0.972399       -26.4603
  34   2.0000      -0.951391       -25.8887
  35   2.0000      -0.948577       -25.8121
  36   2.0000      -0.948458       -25.8089
  37   2.0000      -0.939214       -25.5573
  38   2.0000      -0.890330       -24.2271
  39   2.0000      -0.854532       -23.2530
  40   2.0000      -0.805359       -21.9149
  41   2.0000      -0.785738       -21.3810
  42   2.0000      -0.769873       -20.9493
  43   2.0000      -0.766200       -20.8494
  44   2.0000      -0.763736       -20.7823
  45   2.0000      -0.754472       -20.5302
  46   2.0000      -0.732711       -19.9381
  47   2.0000      -0.717371       -19.5207
  48   2.0000      -0.684545       -18.6274
  49   2.0000      -0.672917       -18.3110
  50   2.0000      -0.665060       -18.0972
  51   2.0000      -0.653125       -17.7724
  52   2.0000      -0.648895       -17.6573
  53   2.0000      -0.634274       -17.2595
  54   2.0000      -0.627330       -17.0705
  55   2.0000      -0.618928       -16.8419
  56   2.0000      -0.611992       -16.6531
  57   2.0000      -0.593838       -16.1591
  58   2.0000      -0.591431       -16.0937
  59   2.0000      -0.590247       -16.0614
  60   2.0000      -0.584999       -15.9186
  61   2.0000      -0.584340       -15.9007
  62   2.0000      -0.573910       -15.6169
  63   2.0000      -0.566235       -15.4080
  64   2.0000      -0.560654       -15.2562
  65   2.0000      -0.551533       -15.0080
  66   2.0000      -0.543995       -14.8028
  67   2.0000      -0.538305       -14.6480
  68   2.0000      -0.531751       -14.4697
  69   2.0000      -0.528266       -14.3749
  70   2.0000      -0.523563       -14.2469
  71   2.0000      -0.520711       -14.1693
  72   2.0000      -0.508749       -13.8438
  73   2.0000      -0.497775       -13.5452
  74   2.0000      -0.485478       -13.2105
  75   2.0000      -0.474992       -12.9252
  76   2.0000      -0.464396       -12.6368
  77   2.0000      -0.440751       -11.9935
  78   2.0000      -0.439195       -11.9511
  79   2.0000      -0.408532       -11.1167
  80   2.0000      -0.406452       -11.0601
  81   2.0000      -0.387272       -10.5382
  82   0.0000      -0.185573        -5.0497
  83   0.0000      -0.153440        -4.1753
  84   0.0000      -0.141721        -3.8564
  85   0.0000      -0.107803        -2.9335
  86   0.0000      -0.079236        -2.1561

MULLIKEN ATOMIC CHARGES
-----------------------
   0 Ir:    0.608402
   1 C :   -0.205280
   2 C :   -0.270900
   3 C :   -0.256635
   4 C :   -0.269396
   5 C :   -0.162923
   6 N :   -0.473381
   7 C :   -0.105038
   8 C :   -0.635286
   9 H :    0.243868
  10 H :    0.222862
  11 H :    0.266700
  12 C :   -0.691755
  13 H :    0.254614
  14 H :    0.262874
  15 H :    0.231379
  16 H :    0.252184
  17 C :    0.095078
  18 C :   -0.171982
  19 H :    0.272502
  20 C :   -0.393586
  21 C :   -0.210899
  22 S :    0.330272
  23 C :   -0.396833
  24 H :    0.504756
  25 H :    0.262058
  26 H :    0.296091
  27 H :    0.277988
  28 H :    0.276378
  29 H :    0.279533
  30 O :   -0.532324
  31 O :   -0.493910
  32 C :    0.666018
  33 C :   -0.722393
  34 H :    0.276576
  35 H :    0.277645
  36 H :    0.280537
  37 H :    0.275961
  38 H :    0.278248
Sum of atomic charges:    1.0000000

LOEWDIN ATOMIC CHARGES
----------------------
   0 Ir:   -0.264766
   1 C :   -0.033195
   2 C :   -0.098935
   3 C :   -0.078549
   4 C :   -0.078351
   5 C :   -0.028957
   6 N :   -0.025580
   7 C :   -0.056763
   8 C :   -0.350549
   9 H :    0.144316
  10 H :    0.135394
  11 H :    0.148076
  12 C :   -0.365013
  13 H :    0.141839
  14 H :    0.154629
  15 H :    0.134702
  16 H :    0.141071
  17 C :    0.030999
  18 C :   -0.233383
  19 H :    0.150981
  20 C :   -0.187506
  21 C :   -0.171690
  22 S :    0.474463
  23 C :   -0.267088
  24 H :    0.408852
  25 H :    0.153377
  26 H :    0.169202
  27 H :    0.179201
  28 H :    0.178093
  29 H :    0.179397
  30 O :   -0.248280
  31 O :   -0.184277
  32 C :    0.250827
  33 C :   -0.364336
  34 H :    0.167231
  35 H :    0.171877
  36 H :    0.162198
  37 H :    0.179744
  38 H :    0.180750

  Mayer bond orders larger than 0.100000
B(  0-Ir,  1-C ) :   0.3401 B(  0-Ir,  2-C ) :   0.4004 B(  0-Ir,  3-C ) :   0.4366
B(  0-Ir,  4-C ) :   0.4799 B(  0-Ir,  5-C ) :   0.3866 B(  0-Ir,  6-N ) :   0.5065
B(  0-Ir, 20-C ) :   0.5344 B(  0-Ir, 31-O ) :   0.4893 B(  1-C ,  2-C ) :   1.2290
B(  1-C ,  4-C ) :   1.2203 B(  1-C , 27-H ) :   0.9185 B(  2-C ,  5-C ) :   1.1424
B(  2-C , 28-H ) :   0.9171 B(  3-C ,  4-C ) :   1.1059 B(  3-C ,  5-C ) :   1.2478
B(  3-C , 37-H ) :   0.9177 B(  4-C , 38-H ) :   0.9191 B(  5-C , 29-H ) :   0.9161
B(  6-N ,  7-C ) :   0.8864 B(  6-N , 17-C ) :   1.6133 B(  7-C ,  8-C ) :   0.9831
B(  7-C , 12-C ) :   0.9950 B(  7-C , 13-H ) :   0.8908 B(  8-C ,  9-H ) :   0.9080
B(  8-C , 10-H ) :   0.9201 B(  8-C , 11-H ) :   0.9018 B( 12-C , 14-H ) :   0.9065
B( 12-C , 15-H ) :   0.9115 B( 12-C , 16-H ) :   0.9125 B( 17-C , 18-C ) :   1.1310
B( 17-C , 19-H ) :   0.8796 B( 18-C , 20-C ) :   1.2882 B( 18-C , 22-S ) :   1.1802
B( 20-C , 21-C ) :   1.2947 B( 20-C , 24-H ) :   0.1642 B( 21-C , 23-C ) :   1.5133
B( 21-C , 25-H ) :   0.9022 B( 22-S , 23-C ) :   1.2467 B( 23-C , 26-H ) :   0.8895
B( 24-H , 30-O ) :   0.4763 B( 30-O , 32-C ) :   1.3841 B( 31-O , 32-C ) :   1.4421
B( 32-C , 33-C ) :   0.9445 B( 33-C , 34-H ) :   0.8931 B( 33-C , 35-H ) :   0.8910
B( 33-C , 36-H ) :   0.8996

Dispersion correction           -0.029553915
FINAL SINGLE POINT ENERGY     -1288.349748201374
Dispersion correction            ... done

DIPOLE MOMENT
-------------
                                X             Y             Z
Electronic contribution:     33.90047     -74.73363      84.85786
Nuclear contribution   :    -34.15274      74.72627     -84.73964
                        -----------------------------------------
Total Dipole Moment    :     -0.25226      -0.00735       0.11822
                        -----------------------------------------
Magnitude (a.u.)       :      0.27869
Magnitude (Debye)      :      0.70836

Rotational constants in cm-1:     0.010436     0.008078     0.007614
Rotational constants in MHz :   312.867174   242.164610   228.267771

                             ****ORCA TERMINATED NORMALLY****
TOTAL RUN TIME: 0 days 0 hours 25 minutes 1 seconds 103 msec
