                         Program Version 5.0.3 -  RELEASE  -
|  1> ! EnGrad PBEh-3c
|  2> %output
|  3> xyzfile=True
|  4> end
|  5> %scf
|  6> maxiter 250
|  7> end
|  8> %output
|  9> Print[P_Hirshfeld] = 1
| 10> end
| 11> % maxcore
| 12> 4000
| 13> *xyz 1 1
| 14> Ir   0.56716892  -0.75897779   0.56521083
| 15> C    0.02393559  -2.88821286   1.13210420
| 16> C    0.17556803  -2.16174717   2.32747092
| 17> C    2.16490411  -2.06269043   1.15514484
| 18> C    1.20681449  -2.81964467   0.37310933
| 19> C    1.54982047  -1.70813701   2.35015036
| 20> N   -1.09917057  -0.12407943  -0.50562291
| 21> C   -2.49787182  -0.13228396   0.02790288
| 22> C   -2.80960502   1.13360372   0.80672261
| 23> H   -3.83432962   1.09458538   1.17845349
| 24> H   -2.71859953   2.01332433   0.16985025
| 25> H   -2.17871851   1.22739944   1.67593746
| 26> C   -3.55330171  -0.38878030  -1.03552081
| 27> H   -2.52594691  -0.96200087   0.71845230
| 28> H   -4.51516499  -0.54954299  -0.53528564
| 29> H   -3.70310430   0.45607270  -1.70260072
| 30> H   -3.34284819  -1.28172062  -1.61212455
| 31> C   -0.87633495   0.22788581  -1.72244643
| 32> C    0.44032085   0.18627385  -2.29395817
| 33> H   -1.68568641   0.51985275  -2.36317397
| 34> C    1.54418080  -0.14017814  -1.49836196
| 35> C    2.70839006  -0.20051976  -2.39818531
| 36> S    0.76007665   0.33039127  -3.98028735
| 37> C    2.41246303   0.04136325  -3.72497169
| 38> H    2.18199908   1.29926886  -0.70977764
| 39> H    3.72612762  -0.36969224  -2.08362805
| 40> H    3.10155083   0.00466314  -4.55880289
| 41> H   -0.76563586  -3.59270808   0.93393731
| 42> H   -0.50546889  -2.11435803   3.16576313
| 43> H    2.02141222  -1.27012225   3.20498800
| 44> O    2.09174556   2.09228557   0.18300031
| 45> O    0.38821709   1.17414245   1.41321667
| 46> C    1.15433573   2.13614425   1.08105418
| 47> C    0.95805590   3.48283855   1.83033827
| 48> H    0.89498415   4.29301714   1.10758169
| 49> H    1.83951955   3.67608146   2.44771882
| 50> H    0.07955411   3.48294618   2.46974465
| 51> H    3.20542924  -1.94963250   0.91985389
| 52> H    1.41430910  -3.39806475  -0.51153062
| 53> *
| 54>
| 55>                          ****END OF INPUT****

CARTESIAN COORDINATES (ANGSTROEM)
---------------------------------
  Ir     0.567169   -0.758978    0.565211
  C      0.023936   -2.888213    1.132104
  C      0.175568   -2.161747    2.327471
  C      2.164904   -2.062690    1.155145
  C      1.206814   -2.819645    0.373109
  C      1.549820   -1.708137    2.350150
  N     -1.099171   -0.124079   -0.505623
  C     -2.497872   -0.132284    0.027903
  C     -2.809605    1.133604    0.806723
  H     -3.834330    1.094585    1.178453
  H     -2.718600    2.013324    0.169850
  H     -2.178719    1.227399    1.675937
  C     -3.553302   -0.388780   -1.035521
  H     -2.525947   -0.962001    0.718452
  H     -4.515165   -0.549543   -0.535286
  H     -3.703104    0.456073   -1.702601
  H     -3.342848   -1.281721   -1.612125
  C     -0.876335    0.227886   -1.722446
  C      0.440321    0.186274   -2.293958
  H     -1.685686    0.519853   -2.363174
  C      1.544181   -0.140178   -1.498362
  C      2.708390   -0.200520   -2.398185
  S      0.760077    0.330391   -3.980287
  C      2.412463    0.041363   -3.724972
  H      2.181999    1.299269   -0.709778
  H      3.726128   -0.369692   -2.083628
  H      3.101551    0.004663   -4.558803
  H     -0.765636   -3.592708    0.933937
  H     -0.505469   -2.114358    3.165763
  H      2.021412   -1.270122    3.204988
  O      2.091746    2.092286    0.183000
  O      0.388217    1.174142    1.413217
  C      1.154336    2.136144    1.081054
  C      0.958056    3.482839    1.830338
  H      0.894984    4.293017    1.107582
  H      1.839520    3.676081    2.447719
  H      0.079554    3.482946    2.469745
  H      3.205429   -1.949633    0.919854
  H      1.414309   -3.398065   -0.511531

 Total Charge           Charge          ....    1
 Multiplicity           Mult            ....    1
 Number of Electrons    NEL             ....  164
 Basis Dimension        Dim             ....  358

ORBITAL ENERGIES
----------------

  NO   OCC          E(Eh)            E(eV)
   0   2.0000     -89.748285     -2442.1750
   1   2.0000     -19.665793      -535.1334
   2   2.0000     -19.657276      -534.9017
   3   2.0000     -14.820651      -403.2904
   4   2.0000     -10.734822      -292.1094
   5   2.0000     -10.640985      -289.5559
   6   2.0000     -10.621515      -289.0261
   7   2.0000     -10.617963      -288.9295
   8   2.0000     -10.610223      -288.7189
   9   2.0000     -10.607864      -288.6547
  10   2.0000     -10.606849      -288.6270
  11   2.0000     -10.605572      -288.5923
  12   2.0000     -10.605213      -288.5825
  13   2.0000     -10.603060      -288.5239
  14   2.0000     -10.595241      -288.3112
  15   2.0000     -10.584484      -288.0185
  16   2.0000     -10.565039      -287.4893
  17   2.0000     -10.543980      -286.9163
  18   2.0000     -10.536612      -286.7158
  19   2.0000      -8.387696      -228.2408
  20   2.0000      -6.277574      -170.8215
  21   2.0000      -6.274184      -170.7292
  22   2.0000      -6.272587      -170.6858
  23   2.0000      -4.010710      -109.1370
  24   2.0000      -2.326170       -63.2983
  25   2.0000      -2.296961       -62.5035
  26   2.0000      -2.292102       -62.3713
  27   2.0000      -1.333286       -36.2806
  28   2.0000      -1.247819       -33.9549
  29   2.0000      -1.186208       -32.2784
  30   2.0000      -1.154128       -31.4054
  31   2.0000      -1.105996       -30.0957
  32   2.0000      -1.010251       -27.4903
  33   2.0000      -0.968852       -26.3638
  34   2.0000      -0.955417       -25.9982
  35   2.0000      -0.950430       -25.8625
  36   2.0000      -0.949203       -25.8291
  37   2.0000      -0.940257       -25.5857
  38   2.0000      -0.890318       -24.2268
  39   2.0000      -0.854794       -23.2601
  40   2.0000      -0.801057       -21.7979
  41   2.0000      -0.785314       -21.3695
  42   2.0000      -0.771147       -20.9840
  43   2.0000      -0.769239       -20.9320
  44   2.0000      -0.764320       -20.7982
  45   2.0000      -0.755791       -20.5661
  46   2.0000      -0.736535       -20.0421
  47   2.0000      -0.717486       -19.5238
  48   2.0000      -0.684903       -18.6372
  49   2.0000      -0.673411       -18.3244
  50   2.0000      -0.667415       -18.1613
  51   2.0000      -0.655760       -17.8441
  52   2.0000      -0.648292       -17.6409
  53   2.0000      -0.633332       -17.2338
  54   2.0000      -0.627476       -17.0745
  55   2.0000      -0.620104       -16.8739
  56   2.0000      -0.612570       -16.6689
  57   2.0000      -0.594080       -16.1658
  58   2.0000      -0.592969       -16.1355
  59   2.0000      -0.589538       -16.0421
  60   2.0000      -0.586288       -15.9537
  61   2.0000      -0.585329       -15.9276
  62   2.0000      -0.574657       -15.6372
  63   2.0000      -0.565724       -15.3941
  64   2.0000      -0.561933       -15.2910
  65   2.0000      -0.552150       -15.0248
  66   2.0000      -0.546473       -14.8703
  67   2.0000      -0.536795       -14.6069
  68   2.0000      -0.532637       -14.4938
  69   2.0000      -0.528010       -14.3679
  70   2.0000      -0.522196       -14.2097
  71   2.0000      -0.520103       -14.1527
  72   2.0000      -0.507600       -13.8125
  73   2.0000      -0.498975       -13.5778
  74   2.0000      -0.487440       -13.2639
  75   2.0000      -0.474341       -12.9075
  76   2.0000      -0.465799       -12.6750
  77   2.0000      -0.443914       -12.0795
  78   2.0000      -0.438887       -11.9427
  79   2.0000      -0.409728       -11.1493
  80   2.0000      -0.406970       -11.0742
  81   2.0000      -0.388434       -10.5698
  82   0.0000      -0.184380        -5.0172
  83   0.0000      -0.155893        -4.2421
  84   0.0000      -0.144965        -3.9447
  85   0.0000      -0.101886        -2.7725
  86   0.0000      -0.077418        -2.1066

MULLIKEN ATOMIC CHARGES
-----------------------
   0 Ir:    0.600572
   1 C :   -0.205427
   2 C :   -0.269979
   3 C :   -0.252532
   4 C :   -0.268941
   5 C :   -0.166216
   6 N :   -0.473578
   7 C :   -0.105470
   8 C :   -0.635236
   9 H :    0.246009
  10 H :    0.223238
  11 H :    0.263320
  12 C :   -0.689756
  13 H :    0.252116
  14 H :    0.265367
  15 H :    0.229544
  16 H :    0.250033
  17 C :    0.093168
  18 C :   -0.167414
  19 H :    0.272011
  20 C :   -0.378446
  21 C :   -0.216125
  22 S :    0.323068
  23 C :   -0.395898
  24 H :    0.504895
  25 H :    0.261021
  26 H :    0.296259
  27 H :    0.279059
  28 H :    0.277664
  29 H :    0.280869
  30 O :   -0.552083
  31 O :   -0.468321
  32 C :    0.666747
  33 C :   -0.728926
  34 H :    0.277446
  35 H :    0.280105
  36 H :    0.275034
  37 H :    0.277107
  38 H :    0.279695
Sum of atomic charges:    1.0000000

LOEWDIN ATOMIC CHARGES
----------------------
   0 Ir:   -0.261982
   1 C :   -0.029763
   2 C :   -0.098661
   3 C :   -0.076576
   4 C :   -0.075416
   5 C :   -0.029369
   6 N :   -0.026822
   7 C :   -0.058137
   8 C :   -0.350882
   9 H :    0.145031
  10 H :    0.135375
  11 H :    0.147230
  12 C :   -0.364688
  13 H :    0.141249
  14 H :    0.154677
  15 H :    0.134155
  16 H :    0.140663
  17 C :    0.031226
  18 C :   -0.233501
  19 H :    0.151625
  20 C :   -0.184553
  21 C :   -0.174454
  22 S :    0.467910
  23 C :   -0.263947
  24 H :    0.406442
  25 H :    0.154241
  26 H :    0.169630
  27 H :    0.179346
  28 H :    0.178493
  29 H :    0.179884
  30 O :   -0.266797
  31 O :   -0.151659
  32 C :    0.234031
  33 C :   -0.366652
  34 H :    0.168014
  35 H :    0.172406
  36 H :    0.161146
  37 H :    0.179829
  38 H :    0.181256

  Mayer bond orders larger than 0.100000
B(  0-Ir,  1-C ) :   0.3542 B(  0-Ir,  2-C ) :   0.3975 B(  0-Ir,  3-C ) :   0.4452
B(  0-Ir,  4-C ) :   0.4805 B(  0-Ir,  5-C ) :   0.3926 B(  0-Ir,  6-N ) :   0.5010
B(  0-Ir, 20-C ) :   0.5379 B(  0-Ir, 31-O ) :   0.4677 B(  1-C ,  2-C ) :   1.2209
B(  1-C ,  4-C ) :   1.2163 B(  1-C , 27-H ) :   0.9193 B(  2-C ,  5-C ) :   1.1518
B(  2-C , 28-H ) :   0.9164 B(  3-C ,  4-C ) :   1.1083 B(  3-C ,  5-C ) :   1.2346
B(  3-C , 37-H ) :   0.9181 B(  4-C , 38-H ) :   0.9184 B(  5-C , 29-H ) :   0.9152
B(  6-N ,  7-C ) :   0.8890 B(  6-N , 17-C ) :   1.6148 B(  7-C ,  8-C ) :   0.9820
B(  7-C , 12-C ) :   0.9941 B(  7-C , 13-H ) :   0.8913 B(  8-C ,  9-H ) :   0.9075
B(  8-C , 10-H ) :   0.9196 B(  8-C , 11-H ) :   0.9037 B( 12-C , 14-H ) :   0.9054
B( 12-C , 15-H ) :   0.9119 B( 12-C , 16-H ) :   0.9135 B( 17-C , 18-C ) :   1.1286
B( 17-C , 19-H ) :   0.8793 B( 18-C , 20-C ) :   1.2972 B( 18-C , 22-S ) :   1.1747
B( 20-C , 21-C ) :   1.3070 B( 20-C , 24-H ) :   0.1511 B( 21-C , 23-C ) :   1.5110
B( 21-C , 25-H ) :   0.9025 B( 22-S , 23-C ) :   1.2495 B( 23-C , 26-H ) :   0.8891
B( 24-H , 30-O ) :   0.4946 B( 30-O , 32-C ) :   1.3429 B( 31-O , 32-C ) :   1.5001
B( 32-C , 33-C ) :   0.9436 B( 33-C , 34-H ) :   0.8934 B( 33-C , 35-H ) :   0.8903
B( 33-C , 36-H ) :   0.9021

Dispersion correction           -0.029544575
FINAL SINGLE POINT ENERGY     -1288.362915729052
Dispersion correction            ... done

DIPOLE MOMENT
-------------
                                X             Y             Z
Electronic contribution:     33.68394     -75.07305      85.15852
Nuclear contribution   :    -33.98091      74.97906     -84.97635
                        -----------------------------------------
Total Dipole Moment    :     -0.29697      -0.09399       0.18217
                        -----------------------------------------
Magnitude (a.u.)       :      0.36085
Magnitude (Debye)      :      0.91721

Rotational constants in cm-1:     0.010446     0.008086     0.007621
Rotational constants in MHz :   313.167313   242.402022   228.476923

                             ****ORCA TERMINATED NORMALLY****
TOTAL RUN TIME: 0 days 0 hours 20 minutes 55 seconds 83 msec
