                         Program Version 5.0.3 -  RELEASE  -
|  1> ! EnGrad PBEh-3c
|  2> %output
|  3> xyzfile=True
|  4> end
|  5> %scf
|  6> maxiter 250
|  7> end
|  8> %output
|  9> Print[P_Hirshfeld] = 1
| 10> end
| 11> % maxcore
| 12> 4000
| 13> *xyz 1 1
| 14> Ir   0.57418342  -0.75667228   0.55744654
| 15> C    0.02131308  -2.89324735   1.13973518
| 16> C    0.18697242  -2.15697996   2.33155402
| 17> C    2.16788388  -2.07506575   1.14749743
| 18> C    1.20230297  -2.81953267   0.37396484
| 19> C    1.55143095  -1.70951232   2.34777719
| 20> N   -1.09887159  -0.12439385  -0.50903511
| 21> C   -2.49667437  -0.12915599   0.02715017
| 22> C   -2.81200538   1.13867861   0.80169974
| 23> H   -3.83665318   1.09887967   1.17023490
| 24> H   -2.71976853   2.01649202   0.16231072
| 25> H   -2.17865063   1.23825035   1.67189328
| 26> C   -3.55292057  -0.39196511  -1.03403578
| 27> H   -2.52391933  -0.96007792   0.72342301
| 28> H   -4.51141061  -0.55164796  -0.53569310
| 29> H   -3.70157123   0.45081751  -1.70693874
| 30> H   -3.33872411  -1.28727362  -1.61055793
| 31> C   -0.87387274   0.22827886  -1.72336518
| 32> C    0.44357688   0.18230405  -2.28785688
| 33> H   -1.68871588   0.52181650  -2.36364738
| 34> C    1.54495044  -0.13302219  -1.49413622
| 35> C    2.70337999  -0.19743252  -2.39445582
| 36> S    0.75807402   0.33008910  -3.97941260
| 37> C    2.41125738   0.03769335  -3.72242577
| 38> H    2.16608120   1.30963151  -0.67617882
| 39> H    3.72944519  -0.36595004  -2.08586556
| 40> H    3.09980077   0.00427549  -4.56184004
| 41> H   -0.77492773  -3.58525681   0.94140205
| 42> H   -0.49561407  -2.11026096   3.17176906
| 43> H    2.03527571  -1.26676880   3.19841843
| 44> O    2.09013938   2.08223877   0.17056109
| 45> O    0.39430316   1.17957584   1.41157013
| 46> C    1.15090717   2.12398947   1.08368005
| 47> C    0.96079307   3.47431060   1.82894784
| 48> H    0.89395921   4.29182450   1.11067075
| 49> H    1.83628099   3.67432583   2.45168183
| 50> H    0.07607893   3.48195961   2.47252111
| 51> H    3.20410007  -1.95437702   0.90645263
| 52> H    1.40064695  -3.39787168  -0.51522341
| 53> *
| 54>
| 55>                          ****END OF INPUT****

CARTESIAN COORDINATES (ANGSTROEM)
---------------------------------
  Ir     0.574183   -0.756672    0.557447
  C      0.021313   -2.893247    1.139735
  C      0.186972   -2.156980    2.331554
  C      2.167884   -2.075066    1.147497
  C      1.202303   -2.819533    0.373965
  C      1.551431   -1.709512    2.347777
  N     -1.098872   -0.124394   -0.509035
  C     -2.496674   -0.129156    0.027150
  C     -2.812005    1.138679    0.801700
  H     -3.836653    1.098880    1.170235
  H     -2.719769    2.016492    0.162311
  H     -2.178651    1.238250    1.671893
  C     -3.552921   -0.391965   -1.034036
  H     -2.523919   -0.960078    0.723423
  H     -4.511411   -0.551648   -0.535693
  H     -3.701571    0.450818   -1.706939
  H     -3.338724   -1.287274   -1.610558
  C     -0.873873    0.228279   -1.723365
  C      0.443577    0.182304   -2.287857
  H     -1.688716    0.521817   -2.363647
  C      1.544950   -0.133022   -1.494136
  C      2.703380   -0.197433   -2.394456
  S      0.758074    0.330089   -3.979413
  C      2.411257    0.037693   -3.722426
  H      2.166081    1.309632   -0.676179
  H      3.729445   -0.365950   -2.085866
  H      3.099801    0.004275   -4.561840
  H     -0.774928   -3.585257    0.941402
  H     -0.495614   -2.110261    3.171769
  H      2.035276   -1.266769    3.198418
  O      2.090139    2.082239    0.170561
  O      0.394303    1.179576    1.411570
  C      1.150907    2.123989    1.083680
  C      0.960793    3.474311    1.828948
  H      0.893959    4.291824    1.110671
  H      1.836281    3.674326    2.451682
  H      0.076079    3.481960    2.472521
  H      3.204100   -1.954377    0.906453
  H      1.400647   -3.397872   -0.515223

 Total Charge           Charge          ....    1
 Multiplicity           Mult            ....    1
 Number of Electrons    NEL             ....  164
 Basis Dimension        Dim             ....  358

ORBITAL ENERGIES
----------------

  NO   OCC          E(Eh)            E(eV)
   0   2.0000     -89.745656     -2442.1034
   1   2.0000     -19.666478      -535.1521
   2   2.0000     -19.662366      -535.0402
   3   2.0000     -14.819862      -403.2690
   4   2.0000     -10.737039      -292.1697
   5   2.0000     -10.640476      -289.5421
   6   2.0000     -10.622871      -289.0630
   7   2.0000     -10.618849      -288.9536
   8   2.0000     -10.610603      -288.7292
   9   2.0000     -10.608110      -288.6613
  10   2.0000     -10.607366      -288.6411
  11   2.0000     -10.606330      -288.6129
  12   2.0000     -10.603014      -288.5227
  13   2.0000     -10.601993      -288.4949
  14   2.0000     -10.593500      -288.2638
  15   2.0000     -10.582599      -287.9672
  16   2.0000     -10.566884      -287.5395
  17   2.0000     -10.544210      -286.9225
  18   2.0000     -10.537580      -286.7421
  19   2.0000      -8.385055      -228.1690
  20   2.0000      -6.274959      -170.7503
  21   2.0000      -6.271577      -170.6583
  22   2.0000      -6.269887      -170.6123
  23   2.0000      -4.010957      -109.1437
  24   2.0000      -2.326335       -63.3028
  25   2.0000      -2.297300       -62.5127
  26   2.0000      -2.292313       -62.3770
  27   2.0000      -1.341162       -36.4949
  28   2.0000      -1.255596       -34.1665
  29   2.0000      -1.186451       -32.2850
  30   2.0000      -1.154796       -31.4236
  31   2.0000      -1.104374       -30.0515
  32   2.0000      -1.010202       -27.4890
  33   2.0000      -0.967791       -26.3349
  34   2.0000      -0.957014       -26.0417
  35   2.0000      -0.951191       -25.8832
  36   2.0000      -0.948361       -25.8062
  37   2.0000      -0.939580       -25.5673
  38   2.0000      -0.890391       -24.2288
  39   2.0000      -0.853969       -23.2377
  40   2.0000      -0.807861       -21.9830
  41   2.0000      -0.784604       -21.3502
  42   2.0000      -0.771219       -20.9859
  43   2.0000      -0.770465       -20.9654
  44   2.0000      -0.763472       -20.7751
  45   2.0000      -0.755621       -20.5615
  46   2.0000      -0.741898       -20.1881
  47   2.0000      -0.716964       -19.5096
  48   2.0000      -0.684768       -18.6335
  49   2.0000      -0.675274       -18.3751
  50   2.0000      -0.669300       -18.2126
  51   2.0000      -0.659318       -17.9409
  52   2.0000      -0.647201       -17.6112
  53   2.0000      -0.632686       -17.2163
  54   2.0000      -0.627391       -17.0722
  55   2.0000      -0.620171       -16.8757
  56   2.0000      -0.612495       -16.6668
  57   2.0000      -0.593511       -16.1503
  58   2.0000      -0.592768       -16.1300
  59   2.0000      -0.590920       -16.0798
  60   2.0000      -0.585382       -15.9290
  61   2.0000      -0.584693       -15.9103
  62   2.0000      -0.575043       -15.6477
  63   2.0000      -0.567127       -15.4323
  64   2.0000      -0.562538       -15.3075
  65   2.0000      -0.554399       -15.0860
  66   2.0000      -0.547687       -14.9033
  67   2.0000      -0.535630       -14.5752
  68   2.0000      -0.533356       -14.5133
  69   2.0000      -0.527778       -14.3616
  70   2.0000      -0.523752       -14.2520
  71   2.0000      -0.522301       -14.2125
  72   2.0000      -0.508057       -13.8249
  73   2.0000      -0.499783       -13.5998
  74   2.0000      -0.488598       -13.2954
  75   2.0000      -0.475071       -12.9273
  76   2.0000      -0.466902       -12.7050
  77   2.0000      -0.445185       -12.1141
  78   2.0000      -0.438180       -11.9235
  79   2.0000      -0.409601       -11.1458
  80   2.0000      -0.406413       -11.0591
  81   2.0000      -0.388128       -10.5615
  82   0.0000      -0.182039        -4.9535
  83   0.0000      -0.158376        -4.3096
  84   0.0000      -0.144743        -3.9386
  85   0.0000      -0.102464        -2.7882
  86   0.0000      -0.075647        -2.0585

MULLIKEN ATOMIC CHARGES
-----------------------
   0 Ir:    0.594850
   1 C :   -0.196018
   2 C :   -0.270743
   3 C :   -0.246748
   4 C :   -0.278412
   5 C :   -0.170713
   6 N :   -0.473857
   7 C :   -0.105091
   8 C :   -0.634938
   9 H :    0.246891
  10 H :    0.223568
  11 H :    0.260902
  12 C :   -0.688738
  13 H :    0.250573
  14 H :    0.266106
  15 H :    0.228960
  16 H :    0.249630
  17 C :    0.091224
  18 C :   -0.167370
  19 H :    0.271721
  20 C :   -0.373032
  21 C :   -0.219374
  22 S :    0.316122
  23 C :   -0.393769
  24 H :    0.515108
  25 H :    0.258679
  26 H :    0.295756
  27 H :    0.279575
  28 H :    0.277872
  29 H :    0.281335
  30 O :   -0.565933
  31 O :   -0.449384
  32 C :    0.664467
  33 C :   -0.731988
  34 H :    0.278502
  35 H :    0.281285
  36 H :    0.273872
  37 H :    0.278596
  38 H :    0.280515
Sum of atomic charges:    1.0000000

LOEWDIN ATOMIC CHARGES
----------------------
   0 Ir:   -0.261874
   1 C :   -0.026082
   2 C :   -0.099961
   3 C :   -0.076287
   4 C :   -0.077441
   5 C :   -0.030918
   6 N :   -0.029325
   7 C :   -0.058057
   8 C :   -0.351108
   9 H :    0.145441
  10 H :    0.135410
  11 H :    0.146443
  12 C :   -0.364465
  13 H :    0.140742
  14 H :    0.154492
  15 H :    0.134008
  16 H :    0.140766
  17 C :    0.031441
  18 C :   -0.233340
  19 H :    0.151794
  20 C :   -0.180996
  21 C :   -0.174972
  22 S :    0.460637
  23 C :   -0.262460
  24 H :    0.398896
  25 H :    0.153773
  26 H :    0.169632
  27 H :    0.179233
  28 H :    0.178487
  29 H :    0.180240
  30 O :   -0.270740
  31 O :   -0.131669
  32 C :    0.232164
  33 C :   -0.367810
  34 H :    0.168461
  35 H :    0.172386
  36 H :    0.161431
  37 H :    0.180126
  38 H :    0.181501

  Mayer bond orders larger than 0.100000
B(  0-Ir,  1-C ) :   0.3506 B(  0-Ir,  2-C ) :   0.3876 B(  0-Ir,  3-C ) :   0.4422
B(  0-Ir,  4-C ) :   0.4832 B(  0-Ir,  5-C ) :   0.3933 B(  0-Ir,  6-N ) :   0.5023
B(  0-Ir, 20-C ) :   0.5477 B(  0-Ir, 31-O ) :   0.4533 B(  1-C ,  2-C ) :   1.2264
B(  1-C ,  4-C ) :   1.2123 B(  1-C , 27-H ) :   0.9189 B(  2-C ,  5-C ) :   1.1543
B(  2-C , 28-H ) :   0.9164 B(  3-C ,  4-C ) :   1.1114 B(  3-C ,  5-C ) :   1.2334
B(  3-C , 37-H ) :   0.9169 B(  4-C , 38-H ) :   0.9181 B(  5-C , 29-H ) :   0.9147
B(  6-N ,  7-C ) :   0.8892 B(  6-N , 17-C ) :   1.6124 B(  7-C ,  8-C ) :   0.9814
B(  7-C , 12-C ) :   0.9934 B(  7-C , 13-H ) :   0.8918 B(  8-C ,  9-H ) :   0.9073
B(  8-C , 10-H ) :   0.9193 B(  8-C , 11-H ) :   0.9050 B( 12-C , 14-H ) :   0.9049
B( 12-C , 15-H ) :   0.9120 B( 12-C , 16-H ) :   0.9138 B( 17-C , 18-C ) :   1.1297
B( 17-C , 19-H ) :   0.8793 B( 18-C , 20-C ) :   1.3064 B( 18-C , 22-S ) :   1.1691
B( 20-C , 21-C ) :   1.3122 B( 20-C , 24-H ) :   0.1310 B( 21-C , 23-C ) :   1.5153
B( 21-C , 25-H ) :   0.9035 B( 22-S , 23-C ) :   1.2468 B( 23-C , 26-H ) :   0.8889
B( 24-H , 30-O ) :   0.5166 B( 30-O , 32-C ) :   1.3090 B( 31-O , 32-C ) :   1.5380
B( 32-C , 33-C ) :   0.9422 B( 33-C , 34-H ) :   0.8930 B( 33-C , 35-H ) :   0.8896
B( 33-C , 36-H ) :   0.9030

Dispersion correction           -0.029511397
FINAL SINGLE POINT ENERGY     -1288.372588004493
Dispersion correction            ... done

DIPOLE MOMENT
-------------
                                X             Y             Z
Electronic contribution:     34.30789     -74.76232      84.52829
Nuclear contribution   :    -34.64337      74.68072     -84.24110
                        -----------------------------------------
Total Dipole Moment    :     -0.33548      -0.08159       0.28719
                        -----------------------------------------
Magnitude (a.u.)       :      0.44909
Magnitude (Debye)      :      1.14150

Rotational constants in cm-1:     0.010455     0.008107     0.007631
Rotational constants in MHz :   313.433709   243.039522   228.759767

                             ****ORCA TERMINATED NORMALLY****
TOTAL RUN TIME: 0 days 0 hours 21 minutes 12 seconds 570 msec
